VARIABLES  = "X","Y","Z", "DISPLACEMENT_X1", "DISPLACEMENT_Y1", "STRESS_XX", "STRESS_XY", "STRESS_YY", "STRESS_ZZ", "STRESS_YZ", "STRESS_XZ", "STRAIN_XX", "STRAIN_XY", "STRAIN_YY", "STRAIN_ZZ", "STRAIN_PLS"
ZONE T="0.000000000000e+00s", N=8, E=1, F=FEPOINT, ET=BRICK
STRANDID=1, SOLUTIONTIME=0.000000000000e+00
0.000000000000e+00 0.000000000000e+00 0.000000000000e+00 0.000000000000e+00 0.000000000000e+00 0.000000000000e+00 0.000000000000e+00 0.000000000000e+00 0.000000000000e+00 0.000000000000e+00 0.000000000000e+00 0.000000000000e+00 0.000000000000e+00 0.000000000000e+00 0.000000000000e+00 0.000000000000e+00 
1.000000000000e+00 0.000000000000e+00 0.000000000000e+00 0.000000000000e+00 0.000000000000e+00 0.000000000000e+00 0.000000000000e+00 0.000000000000e+00 0.000000000000e+00 0.000000000000e+00 0.000000000000e+00 0.000000000000e+00 0.000000000000e+00 0.000000000000e+00 0.000000000000e+00 0.000000000000e+00 
1.000000000000e+00 1.000000000000e+00 0.000000000000e+00 0.000000000000e+00 0.000000000000e+00 0.000000000000e+00 0.000000000000e+00 0.000000000000e+00 0.000000000000e+00 0.000000000000e+00 0.000000000000e+00 0.000000000000e+00 0.000000000000e+00 0.000000000000e+00 0.000000000000e+00 0.000000000000e+00 
0.000000000000e+00 1.000000000000e+00 0.000000000000e+00 0.000000000000e+00 0.000000000000e+00 0.000000000000e+00 0.000000000000e+00 0.000000000000e+00 0.000000000000e+00 0.000000000000e+00 0.000000000000e+00 0.000000000000e+00 0.000000000000e+00 0.000000000000e+00 0.000000000000e+00 0.000000000000e+00 
0.000000000000e+00 0.000000000000e+00 1.000000000000e+00 0.000000000000e+00 0.000000000000e+00 0.000000000000e+00 0.000000000000e+00 0.000000000000e+00 0.000000000000e+00 0.000000000000e+00 0.000000000000e+00 0.000000000000e+00 0.000000000000e+00 0.000000000000e+00 0.000000000000e+00 0.000000000000e+00 
1.000000000000e+00 0.000000000000e+00 1.000000000000e+00 0.000000000000e+00 0.000000000000e+00 0.000000000000e+00 0.000000000000e+00 0.000000000000e+00 0.000000000000e+00 0.000000000000e+00 0.000000000000e+00 0.000000000000e+00 0.000000000000e+00 0.000000000000e+00 0.000000000000e+00 0.000000000000e+00 
1.000000000000e+00 1.000000000000e+00 1.000000000000e+00 0.000000000000e+00 0.000000000000e+00 0.000000000000e+00 0.000000000000e+00 0.000000000000e+00 0.000000000000e+00 0.000000000000e+00 0.000000000000e+00 0.000000000000e+00 0.000000000000e+00 0.000000000000e+00 0.000000000000e+00 0.000000000000e+00 
0.000000000000e+00 1.000000000000e+00 1.000000000000e+00 0.000000000000e+00 0.000000000000e+00 0.000000000000e+00 0.000000000000e+00 0.000000000000e+00 0.000000000000e+00 0.000000000000e+00 0.000000000000e+00 0.000000000000e+00 0.000000000000e+00 0.000000000000e+00 0.000000000000e+00 0.000000000000e+00 
5  6  7  8  1  2  3  4  
VARIABLES  = "X","Y","Z", "DISPLACEMENT_X1", "DISPLACEMENT_Y1", "STRESS_XX", "STRESS_XY", "STRESS_YY", "STRESS_ZZ", "STRESS_YZ", "STRESS_XZ", "STRAIN_XX", "STRAIN_XY", "STRAIN_YY", "STRAIN_ZZ", "STRAIN_PLS"
ZONE T="5.000000000000e+01s", N=8, E=1, F=FEPOINT, ET=BRICK
STRANDID=1, SOLUTIONTIME=5.000000000000e+01
0.000000000000e+00 0.000000000000e+00 0.000000000000e+00 0.000000000000e+00 0.000000000000e+00 -3.333333333333e+04 -1.054886082236e-11 -2.333333333333e+05 -3.333333333333e+04 -5.728815512806e-12 -5.580918180643e-12 -4.251752098416e-20 -5.274430411179e-20 -5.000000000000e-04 3.381996865340e-20 0.000000000000e+00 
1.000000000000e+00 0.000000000000e+00 0.000000000000e+00 0.000000000000e+00 0.000000000000e+00 -3.333333333333e+04 -8.555835425965e-12 -2.333333333333e+05 -3.333333333333e+04 -8.977903318988e-12 -5.580918180643e-12 4.251752098416e-20 -4.277917712982e-20 -5.000000000000e-04 -1.732314119388e-19 0.000000000000e+00 
1.000000000000e+00 1.000000000000e+00 0.000000000000e+00 0.000000000000e+00 -5.000000000000e-04 -3.333333333333e+04 3.261998708753e-11 -2.333333333333e+05 -3.333333333333e+04 4.224238740965e-11 2.879349966032e-12 -1.004344833610e-19 1.630999354377e-19 -5.000000000000e-04 2.391868142971e-19 0.000000000000e+00 
0.000000000000e+00 1.000000000000e+00 0.000000000000e+00 0.000000000000e+00 -5.000000000000e-04 -3.333333333333e+04 -1.148384204036e-10 -2.333333333333e+05 -3.333333333333e+04 -6.759235183825e-11 2.879349966032e-12 1.004344833610e-19 -5.741921020181e-19 -5.000000000000e-04 6.356548636946e-21 0.000000000000e+00 
0.000000000000e+00 0.000000000000e+00 1.000000000000e+00 0.000000000000e+00 0.000000000000e+00 -3.333333333333e+04 -1.330763589014e-11 -2.333333333333e+05 -3.333333333333e+04 -6.892879077570e-12 -5.580918180643e-12 -1.145120494242e-19 -6.653817945068e-20 -5.000000000000e-04 -3.381996865340e-20 0.000000000000e+00 
1.000000000000e+00 0.000000000000e+00 1.000000000000e+00 0.000000000000e+00 0.000000000000e+00 -3.333333333333e+04 -1.379764985274e-11 -2.333333333333e+05 -3.333333333333e+04 -9.608480262010e-13 -5.580918180643e-12 1.145120494242e-19 -6.898824926371e-20 -5.000000000000e-04 1.732314119388e-19 0.000000000000e+00 
1.000000000000e+00 1.000000000000e+00 1.000000000000e+00 0.000000000000e+00 -5.000000000000e-04 -3.333333333333e+04 3.885534970624e-12 -2.333333333333e+05 -3.333333333333e+04 5.011334194893e-11 2.879349966032e-12 -1.157171600247e-20 1.942767485312e-20 -5.000000000000e-04 -2.391868142971e-19 0.000000000000e+00 
0.000000000000e+00 1.000000000000e+00 1.000000000000e+00 0.000000000000e+00 -5.000000000000e-04 -3.333333333333e+04 -9.297518051825e-11 -2.333333333333e+05 -3.333333333333e+04 2.540452919856e-12 2.879349966032e-12 1.157171600247e-20 -4.648759025913e-19 -5.000000000000e-04 -6.356548636946e-21 0.000000000000e+00 
5  6  7  8  1  2  3  4  
VARIABLES  = "X","Y","Z", "DISPLACEMENT_X1", "DISPLACEMENT_Y1", "STRESS_XX", "STRESS_XY", "STRESS_YY", "STRESS_ZZ", "STRESS_YZ", "STRESS_XZ", "STRAIN_XX", "STRAIN_XY", "STRAIN_YY", "STRAIN_ZZ", "STRAIN_PLS"
ZONE T="1.000000000000e+02s", N=8, E=1, F=FEPOINT, ET=BRICK
STRANDID=1, SOLUTIONTIME=1.000000000000e+02
0.000000000000e+00 0.000000000000e+00 0.000000000000e+00 0.000000000000e+00 0.000000000000e+00 -6.666666666667e+04 -1.082585470242e-11 -4.666666666667e+05 -6.666666666667e+04 2.572753292194e-12 -5.982683699839e-12 3.542855109052e-20 -5.412927351210e-20 -1.000000000000e-03 3.848118398981e-20 0.000000000000e+00 
1.000000000000e+00 0.000000000000e+00 0.000000000000e+00 0.000000000000e+00 0.000000000000e+00 -6.666666666667e+04 -2.376224235120e-11 -4.666666666667e+05 -6.666666666667e+04 -4.739075507261e-12 -5.982683699839e-12 -3.542855109052e-20 -1.188112117560e-19 -1.000000000000e-03 -9.946342377619e-20 0.000000000000e+00 
1.000000000000e+00 1.000000000000e+00 0.000000000000e+00 0.000000000000e+00 -1.000000000000e-03 -6.666666666667e+04 6.482420141544e-11 -4.666666666667e+05 -6.666666666667e+04 7.052117941738e-11 1.380135467155e-12 -6.492771937436e-20 3.241210070772e-19 -1.000000000000e-03 1.176683789180e-19 0.000000000000e+00 
0.000000000000e+00 1.000000000000e+00 0.000000000000e+00 0.000000000000e+00 -1.000000000000e-03 -6.666666666667e+04 -9.686253753923e-11 -4.666666666667e+05 -6.666666666667e+04 2.285098947790e-11 1.380135467155e-12 6.492771937436e-20 -4.843126876961e-19 -1.000000000000e-03 -1.105472198045e-20 0.000000000000e+00 
0.000000000000e+00 0.000000000000e+00 1.000000000000e+00 0.000000000000e+00 0.000000000000e+00 -6.666666666667e+04 2.712558912305e-12 -4.666666666667e+05 -6.666666666667e+04 -1.608519534051e-11 -5.982683699839e-12 -1.257610261354e-19 1.356279456153e-20 -1.000000000000e-03 -3.848118398981e-20 0.000000000000e+00 
1.000000000000e+00 0.000000000000e+00 1.000000000000e+00 0.000000000000e+00 0.000000000000e+00 -6.666666666667e+04 -5.007291583890e-12 -4.666666666667e+05 -6.666666666667e+04 4.479940286836e-12 -5.982683699839e-12 1.257610261354e-19 -2.503645791945e-20 -1.000000000000e-03 9.946342377619e-20 0.000000000000e+00 
1.000000000000e+00 1.000000000000e+00 1.000000000000e+00 0.000000000000e+00 -1.000000000000e-03 -6.666666666667e+04 -2.952547906249e-12 -4.666666666667e+05 -6.666666666667e+04 6.993326699277e-11 1.380135467155e-12 -5.211391833684e-21 -1.476273953125e-20 -1.000000000000e-03 -1.176683789180e-19 0.000000000000e+00 
0.000000000000e+00 1.000000000000e+00 1.000000000000e+00 0.000000000000e+00 -1.000000000000e-03 -6.666666666667e+04 -1.436114680263e-10 -4.666666666667e+05 -6.666666666667e+04 -2.593093285835e-10 1.380135467155e-12 5.211391833684e-21 -7.180573401313e-19 -1.000000000000e-03 1.105472198045e-20 0.000000000000e+00 
5  6  7  8  1  2  3  4  
VARIABLES  = "X","Y","Z", "DISPLACEMENT_X1", "DISPLACEMENT_Y1", "STRESS_XX", "STRESS_XY", "STRESS_YY", "STRESS_ZZ", "STRESS_YZ", "STRESS_XZ", "STRAIN_XX", "STRAIN_XY", "STRAIN_YY", "STRAIN_ZZ", "STRAIN_PLS"
ZONE T="1.500000000000e+02s", N=8, E=1, F=FEPOINT, ET=BRICK
STRANDID=1, SOLUTIONTIME=1.500000000000e+02
0.000000000000e+00 0.000000000000e+00 0.000000000000e+00 0.000000000000e+00 0.000000000000e+00 -1.000000000000e+05 4.782476544365e-12 -7.000000000000e+05 -1.000000000000e+05 1.210540600859e-11 -1.194284346383e-11 1.375110661762e-19 2.391238272182e-20 -1.500000000000e-03 4.597520662763e-20 0.000000000000e+00 
1.000000000000e+00 0.000000000000e+00 0.000000000000e+00 0.000000000000e+00 0.000000000000e+00 -1.000000000000e+05 -1.284660637052e-11 -7.000000000000e+05 -1.000000000000e+05 -2.367219596967e-11 -1.194284346383e-11 -1.375110661762e-19 -6.423303185260e-20 -1.500000000000e-03 -1.861393384117e-19 0.000000000000e+00 
1.000000000000e+00 1.000000000000e+00 0.000000000000e+00 0.000000000000e+00 -1.500000000000e-03 -1.000000000000e+05 1.008218845239e-10 -7.000000000000e+05 -1.000000000000e+05 1.140280451964e-10 5.612911706824e-12 1.261871013477e-20 5.041094226194e-19 -1.500000000000e-03 2.082061739847e-19 0.000000000000e+00 
0.000000000000e+00 1.000000000000e+00 0.000000000000e+00 0.000000000000e+00 -1.500000000000e-03 -1.000000000000e+05 -1.999916776564e-10 -7.000000000000e+05 -1.000000000000e+05 -4.667982298678e-11 5.612911706824e-12 -1.261871013477e-20 -9.999583882821e-19 -1.500000000000e-03 1.356027474814e-20 0.000000000000e+00 
0.000000000000e+00 0.000000000000e+00 1.000000000000e+00 0.000000000000e+00 0.000000000000e+00 -1.000000000000e+05 -2.114311737179e-12 -7.000000000000e+05 -1.000000000000e+05 -8.883022010535e-12 -1.194284346383e-11 -2.275165619759e-19 -1.057155868590e-20 -1.500000000000e-03 -4.597520662763e-20 0.000000000000e+00 
1.000000000000e+00 0.000000000000e+00 1.000000000000e+00 0.000000000000e+00 0.000000000000e+00 -1.000000000000e+05 -2.882015582854e-11 -7.000000000000e+05 -1.000000000000e+05 2.747047455855e-12 -1.194284346383e-11 2.275165619759e-19 -1.441007791427e-19 -1.500000000000e-03 1.861393384117e-19 0.000000000000e+00 
1.000000000000e+00 1.000000000000e+00 1.000000000000e+00 0.000000000000e+00 -1.500000000000e-03 -1.000000000000e+05 6.456128740419e-11 -7.000000000000e+05 -1.000000000000e+05 1.201446714894e-10 5.612911706824e-12 -7.338097596984e-20 3.228064370209e-19 -1.500000000000e-03 -2.082061739847e-19 0.000000000000e+00 
0.000000000000e+00 1.000000000000e+00 1.000000000000e+00 0.000000000000e+00 -1.500000000000e-03 -1.000000000000e+05 -2.475877904786e-10 -7.000000000000e+05 -1.000000000000e+05 -2.585591820555e-10 5.612911706824e-12 7.338097596984e-20 -1.237938952393e-18 -1.500000000000e-03 -1.356027474814e-20 0.000000000000e+00 
5  6  7  8  1  2  3  4  
VARIABLES  = "X","Y","Z", "DISPLACEMENT_X1", "DISPLACEMENT_Y1", "STRESS_XX", "STRESS_XY", "STRESS_YY", "STRESS_ZZ", "STRESS_YZ", "STRESS_XZ", "STRAIN_XX", "STRAIN_XY", "STRAIN_YY", "STRAIN_ZZ", "STRAIN_PLS"
ZONE T="2.000000000000e+02s", N=8, E=1, F=FEPOINT, ET=BRICK
STRANDID=1, SOLUTIONTIME=2.000000000000e+02
0.000000000000e+00 0.000000000000e+00 0.000000000000e+00 0.000000000000e+00 0.000000000000e+00 -1.333333333333e+05 -1.168665404491e-11 -9.333333333333e+05 -1.333333333333e+05 5.750579099446e-12 -1.230400918978e-12 7.784755295862e-20 -5.843327022455e-20 -2.000000000000e-03 -2.699252499382e-20 0.000000000000e+00 
1.000000000000e+00 0.000000000000e+00 0.000000000000e+00 0.000000000000e+00 0.000000000000e+00 -1.333333333333e+05 -1.872274713559e-11 -9.333333333333e+05 -1.333333333333e+05 -1.066974736975e-11 -1.230400918978e-12 -7.784755295862e-20 -9.361373567793e-20 -2.000000000000e-03 6.803810275037e-20 0.000000000000e+00 
1.000000000000e+00 1.000000000000e+00 0.000000000000e+00 0.000000000000e+00 -2.000000000000e-03 -1.333333333333e+05 6.109646113771e-11 -9.333333333333e+05 -1.333333333333e+05 2.176126139920e-10 -3.845974643659e-12 -2.599744944992e-20 3.054823056886e-19 -2.000000000000e-03 -5.783663901659e-20 0.000000000000e+00 
0.000000000000e+00 1.000000000000e+00 0.000000000000e+00 0.000000000000e+00 -2.000000000000e-03 -1.333333333333e+05 -3.149506227635e-10 -9.333333333333e+05 -1.333333333333e+05 -1.854381163488e-10 -3.845974643659e-12 2.599744944992e-20 -1.574753113818e-18 -2.000000000000e-03 7.589676146394e-20 0.000000000000e+00 
0.000000000000e+00 0.000000000000e+00 1.000000000000e+00 0.000000000000e+00 0.000000000000e+00 -1.333333333333e+05 2.304214495622e-11 -9.333333333333e+05 -1.333333333333e+05 -3.374999557467e-11 -1.230400918978e-12 -7.870312073447e-20 1.152107247811e-19 -2.000000000000e-03 2.699252499382e-20 0.000000000000e+00 
1.000000000000e+00 0.000000000000e+00 1.000000000000e+00 0.000000000000e+00 0.000000000000e+00 -1.333333333333e+05 4.190550164466e-13 -9.333333333333e+05 -1.333333333333e+05 1.693502870835e-11 -1.230400918978e-12 7.870312073447e-20 2.095275082233e-21 -2.000000000000e-03 -6.803810275037e-20 0.000000000000e+00 
1.000000000000e+00 1.000000000000e+00 1.000000000000e+00 0.000000000000e+00 -2.000000000000e-03 -1.333333333333e+05 1.330947098180e-10 -9.333333333333e+05 -1.333333333333e+05 2.232871298381e-10 -3.845974643659e-12 3.256788225251e-20 6.654735490901e-19 -2.000000000000e-03 5.783663901659e-20 0.000000000000e+00 
0.000000000000e+00 1.000000000000e+00 1.000000000000e+00 0.000000000000e+00 -2.000000000000e-03 -1.333333333333e+05 -2.754800298774e-10 -9.333333333333e+05 -1.333333333333e+05 -2.527010303632e-10 -3.845974643659e-12 -3.256788225251e-20 -1.377400149387e-18 -2.000000000000e-03 -7.589676146394e-20 0.000000000000e+00 
5  6  7  8  1  2  3  4  
VARIABLES  = "X","Y","Z", "DISPLACEMENT_X1", "DISPLACEMENT_Y1", "STRESS_XX", "STRESS_XY", "STRESS_YY", "STRESS_ZZ", "STRESS_YZ", "STRESS_XZ", "STRAIN_XX", "STRAIN_XY", "STRAIN_YY", "STRAIN_ZZ", "STRAIN_PLS"
ZONE T="2.500000000000e+02s", N=8, E=1, F=FEPOINT, ET=BRICK
STRANDID=1, SOLUTIONTIME=2.500000000000e+02
0.000000000000e+00 0.000000000000e+00 0.000000000000e+00 0.000000000000e+00 0.000000000000e+00 -1.666666666667e+05 -7.210391531309e-12 -1.166666666667e+06 -1.666666666667e+05 1.332833906370e-11 -1.380902510621e-12 2.429065831194e-20 -3.605195765655e-20 -2.500000000000e-03 1.970192640089e-19 0.000000000000e+00 
1.000000000000e+00 0.000000000000e+00 0.000000000000e+00 0.000000000000e+00 0.000000000000e+00 -1.666666666667e+05 -5.310223357837e-12 -1.166666666667e+06 -1.666666666667e+05 -6.195273233977e-12 -1.380902510621e-12 -2.429065831194e-20 -2.655111678918e-20 -2.500000000000e-03 7.471497829016e-20 0.000000000000e+00 
1.000000000000e+00 1.000000000000e+00 0.000000000000e+00 0.000000000000e+00 -2.500000000000e-03 -1.666666666667e+05 3.875251529972e-11 -1.166666666667e+06 -1.666666666667e+05 2.581463254318e-10 -6.258877835737e-12 -5.825332124359e-20 1.937625764986e-19 -2.500000000000e-03 -1.223374124749e-19 0.000000000000e+00 
0.000000000000e+00 1.000000000000e+00 0.000000000000e+00 0.000000000000e+00 -2.500000000000e-03 -1.666666666667e+05 -3.945227222041e-10 -1.166666666667e+06 -1.666666666667e+05 -2.547206248776e-10 -6.258877835737e-12 5.825332124359e-20 -1.972613611021e-18 -2.500000000000e-03 -4.262672651409e-20 0.000000000000e+00 
0.000000000000e+00 0.000000000000e+00 1.000000000000e+00 0.000000000000e+00 0.000000000000e+00 -1.666666666667e+05 2.358910961820e-11 -1.166666666667e+06 -1.666666666667e+05 -3.520725371446e-11 -1.380902510621e-12 7.754981849959e-20 1.179455480910e-19 -2.500000000000e-03 -1.970192640089e-19 0.000000000000e+00 
1.000000000000e+00 0.000000000000e+00 1.000000000000e+00 0.000000000000e+00 0.000000000000e+00 -1.666666666667e+05 -8.439085236309e-12 -1.166666666667e+06 -1.666666666667e+05 2.026190507760e-11 -1.380902510621e-12 -7.754981849959e-20 -4.219542618154e-20 -2.500000000000e-03 -7.471497829016e-20 0.000000000000e+00 
1.000000000000e+00 1.000000000000e+00 1.000000000000e+00 0.000000000000e+00 -2.500000000000e-03 -1.666666666667e+05 2.050772880099e-10 -1.166666666667e+06 -1.666666666667e+05 2.728558593820e-10 -6.258877835737e-12 1.749798845825e-19 1.025386440050e-18 -2.500000000000e-03 1.223374124749e-19 0.000000000000e+00 
0.000000000000e+00 1.000000000000e+00 1.000000000000e+00 0.000000000000e+00 -2.500000000000e-03 -1.666666666667e+05 -3.750640388225e-10 -1.166666666667e+06 -1.666666666667e+05 -2.508509918261e-10 -6.258877835737e-12 -1.749798845825e-19 -1.875320194112e-18 -2.500000000000e-03 4.262672651409e-20 0.000000000000e+00 
5  6  7  8  1  2  3  4  
VARIABLES  = "X","Y","Z", "DISPLACEMENT_X1", "DISPLACEMENT_Y1", "STRESS_XX", "STRESS_XY", "STRESS_YY", "STRESS_ZZ", "STRESS_YZ", "STRESS_XZ", "STRAIN_XX", "STRAIN_XY", "STRAIN_YY", "STRAIN_ZZ", "STRAIN_PLS"
ZONE T="3.000000000000e+02s", N=8, E=1, F=FEPOINT, ET=BRICK
STRANDID=1, SOLUTIONTIME=3.000000000000e+02
0.000000000000e+00 0.000000000000e+00 0.000000000000e+00 0.000000000000e+00 0.000000000000e+00 -2.000000000000e+05 -2.203862813463e-11 -1.400000000000e+06 -2.000000000000e+05 2.324314666174e-12 -8.709484416725e-13 9.693013613378e-20 -1.101931406731e-19 -3.000000000000e-03 6.371201164754e-20 0.000000000000e+00 
1.000000000000e+00 0.000000000000e+00 0.000000000000e+00 0.000000000000e+00 0.000000000000e+00 -2.000000000000e+05 -2.127664870013e-11 -1.400000000000e+06 -2.000000000000e+05 1.745277321963e-11 -8.709484416725e-13 -9.693013613378e-20 -1.063832435006e-19 -3.000000000000e-03 1.758473482178e-19 0.000000000000e+00 
1.000000000000e+00 1.000000000000e+00 0.000000000000e+00 0.000000000000e+00 -3.000000000000e-03 -2.000000000000e+05 7.116617295452e-11 -1.400000000000e+06 -2.000000000000e+05 3.442323046457e-10 -6.408098211789e-12 -2.772476099369e-20 3.558308647726e-19 -3.000000000000e-03 -2.123558912021e-19 0.000000000000e+00 
0.000000000000e+00 1.000000000000e+00 0.000000000000e+00 0.000000000000e+00 -3.000000000000e-03 -2.000000000000e+05 -4.376850435499e-10 -1.400000000000e+06 -2.000000000000e+05 -2.726534728257e-10 -6.408098211789e-12 2.772476099369e-20 -2.188425217749e-18 -3.000000000000e-03 2.198950797643e-20 0.000000000000e+00 
0.000000000000e+00 0.000000000000e+00 1.000000000000e+00 0.000000000000e+00 0.000000000000e+00 -2.000000000000e+05 3.996454972525e-11 -1.400000000000e+06 -2.000000000000e+05 -3.354061959283e-11 -8.709484416725e-13 -5.875262252008e-20 1.998227486262e-19 -3.000000000000e-03 -6.371201164754e-20 0.000000000000e+00 
1.000000000000e+00 0.000000000000e+00 1.000000000000e+00 0.000000000000e+00 0.000000000000e+00 -2.000000000000e+05 -2.320338117139e-12 -1.400000000000e+06 -2.000000000000e+05 1.413901732371e-11 -8.709484416725e-13 5.875262252008e-20 -1.160169058570e-20 -3.000000000000e-03 -1.758473482178e-19 0.000000000000e+00 
1.000000000000e+00 1.000000000000e+00 1.000000000000e+00 0.000000000000e+00 -3.000000000000e-03 -2.000000000000e+05 2.065788729098e-10 -1.400000000000e+06 -2.000000000000e+05 3.174023884908e-10 -6.408098211789e-12 5.833475041722e-20 1.032894364549e-18 -3.000000000000e-03 2.123558912021e-19 0.000000000000e+00 
0.000000000000e+00 1.000000000000e+00 1.000000000000e+00 0.000000000000e+00 -3.000000000000e-03 -2.000000000000e+05 -4.808444824322e-10 -1.400000000000e+06 -2.000000000000e+05 -1.935226885222e-10 -6.408098211789e-12 -5.833475041722e-20 -2.404222412161e-18 -3.000000000000e-03 -2.198950797643e-20 0.000000000000e+00 
5  6  7  8  1  2  3  4  
VARIABLES  = "X","Y","Z", "DISPLACEMENT_X1", "DISPLACEMENT_Y1", "STRESS_XX", "STRESS_XY", "STRESS_YY", "STRESS_ZZ", "STRESS_YZ", "STRESS_XZ", "STRAIN_XX", "STRAIN_XY", "STRAIN_YY", "STRAIN_ZZ", "STRAIN_PLS"
ZONE T="3.500000000000e+02s", N=8, E=1, F=FEPOINT, ET=BRICK
STRANDID=1, SOLUTIONTIME=3.500000000000e+02
0.000000000000e+00 0.000000000000e+00 0.000000000000e+00 0.000000000000e+00 0.000000000000e+00 -2.333333333333e+05 -2.191764056964e-11 -1.633333333333e+06 -2.333333333333e+05 1.093703344646e-11 3.381567030745e-12 -5.071060028170e-20 -1.095882028482e-19 -3.500000000000e-03 2.175509272498e-19 0.000000000000e+00 
1.000000000000e+00 0.000000000000e+00 0.000000000000e+00 0.000000000000e+00 0.000000000000e+00 -2.333333333333e+05 -1.768344564966e-11 -1.633333333333e+06 -2.333333333333e+05 2.179579034979e-11 3.381567030745e-12 5.071060028170e-20 -8.841722824831e-20 -3.500000000000e-03 3.046552787330e-19 0.000000000000e+00 
1.000000000000e+00 1.000000000000e+00 0.000000000000e+00 0.000000000000e+00 -3.500000000000e-03 -2.333333333333e+05 4.484880026306e-11 -1.633333333333e+06 -2.333333333333e+05 3.847827133145e-10 -9.266400266807e-12 -1.600345145101e-19 2.242440013153e-19 -3.500000000000e-03 -3.062551803226e-19 0.000000000000e+00 
0.000000000000e+00 1.000000000000e+00 0.000000000000e+00 0.000000000000e+00 -3.500000000000e-03 -2.333333333333e+05 -5.298120149924e-10 -1.633333333333e+06 -2.333333333333e+05 -3.420674383601e-10 -9.266400266807e-12 1.600345145101e-19 -2.649060074962e-18 -3.500000000000e-03 -9.570663929746e-20 0.000000000000e+00 
0.000000000000e+00 0.000000000000e+00 1.000000000000e+00 0.000000000000e+00 0.000000000000e+00 -2.333333333333e+05 3.872511719937e-11 -1.633333333333e+06 -2.333333333333e+05 -4.314609125524e-11 3.381567030745e-12 3.126339977230e-20 1.936255859968e-19 -3.500000000000e-03 -2.175509272498e-19 0.000000000000e+00 
1.000000000000e+00 0.000000000000e+00 1.000000000000e+00 0.000000000000e+00 0.000000000000e+00 -2.333333333333e+05 -1.454782577632e-11 -1.633333333333e+06 -2.333333333333e+05 1.850085250899e-11 3.381567030745e-12 -3.126339977230e-20 -7.273912888159e-20 -3.500000000000e-03 -3.046552787330e-19 0.000000000000e+00 
1.000000000000e+00 1.000000000000e+00 1.000000000000e+00 0.000000000000e+00 -3.500000000000e-03 -2.333333333333e+05 2.737687702199e-10 -1.633333333333e+06 -2.333333333333e+05 3.668396610290e-10 -9.266400266807e-12 9.273695780508e-20 1.368843851100e-18 -3.500000000000e-03 3.062551803226e-19 0.000000000000e+00 
0.000000000000e+00 1.000000000000e+00 1.000000000000e+00 0.000000000000e+00 -3.500000000000e-03 -2.333333333333e+05 -5.933096536364e-10 -1.633333333333e+06 -2.333333333333e+05 -1.906376911691e-10 -9.266400266807e-12 -9.273695780508e-20 -2.966548268182e-18 -3.500000000000e-03 9.570663929746e-20 0.000000000000e+00 
5  6  7  8  1  2  3  4  
VARIABLES  = "X","Y","Z", "DISPLACEMENT_X1", "DISPLACEMENT_Y1", "STRESS_XX", "STRESS_XY", "STRESS_YY", "STRESS_ZZ", "STRESS_YZ", "STRESS_XZ", "STRAIN_XX", "STRAIN_XY", "STRAIN_YY", "STRAIN_ZZ", "STRAIN_PLS"
ZONE T="4.000000000000e+02s", N=8, E=1, F=FEPOINT, ET=BRICK
STRANDID=1, SOLUTIONTIME=4.000000000000e+02
0.000000000000e+00 0.000000000000e+00 0.000000000000e+00 0.000000000000e+00 0.000000000000e+00 -2.666666666667e+05 2.293272465120e-12 -1.866666666667e+06 -2.666666666667e+05 1.851270625709e-11 -9.076447697135e-12 3.987801405968e-20 1.146636232560e-20 -4.000000000000e-03 4.663924352647e-19 0.000000000000e+00 
1.000000000000e+00 0.000000000000e+00 0.000000000000e+00 0.000000000000e+00 0.000000000000e+00 -2.666666666667e+05 2.124023817513e-12 -1.866666666667e+06 -2.666666666667e+05 1.025318357729e-11 -9.076447697135e-12 -3.987801405968e-20 1.062011908756e-20 -4.000000000000e-03 2.371108538825e-19 0.000000000000e+00 
1.000000000000e+00 1.000000000000e+00 0.000000000000e+00 0.000000000000e+00 -4.000000000000e-03 -2.666666666667e+05 8.760449277348e-11 -1.866666666667e+06 -2.666666666667e+05 4.273508607748e-10 -4.993304045883e-12 -3.314117775470e-19 4.380224638674e-19 -4.000000000000e-03 -1.703416567583e-19 0.000000000000e+00 
0.000000000000e+00 1.000000000000e+00 0.000000000000e+00 0.000000000000e+00 -4.000000000000e-03 -2.666666666667e+05 -6.182589855873e-10 -1.866666666667e+06 -2.666666666667e+05 -4.113496817856e-10 -4.993304045883e-12 3.314117775470e-19 -3.091294927936e-18 -4.000000000000e-03 -4.032567286726e-19 0.000000000000e+00 
0.000000000000e+00 0.000000000000e+00 1.000000000000e+00 0.000000000000e+00 0.000000000000e+00 -2.666666666667e+05 3.380356299964e-11 -1.866666666667e+06 -2.666666666667e+05 -2.755130967072e-11 -9.076447697135e-12 -1.846627894149e-19 1.690178149982e-19 -4.000000000000e-03 -4.663924352647e-19 0.000000000000e+00 
1.000000000000e+00 0.000000000000e+00 1.000000000000e+00 0.000000000000e+00 0.000000000000e+00 -2.666666666667e+05 -3.169762927250e-11 -1.866666666667e+06 -2.666666666667e+05 1.380888520763e-11 -9.076447697135e-12 1.846627894149e-19 -1.584881463625e-19 -4.000000000000e-03 -2.371108538825e-19 0.000000000000e+00 
1.000000000000e+00 1.000000000000e+00 1.000000000000e+00 0.000000000000e+00 -4.000000000000e-03 -2.666666666667e+05 3.246614451750e-10 -1.866666666667e+06 -2.666666666667e+05 4.174269172631e-10 -4.993304045883e-12 1.511684966615e-19 1.623307225875e-18 -4.000000000000e-03 1.703416567583e-19 0.000000000000e+00 
0.000000000000e+00 1.000000000000e+00 1.000000000000e+00 0.000000000000e+00 -4.000000000000e-03 -2.666666666667e+05 -7.051613700386e-10 -1.866666666667e+06 -2.666666666667e+05 -1.909535456582e-10 -4.993304045883e-12 -1.511684966615e-19 -3.525806850193e-18 -4.000000000000e-03 4.032567286726e-19 0.000000000000e+00 
5  6  7  8  1  2  3  4  
VARIABLES  = "X","Y","Z", "DISPLACEMENT_X1", "DISPLACEMENT_Y1", "STRESS_XX", "STRESS_XY", "STRESS_YY", "STRESS_ZZ", "STRESS_YZ", "STRESS_XZ", "STRAIN_XX", "STRAIN_XY", "STRAIN_YY", "STRAIN_ZZ", "STRAIN_PLS"
ZONE T="4.500000000000e+02s", N=8, E=1, F=FEPOINT, ET=BRICK
STRANDID=1, SOLUTIONTIME=4.500000000000e+02
0.000000000000e+00 0.000000000000e+00 0.000000000000e+00 0.000000000000e+00 0.000000000000e+00 -3.000000000000e+05 1.344349809050e-12 -2.100000000000e+06 -3.000000000000e+05 2.291071734615e-11 1.225427190967e-11 1.164415367172e-19 6.721749045248e-21 -4.500000000000e-03 2.545666235921e-19 0.000000000000e+00 
1.000000000000e+00 0.000000000000e+00 0.000000000000e+00 0.000000000000e+00 0.000000000000e+00 -3.000000000000e+05 1.081920200211e-11 -2.100000000000e+06 -3.000000000000e+05 3.059741336908e-11 1.225427190967e-11 -1.164415367172e-19 5.409601001056e-20 -4.500000000000e-03 6.181689075101e-19 0.000000000000e+00 
1.000000000000e+00 1.000000000000e+00 0.000000000000e+00 0.000000000000e+00 -4.500000000000e-03 -3.000000000000e+05 8.026115463452e-11 -2.100000000000e+06 -3.000000000000e+05 6.039151327098e-10 -2.575296659574e-11 -6.668614806791e-20 4.013057731726e-19 -4.500000000000e-03 -7.253431542348e-19 0.000000000000e+00 
0.000000000000e+00 1.000000000000e+00 0.000000000000e+00 0.000000000000e+00 -4.500000000000e-03 -3.000000000000e+05 -7.021039679172e-10 -2.100000000000e+06 -3.000000000000e+05 -4.266484536768e-10 -2.575296659574e-11 6.668614806791e-20 -3.510519839586e-18 -4.500000000000e-03 -3.998408989605e-20 0.000000000000e+00 
0.000000000000e+00 0.000000000000e+00 1.000000000000e+00 0.000000000000e+00 0.000000000000e+00 -3.000000000000e+05 9.863220382559e-11 -2.100000000000e+06 -3.000000000000e+05 -2.172115363039e-11 1.225427190967e-11 3.655528482824e-19 4.931610191279e-19 -4.500000000000e-03 -2.545666235921e-19 0.000000000000e+00 
1.000000000000e+00 0.000000000000e+00 1.000000000000e+00 0.000000000000e+00 0.000000000000e+00 -3.000000000000e+05 9.118079336931e-12 -2.100000000000e+06 -3.000000000000e+05 2.402545941522e-11 1.225427190967e-11 -3.655528482824e-19 4.559039668465e-20 -4.500000000000e-03 -6.181689075101e-19 0.000000000000e+00 
1.000000000000e+00 1.000000000000e+00 1.000000000000e+00 0.000000000000e+00 -4.500000000000e-03 -3.000000000000e+05 3.932600658852e-10 -2.100000000000e+06 -3.000000000000e+05 4.960381350050e-10 -2.575296659574e-11 5.356031173802e-19 1.966300329426e-18 -4.500000000000e-03 7.253431542348e-19 0.000000000000e+00 
0.000000000000e+00 1.000000000000e+00 1.000000000000e+00 0.000000000000e+00 -4.500000000000e-03 -3.000000000000e+05 -7.275220131056e-10 -2.100000000000e+06 -3.000000000000e+05 -2.649431954428e-10 -2.575296659574e-11 -5.356031173802e-19 -3.637610065528e-18 -4.500000000000e-03 3.998408989605e-20 0.000000000000e+00 
5  6  7  8  1  2  3  4  
VARIABLES  = "X","Y","Z", "DISPLACEMENT_X1", "DISPLACEMENT_Y1", "STRESS_XX", "STRESS_XY", "STRESS_YY", "STRESS_ZZ", "STRESS_YZ", "STRESS_XZ", "STRAIN_XX", "STRAIN_XY", "STRAIN_YY", "STRAIN_ZZ", "STRAIN_PLS"
ZONE T="5.000000000000e+02s", N=8, E=1, F=FEPOINT, ET=BRICK
STRANDID=1, SOLUTIONTIME=5.000000000000e+02
0.000000000000e+00 0.000000000000e+00 0.000000000000e+00 0.000000000000e+00 0.000000000000e+00 -3.333333333333e+05 1.082356551362e-11 -2.333333333333e+06 -3.333333333333e+05 1.443333110293e-11 2.786214774000e-12 1.270349821740e-19 5.411782756809e-20 -5.000000000000e-03 4.178041768224e-19 0.000000000000e+00 
1.000000000000e+00 0.000000000000e+00 0.000000000000e+00 0.000000000000e+00 0.000000000000e+00 -3.333333333333e+05 5.378413689074e-12 -2.333333333333e+06 -3.333333333333e+05 5.725595149634e-11 2.786214774000e-12 -1.270349821740e-19 2.689206844537e-20 -5.000000000000e-03 4.429142949530e-19 0.000000000000e+00 
1.000000000000e+00 1.000000000000e+00 0.000000000000e+00 0.000000000000e+00 -5.000000000000e-03 -3.333333333333e+05 1.546057846204e-10 -2.333333333333e+06 -3.333333333333e+05 6.063799515653e-10 -2.061986873860e-11 -2.107503688991e-19 7.730289231021e-19 -5.000000000000e-03 -5.385669068998e-19 0.000000000000e+00 
0.000000000000e+00 1.000000000000e+00 0.000000000000e+00 0.000000000000e+00 -5.000000000000e-03 -3.333333333333e+05 -7.085286302914e-10 -2.333333333333e+06 -3.333333333333e+05 -3.632154831225e-10 -2.061986873860e-11 2.107503688991e-19 -3.542643151457e-18 -5.000000000000e-03 -1.904658814150e-19 0.000000000000e+00 