VARIABLES  = "X","Y","Z", "DISPLACEMENT_X1", "DISPLACEMENT_Y1", "STRESS_XX", "STRESS_XY", "STRESS_YY", "STRESS_ZZ", "STRESS_YZ", "STRESS_XZ", "STRAIN_XX", "STRAIN_XY", "STRAIN_YY", "STRAIN_ZZ", "STRAIN_PLS"
ZONE T="0.000000000000e+00s", N=8, E=1, F=FEPOINT, ET=BRICK
STRANDID=1, SOLUTIONTIME=0.000000000000e+00
0.000000000000e+00 0.000000000000e+00 0.000000000000e+00 0.000000000000e+00 0.000000000000e+00 0.000000000000e+00 0.000000000000e+00 0.000000000000e+00 0.000000000000e+00 0.000000000000e+00 0.000000000000e+00 0.000000000000e+00 0.000000000000e+00 0.000000000000e+00 0.000000000000e+00 0.000000000000e+00 
1.000000000000e+00 0.000000000000e+00 0.000000000000e+00 0.000000000000e+00 0.000000000000e+00 0.000000000000e+00 0.000000000000e+00 0.000000000000e+00 0.000000000000e+00 0.000000000000e+00 0.000000000000e+00 0.000000000000e+00 0.000000000000e+00 0.000000000000e+00 0.000000000000e+00 0.000000000000e+00 
1.000000000000e+00 1.000000000000e+00 0.000000000000e+00 0.000000000000e+00 0.000000000000e+00 0.000000000000e+00 0.000000000000e+00 0.000000000000e+00 0.000000000000e+00 0.000000000000e+00 0.000000000000e+00 0.000000000000e+00 0.000000000000e+00 0.000000000000e+00 0.000000000000e+00 0.000000000000e+00 
0.000000000000e+00 1.000000000000e+00 0.000000000000e+00 0.000000000000e+00 0.000000000000e+00 0.000000000000e+00 0.000000000000e+00 0.000000000000e+00 0.000000000000e+00 0.000000000000e+00 0.000000000000e+00 0.000000000000e+00 0.000000000000e+00 0.000000000000e+00 0.000000000000e+00 0.000000000000e+00 
0.000000000000e+00 0.000000000000e+00 1.000000000000e+00 0.000000000000e+00 0.000000000000e+00 0.000000000000e+00 0.000000000000e+00 0.000000000000e+00 0.000000000000e+00 0.000000000000e+00 0.000000000000e+00 0.000000000000e+00 0.000000000000e+00 0.000000000000e+00 0.000000000000e+00 0.000000000000e+00 
1.000000000000e+00 0.000000000000e+00 1.000000000000e+00 0.000000000000e+00 0.000000000000e+00 0.000000000000e+00 0.000000000000e+00 0.000000000000e+00 0.000000000000e+00 0.000000000000e+00 0.000000000000e+00 0.000000000000e+00 0.000000000000e+00 0.000000000000e+00 0.000000000000e+00 0.000000000000e+00 
1.000000000000e+00 1.000000000000e+00 1.000000000000e+00 0.000000000000e+00 0.000000000000e+00 0.000000000000e+00 0.000000000000e+00 0.000000000000e+00 0.000000000000e+00 0.000000000000e+00 0.000000000000e+00 0.000000000000e+00 0.000000000000e+00 0.000000000000e+00 0.000000000000e+00 0.000000000000e+00 
0.000000000000e+00 1.000000000000e+00 1.000000000000e+00 0.000000000000e+00 0.000000000000e+00 0.000000000000e+00 0.000000000000e+00 0.000000000000e+00 0.000000000000e+00 0.000000000000e+00 0.000000000000e+00 0.000000000000e+00 0.000000000000e+00 0.000000000000e+00 0.000000000000e+00 0.000000000000e+00 
5  6  7  8  1  2  3  4  
VARIABLES  = "X","Y","Z", "DISPLACEMENT_X1", "DISPLACEMENT_Y1", "STRESS_XX", "STRESS_XY", "STRESS_YY", "STRESS_ZZ", "STRESS_YZ", "STRESS_XZ", "STRAIN_XX", "STRAIN_XY", "STRAIN_YY", "STRAIN_ZZ", "STRAIN_PLS"
ZONE T="5.000000000000e+01s", N=8, E=1, F=FEPOINT, ET=BRICK
STRANDID=1, SOLUTIONTIME=5.000000000000e+01
0.000000000000e+00 0.000000000000e+00 0.000000000000e+00 0.000000000000e+00 0.000000000000e+00 -3.333333333333e+04 1.592004510114e-11 -2.333333333333e+05 -3.333333333333e+04 2.287288775466e-11 -8.939838616806e-12 6.892675525275e-20 7.960022550569e-20 -5.000000000000e-04 1.139272701730e-19 0.000000000000e+00 
1.000000000000e+00 0.000000000000e+00 0.000000000000e+00 0.000000000000e+00 0.000000000000e+00 -3.333333333333e+04 1.224355794099e-11 -2.333333333333e+05 -3.333333333333e+04 -2.063165943996e-11 -8.939838616806e-12 -6.892675525275e-20 6.121778970497e-20 -5.000000000000e-04 -8.096557062285e-20 0.000000000000e+00 
1.000000000000e+00 1.000000000000e+00 0.000000000000e+00 0.000000000000e+00 -5.000000000000e-04 -3.333333333333e+04 8.822841701619e-11 -2.333333333333e+05 -3.333333333333e+04 -1.591202092428e-13 7.750602150254e-12 -3.388131789017e-20 4.411420850810e-19 -5.000000000000e-04 1.612000411758e-19 0.000000000000e+00 
0.000000000000e+00 1.000000000000e+00 0.000000000000e+00 0.000000000000e+00 -5.000000000000e-04 -3.333333333333e+04 -2.581370804899e-11 -2.333333333333e+05 -3.333333333333e+04 -1.367655667414e-10 7.750602150254e-12 3.388131789017e-20 -1.290685402450e-19 -5.000000000000e-04 -1.620046066276e-19 0.000000000000e+00 
0.000000000000e+00 0.000000000000e+00 1.000000000000e+00 0.000000000000e+00 0.000000000000e+00 -3.333333333333e+04 -1.820702670983e-11 -2.333333333333e+05 -3.333333333333e+04 3.031349313150e-11 -8.939838616806e-12 -1.831723347916e-19 -9.103513354917e-20 -5.000000000000e-04 -1.139272701730e-19 0.000000000000e+00 
1.000000000000e+00 0.000000000000e+00 1.000000000000e+00 0.000000000000e+00 0.000000000000e+00 -3.333333333333e+04 -1.823200520823e-11 -2.333333333333e+05 -3.333333333333e+04 -1.152166789122e-11 -8.939838616806e-12 1.831723347916e-19 -9.116002604116e-20 -5.000000000000e-04 8.096557062285e-20 0.000000000000e+00 
1.000000000000e+00 1.000000000000e+00 1.000000000000e+00 0.000000000000e+00 -5.000000000000e-04 -3.333333333333e+04 1.796127278903e-11 -2.333333333333e+05 -3.333333333333e+04 2.535152137568e-11 7.750602150254e-12 -9.820677759940e-20 8.980636394517e-20 -5.000000000000e-04 -1.612000411758e-19 0.000000000000e+00 
0.000000000000e+00 1.000000000000e+00 1.000000000000e+00 0.000000000000e+00 -5.000000000000e-04 -3.333333333333e+04 -2.076258244410e-10 -2.333333333333e+05 -3.333333333333e+04 7.224420035932e-11 7.750602150254e-12 9.820677759940e-20 -1.038129122205e-18 -5.000000000000e-04 1.620046066276e-19 0.000000000000e+00 
5  6  7  8  1  2  3  4  
VARIABLES  = "X","Y","Z", "DISPLACEMENT_X1", "DISPLACEMENT_Y1", "STRESS_XX", "STRESS_XY", "STRESS_YY", "STRESS_ZZ", "STRESS_YZ", "STRESS_XZ", "STRAIN_XX", "STRAIN_XY", "STRAIN_YY", "STRAIN_ZZ", "STRAIN_PLS"
ZONE T="1.000000000000e+02s", N=8, E=1, F=FEPOINT, ET=BRICK
STRANDID=1, SOLUTIONTIME=1.000000000000e+02
0.000000000000e+00 0.000000000000e+00 0.000000000000e+00 0.000000000000e+00 0.000000000000e+00 -6.666666666667e+04 -1.897880641135e-11 -4.666666666667e+05 -6.666666666667e+04 1.007613736335e-11 1.251405362659e-12 -7.144965275319e-20 -9.489403205673e-20 -1.000000000000e-03 4.114217661662e-21 0.000000000000e+00 
1.000000000000e+00 0.000000000000e+00 0.000000000000e+00 0.000000000000e+00 0.000000000000e+00 -6.666666666667e+04 -1.516618712735e-11 -4.666666666667e+05 -6.666666666667e+04 2.374097529856e-11 1.251405362659e-12 7.144965275319e-20 -7.583093563677e-20 -1.000000000000e-03 3.358386040796e-20 0.000000000000e+00 
1.000000000000e+00 1.000000000000e+00 0.000000000000e+00 0.000000000000e+00 -1.000000000000e-03 -6.666666666667e+04 -2.750674720295e-11 -4.666666666667e+05 -6.666666666667e+04 1.219227200628e-10 -6.155906732322e-12 -1.490777987168e-19 -1.375337360148e-19 -1.000000000000e-03 -6.341831234234e-20 0.000000000000e+00 
0.000000000000e+00 1.000000000000e+00 0.000000000000e+00 0.000000000000e+00 -1.000000000000e-03 -6.666666666667e+04 -7.367555000079e-12 -4.666666666667e+05 -6.666666666667e+04 -7.223376459122e-11 -6.155906732322e-12 1.490777987168e-19 -3.683777500039e-20 -1.000000000000e-03 4.033711340836e-20 0.000000000000e+00 
0.000000000000e+00 0.000000000000e+00 1.000000000000e+00 0.000000000000e+00 0.000000000000e+00 -6.666666666667e+04 1.113077688937e-11 -4.666666666667e+05 -6.666666666667e+04 2.015293962336e-11 1.251405362659e-12 -3.834902736656e-20 5.565388444685e-20 -1.000000000000e-03 -4.114217661662e-21 0.000000000000e+00 
1.000000000000e+00 0.000000000000e+00 1.000000000000e+00 0.000000000000e+00 0.000000000000e+00 -6.666666666667e+04 -1.013779257651e-11 -4.666666666667e+05 -6.666666666667e+04 1.553902598833e-11 1.251405362659e-12 3.834902736656e-20 -5.068896288255e-20 -1.000000000000e-03 -3.358386040796e-20 0.000000000000e+00 
1.000000000000e+00 1.000000000000e+00 1.000000000000e+00 0.000000000000e+00 -1.000000000000e-03 -6.666666666667e+04 7.827111271915e-11 -4.666666666667e+05 -6.666666666667e+04 1.952446490511e-10 -6.155906732322e-12 5.496211214863e-20 3.913555635957e-19 -1.000000000000e-03 6.341831234234e-20 0.000000000000e+00 
0.000000000000e+00 1.000000000000e+00 1.000000000000e+00 0.000000000000e+00 -1.000000000000e-03 -6.666666666667e+04 -1.491582046400e-10 -4.666666666667e+05 -6.666666666667e+04 -8.269446842746e-11 -6.155906732322e-12 -5.496211214863e-20 -7.457910231999e-19 -1.000000000000e-03 -4.033711340836e-20 0.000000000000e+00 
5  6  7  8  1  2  3  4  
VARIABLES  = "X","Y","Z", "DISPLACEMENT_X1", "DISPLACEMENT_Y1", "STRESS_XX", "STRESS_XY", "STRESS_YY", "STRESS_ZZ", "STRESS_YZ", "STRESS_XZ", "STRAIN_XX", "STRAIN_XY", "STRAIN_YY", "STRAIN_ZZ", "STRAIN_PLS"
ZONE T="1.500000000000e+02s", N=8, E=1, F=FEPOINT, ET=BRICK
STRANDID=1, SOLUTIONTIME=1.500000000000e+02
0.000000000000e+00 0.000000000000e+00 0.000000000000e+00 0.000000000000e+00 0.000000000000e+00 -1.000000000000e+05 -8.080465211240e-12 -7.000000000000e+05 -1.000000000000e+05 2.174761745384e-11 2.103588006915e-12 -3.685944051675e-20 -4.040232605620e-20 -1.500000000000e-03 -2.902440537357e-20 0.000000000000e+00 
1.000000000000e+00 0.000000000000e+00 0.000000000000e+00 0.000000000000e+00 0.000000000000e+00 -1.000000000000e+05 1.986856080127e-11 -7.000000000000e+05 -1.000000000000e+05 -9.735901927485e-12 2.103588006915e-12 3.685944051675e-20 9.934280400633e-20 -1.500000000000e-03 6.511335253959e-20 0.000000000000e+00 
1.000000000000e+00 1.000000000000e+00 0.000000000000e+00 0.000000000000e+00 -1.500000000000e-03 -1.000000000000e+05 -1.053743198623e-12 -7.000000000000e+05 -1.000000000000e+05 1.958210652945e-10 -9.615669690523e-12 -1.795709848179e-19 -5.268715993117e-21 -1.500000000000e-03 -4.253091137437e-20 0.000000000000e+00 
0.000000000000e+00 1.000000000000e+00 0.000000000000e+00 0.000000000000e+00 -1.500000000000e-03 -1.000000000000e+05 -1.051951485453e-10 -7.000000000000e+05 -1.000000000000e+05 -2.878898952115e-10 -9.615669690523e-12 1.795709848179e-19 -5.259757427264e-19 -1.500000000000e-03 8.537311154079e-20 0.000000000000e+00 
0.000000000000e+00 0.000000000000e+00 1.000000000000e+00 0.000000000000e+00 0.000000000000e+00 -1.000000000000e+05 9.298197218565e-12 -7.000000000000e+05 -1.000000000000e+05 2.858619686472e-11 2.103588006915e-12 -2.581779808417e-20 4.649098609283e-20 -1.500000000000e-03 2.902440537357e-20 0.000000000000e+00 
1.000000000000e+00 0.000000000000e+00 1.000000000000e+00 0.000000000000e+00 0.000000000000e+00 -1.000000000000e+05 -1.756815994344e-11 -7.000000000000e+05 -1.000000000000e+05 1.818634492113e-12 2.103588006915e-12 2.581779808417e-20 -8.784079971722e-20 -1.500000000000e-03 -6.511335253959e-20 0.000000000000e+00 
1.000000000000e+00 1.000000000000e+00 1.000000000000e+00 0.000000000000e+00 -1.500000000000e-03 -1.000000000000e+05 1.247451364797e-10 -7.000000000000e+05 -1.000000000000e+05 1.484495360811e-10 -9.615669690523e-12 1.733084767931e-19 6.237256823987e-19 -1.500000000000e-03 4.253091137437e-20 0.000000000000e+00 
0.000000000000e+00 1.000000000000e+00 1.000000000000e+00 0.000000000000e+00 -1.500000000000e-03 -1.000000000000e+05 -2.205589004374e-10 -7.000000000000e+05 -1.000000000000e+05 7.264221547690e-11 -9.615669690523e-12 -1.733084767931e-19 -1.102794502187e-18 -1.500000000000e-03 -8.537311154079e-20 0.000000000000e+00 
5  6  7  8  1  2  3  4  
VARIABLES  = "X","Y","Z", "DISPLACEMENT_X1", "DISPLACEMENT_Y1", "STRESS_XX", "STRESS_XY", "STRESS_YY", "STRESS_ZZ", "STRESS_YZ", "STRESS_XZ", "STRAIN_XX", "STRAIN_XY", "STRAIN_YY", "STRAIN_ZZ", "STRAIN_PLS"
ZONE T="2.000000000000e+02s", N=8, E=1, F=FEPOINT, ET=BRICK
STRANDID=1, SOLUTIONTIME=2.000000000000e+02
0.000000000000e+00 0.000000000000e+00 0.000000000000e+00 0.000000000000e+00 0.000000000000e+00 -1.333333333333e+05 -2.732008191557e-12 -9.333333333333e+05 -1.333333333333e+05 4.378114128130e-11 3.225660582859e-12 -1.968557449105e-19 -1.366004095779e-20 -2.000000000000e-03 5.834411345355e-20 0.000000000000e+00 
1.000000000000e+00 0.000000000000e+00 0.000000000000e+00 0.000000000000e+00 0.000000000000e+00 -1.333333333333e+05 2.495158746713e-11 -9.333333333333e+05 -1.333333333333e+05 -7.467077754225e-12 3.225660582859e-12 1.968557449105e-19 1.247579373356e-19 -2.000000000000e-03 7.430725019905e-20 0.000000000000e+00 
1.000000000000e+00 1.000000000000e+00 0.000000000000e+00 0.000000000000e+00 -2.000000000000e-03 -1.333333333333e+05 -3.009778834373e-11 -9.333333333333e+05 -1.333333333333e+05 2.417755224935e-10 -1.235491500502e-11 -3.252606517457e-19 -1.504889417187e-19 -2.000000000000e-03 -7.672094655444e-20 0.000000000000e+00 
0.000000000000e+00 1.000000000000e+00 0.000000000000e+00 0.000000000000e+00 -2.000000000000e-03 -1.333333333333e+05 -2.637686624374e-10 -9.333333333333e+05 -1.333333333333e+05 -4.468048396426e-10 -1.235491500502e-11 3.252606517457e-19 -1.318843312187e-18 -2.000000000000e-03 4.054098519705e-20 0.000000000000e+00 
0.000000000000e+00 0.000000000000e+00 1.000000000000e+00 0.000000000000e+00 0.000000000000e+00 -1.333333333333e+05 -2.541214557132e-12 -9.333333333333e+05 -1.333333333333e+05 4.056879325797e-11 3.225660582859e-12 -5.153585251306e-20 -1.270607278566e-20 -2.000000000000e-03 -5.834411345355e-20 0.000000000000e+00 
1.000000000000e+00 0.000000000000e+00 1.000000000000e+00 0.000000000000e+00 0.000000000000e+00 -1.333333333333e+05 -2.975648821782e-11 -9.333333333333e+05 -1.333333333333e+05 6.347707070380e-12 3.225660582859e-12 5.153585251306e-20 -1.487824410891e-19 -2.000000000000e-03 -7.430725019905e-20 0.000000000000e+00 
1.000000000000e+00 1.000000000000e+00 1.000000000000e+00 0.000000000000e+00 -2.000000000000e-03 -1.333333333333e+05 2.129091168369e-10 -9.333333333333e+05 -1.333333333333e+05 2.204931382620e-10 -1.235491500502e-11 1.752231667538e-19 1.064545584185e-18 -2.000000000000e-03 7.672094655444e-20 0.000000000000e+00 
0.000000000000e+00 1.000000000000e+00 1.000000000000e+00 0.000000000000e+00 -2.000000000000e-03 -1.333333333333e+05 -3.026654564402e-10 -9.333333333333e+05 -1.333333333333e+05 2.672238482455e-10 -1.235491500502e-11 -1.752231667538e-19 -1.513327282201e-18 -2.000000000000e-03 -4.054098519705e-20 0.000000000000e+00 
5  6  7  8  1  2  3  4  
VARIABLES  = "X","Y","Z", "DISPLACEMENT_X1", "DISPLACEMENT_Y1", "STRESS_XX", "STRESS_XY", "STRESS_YY", "STRESS_ZZ", "STRESS_YZ", "STRESS_XZ", "STRAIN_XX", "STRAIN_XY", "STRAIN_YY", "STRAIN_ZZ", "STRAIN_PLS"
ZONE T="2.500000000000e+02s", N=8, E=1, F=FEPOINT, ET=BRICK
STRANDID=1, SOLUTIONTIME=2.500000000000e+02
0.000000000000e+00 0.000000000000e+00 0.000000000000e+00 0.000000000000e+00 0.000000000000e+00 -1.666666666667e+05 5.848342871328e-12 -1.166666666667e+06 -1.666666666667e+05 8.286643972979e-11 -3.038440045616e-12 1.719884976158e-19 2.924171435664e-20 -2.500000000000e-03 1.602615676584e-19 0.000000000000e+00 
1.000000000000e+00 0.000000000000e+00 0.000000000000e+00 0.000000000000e+00 0.000000000000e+00 -1.666666666667e+05 4.718706866187e-11 -1.166666666667e+06 -1.666666666667e+05 -2.034284120736e-11 -3.038440045616e-12 -1.719884976158e-19 2.359353433093e-19 -2.500000000000e-03 1.450509981774e-19 0.000000000000e+00 
1.000000000000e+00 1.000000000000e+00 0.000000000000e+00 0.000000000000e+00 -2.500000000000e-03 -1.666666666667e+05 4.979430622064e-12 -1.166666666667e+06 -1.666666666667e+05 2.967649977965e-10 -1.205449021012e-11 -9.486769009248e-20 2.489715311032e-20 -2.500000000000e-03 -2.111673473636e-19 0.000000000000e+00 
0.000000000000e+00 1.000000000000e+00 0.000000000000e+00 0.000000000000e+00 -2.500000000000e-03 -1.666666666667e+05 -3.474177511027e-10 -1.166666666667e+06 -1.666666666667e+05 -6.638736028668e-10 -1.205449021012e-11 9.486769009248e-20 -1.737088755513e-18 -2.500000000000e-03 -3.520567831362e-21 0.000000000000e+00 
0.000000000000e+00 0.000000000000e+00 1.000000000000e+00 0.000000000000e+00 0.000000000000e+00 -1.666666666667e+05 7.895470176202e-12 -1.166666666667e+06 -1.666666666667e+05 6.158640775526e-11 -3.038440045616e-12 3.527706481602e-20 3.947735088101e-20 -2.500000000000e-03 -1.602615676584e-19 0.000000000000e+00 
1.000000000000e+00 0.000000000000e+00 1.000000000000e+00 0.000000000000e+00 0.000000000000e+00 -1.666666666667e+05 -1.353122215393e-11 -1.166666666667e+06 -1.666666666667e+05 -1.228456449473e-11 -3.038440045616e-12 -3.527706481602e-20 -6.765611076967e-20 -2.500000000000e-03 -1.450509981774e-19 0.000000000000e+00 
1.000000000000e+00 1.000000000000e+00 1.000000000000e+00 0.000000000000e+00 -2.500000000000e-03 -1.666666666667e+05 3.096996644125e-10 -1.166666666667e+06 -1.666666666667e+05 3.025900201341e-10 -1.205449021012e-11 3.002100408812e-19 1.548498322062e-18 -2.500000000000e-03 2.111673473636e-19 0.000000000000e+00 
0.000000000000e+00 1.000000000000e+00 1.000000000000e+00 0.000000000000e+00 -2.500000000000e-03 -1.666666666667e+05 -3.765134785543e-10 -1.166666666667e+06 -1.666666666667e+05 4.046699238082e-10 -1.205449021012e-11 -3.002100408812e-19 -1.882567392772e-18 -2.500000000000e-03 3.520567831362e-21 0.000000000000e+00 
5  6  7  8  1  2  3  4  
VARIABLES  = "X","Y","Z", "DISPLACEMENT_X1", "DISPLACEMENT_Y1", "STRESS_XX", "STRESS_XY", "STRESS_YY", "STRESS_ZZ", "STRESS_YZ", "STRESS_XZ", "STRAIN_XX", "STRAIN_XY", "STRAIN_YY", "STRAIN_ZZ", "STRAIN_PLS"
ZONE T="3.000000000000e+02s", N=8, E=1, F=FEPOINT, ET=BRICK
STRANDID=1, SOLUTIONTIME=3.000000000000e+02
0.000000000000e+00 0.000000000000e+00 0.000000000000e+00 0.000000000000e+00 0.000000000000e+00 -2.000000000000e+05 -4.627534919337e-12 -1.400000000000e+06 -2.000000000000e+05 9.731097251508e-11 1.971543193408e-12 -8.115192564371e-20 -2.313767459668e-20 -3.000000000000e-03 2.466556413815e-19 0.000000000000e+00 
1.000000000000e+00 0.000000000000e+00 0.000000000000e+00 0.000000000000e+00 0.000000000000e+00 -2.000000000000e+05 4.073162918995e-11 -1.400000000000e+06 -2.000000000000e+05 -5.408294459462e-12 1.971543193408e-12 8.115192564371e-20 2.036581459497e-19 -3.000000000000e-03 2.948169076796e-19 0.000000000000e+00 
1.000000000000e+00 1.000000000000e+00 0.000000000000e+00 0.000000000000e+00 -3.000000000000e-03 -2.000000000000e+05 -3.059936583258e-11 -1.400000000000e+06 -2.000000000000e+05 4.693788015679e-10 -1.819803579123e-11 -3.794707603699e-19 -1.529968291629e-19 -3.000000000000e-03 -3.476306226537e-19 0.000000000000e+00 
0.000000000000e+00 1.000000000000e+00 0.000000000000e+00 0.000000000000e+00 -3.000000000000e-03 -2.000000000000e+05 -5.188672262061e-10 -1.400000000000e+06 -2.000000000000e+05 -8.381168044430e-10 -1.819803579123e-11 3.794707603699e-19 -2.594336131031e-18 -3.000000000000e-03 -1.441445373464e-19 0.000000000000e+00 
0.000000000000e+00 0.000000000000e+00 1.000000000000e+00 0.000000000000e+00 0.000000000000e+00 -2.000000000000e+05 1.343283143490e-11 -1.400000000000e+06 -2.000000000000e+05 5.442637301413e-11 1.971543193408e-12 -3.073603227141e-20 6.716415717448e-20 -3.000000000000e-03 -2.466556413815e-19 0.000000000000e+00 
1.000000000000e+00 0.000000000000e+00 1.000000000000e+00 0.000000000000e+00 0.000000000000e+00 -2.000000000000e+05 -6.519076544139e-12 -1.400000000000e+06 -2.000000000000e+05 2.473929962631e-11 1.971543193408e-12 3.073603227141e-20 -3.259538272069e-20 -3.000000000000e-03 -2.948169076796e-19 0.000000000000e+00 
1.000000000000e+00 1.000000000000e+00 1.000000000000e+00 0.000000000000e+00 -3.000000000000e-03 -2.000000000000e+05 4.042012105708e-10 -1.400000000000e+06 -2.000000000000e+05 3.542140572346e-10 -1.819803579123e-11 3.269449438842e-19 2.021006052854e-18 -3.000000000000e-03 3.476306226537e-19 0.000000000000e+00 
0.000000000000e+00 1.000000000000e+00 1.000000000000e+00 0.000000000000e+00 -3.000000000000e-03 -2.000000000000e+05 -3.978407197524e-10 -1.400000000000e+06 -2.000000000000e+05 6.037523683999e-10 -1.819803579123e-11 -3.269449438842e-19 -1.989203598762e-18 -3.000000000000e-03 1.441445373464e-19 0.000000000000e+00 
5  6  7  8  1  2  3  4  
VARIABLES  = "X","Y","Z", "DISPLACEMENT_X1", "DISPLACEMENT_Y1", "STRESS_XX", "STRESS_XY", "STRESS_YY", "STRESS_ZZ", "STRESS_YZ", "STRESS_XZ", "STRAIN_XX", "STRAIN_XY", "STRAIN_YY", "STRAIN_ZZ", "STRAIN_PLS"
ZONE T="3.500000000000e+02s", N=8, E=1, F=FEPOINT, ET=BRICK
STRANDID=1, SOLUTIONTIME=3.500000000000e+02
0.000000000000e+00 0.000000000000e+00 0.000000000000e+00 0.000000000000e+00 0.000000000000e+00 -2.333333333333e+05 1.038900837140e-11 -1.633333333333e+06 -2.333333333333e+05 1.280876790604e-10 -3.685454250302e-12 -1.008239353456e-19 5.194504185698e-20 -3.500000000000e-03 3.892910042685e-19 0.000000000000e+00 
1.000000000000e+00 0.000000000000e+00 0.000000000000e+00 0.000000000000e+00 0.000000000000e+00 -2.333333333333e+05 5.207168532054e-11 -1.633333333333e+06 -2.333333333333e+05 -3.316755357809e-11 -3.685454250302e-12 1.008239353456e-19 2.603584266027e-19 -3.500000000000e-03 3.391538184286e-19 0.000000000000e+00 
1.000000000000e+00 1.000000000000e+00 0.000000000000e+00 0.000000000000e+00 -3.500000000000e-03 -2.333333333333e+05 5.774381096026e-11 -1.633333333333e+06 -2.333333333333e+05 4.701250052194e-10 -1.202984643858e-11 -3.591419696358e-19 2.887190548013e-19 -3.500000000000e-03 -4.278526087799e-19 0.000000000000e+00 
0.000000000000e+00 1.000000000000e+00 0.000000000000e+00 0.000000000000e+00 -3.500000000000e-03 -2.333333333333e+05 -5.445661744785e-10 -1.633333333333e+06 -2.333333333333e+05 -9.758862877994e-10 -1.202984643858e-11 3.591419696358e-19 -2.722830872392e-18 -3.500000000000e-03 -2.888987106086e-19 0.000000000000e+00 
0.000000000000e+00 0.000000000000e+00 1.000000000000e+00 0.000000000000e+00 0.000000000000e+00 -2.333333333333e+05 2.339059431645e-12 -1.633333333333e+06 -2.333333333333e+05 9.264368493632e-11 -3.685454250302e-12 -2.349594620208e-19 1.169529715822e-20 -3.500000000000e-03 -3.892910042685e-19 0.000000000000e+00 
1.000000000000e+00 0.000000000000e+00 1.000000000000e+00 0.000000000000e+00 0.000000000000e+00 -2.333333333333e+05 -1.763782704579e-11 -1.633333333333e+06 -2.333333333333e+05 6.090032056420e-12 -3.685454250302e-12 2.349594620208e-19 -8.818913522894e-20 -3.500000000000e-03 -3.391538184286e-19 0.000000000000e+00 
1.000000000000e+00 1.000000000000e+00 1.000000000000e+00 0.000000000000e+00 -3.500000000000e-03 -2.333333333333e+05 4.212589815494e-10 -1.633333333333e+06 -2.333333333333e+05 3.804709024710e-10 -1.202984643858e-11 1.033964541217e-19 2.106294907747e-18 -3.500000000000e-03 4.278526087799e-19 0.000000000000e+00 
0.000000000000e+00 1.000000000000e+00 1.000000000000e+00 0.000000000000e+00 -3.500000000000e-03 -2.333333333333e+05 -6.063700460038e-10 -1.633333333333e+06 -2.333333333333e+05 6.749926521442e-10 -1.202984643858e-11 -1.033964541217e-19 -3.031850230019e-18 -3.500000000000e-03 2.888987106086e-19 0.000000000000e+00 
5  6  7  8  1  2  3  4  
VARIABLES  = "X","Y","Z", "DISPLACEMENT_X1", "DISPLACEMENT_Y1", "STRESS_XX", "STRESS_XY", "STRESS_YY", "STRESS_ZZ", "STRESS_YZ", "STRESS_XZ", "STRAIN_XX", "STRAIN_XY", "STRAIN_YY", "STRAIN_ZZ", "STRAIN_PLS"
ZONE T="4.000000000000e+02s", N=8, E=1, F=FEPOINT, ET=BRICK
STRANDID=1, SOLUTIONTIME=4.000000000000e+02
0.000000000000e+00 0.000000000000e+00 0.000000000000e+00 0.000000000000e+00 0.000000000000e+00 -2.666666666667e+05 1.396107478238e-11 -1.866666666667e+06 -2.666666666667e+05 1.339538805914e-10 -1.198750764905e-11 2.539527778617e-20 6.980537391188e-20 -4.000000000000e-03 4.536892428239e-19 0.000000000000e+00 
1.000000000000e+00 0.000000000000e+00 0.000000000000e+00 0.000000000000e+00 0.000000000000e+00 -2.666666666667e+05 6.109513989834e-11 -1.866666666667e+06 -2.666666666667e+05 -3.889669726225e-11 -1.198750764905e-11 -2.539527778617e-20 3.054756994917e-19 -4.000000000000e-03 3.401802212048e-19 0.000000000000e+00 
1.000000000000e+00 1.000000000000e+00 0.000000000000e+00 0.000000000000e+00 -4.000000000000e-03 -2.666666666667e+05 -9.491181909433e-11 -1.866666666667e+06 -2.666666666667e+05 5.079288966389e-10 -5.972232297701e-12 -3.150962563786e-19 -4.745590954717e-19 -4.000000000000e-03 -3.837141292257e-19 0.000000000000e+00 
0.000000000000e+00 1.000000000000e+00 0.000000000000e+00 0.000000000000e+00 -4.000000000000e-03 -2.666666666667e+05 -3.752945851163e-10 -1.866666666667e+06 -2.666666666667e+05 -5.706858314550e-10 -5.972232297701e-12 3.150962563786e-19 -1.876472925582e-18 -4.000000000000e-03 -2.405995368296e-19 0.000000000000e+00 
0.000000000000e+00 0.000000000000e+00 1.000000000000e+00 0.000000000000e+00 0.000000000000e+00 -2.666666666667e+05 -2.327563250461e-12 -1.866666666667e+06 -2.666666666667e+05 1.136803489195e-10 -1.198750764905e-11 -4.604710830472e-19 -1.163781625231e-20 -4.000000000000e-03 -4.536892428239e-19 0.000000000000e+00 
1.000000000000e+00 0.000000000000e+00 1.000000000000e+00 0.000000000000e+00 0.000000000000e+00 -2.666666666667e+05 -5.059358076312e-11 -1.866666666667e+06 -2.666666666667e+05 -3.646738513693e-11 -1.198750764905e-11 4.604710830472e-19 -2.529679038156e-19 -4.000000000000e-03 -3.401802212048e-19 0.000000000000e+00 
1.000000000000e+00 1.000000000000e+00 1.000000000000e+00 0.000000000000e+00 -4.000000000000e-03 -2.666666666667e+05 3.269979209191e-10 -1.866666666667e+06 -2.666666666667e+05 4.605503106548e-10 -5.972232297701e-12 -1.595992338897e-19 1.634989604595e-18 -4.000000000000e-03 3.837141292257e-19 0.000000000000e+00 
0.000000000000e+00 1.000000000000e+00 1.000000000000e+00 0.000000000000e+00 -4.000000000000e-03 -2.666666666667e+05 -4.339025744165e-10 -1.866666666667e+06 -2.666666666667e+05 3.623503453871e-10 -5.972232297701e-12 1.595992338897e-19 -2.169512872083e-18 -4.000000000000e-03 2.405995368296e-19 0.000000000000e+00 
5  6  7  8  1  2  3  4  
VARIABLES  = "X","Y","Z", "DISPLACEMENT_X1", "DISPLACEMENT_Y1", "STRESS_XX", "STRESS_XY", "STRESS_YY", "STRESS_ZZ", "STRESS_YZ", "STRESS_XZ", "STRAIN_XX", "STRAIN_XY", "STRAIN_YY", "STRAIN_ZZ", "STRAIN_PLS"
ZONE T="4.500000000000e+02s", N=8, E=1, F=FEPOINT, ET=BRICK
STRANDID=1, SOLUTIONTIME=4.500000000000e+02
0.000000000000e+00 0.000000000000e+00 0.000000000000e+00 0.000000000000e+00 0.000000000000e+00 -3.000000000000e+05 -8.787253471874e-13 -2.100000000000e+06 -3.000000000000e+05 1.215275831316e-10 -8.373673447251e-12 2.919387856098e-19 -4.393626735937e-21 -4.500000000000e-03 3.169846019497e-19 0.000000000000e+00 
1.000000000000e+00 0.000000000000e+00 0.000000000000e+00 0.000000000000e+00 0.000000000000e+00 -3.000000000000e+05 6.736283656191e-11 -2.100000000000e+06 -3.000000000000e+05 5.743488656244e-12 -8.373673447251e-12 -2.919387856098e-19 3.368141828096e-19 -4.500000000000e-03 3.464542446960e-19 0.000000000000e+00 
1.000000000000e+00 1.000000000000e+00 0.000000000000e+00 0.000000000000e+00 -4.500000000000e-03 -3.000000000000e+05 -1.088324132525e-10 -2.100000000000e+06 -3.000000000000e+05 5.705788564137e-10 -1.018812621021e-11 -1.050320854595e-19 -5.441620662627e-19 -4.500000000000e-03 -3.178211800879e-19 0.000000000000e+00 
0.000000000000e+00 1.000000000000e+00 0.000000000000e+00 0.000000000000e+00 -4.500000000000e-03 -3.000000000000e+05 -4.278291807980e-10 -2.100000000000e+06 -3.000000000000e+05 -6.959693188789e-10 -1.018812621021e-11 1.050320854595e-19 -2.139145903990e-18 -4.500000000000e-03 -2.140657543372e-19 0.000000000000e+00 
0.000000000000e+00 0.000000000000e+00 1.000000000000e+00 0.000000000000e+00 0.000000000000e+00 -3.000000000000e+05 6.117269275369e-11 -2.100000000000e+06 -3.000000000000e+05 1.044499336848e-10 -8.373673447251e-12 -1.562145294990e-19 3.058634637685e-19 -4.500000000000e-03 -3.169846019497e-19 0.000000000000e+00 
1.000000000000e+00 0.000000000000e+00 1.000000000000e+00 0.000000000000e+00 0.000000000000e+00 -3.000000000000e+05 -3.882950427600e-11 -2.100000000000e+06 -3.000000000000e+05 -1.813592451961e-11 -8.373673447251e-12 1.562145294990e-19 -1.941475213800e-19 -4.500000000000e-03 -3.464542446960e-19 0.000000000000e+00 
1.000000000000e+00 1.000000000000e+00 1.000000000000e+00 0.000000000000e+00 -4.500000000000e-03 -3.000000000000e+05 4.919319593021e-10 -2.100000000000e+06 -3.000000000000e+05 4.812210621345e-10 -1.018812621021e-11 3.006187993005e-19 2.459659796510e-18 -4.500000000000e-03 3.178211800879e-19 0.000000000000e+00 
0.000000000000e+00 1.000000000000e+00 1.000000000000e+00 0.000000000000e+00 -4.500000000000e-03 -3.000000000000e+05 -5.103045991128e-10 -2.100000000000e+06 -3.000000000000e+05 3.135314635955e-10 -1.018812621021e-11 -3.006187993005e-19 -2.551522995564e-18 -4.500000000000e-03 2.140657543372e-19 0.000000000000e+00 
5  6  7  8  1  2  3  4  
VARIABLES  = "X","Y","Z", "DISPLACEMENT_X1", "DISPLACEMENT_Y1", "STRESS_XX", "STRESS_XY", "STRESS_YY", "STRESS_ZZ", "STRESS_YZ", "STRESS_XZ", "STRAIN_XX", "STRAIN_XY", "STRAIN_YY", "STRAIN_ZZ", "STRAIN_PLS"
ZONE T="5.000000000000e+02s", N=8, E=1, F=FEPOINT, ET=BRICK
STRANDID=1, SOLUTIONTIME=5.000000000000e+02
0.000000000000e+00 0.000000000000e+00 0.000000000000e+00 0.000000000000e+00 0.000000000000e+00 -3.333333333333e+05 1.191192766894e-11 -2.333333333333e+06 -3.333333333333e+05 1.100054817745e-10 -8.425065952437e-15 -2.686709572347e-20 5.955963834470e-20 -5.000000000000e-03 4.737791221728e-19 0.000000000000e+00 
1.000000000000e+00 0.000000000000e+00 0.000000000000e+00 0.000000000000e+00 0.000000000000e+00 -3.333333333333e+05 5.360606712673e-11 -2.333333333333e+06 -3.333333333333e+05 4.046884131487e-11 -8.425065952411e-15 2.686709572347e-20 2.680303356337e-19 -5.000000000000e-03 4.005177624946e-19 0.000000000000e+00 
1.000000000000e+00 1.000000000000e+00 0.000000000000e+00 0.000000000000e+00 -5.000000000000e-03 -3.333333333333e+05 -2.271512673430e-11 -2.333333333333e+06 -3.333333333333e+05 5.506519900012e-10 -2.135913264639e-11 -3.422013106907e-19 -1.135756336715e-19 -5.000000000000e-03 -5.392088278871e-19 0.000000000000e+00 
0.000000000000e+00 1.000000000000e+00 0.000000000000e+00 0.000000000000e+00 -5.000000000000e-03 -3.333333333333e+05 -5.584815002438e-10 -2.333333333333e+06 -3.333333333333e+05 -6.374503155472e-10 -2.135913264639e-11 3.422013106907e-19 -2.792407501219e-18 -5.000000000000e-03 -2.883140435462e-19 0.000000000000e+00 