 TITLE = "Time curves in points"
 VARIABLES = "TIME"  "DISPLACEMENT_X1"  "DISPLACEMENT_Y1"  "DISPLACEMENT_Z1"  "STRESS_XX"  "STRESS_XY"  "STRESS_YY"  "STRESS_ZZ"  "STRESS_XZ"  "STRESS_YZ"  "STRAIN_XX"  "STRAIN_XY"  "STRAIN_YY"  "STRAIN_ZZ"  "STRAIN_XZ"  "STRAIN_YZ"  "STRAIN_PLS"  p_(1st_Invariant)  q_(2nd_Invariant)   Effective_Strain
 ZONE T="POINT=POINT9"
0.000000000000e+00 0.000000000000e+00 0.000000000000e+00 0.000000000000e+00 0.000000000000e+00 0.000000000000e+00 0.000000000000e+00 0.000000000000e+00 0.000000000000e+00 0.000000000000e+00 0.000000000000e+00 0.000000000000e+00 0.000000000000e+00 0.000000000000e+00 0.000000000000e+00 0.000000000000e+00 0.000000000000e+00 -0.000000000000e+00 0.000000000000e+00  0.000000000000e+00
5.000000000000e-01 4.156221410455e-06 1.175840734620e-05 -2.996705638668e-05 -8.746139717294e+01 8.021296014166e+00 3.522302591071e+01 -6.376217761694e+02 -2.967488450720e+00 -1.485553696922e+01 7.674905146527e-06 1.122981441983e-06 1.626281476238e-05 -3.083632138323e-05 -4.154483831008e-07 -2.079775175691e-06 0.000000000000e+00 2.299533824772e+02 6.213738982721e+02  4.364487531667e-05
1.000000000000e+00 8.312765127363e-06 2.351681101242e-05 -5.993411663689e-05 -1.749232743948e+02 1.604430150050e+01 7.044776056316e+01 -1.275243423147e+03 -5.934820075184e+00 -2.971104624144e+01 1.534974953194e-05 2.246202210071e-06 3.252572197900e-05 -6.167266088074e-05 -8.308748105257e-07 -4.159546473801e-06 0.000000000000e+00 4.599063123264e+02 1.242748660083e+03  8.728982384503e-05
1.500000000000e+00 1.246941583809e-05 3.527517280879e-05 -8.990119838148e-05 -2.623865131537e+02 2.406754606584e+01 1.056738206038e+02 -1.912865218506e+03 -8.901956153239e+00 -4.456658754922e+01 2.302450230036e-05 3.369456449218e-06 4.878872566339e-05 -9.250900707431e-05 -1.246273861454e-06 -6.239322256890e-06 0.000000000000e+00 6.898593036854e+02 1.864123956776e+03  1.309348115206e-04
2.000000000000e+00 1.662581352260e-05 4.703354674638e-05 -1.198682669635e-04 -3.498485812574e+02 3.208952725349e+01 1.408982556129e+02 -2.550486841305e+03 -1.186943341562e+01 -5.942213507093e+01 3.069934265097e-05 4.492533815489e-06 6.505162123189e-05 -1.233453355524e-04 -1.661720678186e-06 -8.319098909930e-06 0.000000000000e+00 9.198123889831e+02 2.485498402480e+03  1.745797307053e-04
2.500000000000e+00 2.078250278795e-05 5.879185616562e-05 -1.498353602270e-04 -4.373121393746e+02 4.011213059812e+01 1.761243922433e+02 -3.188108805880e+03 -1.483664909227e+01 -7.427771512391e+01 3.837408130400e-05 5.615698283736e-06 8.131463851726e-05 -1.541816853514e-04 -2.077130872917e-06 -1.039888011735e-05 0.000000000000e+00 1.149765517670e+03 3.106873783965e+03  2.182247199186e-04
3.000000000000e+00 2.493904279935e-05 7.055026126826e-05 -1.798024290297e-04 -5.247723038855e+02 4.813585397514e+01 2.113475543167e+02 -3.825730513354e+03 -1.780385777666e+01 -8.913318594048e+01 4.604904398646e-05 6.739019556519e-06 9.757743406062e-05 -1.850180306763e-04 -2.492540088732e-06 -1.247864603167e-05 0.000000000000e+00 1.379718420974e+03 3.728248211058e+03  2.618696499706e-04
3.500000000000e+00 2.909533834139e-05 8.230864933192e-05 -2.097694911413e-04 -6.122365434447e+02 5.615692444226e+01 2.465732920856e+02 -4.463352243155e+03 -2.077145786105e+01 -1.039887630034e+02 5.372375184915e-05 7.861969421917e-06 1.138404403363e-04 -2.158543471306e-04 -2.908004100547e-06 -1.455842682047e-05 0.000000000000e+00 1.609671831505e+03 4.349622817693e+03  3.055145738112e-04
4.000000000000e+00 3.325183127052e-05 9.406700042823e-05 -2.397365742936e-04 -6.996973900624e+02 6.418009813446e+01 2.817966331027e+02 -5.100974042136e+03 -2.373876897661e+01 -1.188443087674e+02 6.139867867755e-05 8.985213738824e-06 1.301032602991e-04 -2.466906869676e-04 -3.323427656725e-06 -1.663820322743e-05 0.000000000000e+00 1.839624933032e+03 4.970997200314e+03  3.491594977371e-04
4.500000000000e+00 3.740859059357e-05 1.058253981200e-04 -2.697036378735e-04 -7.871599280604e+02 7.220329288339e+01 3.170227443663e+02 -5.738595799608e+03 -2.670575547831e+01 -1.336997993403e+02 6.907346470181e-05 1.010846100367e-05 1.463662517717e-04 -2.775270463065e-04 -3.738805766963e-06 -1.871797190764e-05 0.000000000000e+00 2.069577661101e+03 5.592372725847e+03  3.928044997632e-04
5.000000000000e+00 4.156505421494e-05 1.175837953117e-04 -2.996707052897e-04 -8.746215695170e+02 8.022643364533e+01 3.522468372438e+02 -6.376217448239e+03 -2.967325509347e+01 -1.485552846912e+02 7.674833374406e-05 1.123170071035e-05 1.626291222173e-04 -3.083633777665e-04 -4.154255713085e-06 -2.079773985676e-05 0.000000000000e+00 2.299530726838e+03 6.213747165491e+03  4.364494270586e-04
5.500000000000e+00 4.572167365598e-05 1.293421349622e-04 -3.296377903980e-04 -9.620832042438e+02 8.824941614629e+01 3.874713951508e+02 -7.013839249826e+03 -3.264048804926e+01 -1.634108124101e+02 8.442319688131e-05 1.235491826048e-05 1.788920188389e-04 -3.391997263094e-04 -4.569668326896e-06 -2.287751373742e-05 0.000000000000e+00 2.529483686306e+03 6.835122048748e+03  4.800943838546e-04
6.000000000000e+00 4.987814589107e-05 1.411004858517e-04 -3.596048667984e-04 -1.049545859525e+03 9.627178137150e+01 4.226961637667e+02 -7.651461088162e+03 -3.560768899719e+01 -1.782664257443e+02 9.209800551169e-05 1.347804939201e-05 1.951549471421e-04 -3.700360604930e-04 -4.985076459606e-06 -2.495729960420e-05 0.000000000000e+00 2.759436927973e+03 7.456496733784e+03  5.237393230078e-04
6.500000000000e+00 5.403471162101e-05 1.528588802730e-04 -3.895719316795e-04 -1.137007961017e+03 1.042951792339e+02 4.579212580875e+02 -8.289082666442e+03 -3.857514470721e+01 -1.931219092660e+02 9.977283011624e-05 1.460132509275e-05 2.114178754536e-04 -4.008723992635e-04 -5.400520259010e-06 -2.703706729724e-05 0.000000000000e+00 2.989389789791e+03 8.077871596216e+03  5.673842817225e-04
7.000000000000e+00 5.819120140162e-05 1.646172332552e-04 -4.195390158973e-04 -1.224470689956e+03 1.123172769340e+02 4.931461582317e+02 -8.926704513128e+03 -4.154255820667e+01 -2.079774584113e+02 1.074476326001e-04 1.572441877076e-05 2.276808119733e-04 -4.317087350219e-04 -5.815958148934e-06 -2.911684417758e-05 0.000000000000e+00 3.219343014951e+03 8.699246336408e+03  6.110292222286e-04
7.500000000000e+00 6.234769167696e-05 1.763756361807e-04 -4.495060790795e-04 -1.311931997617e+03 1.203400022798e+02 5.283700736746e+02 -9.564326259616e+03 -4.450987969969e+01 -2.228329371409e+02 1.151225238380e-04 1.684760031917e-05 2.439436688284e-04 -4.625450745020e-04 -6.231383157957e-06 -3.119661119972e-05 0.000000000000e+00 3.449296061186e+03 9.320620854470e+03  6.546741509936e-04
8.000000000000e+00 6.650421495430e-05 1.881339960695e-04 -4.794731556777e-04 -1.399394873632e+03 1.283625888305e+02 5.635954240837e+02 -1.020194799918e+04 -4.747726716331e+01 -2.376884874286e+02 1.227973078203e-04 1.797076243627e-05 2.602066286604e-04 -4.933814109679e-04 -6.646817402864e-06 -3.327638824000e-05 0.000000000000e+00 3.679249149575e+03 9.941995745525e+03  6.983191059260e-04
8.500000000000e+00 7.066057692325e-05 1.998924192225e-04 -5.094402069431e-04 -1.486857598341e+03 1.363846478126e+02 5.988203874411e+02 -1.083956971917e+04 -5.044474828964e+01 -2.525440164744e+02 1.304721067174e-04 1.909385069376e-05 2.764695657222e-04 -5.242177417402e-04 -7.062264760550e-06 -3.535616230642e-05 0.000000000000e+00 3.909202310022e+03 1.056337040098e+04  7.419640401078e-04
9.000000000000e+00 7.481721255713e-05 2.116507394951e-04 -5.394073002257e-04 -1.574318575685e+03 1.444079044363e+02 6.340440571892e+02 -1.147719160130e+04 -5.341169472959e+01 -2.673995969075e+02 1.381470220979e-04 2.021710662109e-05 2.927324063991e-04 -5.550540896949e-04 -7.477637262143e-06 -3.743594356705e-05 0.000000000000e+00 4.139155373264e+03 1.118474503137e+04  7.856089814179e-04
9.500000000000e+00 7.897373074230e-05 2.234091019389e-04 -5.693743768042e-04 -1.661780810677e+03 1.524305433610e+02 6.692687773782e+02 -1.211481336717e+04 -5.637907442180e+01 -2.822551279568e+02 1.458218512619e-04 2.134027607054e-05 3.089953224258e-04 -5.858904276924e-04 -7.893070419051e-06 -3.951571791395e-05 0.000000000000e+00 4.369108466822e+03 1.180611976592e+04  8.292539255447e-04
1.000000000000e+01 8.313010302624e-05 2.351675018224e-04 -5.993414407197e-04 -1.749243796025e+03 1.604521871083e+02 7.044939629759e+02 -1.275243498565e+04 -5.934675797781e+01 -2.971106277550e+02 1.534966306522e-04 2.246330619516e-05 3.252582737822e-04 -6.167267526214e-04 -8.308546116893e-06 -4.159548788570e-05 0.000000000000e+00 4.599061606232e+03 1.242749435881e+04  8.728988521639e-04
