 TITLE = "Time curves in points"
 VARIABLES = "TIME"  "DISPLACEMENT_X1"  "DISPLACEMENT_Y1"  "DISPLACEMENT_Z1"  "STRESS_XX"  "STRESS_XY"  "STRESS_YY"  "STRESS_ZZ"  "STRESS_XZ"  "STRESS_YZ"  "STRAIN_XX"  "STRAIN_XY"  "STRAIN_YY"  "STRAIN_ZZ"  "STRAIN_XZ"  "STRAIN_YZ"  "STRAIN_PLS"  p_(1st_Invariant)  q_(2nd_Invariant)   Effective_Strain
 ZONE T="POINT=POINT9"
0.000000000000e+00 0.000000000000e+00 0.000000000000e+00 0.000000000000e+00 0.000000000000e+00 0.000000000000e+00 0.000000000000e+00 0.000000000000e+00 0.000000000000e+00 0.000000000000e+00 0.000000000000e+00 0.000000000000e+00 0.000000000000e+00 0.000000000000e+00 0.000000000000e+00 0.000000000000e+00 0.000000000000e+00 -0.000000000000e+00 0.000000000000e+00  0.000000000000e+00
5.000000000000e-01 4.156335170878e-06 1.175843016684e-05 -2.996704775648e-05 -8.746219052081e+01 8.021864574236e+00 3.522420614277e+01 -6.376217748525e+02 -2.967102285893e+00 -1.485557353813e+01 7.674841848154e-06 1.123061040393e-06 1.626288961460e-05 -3.083632905506e-05 -4.153943200250e-07 -2.079780295338e-06 0.000000000000e+00 2.299532530768e+02 6.213743987058e+02  4.364491422709e-05
1.000000000000e+00 8.312833126096e-06 2.351682204772e-05 -5.993411672203e-05 -1.749242074302e+02 1.604461669825e+01 7.044898779160e+01 -1.275243378161e+03 -5.934530599280e+00 -2.971107510807e+01 1.534967743589e-05 2.246246337755e-06 3.252580110141e-05 -6.167266451530e-05 -8.308342838992e-07 -4.159550515129e-06 0.000000000000e+00 4.599061992667e+02 1.242749090599e+03  8.728985599882e-05
1.500000000000e+00 1.246939079146e-05 3.527517045384e-05 -8.990119546527e-05 -2.623871688366e+02 2.406708696297e+01 1.056742707307e+02 -1.912865267446e+03 -8.901804346983e+00 -4.456663483394e+01 2.302446149247e-05 3.369392174815e-06 4.878876226218e-05 -9.250900541016e-05 -1.246252608578e-06 -6.239328876752e-06 0.000000000000e+00 6.898593885172e+02 1.864124050980e+03  1.309348146255e-04
2.000000000000e+00 1.662597677475e-05 4.703352970887e-05 -1.198682766451e-04 -3.498485972441e+02 3.209037127033e+01 1.408984073357e+02 -2.550487030567e+03 -1.186923347784e+01 -5.942212326646e+01 3.069934260243e-05 4.492651977846e-06 6.505163292302e-05 -1.233453477302e-04 -1.661692686898e-06 -8.319097257304e-06 0.000000000000e+00 9.198124068253e+02 2.485498709341e+03  1.745797581774e-04
2.500000000000e+00 2.078250555049e-05 5.879184907550e-05 -1.498353635499e-04 -4.373104841319e+02 4.011286144814e+01 1.761228538236e+02 -3.188108811182e+03 -1.483664884160e+01 -7.427769589177e+01 3.837419494057e-05 5.615800602740e-06 8.131452859745e-05 -1.541816879529e-04 -2.077130837823e-06 -1.039887742485e-05 0.000000000000e+00 1.149765480497e+03 3.106873400663e+03  2.182246988138e-04
3.000000000000e+00 2.493902592951e-05 7.055024850280e-05 -1.798024323684e-04 -5.247732896393e+02 4.813560231513e+01 2.113482957762e+02 -3.825730514509e+03 -1.780397558730e+01 -8.913319738842e+01 4.604897989269e-05 6.738984324119e-06 9.757749087177e-05 -1.850180258482e-04 -2.492556582223e-06 -1.247864763438e-05 0.000000000000e+00 1.379718502791e+03 3.728248340520e+03  2.618696574872e-04
3.500000000000e+00 2.909547585330e-05 8.230867489639e-05 -2.097694796598e-04 -6.122353382895e+02 5.615889490057e+01 2.465721915155e+02 -4.463352389758e+03 -2.077140494405e+01 -1.039887339776e+02 5.372383705037e-05 7.862245286079e-06 1.138403641367e-04 -2.158543565524e-04 -2.907996692167e-06 -1.455842275686e-05 0.000000000000e+00 1.609671845511e+03 4.349622745471e+03  3.055145841515e-04
4.000000000000e+00 3.325190915439e-05 9.406705428106e-05 -2.397365560132e-04 -6.996965022673e+02 6.418054963443e+01 2.817963350986e+02 -5.100974027007e+03 -2.373852259422e+01 -1.188442448673e+02 6.139872872481e-05 8.985276948820e-06 1.301032273404e-04 -2.466906980070e-04 -3.323393163191e-06 -1.663819428143e-05 0.000000000000e+00 1.839624731392e+03 4.970997309415e+03  3.491595073101e-04
4.500000000000e+00 3.740856451908e-05 1.058253849788e-04 -2.697036231467e-04 -7.871608104425e+02 7.220428018936e+01 3.170230968082e+02 -5.738595504137e+03 -2.670619148507e+01 -1.336998979328e+02 6.907340762445e-05 1.010859922651e-05 1.463662811320e-04 -2.775270209342e-04 -3.738866807910e-06 -1.871798571059e-05 0.000000000000e+00 2.069577739257e+03 5.592372408726e+03  3.928044884309e-04
5.000000000000e+00 4.156507465104e-05 1.175837863541e-04 -2.996707085031e-04 -8.746214972635e+02 8.022649549968e+01 3.522468164455e+02 -6.376217463114e+03 -2.967323095881e+01 -1.485552900018e+02 7.674833807019e-05 1.123170936995e-05 1.626291200298e-04 -3.083633795393e-04 -4.154252334234e-06 -2.079774060025e-05 0.000000000000e+00 2.299530714644e+03 6.213747194100e+03  4.364494295631e-04
5.500000000000e+00 4.572161347623e-05 1.293421290332e-04 -3.296377917970e-04 -9.620835727167e+02 8.824917033438e+01 3.874714324993e+02 -7.013839228407e+03 -3.264065353785e+01 -1.634108286805e+02 8.442317728232e-05 1.235488384681e-05 1.788920276474e-04 -3.391997186160e-04 -4.569691495299e-06 -2.287751601527e-05 0.000000000000e+00 2.529483789541e+03 6.835121918850e+03  4.800943735405e-04
6.000000000000e+00 4.987820385205e-05 1.411005064014e-04 -3.596048514261e-04 -1.049545634425e+03 9.627193769256e+01 4.226963665770e+02 -7.651460924752e+03 -3.560782311809e+01 -1.782663897287e+02 9.209800944225e-05 1.347807127696e-05 1.951549495124e-04 -3.700360608806e-04 -4.985095236532e-06 -2.495729456202e-05 0.000000000000e+00 2.759436730866e+03 7.456496785617e+03  5.237393277524e-04
6.500000000000e+00 5.403476351112e-05 1.528588674079e-04 -3.895719304499e-04 -1.137007629122e+03 1.042957498107e+02 4.579208838292e+02 -8.289082674973e+03 -3.857528836064e+01 -1.931219640579e+02 9.977285436675e-05 1.460140497350e-05 2.114178502734e-04 -4.008723988428e-04 -5.400540370490e-06 -2.703707496811e-05 0.000000000000e+00 2.989389806755e+03 8.077871507285e+03  5.673842813970e-04
7.000000000000e+00 5.819108220504e-05 1.646173029081e-04 -4.195389884125e-04 -1.224470104612e+03 1.123169094315e+02 4.931454440536e+02 -8.926704493214e+03 -4.154236117664e+01 -2.079774401773e+02 1.074476757526e-04 1.572436732041e-05 2.276807641592e-04 -4.317087314495e-04 -5.815930564730e-06 -2.911684162482e-05 0.000000000000e+00 3.219343051257e+03 8.699246042613e+03  6.110291978895e-04
7.500000000000e+00 6.234754613841e-05 1.763756755072e-04 -4.495060603029e-04 -1.311931312085e+03 1.203392892224e+02 5.283692032827e+02 -9.564326169176e+03 -4.450998335919e+01 -2.228329113493e+02 1.151225737136e-04 1.684750049114e-05 2.439436097894e-04 -4.625450662828e-04 -6.231397670287e-06 -3.119660758890e-05 0.000000000000e+00 3.449296092660e+03 9.320620416116e+03  6.546741145568e-04
8.000000000000e+00 6.650422449264e-05 1.881340190340e-04 -4.794731484483e-04 -1.399394296178e+03 1.283627744878e+02 5.635950890605e+02 -1.020194796817e+04 -4.747716718430e+01 -2.376884677695e+02 1.227973427732e-04 1.797078842829e-05 2.602065997399e-04 -4.933814142659e-04 -6.646803405801e-06 -3.327638548773e-05 0.000000000000e+00 3.679249058428e+03 9.941995703522e+03  6.983191039059e-04
8.500000000000e+00 7.066074279612e-05 1.998923765817e-04 -5.094402265627e-04 -1.486856241240e+03 1.363852730003e+02 5.988196460724e+02 -1.083956971231e+04 -5.044458006226e+01 -2.525439719120e+02 1.304721892628e-04 1.909393822005e-05 2.764695013747e-04 -5.242177537123e-04 -7.062241208716e-06 -3.535615606768e-05 0.000000000000e+00 3.909202102493e+03 1.056337040507e+04  7.419640442880e-04
9.000000000000e+00 7.481726136453e-05 2.116507048044e-04 -5.394073111914e-04 -1.574319225218e+03 1.444077413797e+02 6.340447094714e+02 -1.147719161874e+04 -5.341174775197e+01 -2.673996173520e+02 1.381469769245e-04 2.021708379316e-05 2.927324523528e-04 -5.550540906222e-04 -7.477644685276e-06 -3.743594642928e-05 0.000000000000e+00 4.139155378163e+03 1.118474523858e+04  7.856089950172e-04
9.500000000000e+00 7.897361030588e-05 2.234091608867e-04 -5.693743548759e-04 -1.661782286545e+03 1.524295163672e+02 6.692700473138e+02 -1.211481319030e+04 -5.637927507657e+01 -2.822550984148e+02 1.458217485324e-04 2.134013229141e-05 3.089954119025e-04 -5.858904147303e-04 -7.893098510720e-06 -3.951571377807e-05 0.000000000000e+00 4.369108476510e+03 1.180611985812e+04  8.292539238094e-04
1.000000000000e+01 8.313034162304e-05 2.351674805706e-04 -5.993414371790e-04 -1.749244040176e+03 1.604540265001e+02 7.044947939776e+02 -1.275243491611e+04 -5.934669307391e+01 -2.971107184081e+02 1.534966004339e-04 2.246356371001e-05 3.252583188246e-04 -6.167267608816e-04 -8.308537030347e-06 -4.159550057713e-05 0.000000000000e+00 4.599061387436e+03 1.242749481517e+04  8.728989000772e-04
