 TITLE = "Time curves in points"
 VARIABLES = "TIME"  "DISPLACEMENT_X1"  "DISPLACEMENT_Y1"  "DISPLACEMENT_Z1"  "STRESS_XX"  "STRESS_XY"  "STRESS_YY"  "STRESS_ZZ"  "STRESS_XZ"  "STRESS_YZ"  "STRAIN_XX"  "STRAIN_XY"  "STRAIN_YY"  "STRAIN_ZZ"  "STRAIN_XZ"  "STRAIN_YZ"  "STRAIN_PLS"  p_(1st_Invariant)  q_(2nd_Invariant)   Effective_Strain
 ZONE T="POINT=POINT9"
0.000000000000e+00 0.000000000000e+00 0.000000000000e+00 0.000000000000e+00 0.000000000000e+00 0.000000000000e+00 0.000000000000e+00 0.000000000000e+00 0.000000000000e+00 0.000000000000e+00 0.000000000000e+00 0.000000000000e+00 0.000000000000e+00 0.000000000000e+00 0.000000000000e+00 0.000000000000e+00 0.000000000000e+00 -0.000000000000e+00 0.000000000000e+00  0.000000000000e+00
5.000000000000e-01 4.156456010650e-06 1.175839424233e-05 -2.996705513596e-05 -8.746223170720e+01 8.022384859051e+00 3.522449358170e+01 -6.376218284459e+02 -2.967388201665e+00 -1.485547125052e+01 7.674835111924e-06 1.123133880267e-06 1.626290588215e-05 -3.083633665978e-05 -4.154343482331e-07 -2.079765975073e-06 0.000000000000e+00 2.299531888571e+02 6.213746381925e+02  4.364493447319e-05
1.000000000000e+00 8.312707839236e-06 2.351681707534e-05 -5.993412347181e-05 -1.749244236948e+02 1.604393850205e+01 7.044858126093e+01 -1.275243582333e+03 -5.934535541170e+00 -2.971109422996e+01 1.534967883671e-05 2.246151390286e-06 3.252578918361e-05 -6.167266226800e-05 -8.308349757638e-07 -4.159553192194e-06 0.000000000000e+00 4.599064749225e+02 1.242748932077e+03  8.728983974462e-05
1.500000000000e+00 1.246955731013e-05 3.527512288994e-05 -8.990121005634e-05 -2.623865052587e+02 2.406813580190e+01 1.056741763412e+02 -1.912865222148e+03 -8.902013714124e+00 -4.456658691746e+01 2.302449565320e-05 3.369539012266e-06 4.878874336519e-05 -9.250901452903e-05 -1.246281919977e-06 -6.239322168444e-06 0.000000000000e+00 6.898591836884e+02 1.864124214419e+03  1.309348344378e-04
2.000000000000e+00 1.662590766884e-05 4.703360651825e-05 -1.198682424298e-04 -3.498482368035e+02 3.209035798293e+01 1.408983183462e+02 -2.550486900409e+03 -1.186933082366e+01 -5.942199490608e+01 3.069935980108e-05 4.492650117610e-06 6.505161866155e-05 -1.233453466513e-04 -1.661706315312e-06 -8.319079286852e-06 0.000000000000e+00 9.198122729553e+02 2.485498639940e+03  1.745797515933e-04
2.500000000000e+00 2.078226513775e-05 5.879195441203e-05 -1.498353355250e-04 -4.373107631112e+02 4.011214116656e+01 1.761227479532e+02 -3.188108866035e+03 -1.483662480039e+01 -7.427764221857e+01 3.837418420607e-05 5.615699763319e-06 8.131452998058e-05 -1.541816829986e-04 -2.077127472054e-06 -1.039886991060e-05 0.000000000000e+00 1.149765627064e+03 3.106873258819e+03  2.182246822021e-04
3.000000000000e+00 2.493898181356e-05 7.055024954300e-05 -1.798024220177e-04 -5.247732704455e+02 4.813517768433e+01 2.113484313430e+02 -3.825730441226e+03 -1.780399285436e+01 -8.913307356505e+01 4.604897667538e-05 6.738924875807e-06 9.757749580057e-05 -1.850180252792e-04 -2.492558999610e-06 -1.247863029911e-05 0.000000000000e+00 1.379718426776e+03 3.728248336705e+03  2.618696519720e-04
3.500000000000e+00 2.909562586697e-05 8.230865039921e-05 -2.097694861125e-04 -6.122338402749e+02 5.615885128101e+01 2.465722684844e+02 -4.463352180938e+03 -2.077131609207e+01 -1.039885788627e+02 5.372390623532e-05 7.862239179341e-06 1.138403338485e-04 -2.158543776111e-04 -2.907984252890e-06 -1.455840104078e-05 0.000000000000e+00 1.609671250909e+03 4.349623090430e+03  3.055146052680e-04
4.000000000000e+00 3.325205085615e-05 9.406701043743e-05 -2.397365725354e-04 -6.996972774448e+02 6.418104257972e+01 2.817974547295e+02 -5.100973988420e+03 -2.373864124235e+01 -1.188442337516e+02 6.139866680157e-05 8.985345961161e-06 1.301032980538e-04 -2.466907029667e-04 -3.323409773929e-06 -1.663819272522e-05 0.000000000000e+00 1.839624603712e+03 4.970997741516e+03  3.491595416390e-04
4.500000000000e+00 3.740843559826e-05 1.058253988365e-04 -2.697036413096e-04 -7.871605586267e+02 7.220371003317e+01 3.170220625492e+02 -5.738595970949e+03 -2.670603427094e+01 -1.336999900373e+02 6.907345023667e-05 1.010851940464e-05 1.463662337190e-04 -2.775270286259e-04 -3.738844797932e-06 -1.871799860522e-05 0.000000000000e+00 2.069578155676e+03 5.592372274939e+03  3.928044753870e-04
5.000000000000e+00 4.156517294249e-05 1.175837468033e-04 -2.996707182023e-04 -8.746214992627e+02 8.022696987787e+01 3.522469059042e+02 -6.376217515012e+03 -2.967331244032e+01 -1.485553319726e+02 7.674833721902e-05 1.123177578290e-05 1.626291255807e-04 -3.083633838834e-04 -4.154263741645e-06 -2.079774647617e-05 0.000000000000e+00 2.299530702790e+03 6.213747324304e+03  4.364494433661e-04
5.500000000000e+00 4.572140707922e-05 1.293421683361e-04 -3.296377800464e-04 -9.620835913721e+02 8.824847181382e+01 3.874706759207e+02 -7.013839312715e+03 -3.264065794763e+01 -1.634109442201e+02 8.442319316728e-05 1.235478605393e-05 1.788919918778e-04 -3.391997073267e-04 -4.569692112668e-06 -2.287753219082e-05 0.000000000000e+00 2.529484076055e+03 6.835121492379e+03  4.800943398744e-04
6.000000000000e+00 4.987811536521e-05 1.411005209226e-04 -3.596048585004e-04 -1.049545564306e+03 9.627181018565e+01 4.226960458632e+02 -7.651460962037e+03 -3.560795640053e+01 -1.782663344163e+02 9.209802010817e-05 1.347805342599e-05 1.951549328200e-04 -3.700360577330e-04 -4.985113896074e-06 -2.495728681828e-05 0.000000000000e+00 2.759436826826e+03 7.456496634131e+03  5.237393157203e-04
6.500000000000e+00 5.403475088062e-05 1.528588628459e-04 -3.895719321135e-04 -1.137006732439e+03 1.042948914167e+02 4.579204029651e+02 -8.289082686686e+03 -3.857532508388e+01 -1.931218062499e+02 9.977290905245e-05 1.460128479834e-05 2.114178085308e-04 -4.008724077448e-04 -5.400545511744e-06 -2.703705287498e-05 0.000000000000e+00 2.989389672053e+03 8.077871475386e+03  5.673842699546e-04
7.000000000000e+00 5.819124962776e-05 1.646172526413e-04 -4.195390155087e-04 -1.224470057745e+03 1.123173209350e+02 4.931457256077e+02 -8.926704560023e+03 -4.154197737266e+01 -2.079772983238e+02 1.074476738011e-04 1.572442493091e-05 2.276807786357e-04 -4.317087413584e-04 -5.815876832172e-06 -2.911682176533e-05 0.000000000000e+00 3.219342964053e+03 8.699246304983e+03  6.110292162486e-04
7.500000000000e+00 6.234746916558e-05 1.763757121414e-04 -4.495060455146e-04 -1.311932427926e+03 1.203390085702e+02 5.283701569865e+02 -9.564326122296e+03 -4.450996441424e+01 -2.228328427627e+02 1.151224979099e-04 1.684746119983e-05 2.439436788538e-04 -4.625450606960e-04 -6.231395017993e-06 -3.119659798678e-05 0.000000000000e+00 3.449296131079e+03 9.320620580604e+03  6.546741226704e-04
8.000000000000e+00 6.650408447852e-05 1.881341022734e-04 -4.794731103364e-04 -1.399394273660e+03 1.283623148953e+02 5.635950717890e+02 -1.020194779782e+04 -4.747726775359e+01 -2.376883103256e+02 1.227973408376e-04 1.797072408534e-05 2.602065950190e-04 -4.933814058535e-04 -6.646817485502e-06 -3.327636344558e-05 0.000000000000e+00 3.679248999896e+03 9.941995504917e+03  6.983190842636e-04
8.500000000000e+00 7.066075061621e-05 1.998923411444e-04 -5.094402352518e-04 -1.486856751483e+03 1.363857021541e+02 5.988195169810e+02 -1.083956977484e+04 -5.044462736808e+01 -2.525442153203e+02 1.304721675830e-04 1.909399830157e-05 2.764695063755e-04 -5.242177440518e-04 -7.062247831531e-06 -3.535619014484e-05 0.000000000000e+00 3.909202336446e+03 1.056337024321e+04  7.419640402710e-04
9.000000000000e+00 7.481724129834e-05 2.116506492129e-04 -5.394073249011e-04 -1.574319154245e+03 1.444075350748e+02 6.340443277836e+02 -1.147719152338e+04 -5.341205582661e+01 -2.673997178900e+02 1.381469861997e-04 2.021705491048e-05 2.927324299417e-04 -5.550540796399e-04 -7.477687815725e-06 -3.743596050460e-05 0.000000000000e+00 4.139155449948e+03 1.118474492845e+04  7.856089741424e-04
9.500000000000e+00 7.897360769130e-05 2.234091417864e-04 -5.693743675572e-04 -1.661781386575e+03 1.524303690495e+02 6.692688657207e+02 -1.211481330502e+04 -5.637929421602e+01 -2.822552558510e+02 1.458218194571e-04 2.134025166693e-05 3.089953371179e-04 -5.858904148337e-04 -7.893101190243e-06 -3.951573581914e-05 0.000000000000e+00 4.369108608624e+03 1.180611956879e+04  8.292539129580e-04
1.000000000000e+01 8.313027990446e-05 2.351675281007e-04 -5.993414318407e-04 -1.749243204339e+03 1.604534057828e+02 7.044941724655e+02 -1.275243489858e+04 -5.934655823803e+01 -2.971105091297e+02 1.534966543054e-04 2.246347680959e-05 3.252582706817e-04 -6.167267642916e-04 -8.308518153324e-06 -4.159547127816e-05 0.000000000000e+00 4.599061310152e+03 1.242749464659e+04  8.728988797392e-04
