 TITLE = "Time curves in points"
 VARIABLES = "TIME"  "DISPLACEMENT_X1"  "DISPLACEMENT_Y1"  "STRESS_XX"  "STRESS_XY"  "STRESS_YY"  "STRESS_ZZ"  "STRAIN_XX"  "STRAIN_XY"  "STRAIN_YY"  "STRAIN_ZZ"  "STRAIN_PLS"  p_(1st_Invariant)  q_(2nd_Invariant)   Effective_Strain
 ZONE T="POINT=POINT2"
0.000000000000e+00 0.000000000000e+00 0.000000000000e+00 -5.000000000000e+01 0.000000000000e+00 -5.000000000000e+01 -5.000000000000e+01 0.000000000000e+00 0.000000000000e+00 0.000000000000e+00 0.000000000000e+00 0.000000000000e+00 5.000000000000e+01 1.507288760336e-14  0.000000000000e+00
2.000000000000e+00 5.768303560572e-04 -1.090909090915e-02 -4.999376275173e+01 -1.108326238254e-07 -4.999376270041e+01 -7.563772485496e+01 1.153660690338e-03 -1.042698861281e-10 1.153660714476e-03 -1.090909172434e-02 7.617798991070e-03 5.854175010236e+01 2.564396212889e+01  1.206275242674e-02
4.000000000000e+00 1.275221424183e-03 -2.181818181818e-02 -4.999988524136e+01 6.019781395310e-07 -4.999988534098e+01 -8.341553510088e+01 2.550442876591e-03 5.101775939643e-10 2.550442844960e-03 -2.181818115484e-02 1.876314800733e-02 6.113843522774e+01 3.341564980971e+01  2.436862401561e-02
6.000000000000e+00 2.283841836613e-03 -3.272727272727e-02 -4.995362733193e+01 -7.693531557665e-07 -4.995361270263e+01 -8.989297662170e+01 4.567677275692e-03 -3.469599121174e-10 4.567683757594e-03 -3.272727430847e-02 3.074905639338e-02 6.326673888542e+01 3.993935660442e+01  3.729495482512e-02
8.000000000000e+00 3.520644744059e-03 -4.363636363636e-02 -4.998935045725e+01 -2.954773353217e-07 -4.998934710473e+01 -9.554390865780e+01 7.041283751694e-03 -3.774081310057e-10 7.041289578723e-03 -4.363637123118e-02 4.334411756088e-02 6.517420207326e+01 4.555455987680e+01  5.067765789639e-02
1.000000000000e+01 4.943572869267e-03 -5.454545454545e-02 -5.000255809512e+01 -5.895336948095e-07 -5.000253120624e+01 -1.005398530239e+02 9.887129963284e-03 -7.629560125315e-10 9.887145969652e-03 -5.454546553312e-02 5.641652178361e-02 6.684831410841e+01 5.053730837320e+01  6.443260349959e-02
1.200000000000e+01 6.520110430329e-03 -6.545454545457e-02 -5.000762985636e+01 -1.483611464588e-07 -5.000762906984e+01 -1.050087671715e+02 1.304020836579e-02 -7.171305542308e-10 1.304022106041e-02 -6.545455642704e-02 6.987941646498e-02 6.834134203258e+01 5.500113770845e+01  7.849477114014e-02
1.400000000000e+01 8.226259141319e-03 -7.636363636368e-02 -5.000913463276e+01 -4.367911070203e-08 -5.000913926271e+01 -1.090354967421e+02 1.645250757354e-02 -7.099196854653e-10 1.645251847190e-02 -7.636363695118e-02 8.366976714376e-02 6.968459021253e+01 5.902635979438e+01  9.281614997390e-02
1.600000000000e+01 1.004346717761e-02 -8.727272727273e-02 -5.000909034309e+01 3.726384417222e-06 -5.000913449329e+01 -1.126809896414e+02 2.008693841338e-02 1.942790022969e-09 2.008693426581e-02 -8.727269209740e-02 9.773964621764e-02 7.089973815927e+01 6.267187722325e+01  1.073596284370e-01
1.800000000000e+01 1.195699140055e-02 -9.818181818182e-02 -5.000827288858e+01 -1.271407165334e-06 -5.000822576813e+01 -1.159913909419e+02 2.391396533548e-02 1.102876795242e-10 2.391398310498e-02 -9.818183854530e-02 1.120514829567e-01 7.200262986620e+01 6.598314161354e+01  1.220958127655e-01
2.000000000000e+01 1.395471038898e-02 -1.090909090909e-01 -5.000728064863e+01 -5.307578253886e-06 -5.000719123825e+01 -1.190037023123e+02 2.790937958044e-02 -3.146077407488e-09 2.790942152396e-02 -1.090909967714e-01 1.265745749681e-01 7.300605806639e+01 6.899646636889e+01  1.370003973236e-01
2.200000000000e+01 1.602654385374e-02 -1.200000000000e-01 -5.000626205887e+01 -2.579198764581e-06 -5.000618155566e+01 -1.217482982026e+02 3.205303119189e-02 -3.520348081258e-09 3.205308852522e-02 -1.200001417365e-01 1.412835540535e-01 7.392024727238e+01 7.174207639536e+01  1.520532015950e-01
2.400000000000e+01 1.816395308550e-02 -1.309090909091e-01 -5.000537996859e+01 -3.836212667207e-06 -5.000535606413e+01 -1.242510609273e+02 3.632785174030e-02 -5.369093272337e-09 3.632790684390e-02 -1.309092262654e-01 1.561570004338e-01 7.475393232000e+01 7.424569291094e+01  1.672371055575e-01
2.600000000000e+01 2.035969625239e-02 -1.418181818182e-01 -5.000450480087e+01 -7.090178764816e-06 -5.000440729425e+01 -1.265341929064e+02 4.071931073995e-02 -8.952063928906e-09 4.071939402694e-02 -1.418183962330e-01 1.711769100239e-01 7.551436833385e+01 7.652973685891e+01  1.825377486165e-01
2.800000000000e+01 2.260743298107e-02 -1.527272727273e-01 -5.000376749500e+01 -7.245695008940e-06 -5.000365506632e+01 -1.286176029056e+02 4.521476128126e-02 -1.178277985532e-08 4.521486805505e-02 -1.527275662952e-01 1.863274166980e-01 7.620834182230e+01 7.861389162498e+01  1.979423809634e-01
3.000000000000e+01 2.490164880369e-02 -1.636363636364e-01 -5.000315898263e+01 -8.657920048664e-07 -5.000310241695e+01 -1.305189175211e+02 4.980318886322e-02 -1.056649405119e-08 4.980329960048e-02 -1.636366779543e-01 2.015947256896e-01 7.684172630689e+01 8.051578682131e+01  2.134399221862e-01
3.200000000000e+01 2.723754908242e-02 -1.745454545455e-01 -5.000263194393e+01 1.111301456539e-06 -5.000257808597e+01 -1.322539199467e+02 5.447497983766e-02 -9.675556441334e-09 5.447510031495e-02 -1.745458040919e-01 2.169669250351e-01 7.741970999218e+01 8.225131493172e+01  2.290208441683e-01
3.400000000000e+01 2.961088904099e-02 -1.854545454545e-01 -5.000215581249e+01 2.267688553835e-06 -5.000211129306e+01 -1.338369797531e+02 5.922165246331e-02 -8.562332792943e-09 5.922178003744e-02 -1.854549701181e-01 2.324334498264e-01 7.794708228623e+01 8.383484620036e+01  2.446766863685e-01
3.600000000000e+01 3.201788671805e-02 -1.963636363636e-01 -5.000179892285e+01 -1.064829776791e-06 -5.000175609669e+01 -1.352812245472e+02 6.403564029983e-02 -9.743254369037e-09 6.403577548229e-02 -1.963641043930e-01 2.479847933035e-01 7.842825985556e+01 8.527944703740e+01  2.603998122840e-01
3.800000000000e+01 3.445522888627e-02 -2.072727272727e-01 -5.000144213952e+01 6.987331485906e-06 -5.000140116574e+01 -1.365984874711e+02 6.891031729712e-02 -5.315566332801e-09 6.891045965482e-02 -2.072733239802e-01 2.636127724383e-01 7.886711025880e+01 8.659706581852e+01  2.761837124562e-01
4.000000000000e+01 3.691992185648e-02 -2.181818181818e-01 -5.000117011454e+01 3.099305470452e-06 -5.000107586446e+01 -1.377997187575e+02 7.383968021565e-02 -5.123472920155e-09 7.383984570052e-02 -2.181825654967e-01 2.793098318109e-01 7.926732157883e+01 8.779859576803e+01  2.920223284548e-01
4.200000000000e+01 3.940931328001e-02 -2.290909090909e-01 -5.000096445045e+01 -1.866812091886e-05 -5.000075522997e+01 -1.388948858487e+02 7.881841432901e-02 -1.685109613010e-08 7.881863039632e-02 -2.290918711556e-01 2.950693568034e-01 7.963220184303e+01 8.889402600865e+01  3.079103935183e-01
4.400000000000e+01 4.192095731567e-02 -2.400000000000e-01 -5.000081768521e+01 -8.349896140777e-06 -5.000064089611e+01 -1.398932248753e+02 8.384167572415e-02 -1.737654634035e-08 8.384191910408e-02 -2.400010616768e-01 3.108850856100e-01 7.996489448553e+01 8.989249558473e+01  3.238428590910e-01
4.600000000000e+01 4.445275913987e-02 -2.509090909091e-01 -5.000064304353e+01 -2.451270539045e-06 -5.000051135429e+01 -1.408029804044e+02 8.890526170685e-02 -1.685848597925e-08 8.890552284269e-02 -2.509103021622e-01 3.267518896083e-01 8.026804493406e+01 9.080240320553e+01  3.398156944370e-01
4.800000000000e+01 4.700274425486e-02 -2.618181818182e-01 -5.000057811564e+01 -8.551957281871e-06 -5.000047177207e+01 -1.416319428573e+02 9.400521706366e-02 -2.124632204335e-08 9.400549372249e-02 -2.618194016025e-01 3.426646367805e-01 8.054433091500e+01 9.163141791348e+01  3.558247569956e-01
5.000000000000e+01 4.956921493110e-02 -2.727272727273e-01 -5.000047881580e+01 -1.471241261997e-06 -5.000043174830e+01 -1.423870426667e+02 9.913815712219e-02 -2.011366621312e-08 9.913843504128e-02 -2.727284996586e-01 3.586191784238e-01 8.079598441027e+01 9.238658738468e+01  3.718667957404e-01
5.200000000000e+01 5.215063544071e-02 -2.836363636364e-01 -5.000038580593e+01 -3.823074657304e-06 -5.000032376892e+01 -1.430747061977e+02 1.043009861417e-01 -2.197110605481e-08 1.043012764504e-01 -2.836376685321e-01 3.746116923584e-01 8.102513859086e+01 9.307435141031e+01  3.879387998283e-01
5.400000000000e+01 5.473293033212e-02 -2.945454545453e-01 -5.021376396124e+01 -1.512897984090e-05 -5.020961758089e+01 -1.439394539560e+02 1.094644066721e-01 -2.974417118300e-08 1.094658757883e-01 -2.945487203773e-01 3.906114039657e-01 8.145427849938e+01 9.372776325375e+01  4.040138616095e-01
5.600000000000e+01 5.734566614579e-02 -3.054545454545e-01 -5.000072153753e+01 -5.797830685316e-06 -5.000188131562e+01 -1.443063921329e+02 1.146906791332e-01 -2.957773749007e-08 1.146913416264e-01 -3.054563505069e-01 4.066786390731e-01 8.143633166202e+01 9.430509071170e+01  4.201473608871e-01
5.800000000000e+01 5.995346534750e-02 -3.163636363637e-01 -5.017477883464e+01 -2.824452230955e-06 -5.017571092300e+01 -1.450203943785e+02 1.199064096916e-01 -2.985138339491e-08 1.199069404824e-01 -3.163652075585e-01 4.227411323299e-01 8.179029471206e+01 9.484514950316e+01  4.362718826457e-01
6.000000000000e+01 6.258758293535e-02 -3.272727272727e-01 -5.000050066198e+01 -2.310052100990e-06 -5.000070702330e+01 -1.453196497946e+02 1.251745968926e-01 -3.051517443585e-08 1.251751758095e-01 -3.272745851148e-01 4.388645013919e-01 8.177361915996e+01 9.531904595213e+01  4.524494714662e-01
6.200000000000e+01 6.521829649574e-02 -3.381818181818e-01 -5.014273693965e+01 -1.412708146233e-05 -5.013796540032e+01 -1.459046800666e+02 1.304346621948e-01 -3.797767635810e-08 1.304366142575e-01 -3.381864730575e-01 4.549861658128e-01 8.206179413554e+01 9.576432898580e+01  4.686221112867e-01
6.400000000000e+01 6.786838843924e-02 -3.490909090909e-01 -5.000027286102e+01 -1.890682381657e-05 -5.000162068863e+01 -1.461541371872e+02 1.357357649875e-01 -4.542481673354e-08 1.357367921315e-01 -3.490936271051e-01 4.711495828385e-01 8.205201024562e+01 9.615319041949e+01  4.848299056654e-01
6.600000000000e+01 7.051780544867e-02 -3.600000000000e-01 -5.011669354114e+01 -2.916530333576e-05 -5.010884864228e+01 -1.466328167000e+02 1.410322538743e-01 -5.754098407900e-08 1.410356448580e-01 -3.600082695205e-01 4.873200123282e-01 8.228611962780e+01 9.652004584737e+01  5.010422188953e-01
6.800000000000e+01 7.317176240161e-02 -3.709090909091e-01 -5.018100521971e+01 -3.499779988814e-05 -5.017388092597e+01 -1.470441239634e+02 1.463390698428e-01 -7.056036858670e-08 1.463435686396e-01 -3.709186379014e-01 5.034982753368e-01 8.246633670302e+01 9.686668108704e+01  5.172599571573e-01
7.000000000000e+01 7.583127767353e-02 -3.818181818182e-01 -5.021223358068e+01 -4.275202746353e-05 -5.020802185910e+01 -1.473988566096e+02 1.516577339728e-01 -8.656725615183e-08 1.516626033343e-01 -3.818269031144e-01 5.196887840521e-01 8.260637068314e+01 9.718872895822e+01  5.334870717846e-01
7.200000000000e+01 7.849724766458e-02 -3.927272727273e-01 -5.022278278139e+01 -4.047401984382e-05 -5.021957167618e+01 -1.477053999576e+02 1.569892596469e-01 -9.950818344803e-08 1.569945492933e-01 -3.927358059462e-01 5.358958829550e-01 8.271591813838e+01 9.748422276849e+01  5.497277104354e-01
7.400000000000e+01 8.116955168304e-02 -4.036363636364e-01 -5.022060516850e+01 -4.395588419043e-05 -5.021663488612e+01 -1.479714570312e+02 1.623331307290e-01 -1.148883354617e-07 1.623391653804e-01 -4.036455109024e-01 5.521193755973e-01 8.280289902860e+01 9.775283706437e+01  5.659816589812e-01
7.600000000000e+01 8.384903038640e-02 -4.145454545455e-01 -5.021102657678e+01 -2.456505749793e-05 -5.020470646170e+01 -1.482033031421e+02 1.676907861453e-01 -1.186402583819e-07 1.676981347782e-01 -4.145606587358e-01 5.683653523510e-01 8.287301206018e+01 9.799543677568e+01  5.822551192324e-01
7.800000000000e+01 8.653284495047e-02 -4.254545454546e-01 -5.019721824468e+01 -3.256924541402e-05 -5.019028149467e+01 -1.484072051093e+02 1.730572087103e-01 -1.312333485261e-07 1.730657751782e-01 -4.254724131624e-01 5.846194554949e-01 8.293156828290e+01 9.821345542341e+01  5.985339051527e-01
8.000000000000e+01 8.921881693145e-02 -4.363636363645e-01 -5.018137247917e+01 -8.624648116594e-05 -5.018354237801e+01 -1.485919296458e+02 1.784305344609e-01 -1.718732799635e-07 1.784377120467e-01 -4.363774498023e-01 6.008749432783e-01 8.298561483433e+01 9.840947223528e+01  6.148115730875e-01
8.200000000000e+01 9.191017450223e-02 -4.472727272727e-01 -5.016552613987e+01 -5.271694361564e-05 -5.016760999030e+01 -1.487514757271e+02 1.838135849551e-01 -1.816902673662e-07 1.838204283421e-01 -4.472854320911e-01 6.171459674435e-01 8.302820395243e+01 9.858490767858e+01  6.311024387676e-01
8.400000000000e+01 9.460674225967e-02 -4.581818181818e-01 -5.014991537846e+01 -4.025455629334e-05 -5.014878861664e+01 -1.488906821959e+02 1.892061780701e-01 -1.921523844821e-07 1.892135702979e-01 -4.581975400525e-01 6.334332583147e-01 8.306312873032e+01 9.874133020315e+01  6.474074142683e-01
8.600000000000e+01 9.730625413229e-02 -4.690909090909e-01 -5.013492957407e+01 -2.675738065565e-05 -5.013250767716e+01 -1.490143445657e+02 1.946046622700e-01 -1.979193652547e-07 1.946125999457e-01 -4.691074947062e-01 6.497262262013e-01 8.309392727230e+01 9.888062596232e+01  6.637161258497e-01
8.800000000000e+01 1.000088130579e-01 -4.800000000000e-01 -5.012092607718e+01 -2.753991211752e-05 -5.011807089825e+01 -1.491241311519e+02 2.000092642218e-01 -2.071648923836e-07 2.000177209468e-01 -4.800172350218e-01 6.660268159418e-01 8.312104270911e+01 9.900463269507e+01  6.800307276456e-01
9.000000000000e+01 1.027128211378e-01 -4.909090909091e-01 -5.010808304530e+01 -2.089086045592e-05 -5.011035312395e+01 -1.492246251376e+02 2.054182262101e-01 -2.125346296920e-07 2.054257305605e-01 -4.909237810944e-01 6.823293337726e-01 8.314768710228e+01 9.911540707247e+01  6.963457595101e-01
9.200000000000e+01 1.054192099159e-01 -5.018181818182e-01 -5.009656961681e+01 -1.041906522426e-05 -5.010107352420e+01 -1.493130171489e+02 2.108319886128e-01 -2.135943268328e-07 2.108385003421e-01 -5.018300273429e-01 6.986376886846e-01 8.317022009665e+01 9.921419565510e+01  7.126652718428e-01
9.400000000000e+01 1.081275434782e-01 -5.127272727263e-01 -5.008620612916e+01 8.823069951912e-06 -5.009350541884e+01 -1.493921917968e+02 2.162501576770e-01 -2.063499323952e-07 2.162551546302e-01 -5.127359813265e-01 7.149511014617e-01 8.319063444827e+01 9.930233622401e+01  7.289886374931e-01
9.600000000000e+01 1.108381691546e-01 -5.236363636364e-01 -5.007688496141e+01 6.594814887189e-06 -5.008418580622e+01 -1.494612866260e+02 2.216725972897e-01 -2.046873784312e-07 2.216763951700e-01 -5.236427773092e-01 7.312708843637e-01 8.320745246455e+01 9.938075144334e+01  7.453172735464e-01
9.800000000000e+01 1.135540908371e-01 -5.345454545454e-01 -5.006847140034e+01 -2.253185841090e-05 -5.006225877993e+01 -1.495146955925e+02 2.271019129504e-01 -2.186680651229e-07 2.271082569895e-01 -5.345583805564e-01 7.476093347562e-01 8.321514192426e+01 9.944933064794e+01  7.616634655462e-01
1.000000000000e+02 1.162695100640e-01 -5.454545454532e-01 -5.006061994578e+01 -1.982794237436e-05 -5.005618646981e+01 -1.495687122667e+02 2.325322304849e-01 -2.245670592508e-07 2.325391014193e-01 -5.454686333492e-01 7.639432851967e-01 8.322850622742e+01 9.951030913295e+01  7.780042993242e-01
