VARIABLES  = "X","Y","Z", "DISPLACEMENT_X1", "DISPLACEMENT_Y1", "STRESS_XX", "STRESS_XY", "STRESS_YY", "STRESS_ZZ", "STRAIN_XX", "STRAIN_XY", "STRAIN_YY", "STRAIN_ZZ", "STRAIN_PLS"
ZONE T="0.000000000000e+00s", N=69, E=110, F=FEPOINT, ET=QUADRILATERAL
STRANDID=1, SOLUTIONTIME=0.000000000000e+00
0.000000000000e+00 0.000000000000e+00 0.000000000000e+00 0.000000000000e+00 0.000000000000e+00 -5.000000000000e+01 0.000000000000e+00 -5.000000000000e+01 -5.000000000000e+01 0.000000000000e+00 0.000000000000e+00 0.000000000000e+00 0.000000000000e+00 0.000000000000e+00 
5.000000000000e-01 0.000000000000e+00 0.000000000000e+00 0.000000000000e+00 0.000000000000e+00 -5.000000000000e+01 0.000000000000e+00 -5.000000000000e+01 -5.000000000000e+01 0.000000000000e+00 0.000000000000e+00 0.000000000000e+00 0.000000000000e+00 0.000000000000e+00 
5.000000000000e-01 1.000000000000e+00 0.000000000000e+00 0.000000000000e+00 0.000000000000e+00 -5.000000000000e+01 0.000000000000e+00 -5.000000000000e+01 -5.000000000000e+01 0.000000000000e+00 0.000000000000e+00 0.000000000000e+00 0.000000000000e+00 0.000000000000e+00 
0.000000000000e+00 1.000000000000e+00 0.000000000000e+00 0.000000000000e+00 0.000000000000e+00 -5.000000000000e+01 0.000000000000e+00 -5.000000000000e+01 -5.000000000000e+01 0.000000000000e+00 0.000000000000e+00 0.000000000000e+00 0.000000000000e+00 0.000000000000e+00 
1.250000000000e-01 0.000000000000e+00 0.000000000000e+00 0.000000000000e+00 0.000000000000e+00 -5.000000000000e+01 0.000000000000e+00 -5.000000000000e+01 -5.000000000000e+01 0.000000000000e+00 0.000000000000e+00 0.000000000000e+00 0.000000000000e+00 0.000000000000e+00 
2.500000000000e-01 0.000000000000e+00 0.000000000000e+00 0.000000000000e+00 0.000000000000e+00 -5.000000000000e+01 0.000000000000e+00 -5.000000000000e+01 -5.000000000000e+01 0.000000000000e+00 0.000000000000e+00 0.000000000000e+00 0.000000000000e+00 0.000000000000e+00 
3.750000000000e-01 0.000000000000e+00 0.000000000000e+00 0.000000000000e+00 0.000000000000e+00 -5.000000000000e+01 0.000000000000e+00 -5.000000000000e+01 -5.000000000000e+01 0.000000000000e+00 0.000000000000e+00 0.000000000000e+00 0.000000000000e+00 0.000000000000e+00 
5.000000000000e-01 1.111111111111e-01 0.000000000000e+00 0.000000000000e+00 0.000000000000e+00 -5.000000000000e+01 0.000000000000e+00 -5.000000000000e+01 -5.000000000000e+01 0.000000000000e+00 0.000000000000e+00 0.000000000000e+00 0.000000000000e+00 0.000000000000e+00 
5.000000000000e-01 2.222222222222e-01 0.000000000000e+00 0.000000000000e+00 0.000000000000e+00 -5.000000000000e+01 0.000000000000e+00 -5.000000000000e+01 -5.000000000000e+01 0.000000000000e+00 0.000000000000e+00 0.000000000000e+00 0.000000000000e+00 0.000000000000e+00 
5.000000000000e-01 3.333333333333e-01 0.000000000000e+00 0.000000000000e+00 0.000000000000e+00 -5.000000000000e+01 0.000000000000e+00 -5.000000000000e+01 -5.000000000000e+01 0.000000000000e+00 0.000000000000e+00 0.000000000000e+00 0.000000000000e+00 0.000000000000e+00 
5.000000000000e-01 4.444444444444e-01 0.000000000000e+00 0.000000000000e+00 0.000000000000e+00 -5.000000000000e+01 0.000000000000e+00 -5.000000000000e+01 -5.000000000000e+01 0.000000000000e+00 0.000000000000e+00 0.000000000000e+00 0.000000000000e+00 0.000000000000e+00 
5.000000000000e-01 5.555555555555e-01 0.000000000000e+00 0.000000000000e+00 0.000000000000e+00 -5.000000000000e+01 0.000000000000e+00 -5.000000000000e+01 -5.000000000000e+01 0.000000000000e+00 0.000000000000e+00 0.000000000000e+00 0.000000000000e+00 0.000000000000e+00 
5.000000000000e-01 6.666666666667e-01 0.000000000000e+00 0.000000000000e+00 0.000000000000e+00 -5.000000000000e+01 0.000000000000e+00 -5.000000000000e+01 -5.000000000000e+01 0.000000000000e+00 0.000000000000e+00 0.000000000000e+00 0.000000000000e+00 0.000000000000e+00 
5.000000000000e-01 7.777777777778e-01 0.000000000000e+00 0.000000000000e+00 0.000000000000e+00 -5.000000000000e+01 0.000000000000e+00 -5.000000000000e+01 -5.000000000000e+01 0.000000000000e+00 0.000000000000e+00 0.000000000000e+00 0.000000000000e+00 0.000000000000e+00 
5.000000000000e-01 8.888888888889e-01 0.000000000000e+00 0.000000000000e+00 0.000000000000e+00 -5.000000000000e+01 0.000000000000e+00 -5.000000000000e+01 -5.000000000000e+01 0.000000000000e+00 0.000000000000e+00 0.000000000000e+00 0.000000000000e+00 0.000000000000e+00 
3.750000000000e-01 1.000000000000e+00 0.000000000000e+00 0.000000000000e+00 0.000000000000e+00 -5.000000000000e+01 0.000000000000e+00 -5.000000000000e+01 -5.000000000000e+01 0.000000000000e+00 0.000000000000e+00 0.000000000000e+00 0.000000000000e+00 0.000000000000e+00 
2.500000000000e-01 1.000000000000e+00 0.000000000000e+00 0.000000000000e+00 0.000000000000e+00 -5.000000000000e+01 0.000000000000e+00 -5.000000000000e+01 -5.000000000000e+01 0.000000000000e+00 0.000000000000e+00 0.000000000000e+00 0.000000000000e+00 0.000000000000e+00 
1.250000000000e-01 1.000000000000e+00 0.000000000000e+00 0.000000000000e+00 0.000000000000e+00 -5.000000000000e+01 0.000000000000e+00 -5.000000000000e+01 -5.000000000000e+01 0.000000000000e+00 0.000000000000e+00 0.000000000000e+00 0.000000000000e+00 0.000000000000e+00 
0.000000000000e+00 8.888888888889e-01 0.000000000000e+00 0.000000000000e+00 0.000000000000e+00 -5.000000000000e+01 0.000000000000e+00 -5.000000000000e+01 -5.000000000000e+01 0.000000000000e+00 0.000000000000e+00 0.000000000000e+00 0.000000000000e+00 0.000000000000e+00 
0.000000000000e+00 7.777777777778e-01 0.000000000000e+00 0.000000000000e+00 0.000000000000e+00 -5.000000000000e+01 0.000000000000e+00 -5.000000000000e+01 -5.000000000000e+01 0.000000000000e+00 0.000000000000e+00 0.000000000000e+00 0.000000000000e+00 0.000000000000e+00 
0.000000000000e+00 6.666666666667e-01 0.000000000000e+00 0.000000000000e+00 0.000000000000e+00 -5.000000000000e+01 0.000000000000e+00 -5.000000000000e+01 -5.000000000000e+01 0.000000000000e+00 0.000000000000e+00 0.000000000000e+00 0.000000000000e+00 0.000000000000e+00 
0.000000000000e+00 5.555555555556e-01 0.000000000000e+00 0.000000000000e+00 0.000000000000e+00 -5.000000000000e+01 0.000000000000e+00 -5.000000000000e+01 -5.000000000000e+01 0.000000000000e+00 0.000000000000e+00 0.000000000000e+00 0.000000000000e+00 0.000000000000e+00 
0.000000000000e+00 4.444444444445e-01 0.000000000000e+00 0.000000000000e+00 0.000000000000e+00 -5.000000000000e+01 0.000000000000e+00 -5.000000000000e+01 -5.000000000000e+01 0.000000000000e+00 0.000000000000e+00 0.000000000000e+00 0.000000000000e+00 0.000000000000e+00 
0.000000000000e+00 3.333333333333e-01 0.000000000000e+00 0.000000000000e+00 0.000000000000e+00 -5.000000000000e+01 0.000000000000e+00 -5.000000000000e+01 -5.000000000000e+01 0.000000000000e+00 0.000000000000e+00 0.000000000000e+00 0.000000000000e+00 0.000000000000e+00 
0.000000000000e+00 2.222222222222e-01 0.000000000000e+00 0.000000000000e+00 0.000000000000e+00 -5.000000000000e+01 0.000000000000e+00 -5.000000000000e+01 -5.000000000000e+01 0.000000000000e+00 0.000000000000e+00 0.000000000000e+00 0.000000000000e+00 0.000000000000e+00 
0.000000000000e+00 1.111111111111e-01 0.000000000000e+00 0.000000000000e+00 0.000000000000e+00 -5.000000000000e+01 0.000000000000e+00 -5.000000000000e+01 -5.000000000000e+01 0.000000000000e+00 0.000000000000e+00 0.000000000000e+00 0.000000000000e+00 0.000000000000e+00 
2.589514675558e-01 6.131170471200e-01 0.000000000000e+00 0.000000000000e+00 0.000000000000e+00 -5.000000000000e+01 0.000000000000e+00 -5.000000000000e+01 -5.000000000000e+01 0.000000000000e+00 0.000000000000e+00 0.000000000000e+00 0.000000000000e+00 0.000000000000e+00 
2.516254322439e-01 2.879687005322e-01 0.000000000000e+00 0.000000000000e+00 0.000000000000e+00 -5.000000000000e+01 0.000000000000e+00 -5.000000000000e+01 -5.000000000000e+01 0.000000000000e+00 0.000000000000e+00 0.000000000000e+00 0.000000000000e+00 0.000000000000e+00 
3.093333177154e-01 8.001865036853e-01 0.000000000000e+00 0.000000000000e+00 0.000000000000e+00 -5.000000000000e+01 0.000000000000e+00 -5.000000000000e+01 -5.000000000000e+01 0.000000000000e+00 0.000000000000e+00 0.000000000000e+00 0.000000000000e+00 0.000000000000e+00 
3.261818190709e-01 4.447451429167e-01 0.000000000000e+00 0.000000000000e+00 0.000000000000e+00 -5.000000000000e+01 0.000000000000e+00 -5.000000000000e+01 -5.000000000000e+01 0.000000000000e+00 0.000000000000e+00 0.000000000000e+00 0.000000000000e+00 0.000000000000e+00 
1.589842504896e-01 4.638345688453e-01 0.000000000000e+00 0.000000000000e+00 0.000000000000e+00 -5.000000000000e+01 0.000000000000e+00 -5.000000000000e+01 -5.000000000000e+01 0.000000000000e+00 0.000000000000e+00 0.000000000000e+00 0.000000000000e+00 0.000000000000e+00 
1.588983955413e-01 7.429917284633e-01 0.000000000000e+00 0.000000000000e+00 0.000000000000e+00 -5.000000000000e+01 0.000000000000e+00 -5.000000000000e+01 -5.000000000000e+01 0.000000000000e+00 0.000000000000e+00 0.000000000000e+00 0.000000000000e+00 0.000000000000e+00 
3.470792484928e-01 1.535052867898e-01 0.000000000000e+00 0.000000000000e+00 0.000000000000e+00 -5.000000000000e+01 0.000000000000e+00 -5.000000000000e+01 -5.000000000000e+01 0.000000000000e+00 0.000000000000e+00 0.000000000000e+00 0.000000000000e+00 0.000000000000e+00 
1.565681204010e-01 1.566396714438e-01 0.000000000000e+00 0.000000000000e+00 0.000000000000e+00 -5.000000000000e+01 0.000000000000e+00 -5.000000000000e+01 -5.000000000000e+01 0.000000000000e+00 0.000000000000e+00 0.000000000000e+00 0.000000000000e+00 0.000000000000e+00 
1.783719353894e-01 8.923817557881e-01 0.000000000000e+00 0.000000000000e+00 0.000000000000e+00 -5.000000000000e+01 0.000000000000e+00 -5.000000000000e+01 -5.000000000000e+01 0.000000000000e+00 0.000000000000e+00 0.000000000000e+00 0.000000000000e+00 0.000000000000e+00 
3.625072912338e-01 6.824903560187e-01 0.000000000000e+00 0.000000000000e+00 0.000000000000e+00 -5.000000000000e+01 0.000000000000e+00 -5.000000000000e+01 -5.000000000000e+01 0.000000000000e+00 0.000000000000e+00 0.000000000000e+00 0.000000000000e+00 0.000000000000e+00 
1.387636923039e-01 3.407863315826e-01 0.000000000000e+00 0.000000000000e+00 0.000000000000e+00 -5.000000000000e+01 0.000000000000e+00 -5.000000000000e+01 -5.000000000000e+01 0.000000000000e+00 0.000000000000e+00 0.000000000000e+00 0.000000000000e+00 0.000000000000e+00 
1.015037729946e-01 6.108346079851e-01 0.000000000000e+00 0.000000000000e+00 0.000000000000e+00 -5.000000000000e+01 0.000000000000e+00 -5.000000000000e+01 -5.000000000000e+01 0.000000000000e+00 0.000000000000e+00 0.000000000000e+00 0.000000000000e+00 0.000000000000e+00 
3.795262269175e-01 2.719490921430e-01 0.000000000000e+00 0.000000000000e+00 0.000000000000e+00 -5.000000000000e+01 0.000000000000e+00 -5.000000000000e+01 -5.000000000000e+01 0.000000000000e+00 0.000000000000e+00 0.000000000000e+00 0.000000000000e+00 0.000000000000e+00 
3.680342521626e-01 5.588926803418e-01 0.000000000000e+00 0.000000000000e+00 0.000000000000e+00 -5.000000000000e+01 0.000000000000e+00 -5.000000000000e+01 -5.000000000000e+01 0.000000000000e+00 0.000000000000e+00 0.000000000000e+00 0.000000000000e+00 0.000000000000e+00 
3.845787850981e-01 8.860969553038e-01 0.000000000000e+00 0.000000000000e+00 0.000000000000e+00 -5.000000000000e+01 0.000000000000e+00 -5.000000000000e+01 -5.000000000000e+01 0.000000000000e+00 0.000000000000e+00 0.000000000000e+00 0.000000000000e+00 0.000000000000e+00 
2.520794258593e-01 1.083160548780e-01 0.000000000000e+00 0.000000000000e+00 0.000000000000e+00 -5.000000000000e+01 0.000000000000e+00 -5.000000000000e+01 -5.000000000000e+01 0.000000000000e+00 0.000000000000e+00 0.000000000000e+00 0.000000000000e+00 0.000000000000e+00 
2.368267847428e-01 3.918035843481e-01 0.000000000000e+00 0.000000000000e+00 0.000000000000e+00 -5.000000000000e+01 0.000000000000e+00 -5.000000000000e+01 -5.000000000000e+01 0.000000000000e+00 0.000000000000e+00 0.000000000000e+00 0.000000000000e+00 0.000000000000e+00 
4.068113047681e-01 3.859031984473e-01 0.000000000000e+00 0.000000000000e+00 0.000000000000e+00 -5.000000000000e+01 0.000000000000e+00 -5.000000000000e+01 -5.000000000000e+01 0.000000000000e+00 0.000000000000e+00 0.000000000000e+00 0.000000000000e+00 0.000000000000e+00 
9.579358895840e-02 2.440971713883e-01 0.000000000000e+00 0.000000000000e+00 0.000000000000e+00 -5.000000000000e+01 0.000000000000e+00 -5.000000000000e+01 -5.000000000000e+01 0.000000000000e+00 0.000000000000e+00 0.000000000000e+00 0.000000000000e+00 0.000000000000e+00 
9.407212767522e-02 8.270271821957e-01 0.000000000000e+00 0.000000000000e+00 0.000000000000e+00 -5.000000000000e+01 0.000000000000e+00 -5.000000000000e+01 -5.000000000000e+01 0.000000000000e+00 0.000000000000e+00 0.000000000000e+00 0.000000000000e+00 0.000000000000e+00 
2.516227021218e-01 7.152247998494e-01 0.000000000000e+00 0.000000000000e+00 0.000000000000e+00 -5.000000000000e+01 0.000000000000e+00 -5.000000000000e+01 -5.000000000000e+01 0.000000000000e+00 0.000000000000e+00 0.000000000000e+00 0.000000000000e+00 0.000000000000e+00 
4.124958646476e-01 7.820047072787e-01 0.000000000000e+00 0.000000000000e+00 0.000000000000e+00 -5.000000000000e+01 0.000000000000e+00 -5.000000000000e+01 -5.000000000000e+01 0.000000000000e+00 0.000000000000e+00 0.000000000000e+00 0.000000000000e+00 0.000000000000e+00 
2.857446172640e-01 9.008439229498e-01 0.000000000000e+00 0.000000000000e+00 0.000000000000e+00 -5.000000000000e+01 0.000000000000e+00 -5.000000000000e+01 -5.000000000000e+01 0.000000000000e+00 0.000000000000e+00 0.000000000000e+00 0.000000000000e+00 0.000000000000e+00 
2.523874927360e-01 5.091066351283e-01 0.000000000000e+00 0.000000000000e+00 0.000000000000e+00 -5.000000000000e+01 0.000000000000e+00 -5.000000000000e+01 -5.000000000000e+01 0.000000000000e+00 0.000000000000e+00 0.000000000000e+00 0.000000000000e+00 0.000000000000e+00 
4.121435150797e-01 8.492070391443e-02 0.000000000000e+00 0.000000000000e+00 0.000000000000e+00 -5.000000000000e+01 0.000000000000e+00 -5.000000000000e+01 -5.000000000000e+01 0.000000000000e+00 0.000000000000e+00 0.000000000000e+00 0.000000000000e+00 0.000000000000e+00 
8.819769196411e-02 8.516946377990e-02 0.000000000000e+00 0.000000000000e+00 0.000000000000e+00 -5.000000000000e+01 0.000000000000e+00 -5.000000000000e+01 -5.000000000000e+01 0.000000000000e+00 0.000000000000e+00 0.000000000000e+00 0.000000000000e+00 0.000000000000e+00 
3.200817255356e-01 3.543019263054e-01 0.000000000000e+00 0.000000000000e+00 0.000000000000e+00 -5.000000000000e+01 0.000000000000e+00 -5.000000000000e+01 -5.000000000000e+01 0.000000000000e+00 0.000000000000e+00 0.000000000000e+00 0.000000000000e+00 0.000000000000e+00 
4.169885634503e-01 4.771072683468e-01 0.000000000000e+00 0.000000000000e+00 0.000000000000e+00 -5.000000000000e+01 0.000000000000e+00 -5.000000000000e+01 -5.000000000000e+01 0.000000000000e+00 0.000000000000e+00 0.000000000000e+00 0.000000000000e+00 0.000000000000e+00 
7.948018467492e-02 5.037032300856e-01 0.000000000000e+00 0.000000000000e+00 0.000000000000e+00 -5.000000000000e+01 0.000000000000e+00 -5.000000000000e+01 -5.000000000000e+01 0.000000000000e+00 0.000000000000e+00 0.000000000000e+00 0.000000000000e+00 0.000000000000e+00 
8.096421638074e-02 9.218906870101e-01 0.000000000000e+00 0.000000000000e+00 0.000000000000e+00 -5.000000000000e+01 0.000000000000e+00 -5.000000000000e+01 -5.000000000000e+01 0.000000000000e+00 0.000000000000e+00 0.000000000000e+00 0.000000000000e+00 0.000000000000e+00 
7.930525409953e-02 7.184286874229e-01 0.000000000000e+00 0.000000000000e+00 0.000000000000e+00 -5.000000000000e+01 0.000000000000e+00 -5.000000000000e+01 -5.000000000000e+01 0.000000000000e+00 0.000000000000e+00 0.000000000000e+00 0.000000000000e+00 0.000000000000e+00 
2.661218122358e-01 1.976628741899e-01 0.000000000000e+00 0.000000000000e+00 0.000000000000e+00 -5.000000000000e+01 0.000000000000e+00 -5.000000000000e+01 -5.000000000000e+01 0.000000000000e+00 0.000000000000e+00 0.000000000000e+00 0.000000000000e+00 0.000000000000e+00 
7.835622335767e-02 4.154782256902e-01 0.000000000000e+00 0.000000000000e+00 0.000000000000e+00 -5.000000000000e+01 0.000000000000e+00 -5.000000000000e+01 -5.000000000000e+01 0.000000000000e+00 0.000000000000e+00 0.000000000000e+00 0.000000000000e+00 0.000000000000e+00 
1.740323197534e-01 7.026941424429e-02 0.000000000000e+00 0.000000000000e+00 0.000000000000e+00 -5.000000000000e+01 0.000000000000e+00 -5.000000000000e+01 -5.000000000000e+01 0.000000000000e+00 0.000000000000e+00 0.000000000000e+00 0.000000000000e+00 0.000000000000e+00 
4.306180309316e-01 1.685748948279e-01 0.000000000000e+00 0.000000000000e+00 0.000000000000e+00 -5.000000000000e+01 0.000000000000e+00 -5.000000000000e+01 -5.000000000000e+01 0.000000000000e+00 0.000000000000e+00 0.000000000000e+00 0.000000000000e+00 0.000000000000e+00 
3.268453678584e-01 6.992358094798e-02 0.000000000000e+00 0.000000000000e+00 0.000000000000e+00 -5.000000000000e+01 0.000000000000e+00 -5.000000000000e+01 -5.000000000000e+01 0.000000000000e+00 0.000000000000e+00 0.000000000000e+00 0.000000000000e+00 0.000000000000e+00 
6.711119462000e-02 1.659726929805e-01 0.000000000000e+00 0.000000000000e+00 0.000000000000e+00 -5.000000000000e+01 0.000000000000e+00 -5.000000000000e+01 -5.000000000000e+01 0.000000000000e+00 0.000000000000e+00 0.000000000000e+00 0.000000000000e+00 0.000000000000e+00 
4.291549386527e-01 6.209332067955e-01 0.000000000000e+00 0.000000000000e+00 0.000000000000e+00 -5.000000000000e+01 0.000000000000e+00 -5.000000000000e+01 -5.000000000000e+01 0.000000000000e+00 0.000000000000e+00 0.000000000000e+00 0.000000000000e+00 0.000000000000e+00 
2.149486320640e-01 8.055071588067e-01 0.000000000000e+00 0.000000000000e+00 0.000000000000e+00 -5.000000000000e+01 0.000000000000e+00 -5.000000000000e+01 -5.000000000000e+01 0.000000000000e+00 0.000000000000e+00 0.000000000000e+00 0.000000000000e+00 0.000000000000e+00 
1.780310917010e-01 6.608091874072e-01 0.000000000000e+00 0.000000000000e+00 0.000000000000e+00 -5.000000000000e+01 0.000000000000e+00 -5.000000000000e+01 -5.000000000000e+01 0.000000000000e+00 0.000000000000e+00 0.000000000000e+00 0.000000000000e+00 0.000000000000e+00 
1.819089548864e-01 2.385757522978e-01 0.000000000000e+00 0.000000000000e+00 0.000000000000e+00 -5.000000000000e+01 0.000000000000e+00 -5.000000000000e+01 -5.000000000000e+01 0.000000000000e+00 0.000000000000e+00 0.000000000000e+00 0.000000000000e+00 0.000000000000e+00 
1.755160443574e-01 5.579723222393e-01 0.000000000000e+00 0.000000000000e+00 0.000000000000e+00 -5.000000000000e+01 0.000000000000e+00 -5.000000000000e+01 -5.000000000000e+01 0.000000000000e+00 0.000000000000e+00 0.000000000000e+00 0.000000000000e+00 0.000000000000e+00 
4.386893289369e-01 9.456122625178e-01 0.000000000000e+00 0.000000000000e+00 0.000000000000e+00 -5.000000000000e+01 0.000000000000e+00 -5.000000000000e+01 -5.000000000000e+01 0.000000000000e+00 0.000000000000e+00 0.000000000000e+00 0.000000000000e+00 0.000000000000e+00 
18  35  17  18
13  48  36  13
27  40  36  27
14  48  13  14
41  48  15  41
15  48  14  15
10  39  9  10
24  45  37  24
22  38  21  22
39  58  33  39
28  58  39  28
27  50  40  27
35  49  17  35
36  64  13  36
37  43  31  37
40  50  30  40
29  47  36  29
36  47  27  36
17  49  16  17
39  61  9  39
18  56  35  18
25  45  24  25
36  48  29  36
28  43  37  28
43  50  31  43
37  67  28  37
33  61  39  33
22  55  38  22
16  49  41  16
38  57  21  38
32  65  46  32
37  59  24  37
10  44  39  10
46  65  35  46
2  51  7  2
5  52  1  5
31  59  37  31
38  66  57  38
30  50  43  30
40  54  12  40
57  66  32  57
39  53  28  39
4  56  18  4
35  65  49  35
8  51  2  8
1  52  26  1
55  68  38  55
49  65  29  49
42  58  34  42
30  54  40  30
40  64  36  40
12  64  40  12
11  44  10  11
6  60  5  6
7  62  6  7
58  67  34  58
12  54  11  12
29  48  41  29
45  67  37  45
46  57  32  46
41  49  29  41
20  46  19  20
19  56  4  19
24  59  23  24
31  68  55  31
20  57  46  20
35  56  46  35
13  64  12  13
42  60  6  42
6  62  42  6
28  53  43  28
15  69  41  15
41  69  16  41
44  54  30  44
11  54  44  11
23  55  22  23
21  57  20  21
43  53  30  43
30  53  44  30
44  53  39  44
9  61  8  9
26  63  25  26
3  69  15  3
33  58  42  33
42  62  33  42
34  60  42  34
66  68  27  66
46  56  19  46
29  65  47  29
47  65  32  47
38  68  66  38
45  63  34  45
55  59  31  55
25  63  45  25
47  66  27  47
32  66  47  32
34  67  45  34
27  68  50  27
28  67  58  28
8  61  51  8
33  62  51  33
52  60  34  52
52  63  26  52
50  68  31  50
34  63  52  34
51  61  33  51
51  62  7  51
5  60  52  5
23  59  55  23
16  69  3  16
VARIABLES  = "X","Y","Z", "DISPLACEMENT_X1", "DISPLACEMENT_Y1", "STRESS_XX", "STRESS_XY", "STRESS_YY", "STRESS_ZZ", "STRAIN_XX", "STRAIN_XY", "STRAIN_YY", "STRAIN_ZZ", "STRAIN_PLS"
ZONE T="2.000000000000e+00s", N=69, E=110, F=FEPOINT, ET=QUADRILATERAL
STRANDID=1, SOLUTIONTIME=2.000000000000e+00
0.000000000000e+00 0.000000000000e+00 0.000000000000e+00 0.000000000000e+00 0.000000000000e+00 -4.999376448625e+01 -1.931213155458e-07 -4.999376445655e+01 -7.563772307603e+01 1.153659941176e-03 -1.816859745334e-10 1.153659955148e-03 -1.090908851699e-02 7.617795640347e-03 
5.000000000000e-01 0.000000000000e+00 0.000000000000e+00 5.768300160354e-04 0.000000000000e+00 -4.999376395005e+01 1.536016608795e-07 -4.999376425297e+01 -7.563772338566e+01 1.153660167955e-03 1.445064121893e-10 1.153660025461e-03 -1.090908910491e-02 7.617796259034e-03 
5.000000000000e-01 1.000000000000e+00 0.000000000000e+00 5.768303560572e-04 -1.090909090915e-02 -4.999376275173e+01 -1.108326238254e-07 -4.999376270041e+01 -7.563772485496e+01 1.153660690338e-03 -1.042698861281e-10 1.153660714476e-03 -1.090909172434e-02 7.617798991070e-03 
0.000000000000e+00 1.000000000000e+00 0.000000000000e+00 0.000000000000e+00 -1.090909090915e-02 -4.999376358639e+01 7.508577215090e-08 -4.999376362847e+01 -7.563772643762e+01 1.153660747561e-03 7.063972289418e-11 1.153660727764e-03 -1.090909348521e-02 7.617800665635e-03 
1.250000000000e-01 0.000000000000e+00 0.000000000000e+00 1.442074883841e-04 0.000000000000e+00 -4.999376451686e+01 1.437251866971e-07 -4.999376453024e+01 -7.563772305501e+01 1.153659934160e-03 1.352147539021e-10 1.153659927869e-03 -1.090908846494e-02 7.617795583832e-03 
2.500000000000e-01 0.000000000000e+00 0.000000000000e+00 2.884149871426e-04 0.000000000000e+00 -4.999376425186e+01 5.972044547786e-08 -4.999376439800e+01 -7.563772306733e+01 1.153660019333e-03 5.618420561692e-11 1.153659950587e-03 -1.090908857088e-02 7.617795707158e-03 
3.750000000000e-01 0.000000000000e+00 0.000000000000e+00 4.326224894788e-04 0.000000000000e+00 -4.999376428841e+01 2.748545448216e-07 -4.999376445778e+01 -7.563772335573e+01 1.153660060585e-03 2.585795248832e-10 1.153659980917e-03 -1.090908894222e-02 7.617796072650e-03 
5.000000000000e-01 1.111111111111e-01 0.000000000000e+00 5.768300518040e-04 -1.212121029834e-03 -4.999376360651e+01 1.262417062179e-07 -4.999376405105e+01 -7.563772351686e+01 1.153660294503e-03 1.187665298862e-10 1.153660085395e-03 -1.090908940611e-02 7.617796583457e-03 
5.000000000000e-01 2.222222222222e-01 0.000000000000e+00 5.768301365102e-04 -2.424242114815e-03 -4.999376365003e+01 4.292642598251e-07 -4.999376379599e+01 -7.563772391200e+01 1.153660318181e-03 4.038461703841e-10 1.153660249523e-03 -1.090908999199e-02 7.617797176420e-03 
5.000000000000e-01 3.333333333333e-01 0.000000000000e+00 5.768301990194e-04 -3.636363244136e-03 -4.999376351109e+01 2.871195082899e-07 -4.999376350234e+01 -7.563772418669e+01 1.153660384364e-03 2.701182646579e-10 1.153660388478e-03 -1.090909046337e-02 7.617797665260e-03 
5.000000000000e-01 4.444444444444e-01 0.000000000000e+00 5.768302437694e-04 -4.848484438275e-03 -4.999376338936e+01 1.571266084340e-07 -4.999376333577e+01 -7.563772445910e+01 1.153660457159e-03 1.478226559292e-10 1.153660482366e-03 -1.090909089925e-02 7.617798112281e-03 
5.000000000000e-01 5.555555555555e-01 0.000000000000e+00 5.768302995450e-04 -6.060605688552e-03 -4.999376316660e+01 -5.482839242413e-08 -4.999376310298e+01 -7.563772476795e+01 1.153660566097e-03 -5.158183512121e-11 1.153660596020e-03 -1.090909142232e-02 7.617798653635e-03 
5.000000000000e-01 6.666666666667e-01 0.000000000000e+00 5.768303574185e-04 -7.272726974959e-03 -4.999376291317e+01 1.218897940518e-07 -4.999376276224e+01 -7.563772491055e+01 1.153660647073e-03 1.146723280207e-10 1.153660718069e-03 -1.090909174997e-02 7.617799006583e-03 
5.000000000000e-01 7.777777777778e-01 0.000000000000e+00 5.768303845472e-04 -8.484848288587e-03 -4.999376292617e+01 -2.115046835315e-07 -4.999376266741e+01 -7.563772502916e+01 1.153660652297e-03 -1.989808480022e-10 1.153660774013e-03 -1.090909192996e-02 7.617799189506e-03 
5.000000000000e-01 8.888888888889e-01 0.000000000000e+00 5.768303719457e-04 -9.696969604563e-03 -4.999376276520e+01 -2.771965157513e-07 -4.999376263056e+01 -7.563772489107e+01 1.153660684158e-03 -2.607828648484e-10 1.153660747495e-03 -1.090909178619e-02 7.617799055201e-03 
3.750000000000e-01 1.000000000000e+00 0.000000000000e+00 4.326227737848e-04 -1.090909090915e-02 -4.999376296117e+01 4.225001726038e-08 -4.999376287375e+01 -7.563772513865e+01 1.153660679442e-03 3.974826538876e-11 1.153660720560e-03 -1.090909202498e-02 7.617799273308e-03 
2.500000000000e-01 1.000000000000e+00 0.000000000000e+00 2.884151914824e-04 -1.090909090915e-02 -4.999376331841e+01 2.456394359172e-07 -4.999376317678e+01 -7.563772571261e+01 1.153660676733e-03 2.310943917058e-10 1.153660743353e-03 -1.090909265885e-02 7.617799874960e-03 
1.250000000000e-01 1.000000000000e+00 0.000000000000e+00 1.442076010507e-04 -1.090909090915e-02 -4.999376348361e+01 1.455493529511e-07 -4.999376346083e+01 -7.563772641281e+01 1.153660763459e-03 1.369309471463e-10 1.153660774173e-03 -1.090909351208e-02 7.617800704532e-03 
0.000000000000e+00 8.888888888889e-01 0.000000000000e+00 0.000000000000e+00 -9.696969419340e-03 -4.999376359866e+01 2.967018500205e-08 -4.999376360733e+01 -7.563772640158e+01 1.153660734814e-03 2.791332520063e-11 1.153660730737e-03 -1.090909343809e-02 7.617800619110e-03 
0.000000000000e+00 7.777777777778e-01 0.000000000000e+00 0.000000000000e+00 -8.484847948749e-03 -4.999376267332e+01 -1.138304865283e-07 -4.999376266925e+01 -7.563772582290e+01 1.153660878111e-03 -1.070902465856e-10 1.153660880026e-03 -1.090909306782e-02 7.617800333946e-03 
0.000000000000e+00 6.666666666667e-01 0.000000000000e+00 0.000000000000e+00 -7.272726498582e-03 -4.999376269798e+01 -1.426071749900e-06 -4.999376269558e+01 -7.563772550279e+01 1.153660818153e-03 -1.341629754245e-09 1.153660819282e-03 -1.090909262020e-02 7.617799885877e-03 
0.000000000000e+00 5.555555555556e-01 0.000000000000e+00 0.000000000000e+00 -6.060605180077e-03 -4.999376302902e+01 -1.688564452066e-06 -4.999376303599e+01 -7.563772451007e+01 1.153660566162e-03 -1.588579342531e-09 1.153660562882e-03 -1.090909111686e-02 7.617798358604e-03 
0.000000000000e+00 4.444444444445e-01 0.000000000000e+00 0.000000000000e+00 -4.848483993661e-03 -4.999376290149e+01 -1.502707723723e-06 -4.999376289176e+01 -7.563772405221e+01 1.153660520927e-03 -1.413727705696e-09 1.153660525501e-03 -1.090909055398e-02 7.617797810224e-03 
0.000000000000e+00 3.333333333333e-01 0.000000000000e+00 0.000000000000e+00 -3.636362898229e-03 -4.999376267737e+01 -1.221687846463e-06 -4.999376261498e+01 -7.563772319452e+01 1.153660430097e-03 -1.149347813357e-09 1.153660459444e-03 -1.090908949774e-02 7.617796780799e-03 
0.000000000000e+00 2.222222222222e-01 0.000000000000e+00 0.000000000000e+00 -2.424241888891e-03 -4.999376341680e+01 -6.846565930861e-07 -4.999376342304e+01 -7.563772281244e+01 1.153660180056e-03 -6.441158650528e-10 1.153660177119e-03 -1.090908862982e-02 7.617795847033e-03 
0.000000000000e+00 1.111111111111e-01 0.000000000000e+00 0.000000000000e+00 -1.212120941190e-03 -4.999376441604e+01 -4.477588504734e-07 -4.999376439647e+01 -7.563772323454e+01 1.153659987162e-03 -4.212456035515e-10 1.153659996367e-03 -1.090908876221e-02 7.617795890408e-03 
2.589514675558e-01 6.131170471200e-01 0.000000000000e+00 2.987421288954e-04 -6.688549037400e-03 -4.999376289465e+01 -1.139798552952e-06 -4.999376286293e+01 -7.563772493313e+01 1.153660668169e-03 -1.072307605557e-09 1.153660683091e-03 -1.090909176230e-02 7.617799015180e-03 
2.516254322439e-01 2.879687005322e-01 0.000000000000e+00 2.902902859698e-04 -3.141476175096e-03 -4.999376337984e+01 -2.568417444486e-07 -4.999376331570e+01 -7.563772368898e+01 1.153660329368e-03 -2.416333355192e-10 1.153660359542e-03 -1.090908985655e-02 7.617797075195e-03 
3.093333177154e-01 8.001865036853e-01 0.000000000000e+00 3.568657309677e-04 -8.729307027113e-03 -4.999376280298e+01 -1.110984007372e-06 -4.999376259420e+01 -7.563772523165e+01 1.153660723663e-03 -1.045199287844e-09 1.153660821869e-03 -1.090909224994e-02 7.617799516978e-03 
3.261818190709e-01 4.447451429167e-01 0.000000000000e+00 3.763030819681e-04 -4.851764637291e-03 -4.999376338087e+01 -9.785487933524e-07 -4.999376330869e+01 -7.563772451950e+01 1.153660467560e-03 -9.206058934079e-10 1.153660501514e-03 -1.090909098952e-02 7.617798203777e-03 
1.589842504896e-01 4.638345688453e-01 0.000000000000e+00 1.834138546652e-04 -5.060012722738e-03 -4.999376291608e+01 -9.546342369997e-07 -4.999376293845e+01 -7.563772414191e+01 1.153660535518e-03 -8.981073686633e-10 1.153660524996e-03 -1.090909066245e-02 7.617797915505e-03 
1.588983955413e-01 7.429917284633e-01 0.000000000000e+00 1.833148587028e-04 -8.105363752896e-03 -4.999376268441e+01 -1.239190769187e-06 -4.999376257393e+01 -7.563772544976e+01 1.153660801498e-03 -1.165814563839e-09 1.153660853467e-03 -1.090909257829e-02 7.617799850204e-03 
3.470792484928e-01 1.535052867898e-01 0.000000000000e+00 4.004114746729e-04 -1.674602830111e-03 -4.999376386251e+01 -1.477916560912e-07 -4.999376406453e+01 -7.563772343767e+01 1.153660188986e-03 -1.390404392701e-10 1.153660093959e-03 -1.090908923772e-02 7.617796403671e-03 