VARIABLES  = "X","Y","Z", "DISPLACEMENT_X1", "DISPLACEMENT_Y1", "STRESS_XX", "STRESS_XY", "STRESS_YY", "STRESS_ZZ", "STRAIN_XX", "STRAIN_XY", "STRAIN_YY", "STRAIN_ZZ", "STRAIN_PLS"
ZONE T="0.000000000000e+00s", N=50, E=36, F=FEPOINT, ET=QUADRILATERAL
STRANDID=1, SOLUTIONTIME=0.000000000000e+00
0.000000000000e+00 0.000000000000e+00 0.000000000000e+00 0.000000000000e+00 0.000000000000e+00 -5.000000000000e+01 0.000000000000e+00 -5.000000000000e+01 -5.000000000000e+01 0.000000000000e+00 0.000000000000e+00 0.000000000000e+00 0.000000000000e+00 0.000000000000e+00 
5.000000000000e-01 0.000000000000e+00 0.000000000000e+00 0.000000000000e+00 0.000000000000e+00 -5.000000000000e+01 0.000000000000e+00 -5.000000000000e+01 -5.000000000000e+01 0.000000000000e+00 0.000000000000e+00 0.000000000000e+00 0.000000000000e+00 0.000000000000e+00 
5.000000000000e-01 1.000000000000e+00 0.000000000000e+00 0.000000000000e+00 0.000000000000e+00 -5.000000000000e+01 0.000000000000e+00 -5.000000000000e+01 -5.000000000000e+01 0.000000000000e+00 0.000000000000e+00 0.000000000000e+00 0.000000000000e+00 0.000000000000e+00 
0.000000000000e+00 1.000000000000e+00 0.000000000000e+00 0.000000000000e+00 0.000000000000e+00 -5.000000000000e+01 0.000000000000e+00 -5.000000000000e+01 -5.000000000000e+01 0.000000000000e+00 0.000000000000e+00 0.000000000000e+00 0.000000000000e+00 0.000000000000e+00 
1.250000000000e-01 0.000000000000e+00 0.000000000000e+00 0.000000000000e+00 0.000000000000e+00 -5.000000000000e+01 0.000000000000e+00 -5.000000000000e+01 -5.000000000000e+01 0.000000000000e+00 0.000000000000e+00 0.000000000000e+00 0.000000000000e+00 0.000000000000e+00 
2.500000000000e-01 0.000000000000e+00 0.000000000000e+00 0.000000000000e+00 0.000000000000e+00 -5.000000000000e+01 0.000000000000e+00 -5.000000000000e+01 -5.000000000000e+01 0.000000000000e+00 0.000000000000e+00 0.000000000000e+00 0.000000000000e+00 0.000000000000e+00 
3.750000000000e-01 0.000000000000e+00 0.000000000000e+00 0.000000000000e+00 0.000000000000e+00 -5.000000000000e+01 0.000000000000e+00 -5.000000000000e+01 -5.000000000000e+01 0.000000000000e+00 0.000000000000e+00 0.000000000000e+00 0.000000000000e+00 0.000000000000e+00 
5.000000000000e-01 1.111111111111e-01 0.000000000000e+00 0.000000000000e+00 0.000000000000e+00 -5.000000000000e+01 0.000000000000e+00 -5.000000000000e+01 -5.000000000000e+01 0.000000000000e+00 0.000000000000e+00 0.000000000000e+00 0.000000000000e+00 0.000000000000e+00 
5.000000000000e-01 2.222222222222e-01 0.000000000000e+00 0.000000000000e+00 0.000000000000e+00 -5.000000000000e+01 0.000000000000e+00 -5.000000000000e+01 -5.000000000000e+01 0.000000000000e+00 0.000000000000e+00 0.000000000000e+00 0.000000000000e+00 0.000000000000e+00 
5.000000000000e-01 3.333333333333e-01 0.000000000000e+00 0.000000000000e+00 0.000000000000e+00 -5.000000000000e+01 0.000000000000e+00 -5.000000000000e+01 -5.000000000000e+01 0.000000000000e+00 0.000000000000e+00 0.000000000000e+00 0.000000000000e+00 0.000000000000e+00 
5.000000000000e-01 4.444444444444e-01 0.000000000000e+00 0.000000000000e+00 0.000000000000e+00 -5.000000000000e+01 0.000000000000e+00 -5.000000000000e+01 -5.000000000000e+01 0.000000000000e+00 0.000000000000e+00 0.000000000000e+00 0.000000000000e+00 0.000000000000e+00 
5.000000000000e-01 5.555555555555e-01 0.000000000000e+00 0.000000000000e+00 0.000000000000e+00 -5.000000000000e+01 0.000000000000e+00 -5.000000000000e+01 -5.000000000000e+01 0.000000000000e+00 0.000000000000e+00 0.000000000000e+00 0.000000000000e+00 0.000000000000e+00 
5.000000000000e-01 6.666666666667e-01 0.000000000000e+00 0.000000000000e+00 0.000000000000e+00 -5.000000000000e+01 0.000000000000e+00 -5.000000000000e+01 -5.000000000000e+01 0.000000000000e+00 0.000000000000e+00 0.000000000000e+00 0.000000000000e+00 0.000000000000e+00 
5.000000000000e-01 7.777777777778e-01 0.000000000000e+00 0.000000000000e+00 0.000000000000e+00 -5.000000000000e+01 0.000000000000e+00 -5.000000000000e+01 -5.000000000000e+01 0.000000000000e+00 0.000000000000e+00 0.000000000000e+00 0.000000000000e+00 0.000000000000e+00 
5.000000000000e-01 8.888888888889e-01 0.000000000000e+00 0.000000000000e+00 0.000000000000e+00 -5.000000000000e+01 0.000000000000e+00 -5.000000000000e+01 -5.000000000000e+01 0.000000000000e+00 0.000000000000e+00 0.000000000000e+00 0.000000000000e+00 0.000000000000e+00 
3.750000000000e-01 1.000000000000e+00 0.000000000000e+00 0.000000000000e+00 0.000000000000e+00 -5.000000000000e+01 0.000000000000e+00 -5.000000000000e+01 -5.000000000000e+01 0.000000000000e+00 0.000000000000e+00 0.000000000000e+00 0.000000000000e+00 0.000000000000e+00 
2.500000000000e-01 1.000000000000e+00 0.000000000000e+00 0.000000000000e+00 0.000000000000e+00 -5.000000000000e+01 0.000000000000e+00 -5.000000000000e+01 -5.000000000000e+01 0.000000000000e+00 0.000000000000e+00 0.000000000000e+00 0.000000000000e+00 0.000000000000e+00 
1.250000000000e-01 1.000000000000e+00 0.000000000000e+00 0.000000000000e+00 0.000000000000e+00 -5.000000000000e+01 0.000000000000e+00 -5.000000000000e+01 -5.000000000000e+01 0.000000000000e+00 0.000000000000e+00 0.000000000000e+00 0.000000000000e+00 0.000000000000e+00 
0.000000000000e+00 8.888888888889e-01 0.000000000000e+00 0.000000000000e+00 0.000000000000e+00 -5.000000000000e+01 0.000000000000e+00 -5.000000000000e+01 -5.000000000000e+01 0.000000000000e+00 0.000000000000e+00 0.000000000000e+00 0.000000000000e+00 0.000000000000e+00 
0.000000000000e+00 7.777777777778e-01 0.000000000000e+00 0.000000000000e+00 0.000000000000e+00 -5.000000000000e+01 0.000000000000e+00 -5.000000000000e+01 -5.000000000000e+01 0.000000000000e+00 0.000000000000e+00 0.000000000000e+00 0.000000000000e+00 0.000000000000e+00 
0.000000000000e+00 6.666666666667e-01 0.000000000000e+00 0.000000000000e+00 0.000000000000e+00 -5.000000000000e+01 0.000000000000e+00 -5.000000000000e+01 -5.000000000000e+01 0.000000000000e+00 0.000000000000e+00 0.000000000000e+00 0.000000000000e+00 0.000000000000e+00 
0.000000000000e+00 5.555555555556e-01 0.000000000000e+00 0.000000000000e+00 0.000000000000e+00 -5.000000000000e+01 0.000000000000e+00 -5.000000000000e+01 -5.000000000000e+01 0.000000000000e+00 0.000000000000e+00 0.000000000000e+00 0.000000000000e+00 0.000000000000e+00 
0.000000000000e+00 4.444444444445e-01 0.000000000000e+00 0.000000000000e+00 0.000000000000e+00 -5.000000000000e+01 0.000000000000e+00 -5.000000000000e+01 -5.000000000000e+01 0.000000000000e+00 0.000000000000e+00 0.000000000000e+00 0.000000000000e+00 0.000000000000e+00 
0.000000000000e+00 3.333333333333e-01 0.000000000000e+00 0.000000000000e+00 0.000000000000e+00 -5.000000000000e+01 0.000000000000e+00 -5.000000000000e+01 -5.000000000000e+01 0.000000000000e+00 0.000000000000e+00 0.000000000000e+00 0.000000000000e+00 0.000000000000e+00 
0.000000000000e+00 2.222222222222e-01 0.000000000000e+00 0.000000000000e+00 0.000000000000e+00 -5.000000000000e+01 0.000000000000e+00 -5.000000000000e+01 -5.000000000000e+01 0.000000000000e+00 0.000000000000e+00 0.000000000000e+00 0.000000000000e+00 0.000000000000e+00 
0.000000000000e+00 1.111111111111e-01 0.000000000000e+00 0.000000000000e+00 0.000000000000e+00 -5.000000000000e+01 0.000000000000e+00 -5.000000000000e+01 -5.000000000000e+01 0.000000000000e+00 0.000000000000e+00 0.000000000000e+00 0.000000000000e+00 0.000000000000e+00 
1.250000000000e-01 8.888888888889e-01 0.000000000000e+00 0.000000000000e+00 0.000000000000e+00 -5.000000000000e+01 0.000000000000e+00 -5.000000000000e+01 -5.000000000000e+01 0.000000000000e+00 0.000000000000e+00 0.000000000000e+00 0.000000000000e+00 0.000000000000e+00 
2.500000000000e-01 8.888888888889e-01 0.000000000000e+00 0.000000000000e+00 0.000000000000e+00 -5.000000000000e+01 0.000000000000e+00 -5.000000000000e+01 -5.000000000000e+01 0.000000000000e+00 0.000000000000e+00 0.000000000000e+00 0.000000000000e+00 0.000000000000e+00 
3.750000000000e-01 8.888888888889e-01 0.000000000000e+00 0.000000000000e+00 0.000000000000e+00 -5.000000000000e+01 0.000000000000e+00 -5.000000000000e+01 -5.000000000000e+01 0.000000000000e+00 0.000000000000e+00 0.000000000000e+00 0.000000000000e+00 0.000000000000e+00 
1.250000000000e-01 7.777777777778e-01 0.000000000000e+00 0.000000000000e+00 0.000000000000e+00 -5.000000000000e+01 0.000000000000e+00 -5.000000000000e+01 -5.000000000000e+01 0.000000000000e+00 0.000000000000e+00 0.000000000000e+00 0.000000000000e+00 0.000000000000e+00 
2.500000000000e-01 7.777777777778e-01 0.000000000000e+00 0.000000000000e+00 0.000000000000e+00 -5.000000000000e+01 0.000000000000e+00 -5.000000000000e+01 -5.000000000000e+01 0.000000000000e+00 0.000000000000e+00 0.000000000000e+00 0.000000000000e+00 0.000000000000e+00 
3.750000000000e-01 7.777777777778e-01 0.000000000000e+00 0.000000000000e+00 0.000000000000e+00 -5.000000000000e+01 0.000000000000e+00 -5.000000000000e+01 -5.000000000000e+01 0.000000000000e+00 0.000000000000e+00 0.000000000000e+00 0.000000000000e+00 0.000000000000e+00 
1.250000000000e-01 6.666666666667e-01 0.000000000000e+00 0.000000000000e+00 0.000000000000e+00 -5.000000000000e+01 0.000000000000e+00 -5.000000000000e+01 -5.000000000000e+01 0.000000000000e+00 0.000000000000e+00 0.000000000000e+00 0.000000000000e+00 0.000000000000e+00 
2.500000000000e-01 6.666666666667e-01 0.000000000000e+00 0.000000000000e+00 0.000000000000e+00 -5.000000000000e+01 0.000000000000e+00 -5.000000000000e+01 -5.000000000000e+01 0.000000000000e+00 0.000000000000e+00 0.000000000000e+00 0.000000000000e+00 0.000000000000e+00 
3.750000000000e-01 6.666666666667e-01 0.000000000000e+00 0.000000000000e+00 0.000000000000e+00 -5.000000000000e+01 0.000000000000e+00 -5.000000000000e+01 -5.000000000000e+01 0.000000000000e+00 0.000000000000e+00 0.000000000000e+00 0.000000000000e+00 0.000000000000e+00 
1.250000000000e-01 5.555555555556e-01 0.000000000000e+00 0.000000000000e+00 0.000000000000e+00 -5.000000000000e+01 0.000000000000e+00 -5.000000000000e+01 -5.000000000000e+01 0.000000000000e+00 0.000000000000e+00 0.000000000000e+00 0.000000000000e+00 0.000000000000e+00 
2.500000000000e-01 5.555555555556e-01 0.000000000000e+00 0.000000000000e+00 0.000000000000e+00 -5.000000000000e+01 0.000000000000e+00 -5.000000000000e+01 -5.000000000000e+01 0.000000000000e+00 0.000000000000e+00 0.000000000000e+00 0.000000000000e+00 0.000000000000e+00 
3.750000000000e-01 5.555555555556e-01 0.000000000000e+00 0.000000000000e+00 0.000000000000e+00 -5.000000000000e+01 0.000000000000e+00 -5.000000000000e+01 -5.000000000000e+01 0.000000000000e+00 0.000000000000e+00 0.000000000000e+00 0.000000000000e+00 0.000000000000e+00 
1.250000000000e-01 4.444444444444e-01 0.000000000000e+00 0.000000000000e+00 0.000000000000e+00 -5.000000000000e+01 0.000000000000e+00 -5.000000000000e+01 -5.000000000000e+01 0.000000000000e+00 0.000000000000e+00 0.000000000000e+00 0.000000000000e+00 0.000000000000e+00 
2.500000000000e-01 4.444444444444e-01 0.000000000000e+00 0.000000000000e+00 0.000000000000e+00 -5.000000000000e+01 0.000000000000e+00 -5.000000000000e+01 -5.000000000000e+01 0.000000000000e+00 0.000000000000e+00 0.000000000000e+00 0.000000000000e+00 0.000000000000e+00 
3.750000000000e-01 4.444444444444e-01 0.000000000000e+00 0.000000000000e+00 0.000000000000e+00 -5.000000000000e+01 0.000000000000e+00 -5.000000000000e+01 -5.000000000000e+01 0.000000000000e+00 0.000000000000e+00 0.000000000000e+00 0.000000000000e+00 0.000000000000e+00 
1.250000000000e-01 3.333333333333e-01 0.000000000000e+00 0.000000000000e+00 0.000000000000e+00 -5.000000000000e+01 0.000000000000e+00 -5.000000000000e+01 -5.000000000000e+01 0.000000000000e+00 0.000000000000e+00 0.000000000000e+00 0.000000000000e+00 0.000000000000e+00 
2.500000000000e-01 3.333333333333e-01 0.000000000000e+00 0.000000000000e+00 0.000000000000e+00 -5.000000000000e+01 0.000000000000e+00 -5.000000000000e+01 -5.000000000000e+01 0.000000000000e+00 0.000000000000e+00 0.000000000000e+00 0.000000000000e+00 0.000000000000e+00 
3.750000000000e-01 3.333333333333e-01 0.000000000000e+00 0.000000000000e+00 0.000000000000e+00 -5.000000000000e+01 0.000000000000e+00 -5.000000000000e+01 -5.000000000000e+01 0.000000000000e+00 0.000000000000e+00 0.000000000000e+00 0.000000000000e+00 0.000000000000e+00 
1.250000000000e-01 2.222222222222e-01 0.000000000000e+00 0.000000000000e+00 0.000000000000e+00 -5.000000000000e+01 0.000000000000e+00 -5.000000000000e+01 -5.000000000000e+01 0.000000000000e+00 0.000000000000e+00 0.000000000000e+00 0.000000000000e+00 0.000000000000e+00 
2.500000000000e-01 2.222222222222e-01 0.000000000000e+00 0.000000000000e+00 0.000000000000e+00 -5.000000000000e+01 0.000000000000e+00 -5.000000000000e+01 -5.000000000000e+01 0.000000000000e+00 0.000000000000e+00 0.000000000000e+00 0.000000000000e+00 0.000000000000e+00 
3.750000000000e-01 2.222222222222e-01 0.000000000000e+00 0.000000000000e+00 0.000000000000e+00 -5.000000000000e+01 0.000000000000e+00 -5.000000000000e+01 -5.000000000000e+01 0.000000000000e+00 0.000000000000e+00 0.000000000000e+00 0.000000000000e+00 0.000000000000e+00 
1.250000000000e-01 1.111111111111e-01 0.000000000000e+00 0.000000000000e+00 0.000000000000e+00 -5.000000000000e+01 0.000000000000e+00 -5.000000000000e+01 -5.000000000000e+01 0.000000000000e+00 0.000000000000e+00 0.000000000000e+00 0.000000000000e+00 0.000000000000e+00 
2.500000000000e-01 1.111111111111e-01 0.000000000000e+00 0.000000000000e+00 0.000000000000e+00 -5.000000000000e+01 0.000000000000e+00 -5.000000000000e+01 -5.000000000000e+01 0.000000000000e+00 0.000000000000e+00 0.000000000000e+00 0.000000000000e+00 0.000000000000e+00 
3.750000000000e-01 1.111111111111e-01 0.000000000000e+00 0.000000000000e+00 0.000000000000e+00 -5.000000000000e+01 0.000000000000e+00 -5.000000000000e+01 -5.000000000000e+01 0.000000000000e+00 0.000000000000e+00 0.000000000000e+00 0.000000000000e+00 0.000000000000e+00 
4  19  27  18  
18  27  28  17  
17  28  29  16  
16  29  15  3  
19  20  30  27  
27  30  31  28  
28  31  32  29  
29  32  14  15  
20  21  33  30  
30  33  34  31  
31  34  35  32  
32  35  13  14  
21  22  36  33  
33  36  37  34  
34  37  38  35  
35  38  12  13  
22  23  39  36  
36  39  40  37  
37  40  41  38  
38  41  11  12  
23  24  42  39  
39  42  43  40  
40  43  44  41  
41  44  10  11  
24  25  45  42  
42  45  46  43  
43  46  47  44  
44  47  9  10  
25  26  48  45  
45  48  49  46  
46  49  50  47  
47  50  8  9  
26  1  5  48  
48  5  6  49  
49  6  7  50  
50  7  2  8  
VARIABLES  = "X","Y","Z", "DISPLACEMENT_X1", "DISPLACEMENT_Y1", "STRESS_XX", "STRESS_XY", "STRESS_YY", "STRESS_ZZ", "STRAIN_XX", "STRAIN_XY", "STRAIN_YY", "STRAIN_ZZ", "STRAIN_PLS"
ZONE T="2.000000000000e+00s", N=50, E=36, F=FEPOINT, ET=QUADRILATERAL
STRANDID=1, SOLUTIONTIME=2.000000000000e+00
0.000000000000e+00 0.000000000000e+00 0.000000000000e+00 0.000000000000e+00 0.000000000000e+00 -4.924628557432e+01 8.459873818918e-07 -4.924628557432e+01 -7.538717181031e+01 1.306314285370e-03 7.906487448566e-10 1.306314285370e-03 -1.090914523660e-02 7.684372574395e-03 
5.000000000000e-01 0.000000000000e+00 0.000000000000e+00 6.531502102331e-04 0.000000000000e+00 -4.924633019058e+01 2.295233008710e-06 -4.924632240545e+01 -7.538714487386e+01 1.306296794989e-03 2.145085502217e-09 1.306300432917e-03 -1.090908765387e-02 7.684311048007e-03 
5.000000000000e-01 1.000000000000e+00 0.000000000000e+00 6.531467137706e-04 -1.090909090909e-02 -4.924636056171e+01 9.461546277045e-06 -4.924636055174e+01 -7.538716516176e+01 1.306293237282e-03 8.842608816018e-09 1.306293241940e-03 -1.090909978448e-02 7.684320225881e-03 
0.000000000000e+00 1.000000000000e+00 0.000000000000e+00 0.000000000000e+00 -1.090909090909e-02 -4.924633566107e+01 -1.835665483698e-06 -4.924633566108e+01 -7.538718461356e+01 1.306303362720e-03 -1.715594118867e-09 1.306303362720e-03 -1.090913919598e-02 7.684362073601e-03 
1.250000000000e-01 0.000000000000e+00 0.000000000000e+00 1.632884739947e-04 0.000000000000e+00 -4.924632623277e+01 -2.653499260306e-06 -4.924631181789e+01 -7.538716818247e+01 1.306301408142e-03 -2.479921650348e-09 1.306308144111e-03 -1.090912402615e-02 7.684348281709e-03 
2.500000000000e-01 0.000000000000e+00 0.000000000000e+00 3.265758773380e-04 0.000000000000e+00 -4.924632812606e+01 4.656466178859e-06 -4.924631757600e+01 -7.538715460750e+01 1.306298830732e-03 4.351860486763e-09 1.306303760690e-03 -1.090910304009e-02 7.684326831350e-03 
3.750000000000e-01 0.000000000000e+00 0.000000000000e+00 4.898631525025e-04 0.000000000000e+00 -4.924633950747e+01 2.354828079477e-06 -4.924632729784e+01 -7.538715733727e+01 1.306296147864e-03 2.200785358992e-09 1.306301853324e-03 -1.090910181346e-02 7.684324665388e-03 
5.000000000000e-01 1.111111111111e-01 0.000000000000e+00 6.531500316632e-04 -1.212121585464e-03 -4.924634536428e+01 6.628068062462e-06 -4.924633522527e+01 -7.538716004013e+01 1.306295299779e-03 6.194487893836e-09 1.306300037659e-03 -1.090910230953e-02 7.684324555725e-03 
5.000000000000e-01 2.222222222222e-01 0.000000000000e+00 6.531492243516e-04 -2.424244210450e-03 -4.924633593868e+01 -1.176608313211e-06 -4.924633655469e+01 -7.538715888993e+01 1.306298674443e-03 -1.099639313372e-09 1.306298386584e-03 -1.090910263495e-02 7.684325240631e-03 
5.000000000000e-01 3.333333333333e-01 0.000000000000e+00 6.531480069614e-04 -3.636366223564e-03 -4.924634879700e+01 -3.733392411760e-06 -4.924634558750e+01 -7.538715711424e+01 1.306294562075e-03 -3.489168891555e-09 1.306296061849e-03 -1.090909486453e-02 7.684316456681e-03 
5.000000000000e-01 4.444444444444e-01 0.000000000000e+00 6.531466524720e-04 -4.848487165414e-03 -4.924634216179e+01 -4.687631860468e-07 -4.924634718050e+01 -7.538714870590e+01 1.306295622661e-03 -4.380976210703e-10 1.306293277464e-03 -1.090908421880e-02 7.684305969506e-03 
5.000000000000e-01 5.555555555555e-01 0.000000000000e+00 6.531460197085e-04 -6.060608138777e-03 -4.924633427919e+01 6.180873347544e-06 -4.924634960597e+01 -7.538715061903e+01 1.306299100808e-03 5.776540302100e-09 1.306291938731e-03 -1.090908822972e-02 7.684310245575e-03 
5.000000000000e-01 6.666666666667e-01 0.000000000000e+00 6.531462948519e-04 -7.272729166075e-03 -4.924635302910e+01 5.230989744106e-06 -4.924635654225e+01 -7.538715792389e+01 1.306294271149e-03 4.888798130098e-09 1.306292629486e-03 -1.090909235311e-02 7.684313259474e-03 
5.000000000000e-01 7.777777777778e-01 0.000000000000e+00 6.531467364575e-04 -8.484849725680e-03 -4.924635925231e+01 -7.480563173208e-06 -4.924635312878e+01 -7.538715280996e+01 1.306290718065e-03 -6.991211144422e-09 1.306293579544e-03 -1.090908446480e-02 7.684305199573e-03 
5.000000000000e-01 8.888888888889e-01 0.000000000000e+00 6.531469054580e-04 -9.696970133128e-03 -4.924634474841e+01 -1.307716081816e-05 -4.924634340123e+01 -7.538714224047e+01 1.306293117469e-03 -1.222169086675e-08 1.306293746993e-03 -1.090907538720e-02 7.684297137388e-03 
3.750000000000e-01 1.000000000000e+00 0.000000000000e+00 4.898599453651e-04 -1.090909090909e-02 -4.924635894059e+01 -3.329542835943e-06 -4.924635805504e+01 -7.538716035655e+01 1.306292703678e-03 -3.111737736875e-09 1.306293117490e-03 -1.090909399804e-02 7.684314586447e-03 
2.500000000000e-01 1.000000000000e+00 0.000000000000e+00 3.265736652271e-04 -1.090909090909e-02 -4.924636736038e+01 3.723827477276e-07 -4.924635490819e+01 -7.538715740765e+01 1.306288767504e-03 3.480232353738e-10 1.306294586313e-03 -1.090908857063e-02 7.684308893484e-03 
1.250000000000e-01 1.000000000000e+00 0.000000000000e+00 1.632872597955e-04 -1.090909090909e-02 -4.924635721114e+01 8.247454921042e-07 -4.924634648579e+01 -7.538716588583e+01 1.306293169125e-03 7.707945582907e-10 1.306298180999e-03 -1.090910499534e-02 7.684326237258e-03 
0.000000000000e+00 8.888888888889e-01 0.000000000000e+00 0.000000000000e+00 -9.696966222156e-03 -4.924634746632e+01 -3.256246535117e-05 -4.924634746632e+01 -7.538714739312e+01 1.306293471892e-03 -3.043234295219e-08 1.306293471892e-03 -1.090908102255e-02 7.684302507147e-03 
0.000000000000e+00 7.777777777778e-01 0.000000000000e+00 0.000000000000e+00 -8.484848289475e-03 -4.924638260631e+01 2.394904194843e-05 -4.924638260631e+01 -7.538715289065e+01 1.306285175123e-03 2.238235959845e-08 1.306285175123e-03 -1.090907186965e-02 7.684290195495e-03 
0.000000000000e+00 6.666666666667e-01 0.000000000000e+00 0.000000000000e+00 -7.272729768760e-03 -4.924635490546e+01 2.648686005232e-06 -4.924635490546e+01 -7.538714461412e+01 1.306290998551e-03 2.475412785856e-09 1.306290998551e-03 -1.090907352409e-02 7.684294306476e-03 
0.000000000000e+00 5.555555555556e-01 0.000000000000e+00 0.000000000000e+00 -6.060609782282e-03 -4.924633488850e+01 -1.468120260564e-05 -4.924633488850e+01 -7.538713908137e+01 1.306295288083e-03 -1.372079611616e-08 1.306295288083e-03 -1.090907535144e-02 7.684297912763e-03 
0.000000000000e+00 4.444444444445e-01 0.000000000000e+00 0.000000000000e+00 -4.848489122029e-03 -4.924633065488e+01 2.385547711219e-06 -4.924633065488e+01 -7.538713410918e+01 1.306295504018e-03 2.229485202596e-09 1.306295504018e-03 -1.090907037578e-02 7.684293281051e-03 
0.000000000000e+00 3.333333333333e-01 0.000000000000e+00 0.000000000000e+00 -3.636368548385e-03 -4.924636896389e+01 9.301883335248e-06 -4.924636896389e+01 -7.538717568831e+01 1.306292929488e-03 8.693400916402e-09 1.306292929488e-03 -1.090911058577e-02 7.684330349690e-03 
0.000000000000e+00 2.222222222222e-01 0.000000000000e+00 0.000000000000e+00 -2.424247506776e-03 -4.924635615767e+01 -1.216516693587e-05 -4.924635615767e+01 -7.538715206671e+01 1.306292022358e-03 -1.136936322907e-08 1.306292022358e-03 -1.090908343238e-02 7.684304163834e-03 
0.000000000000e+00 1.111111111111e-01 0.000000000000e+00 0.000000000000e+00 -1.212126184068e-03 -4.924632524174e+01 1.069716711296e-05 -4.924632524174e+01 -7.538716021887e+01 1.306301683545e-03 9.997414569900e-09 1.306301683545e-03 -1.090910980387e-02 7.684333424714e-03 
1.250000000000e-01 8.888888888889e-01 0.000000000000e+00 1.632868898762e-04 -9.696968627253e-03 -4.924634488775e+01 -7.132446387111e-06 -4.924634641870e+01 -7.538715611343e+01 1.306295894841e-03 -6.665869777723e-09 1.306295179441e-03 -1.090909419349e-02 7.684315917526e-03 
2.500000000000e-01 8.888888888889e-01 0.000000000000e+00 3.265736644916e-04 -9.696969998216e-03 -4.924634955449e+01 1.935110473624e-06 -4.924634736221e+01 -7.538715280900e+01 1.306293681985e-03 1.808521518465e-09 1.306294706417e-03 -1.090908818351e-02 7.684309623595e-03 
3.750000000000e-01 8.888888888889e-01 0.000000000000e+00 4.898602927941e-04 -9.696970133584e-03 -4.924635013343e+01 -6.589263252785e-06 -4.924634592324e+01 -7.538714675222e+01 1.306292222983e-03 -6.158214108310e-09 1.306294190370e-03 -1.090907984824e-02 7.684301276115e-03 
1.250000000000e-01 7.777777777778e-01 0.000000000000e+00 1.632861408681e-04 -8.484847823740e-03 -4.924635066871e+01 -5.338639856729e-06 -4.924636079519e+01 -7.538714951901e+01 1.306294037750e-03 -4.989397301339e-09 1.306289305734e-03 -1.090908004406e-02 7.684300792710e-03 
2.500000000000e-01 7.777777777778e-01 0.000000000000e+00 3.265732989944e-04 -8.484848750258e-03 -4.924633599959e+01 -8.222441804504e-06 -4.924634780258e+01 -7.538715338403e+01 1.306298791220e-03 -7.684559954869e-09 1.306293275779e-03 -1.090909214930e-02 7.684314192422e-03 
3.750000000000e-01 7.777777777778e-01 0.000000000000e+00 4.898602368458e-04 -8.484849447371e-03 -4.924635329287e+01 1.032494797941e-05 -4.924635185242e+01 -7.538715662709e+01 1.306293463431e-03 9.649527046580e-09 1.306294136542e-03 -1.090909158889e-02 7.684312686110e-03 
1.250000000000e-01 6.666666666667e-01 0.000000000000e+00 1.632862997789e-04 -7.272729107422e-03 -4.924635476005e+01 1.456920588526e-05 -4.924635269646e+01 -7.538713610774e+01 1.306289281149e-03 1.361612037069e-08 1.306290245445e-03 -1.090906209354e-02 7.684282911065e-03 
2.500000000000e-01 6.666666666667e-01 0.000000000000e+00 3.265725883477e-04 -7.272728055571e-03 -4.924635868814e+01 3.506600191653e-06 -4.924636183145e+01 -7.538715155122e+01 1.306291577821e-03 3.277209859594e-09 1.306290108981e-03 -1.090908073177e-02 7.684301084659e-03 
3.750000000000e-01 6.666666666667e-01 0.000000000000e+00 4.898593491502e-04 -7.272728720082e-03 -4.924634106324e+01 2.021569952395e-06 -4.924635227339e+01 -7.538714997454e+01 1.306296771582e-03 1.889325218761e-09 1.306291533176e-03 -1.090908504716e-02 7.684306626457e-03 
1.250000000000e-01 5.555555555556e-01 0.000000000000e+00 1.632866620641e-04 -6.060609442705e-03 -4.924635880787e+01 3.319364248845e-06 -4.924635541897e+01 -7.538715481679e+01 1.306291477749e-03 3.102224018174e-09 1.306293061353e-03 -1.090908685111e-02 7.684307518748e-03 
2.500000000000e-01 5.555555555556e-01 0.000000000000e+00 3.265728629115e-04 -6.060608777243e-03 -4.924636909526e+01 2.905165136317e-06 -4.924635934478e+01 -7.538714720946e+01 1.306286728108e-03 2.715117323010e-09 1.306291284422e-03 -1.090907270307e-02 7.684292657833e-03 
3.750000000000e-01 5.555555555556e-01 0.000000000000e+00 4.898590140656e-04 -6.060608147463e-03 -4.924635485281e+01 -9.854616843247e-06 -4.924635914105e+01 -7.538715046449e+01 1.306292510931e-03 -9.209958598699e-09 1.306290507074e-03 -1.090908076891e-02 7.684301410208e-03 
1.250000000000e-01 4.444444444444e-01 0.000000000000e+00 1.632868200108e-04 -4.848489104964e-03 -4.924634663618e+01 -5.850992243004e-06 -4.924634389208e+01 -7.538714687333e+01 1.306293318826e-03 -5.468238336651e-09 1.306294601125e-03 -1.090908134895e-02 7.684303029996e-03 
2.500000000000e-01 4.444444444444e-01 0.000000000000e+00 3.265734503853e-04 -4.848489262303e-03 -4.924634136462e+01 -3.336313479151e-06 -4.924634096084e+01 -7.538714014529e+01 1.306293727329e-03 -3.118061035233e-09 1.306293916010e-03 -1.090907383331e-02 7.684295831338e-03 
3.750000000000e-01 4.444444444444e-01 0.000000000000e+00 4.898600491865e-04 -4.848488340860e-03 -4.924635368367e+01 -1.862339566492e-06 -4.924634792225e+01 -7.538714492083e+01 1.306290793514e-03 -1.740511675363e-09 1.306293485776e-03 -1.090907593043e-02 7.684297089644e-03 
1.250000000000e-01 3.333333333333e-01 0.000000000000e+00 1.632867952006e-04 -3.636368465891e-03 -4.924634674684e+01 3.302489589144e-06 -4.924634769152e+01 -7.538715289959e+01 1.306294759220e-03 3.086452484873e-09 1.306294317778e-03 -1.090908890746e-02 7.684310461352e-03 
2.500000000000e-01 3.333333333333e-01 0.000000000000e+00 3.265737432249e-04 -3.636368427447e-03 -4.924634058992e+01 -2.642455237552e-06 -4.924634682731e+01 -7.538715811229e+01 1.306297872380e-03 -2.469596500618e-09 1.306294957701e-03 -1.090909794815e-02 7.684319866555e-03 
3.750000000000e-01 3.333333333333e-01 0.000000000000e+00 4.898610268893e-04 -3.636367686976e-03 -4.924633996111e+01 1.183959781361e-05 -4.924634339635e+01 -7.538715812047e+01 1.306297756171e-03 1.106509899589e-08 1.306296150913e-03 -1.090909893631e-02 7.684321039951e-03 
1.250000000000e-01 2.222222222222e-01 0.000000000000e+00 1.632869021311e-04 -2.424247426903e-03 -4.924633429211e+01 8.627764255565e-06 -4.924634179453e+01 -7.538715175135e+01 1.306298510127e-03 8.063367927489e-09 1.306295004307e-03 -1.090909170268e-02 7.684314083835e-03 
2.500000000000e-01 2.222222222222e-01 0.000000000000e+00 3.265743306501e-04 -2.424246333475e-03 -4.924633646357e+01 2.291284771579e-06 -4.924634069658e+01 -7.538716054954e+01 1.306299203997e-03 2.141399470012e-09 1.306297225945e-03 -1.090910385294e-02 7.684326259872e-03 
3.750000000000e-01 2.222222222222e-01 0.000000000000e+00 4.898616755245e-04 -2.424245216028e-03 -4.924633348159e+01 -5.340838716419e-07 -4.924633884302e+01 -7.538716148416e+01 1.306300277215e-03 -4.991467468864e-10 1.306297771865e-03 -1.090910633431e-02 7.684328969725e-03 
1.250000000000e-01 1.111111111111e-01 0.000000000000e+00 1.632876977226e-04 -1.212124793177e-03 -4.924632836698e+01 -3.732887255459e-06 -4.924632974926e+01 -7.538716770783e+01 1.306302358579e-03 -3.488700255430e-09 1.306301712649e-03 -1.090911852979e-02 7.684341866125e-03 
2.500000000000e-01 1.111111111111e-01 0.000000000000e+00 3.265753935791e-04 -1.212123059287e-03 -4.924633260168e+01 4.269813474684e-07 -4.924632929133e+01 -7.538716441300e+01 1.306300163494e-03 3.990505944544e-10 1.306301710394e-03 -1.090911297441e-02 7.684336110497e-03 
3.750000000000e-01 1.111111111111e-01 0.000000000000e+00 4.898628562216e-04 -1.212122512889e-03 -4.924633042869e+01 -8.475706617635e-06 -4.924632627301e+01 -7.538715561985e+01 1.306299053832e-03 -7.921261064206e-09 1.306300995748e-03 -1.090910182181e-02 7.684325119978e-03 
4  19  27  18  
18  27  28  17  
17  28  29  16  
16  29  15  3  
19  20  30  27  
27  30  31  28  
28  31  32  29  
29  32  14  15  
20  21  33  30  
30  33  34  31  
31  34  35  32  
32  35  13  14  
21  22  36  33  
33  36  37  34  
34  37  38  35  
35  38  12  13  
22  23  39  36  
36  39  40  37  
37  40  41  38  
38  41  11  12  
23  24  42  39  
39  42  43  40  
40  43  44  41  
41  44  10  11  
24  25  45  42  
42  45  46  43  
43  46  47  44  
44  47  9  10  
25  26  48  45  
45  48  49  46  
46  49  50  47  
47  50  8  9  
26  1  5  48  
48  5  6  49  
49  6  7  50  
50  7  2  8  
VARIABLES  = "X","Y","Z", "DISPLACEMENT_X1", "DISPLACEMENT_Y1", "STRESS_XX", "STRESS_XY", "STRESS_YY", "STRESS_ZZ", "STRAIN_XX", "STRAIN_XY", "STRAIN_YY", "STRAIN_ZZ", "STRAIN_PLS"
ZONE T="4.000000000000e+00s", N=50, E=36, F=FEPOINT, ET=QUADRILATERAL
STRANDID=1, SOLUTIONTIME=4.000000000000e+00
0.000000000000e+00 0.000000000000e+00 0.000000000000e+00 0.000000000000e+00 0.000000000000e+00 -4.989416064207e+01 8.109243062738e-07 -4.989416064207e+01 -8.321124100476e+01 2.655642901423e-03 1.324132113689e-09 2.655642901423e-03 -2.181821936383e-02 1.886075180485e-02 
5.000000000000e-01 0.000000000000e+00 0.000000000000e+00 1.327816401255e-03 0.000000000000e+00 -4.989415631388e+01 6.167524675766e-07 -4.989415683668e+01 -8.321122434154e+01 2.655630598136e-03 2.052710654964e-09 2.655632808021e-03 -2.181818020650e-02 1.886070524230e-02 