 TITLE = "Time curves in points"
 VARIABLES = "TIME"  "DISPLACEMENT_X1"  "DISPLACEMENT_Y1"  "STRESS_XX"  "STRESS_XY"  "STRESS_YY"  "STRESS_ZZ"  "STRAIN_XX"  "STRAIN_XY"  "STRAIN_YY"  "STRAIN_ZZ"  "STRAIN_PLS"  p_(1st_Invariant)  q_(2nd_Invariant)   Effective_Strain
 ZONE T="POINT=POINT2"
0.000000000000e+00 0.000000000000e+00 0.000000000000e+00 -5.000000000000e+01 0.000000000000e+00 -5.000000000000e+01 -5.000000000000e+01 0.000000000000e+00 0.000000000000e+00 0.000000000000e+00 0.000000000000e+00 0.000000000000e+00 5.000000000000e+01 0.000000000000e+00  0.000000000000e+00
2.000000000000e+00 5.768301942297e-04 -1.090909090909e-02 -4.999376264475e+01 4.048028657714e-06 -4.999376406687e+01 -7.563772547948e+01 1.153660977154e-03 3.808332486443e-09 1.153660308198e-03 -1.090909229262e-02 7.617799500528e-03 5.854175073036e+01 2.564396212368e+01  1.206275293530e-02
4.000000000000e+00 1.275221421132e-03 -2.181818181818e-02 -4.999988495126e+01 3.766840840573e-07 -4.999988546548e+01 -8.341553623674e+01 2.550443485942e-03 2.963147005253e-09 2.550442781048e-03 -2.181818291774e-02 1.876314987275e-02 6.113843555116e+01 3.341565102837e+01  2.436862605124e-02
6.000000000000e+00 2.279928992683e-03 -3.272727272727e-02 -4.999999455492e+01 -1.570052373560e-07 -4.999999492992e+01 -8.991954472119e+01 4.559858726747e-03 2.715036395693e-09 4.559857929371e-03 -3.272727381923e-02 3.074408894127e-02 6.330651140201e+01 3.991954997877e+01  3.728713214729e-02
8.000000000000e+00 3.518423077845e-03 -4.363636363636e-02 -4.998903303254e+01 -1.276929805117e-07 -4.998903391718e+01 -9.555224944326e+01 7.036847209716e-03 2.652658851212e-09 7.036846096358e-03 -4.363636759657e-02 4.333902157240e-02 6.517677213099e+01 4.556321596839e+01  5.067321424961e-02
1.000000000000e+01 4.941605944627e-03 -5.454545454535e-02 -5.000258698630e+01 -8.912570444945e-08 -5.000258629010e+01 -1.005474352179e+02 9.883212555340e-03 2.617120953325e-09 9.883211838587e-03 -5.454545704458e-02 5.641210884360e-02 6.685086949811e+01 5.054484857973e+01  6.442866924155e-02
1.200000000000e+01 6.518374159148e-03 -6.545454545456e-02 -5.000762635276e+01 6.597602326004e-08 -5.000761521082e+01 -1.050155585700e+02 1.303674490698e-02 2.691060745713e-09 1.303674831958e-02 -6.545455842598e-02 6.987558921176e-02 6.834360004452e+01 5.500793778818e+01  7.849130503926e-02
1.400000000000e+01 8.224719242809e-03 -7.636363636364e-02 -5.000911146874e+01 6.441926078737e-07 -5.000910776558e+01 -1.090416219772e+02 1.644943516370e-02 3.144605017334e-09 1.644943846008e-02 -7.636365323404e-02 8.366644531414e-02 6.968661373716e+01 5.903251236000e+01  9.281309004593e-02
1.600000000000e+01 1.004211183261e-02 -8.727272727273e-02 -5.000902555132e+01 3.035881534993e-07 -5.000901104547e+01 -1.126864973932e+02 2.008421574995e-02 3.192413366457e-09 2.008422370610e-02 -8.727275751128e-02 9.773681546351e-02 7.090151133000e+01 6.267747909483e+01  1.073569772393e-01
1.800000000000e+01 1.195575419492e-02 -9.818181818182e-02 -5.000830851462e+01 -7.912875830377e-07 -5.000831530127e+01 -1.159964911021e+02 2.391150464383e-02 2.568553398849e-09 2.391150839939e-02 -9.818183299979e-02 1.120489107270e-01 7.200437163933e+01 6.598817919414e+01  1.220933395214e-01
2.000000000000e+01 1.395357409727e-02 -1.090909090909e-01 -5.000733975539e+01 -1.870807826174e-06 -5.000734270658e+01 -1.190083834237e+02 2.790714449832e-02 1.507687118961e-09 2.790714811829e-02 -1.090909167078e-01 1.265722074614e-01 7.300768862856e+01 6.900104219272e+01  1.369980630161e-01
2.200000000000e+01 1.602550068104e-02 -1.200000000000e-01 -5.000632911205e+01 5.334424208542e-07 -5.000633150376e+01 -1.217525844530e+02 3.205099812303e-02 2.328560835217e-09 3.205100132271e-02 -1.200000107473e-01 1.412813857177e-01 7.392174835626e+01 7.174625414505e+01  1.520510104702e-01
2.400000000000e+01 1.816301176465e-02 -1.309090909091e-01 -5.000539625260e+01 1.190878086204e-06 -5.000539615827e+01 -1.242549237166e+02 3.632601992306e-02 2.968721711868e-09 3.632602344992e-02 -1.309091016588e-01 1.561550886126e-01 7.475523870916e+01 7.424952751118e+01  1.672351233453e-01
2.600000000000e+01 2.035881627282e-02 -1.418181818182e-01 -5.000455631287e+01 -2.969824042188e-07 -5.000455310313e+01 -1.265377798190e+02 4.071762798705e-02 2.486410310808e-09 4.071763252675e-02 -1.418181992367e-01 1.711751077460e-01 7.551562974501e+01 7.653322511102e+01  1.825358294936e-01
2.800000000000e+01 2.260660959631e-02 -1.527272727273e-01 -5.000382281204e+01 -2.189824891699e-06 -5.000382159860e+01 -1.286209041237e+02 4.521321479159e-02 1.180799834886e-09 4.521321932172e-02 -1.527273118742e-01 1.863257212488e-01 7.620951617811e+01 7.861708191835e+01  1.979405289309e-01
3.000000000000e+01 2.490089359951e-02 -1.636363636364e-01 -5.000318050161e+01 -1.155108602220e-06 -5.000318918675e+01 -1.305219012015e+02 4.980178540611e-02 9.932602928368e-10 4.980178709117e-02 -1.636364214087e-01 2.015932021696e-01 7.684275696330e+01 8.051871635735e+01  2.134382076574e-01
3.200000000000e+01 2.723682818086e-02 -1.745454545455e-01 -5.000269537018e+01 -4.344389545596e-06 -5.000272784776e+01 -1.322566976314e+02 5.447366338078e-02 -1.397668770376e-09 5.447365613483e-02 -1.745454577257e-01 2.169654226756e-01 7.742070694978e+01 8.225398602244e+01  2.290191174835e-01
3.400000000000e+01 2.961020687704e-02 -1.854545454545e-01 -5.000222590155e+01 -1.370311634433e-06 -5.000222261707e+01 -1.338395163917e+02 5.922041613619e-02 -1.192149436497e-09 5.922041377162e-02 -1.854545562231e-01 2.324319878507e-01 7.794798830344e+01 8.383729213239e+01  2.446749711770e-01
3.600000000000e+01 3.201728066700e-02 -1.963636363636e-01 -5.000178846504e+01 5.880462001228e-06 -5.000167929351e+01 -1.352834275306e+02 6.403453197671e-02 2.676930073129e-09 6.403456211143e-02 -1.963637497064e-01 2.479835563001e-01 7.842896509639e+01 8.528169365140e+01  2.603982967505e-01
3.800000000000e+01 3.445461063440e-02 -2.072727272727e-01 -5.000154464294e+01 3.355088263534e-06 -5.000155195847e+01 -1.366006454252e+02 6.890920661583e-02 3.290180012777e-09 6.890922164593e-02 -2.072727731968e-01 2.636113524069e-01 7.886791400887e+01 8.659909712449e+01  2.761819873277e-01
4.000000000000e+01 3.691930321480e-02 -2.181818181818e-01 -5.000125941383e+01 5.979715417263e-06 -5.000126311101e+01 -1.378017185414e+02 7.383859196399e-02 6.046713978795e-09 7.383860675939e-02 -2.181818777092e-01 2.793083067099e-01 7.926808035540e+01 8.780045727894e+01  2.920204770709e-01
4.200000000000e+01 3.940863929093e-02 -2.290909090909e-01 -5.000108595927e+01 -2.991123617484e-06 -5.000112337865e+01 -1.388968345574e+02 7.881727457010e-02 2.880901836574e-09 7.881727877490e-02 -2.290908909014e-01 2.950674766526e-01 7.963301463177e+01 8.889572988845e+01  3.079081675739e-01
4.400000000000e+01 4.192028261680e-02 -2.400000000000e-01 -5.000087901885e+01 -1.801519470132e-06 -5.000089407851e+01 -1.398949605230e+02 8.384056117907e-02 2.525160292836e-09 8.384056534851e-02 -2.399999716377e-01 3.108831228957e-01 7.996557787345e+01 8.989407397433e+01  3.238405349015e-01
4.600000000000e+01 4.445206862354e-02 -2.509090909091e-01 -5.000072475117e+01 -5.051143365064e-07 -5.000073399078e+01 -1.408045858248e+02 8.890413404983e-02 2.650775256840e-09 8.890413728299e-02 -2.509090513508e-01 3.267497590017e-01 8.026868152226e+01 9.080385645385e+01  3.398131870173e-01
4.800000000000e+01 4.700209438862e-02 -2.618181818183e-01 -5.000057828174e+01 2.430284252443e-06 -5.000053836039e+01 -1.416333167942e+02 9.400417330505e-02 4.176926446726e-09 9.400418918244e-02 -2.618181942093e-01 3.426626457813e-01 8.054481114545e+01 9.163275847315e+01  3.558223754531e-01
5.000000000000e+01 4.956858339560e-02 -2.727272727273e-01 -5.000048990820e+01 -3.820982108026e-07 -5.000049223687e+01 -1.423883042747e+02 9.913715650169e-02 3.393250659490e-09 9.913716708169e-02 -2.727272699667e-01 3.586172186976e-01 8.079642880659e+01 9.238781320217e+01  3.718644317584e-01
5.200000000000e+01 5.215000367720e-02 -2.836363636364e-01 -5.000040513328e+01 -9.675030198478e-08 -5.000040691640e+01 -1.430758773912e+02 1.042999972698e-01 3.425962313897e-09 1.043000076065e-01 -2.836363583013e-01 3.746096701117e-01 8.102556314697e+01 9.307547136638e+01  3.879363607395e-01
5.400000000000e+01 5.474494393690e-02 -2.945454545455e-01 -5.000033402797e+01 3.584298060888e-08 -5.000033306477e+01 -1.437019640260e+02 1.094898773160e-01 3.468804183456e-09 1.094898881342e-01 -2.945454509867e-01 3.906364359317e-01 8.123421037293e+01 9.370163047967e+01  4.040353337118e-01
5.600000000000e+01 5.735211005237e-02 -3.054545454545e-01 -5.000029437146e+01 -3.742642881423e-06 -5.000031514425e+01 -1.442719964925e+02 1.147042152653e-01 1.324126209241e-09 1.147042200437e-01 -3.054544650264e-01 4.066941809374e-01 8.142420200275e+01 9.427169173469e+01  4.201586826809e-01
5.800000000000e+01 5.997038886338e-02 -3.163636363636e-01 -5.000024089111e+01 -4.890597040952e-06 -5.000026216289e+01 -1.447908509805e+02 1.199407764712e-01 -5.994757942401e-10 1.199407775824e-01 -3.163635238623e-01 4.227801927586e-01 8.159711801149e+01 9.479059945349e+01  4.363043008890e-01
6.000000000000e+01 6.259874148532e-02 -3.272727272727e-01 -5.000019215566e+01 -2.780338584555e-06 -5.000019727232e+01 -1.452630633860e+02 1.251974807213e-01 -1.055953414536e-09 1.251974828197e-01 -3.272726190807e-01 4.388918350015e-01 8.175448427134e+01 9.526286867205e+01  4.524701008512e-01
6.200000000000e+01 6.522705578144e-02 -3.381818181802e-01 -5.014427092879e+01 -3.354319042801e-06 -5.014452413455e+01 -1.458580111664e+02 1.304541792851e-01 -2.316842059910e-09 1.304541103483e-01 -3.381816394802e-01 4.550059081071e-01 8.204893540990e+01 9.571361363494e+01  4.686357842969e-01
6.400000000000e+01 6.787703631971e-02 -3.490909090909e-01 -5.000038575375e+01 -2.332627706354e-06 -5.000031994753e+01 -1.461075523821e+02 1.357540935352e-01 -2.868265175510e-09 1.357540720765e-01 -3.490907571732e-01 4.711700421203e-01 8.203608602779e+01 9.610719953146e+01  4.848448399791e-01
6.600000000000e+01 7.052325438989e-02 -3.599999999233e-01 -5.011809439472e+01 -1.654235609650e-06 -5.011861282084e+01 -1.465971818281e+02 1.410466818133e-01 -3.267484796591e-09 1.410465068114e-01 -3.599999413514e-01 4.873293024414e-01 8.227796301455e+01 9.647882822136e+01  5.010465356638e-01
6.800000000000e+01 7.318718418174e-02 -3.709090909091e-01 -5.000025393355e+01 1.510423384942e-06 -5.000022000458e+01 -1.468020970700e+02 1.463744731433e-01 -2.041099876471e-09 1.463743667265e-01 -3.709089399193e-01 5.035293369284e-01 8.226752366938e+01 9.680186010095e+01  5.172833598542e-01
7.000000000000e+01 7.584804787197e-02 -3.818181818179e-01 -5.009661685876e+01 2.150094810698e-06 -5.009628136390e+01 -1.472043413275e+02 1.516961111325e-01 -1.178155900360e-09 1.516960950278e-01 -3.818178121911e-01 5.197250254682e-01 8.246574651671e+01 9.710789221656e+01  5.335139152712e-01
7.200000000000e+01 7.851269521742e-02 -3.927272727266e-01 -5.014995289412e+01 -2.051587025138e-05 -5.015301375438e+01 -1.475485748574e+02 1.570262856222e-01 -1.315752042238e-08 1.570253742137e-01 -3.927231485836e-01 5.359272100932e-01 8.261718050197e+01 9.739709156925e+01  5.497489785021e-01
7.400000000000e+01 8.119592447318e-02 -4.036363636364e-01 -5.000026912837e+01 7.220896189202e-06 -4.999901455131e+01 -1.476365106987e+02 1.623920579089e-01 -4.457075023586e-09 1.623918451539e-01 -4.036352464046e-01 5.521782128994e-01 8.254526479279e+01 9.763686886490e+01  5.660271979360e-01
7.600000000000e+01 8.387445169760e-02 -4.145454545455e-01 -5.007107785615e+01 -2.923985768679e-06 -5.007014538850e+01 -1.479342624083e+02 1.677489964941e-01 -7.733034245877e-09 1.677489018846e-01 -4.145447909127e-01 5.684189864563e-01 8.269182855098e+01 9.786365078929e+01  5.822937401021e-01
7.800000000000e+01 8.655624541710e-02 -4.254545454545e-01 -5.011023454629e+01 -2.821044406456e-06 -5.011075011959e+01 -1.481881124593e+02 1.731128307217e-01 -8.644354079648e-09 1.731124864234e-01 -4.254531889006e-01 5.846668194222e-01 8.280303237506e+01 9.807762012738e+01  5.985658474732e-01
8.000000000000e+01 8.924214554253e-02 -4.363636363637e-01 -5.012930317313e+01 -1.238400701363e-05 -5.012955040290e+01 -1.484053992042e+02 1.784846409057e-01 -1.490914436802e-08 1.784842861144e-01 -4.363622125044e-01 6.009251714354e-01 8.288808426006e+01 9.827597241638e+01  6.148466760145e-01
8.200000000000e+01 9.193171843755e-02 -4.472727272727e-01 -5.013563284649e+01 5.102172023326e-06 -5.013620005839e+01 -1.485935971430e+02 1.838639141795e-01 -9.263659189910e-09 1.838634294458e-01 -4.472707231613e-01 6.171923176285e-01 8.295514334930e+01 9.845768069179e+01  6.311343949741e-01
8.400000000000e+01 9.462492342571e-02 -4.581818181818e-01 -5.013424783043e+01 2.007193968285e-05 -5.013478546831e+01 -1.487572512959e+02 1.892504077511e-01 7.489036735322e-10 1.892498376353e-01 -4.581789916449e-01 6.334683621092e-01 8.300876153155e+01 9.862273464765e+01  6.474291143383e-01
8.600000000000e+01 9.732188152439e-02 -4.690909090895e-01 -5.012839410336e+01 1.731749512095e-05 -5.012824920875e+01 -1.489000516942e+02 1.946442244816e-01 5.836829237239e-09 1.946437554423e-01 -4.690882642028e-01 6.497546525924e-01 8.305223166876e+01 9.877173003820e+01  6.637322541649e-01
8.800000000000e+01 1.000216927110e-01 -4.799999999888e-01 -5.012012058143e+01 3.224188244393e-05 -5.012090431454e+01 -1.490262717414e+02 2.000440770368e-01 1.983355454195e-08 2.000433739179e-01 -4.799967401749e-01 6.660477132943e-01 8.308909887913e+01 9.890575929577e+01  6.800404656525e-01
9.000000000000e+01 1.027243547052e-01 -4.909090908747e-01 -5.011069914624e+01 1.952966744440e-05 -5.011162011114e+01 -1.491370586298e+02 2.054495656516e-01 2.338981029832e-08 2.054486954309e-01 -4.909049408926e-01 6.823477429232e-01 8.311979262906e+01 9.902589900432e+01  6.963540714343e-01
9.200000000000e+01 1.054298858261e-01 -5.018181818182e-01 -5.010092200957e+01 1.247631300005e-05 -5.010130565264e+01 -1.492343946934e+02 2.108606305473e-01 2.590096281765e-08 2.108597579181e-01 -5.018138886277e-01 6.986556231717e-01 8.314554078520e+01 9.913328086284e+01  7.126740828608e-01
9.400000000000e+01 1.081377304119e-01 -5.127272727273e-01 -5.009133886168e+01 3.753270048260e-06 -5.009187071149e+01 -1.493207459868e+02 2.162764221075e-01 2.516459322228e-08 2.162754452999e-01 -5.127227817560e-01 7.149694286198e-01 8.316798518667e+01 9.922914120132e+01  7.289987154602e-01
9.600000000000e+01 1.108478674774e-01 -5.236363636382e-01 -5.008223044287e+01 2.538774926631e-07 -5.008222468600e+01 -1.493967843052e+02 2.216966356220e-01 2.445768793005e-08 2.216957204698e-01 -5.236321266978e-01 7.312893723194e-01 8.318707981134e+01 9.931455674071e+01  7.453283047441e-01
9.800000000000e+01 1.135597794714e-01 -5.345454545405e-01 -5.007364680508e+01 -4.030794233394e-05 -5.007386726968e+01 -1.494643882864e+02 2.271205211027e-01 2.057597352930e-09 2.271195441985e-01 -5.345411307359e-01 7.476136415980e-01 8.320396745371e+01 9.939063124921e+01  7.616611633870e-01
1.000000000000e+02 1.162733548604e-01 -5.454545454474e-01 -5.006592125680e+01 -1.158339640159e-05 -5.006621250901e+01 -1.495244264586e+02 2.325477270553e-01 4.739723483977e-09 2.325466943440e-01 -5.454500263750e-01 7.639420693500e-01 8.321885340812e+01 9.945835957597e+01  7.779972370752e-01
