 TITLE = "Time curves in points"
 VARIABLES = "TIME"  "DISPLACEMENT_X1"  "DISPLACEMENT_Y1"  "STRESS_XX"  "STRESS_XY"  "STRESS_YY"  "STRESS_ZZ"  "STRAIN_XX"  "STRAIN_XY"  "STRAIN_YY"  "STRAIN_ZZ"  "STRAIN_PLS"  p_(1st_Invariant)  q_(2nd_Invariant)   Effective_Strain
 ZONE T="POINT=POINT2"
0.000000000000e+00 0.000000000000e+00 0.000000000000e+00 -5.000000000000e+01 0.000000000000e+00 -5.000000000000e+01 -5.000000000000e+01 0.000000000000e+00 0.000000000000e+00 0.000000000000e+00 0.000000000000e+00 0.000000000000e+00 5.000000000000e+01 0.000000000000e+00  0.000000000000e+00
2.000000000000e+00 5.768301816747e-04 -1.090909090909e-02 -4.999376267627e+01 4.044848564883e-06 -4.999376413140e+01 -7.563772544781e+01 1.153660967059e-03 3.805340680269e-09 1.153660282577e-03 -1.090909222790e-02 7.617799431767e-03 5.854175075183e+01 2.564396204397e+01  1.206275285272e-02
4.000000000000e+00 1.275221415831e-03 -2.181818181818e-02 -4.999988495073e+01 2.996973929105e-07 -4.999988549241e+01 -8.341553628613e+01 2.550443500824e-03 2.886756775314e-09 2.550442772074e-03 -2.181818297425e-02 1.876314992917e-02 6.113843557642e+01 3.341565106456e+01  2.436862611070e-02
6.000000000000e+00 2.279928958753e-03 -3.272727272727e-02 -4.999999457091e+01 -2.751766279289e-08 -4.999999508070e+01 -8.991954474823e+01 4.559858732876e-03 2.775900064347e-09 4.559857855722e-03 -3.272727375838e-02 3.074408885730e-02 6.330651146661e+01 3.991954992243e+01  3.728713205267e-02
8.000000000000e+00 3.518422717439e-03 -4.363636363636e-02 -4.998903529993e+01 -1.154848233999e-08 -4.998903536413e+01 -9.555224969939e+01 7.036846207413e-03 2.773992660448e-09 7.036845374975e-03 -4.363636547054e-02 4.333901881252e-02 6.517677345448e+01 4.556321436737e+01  5.067321126174e-02
1.000000000000e+01 4.941606800699e-03 -5.454545454547e-02 -5.000258062938e+01 6.316006199243e-08 -5.000258061161e+01 -1.005474327945e+02 9.883214361263e-03 2.827131195842e-09 9.883213544649e-03 -5.454546063727e-02 5.641211372277e-02 6.685086467850e+01 5.054485217399e+01  6.442867459022e-02
1.200000000000e+01 6.518373624500e-03 -6.545454545455e-02 -5.000762820214e+01 2.830273473109e-07 -5.000761697772e+01 -1.050155579142e+02 1.303674384223e-02 3.024708924387e-09 1.303674727731e-02 -6.545455477711e-02 6.987558480992e-02 6.834360103135e+01 5.500793532425e+01  7.849130033688e-02
1.400000000000e+01 8.224711138979e-03 -7.636363636364e-02 -5.000914731685e+01 -2.768490579008e-07 -5.000915522525e+01 -1.090416464443e+02 1.644942315849e-02 2.747637521436e-09 1.644942222202e-02 -7.636362778968e-02 8.366640799943e-02 6.968664966214e+01 5.903249517325e+01  9.281305047993e-02
1.600000000000e+01 1.004210854525e-02 -8.727272727273e-02 -5.000901702484e+01 1.003959861547e-06 -5.000900125799e+01 -1.126864928911e+02 2.008421142731e-02 3.531172148817e-09 2.008421710596e-02 -8.727274722281e-02 9.773679937028e-02 7.090150372463e+01 6.267748374964e+01  1.073569614895e-01
1.800000000000e+01 1.195575856439e-02 -9.818181818183e-02 -5.000828343528e+01 3.197129076361e-07 -5.000827137950e+01 -1.159964684857e+02 2.391150938188e-02 3.494483899755e-09 2.391151719973e-02 -9.818184452068e-02 1.120489277015e-01 7.200434110015e+01 6.598819107828e+01  1.220933578115e-01
2.000000000000e+01 1.395357242524e-02 -1.090909090909e-01 -5.000734917106e+01 -9.437981376648e-07 -5.000736404806e+01 -1.190083953286e+02 2.790714353977e-02 2.777264686538e-09 2.790714481665e-02 -1.090909146491e-01 1.265722037402e-01 7.300770284924e+01 6.900103871905e+01  1.369980588273e-01
2.200000000000e+01 1.602548604115e-02 -1.200000000000e-01 -5.000637847095e+01 -3.250542869061e-07 -5.000639439322e+01 -1.217526266847e+02 3.205097410401e-02 2.798946618073e-09 3.205097198568e-02 -1.199999627766e-01 1.412813129075e-01 7.392179984963e+01 7.174624025265e+01  1.520509358214e-01
2.400000000000e+01 1.816300702833e-02 -1.309090909091e-01 -5.000538883621e+01 -2.193731512702e-06 -5.000537412430e+01 -1.242549155039e+02 3.632600944496e-02 1.456607601447e-09 3.632601407242e-02 -1.309090834162e-01 1.561550599651e-01 7.475522615481e+01 7.424953402367e+01  1.672350951749e-01
2.600000000000e+01 2.035878854888e-02 -1.418181818182e-01 -5.000461328518e+01 -3.087313831282e-06 -5.000464523818e+01 -1.265378419418e+02 4.071758427128e-02 2.515682204752e-11 4.071757689231e-02 -1.418181094698e-01 1.711749701077e-01 7.551570015505e+01 7.653321268011e+01  1.825356900516e-01
2.800000000000e+01 2.260658066192e-02 -1.527272727273e-01 -5.000383883800e+01 -8.387796611541e-07 -5.000383617779e+01 -1.286209184585e+02 4.521316388505e-02 2.501978632305e-10 4.521316123915e-02 -1.527272060407e-01 1.863255615611e-01 7.620953115811e+01 7.861708095064e+01  1.979403686028e-01
3.000000000000e+01 2.490086676267e-02 -1.636363636364e-01 -5.000319078840e+01 2.333889523678e-07 -5.000317805115e+01 -1.305219024570e+02 4.980173248790e-02 5.982830880728e-10 4.980173347701e-02 -1.636363163074e-01 2.015930441665e-01 7.684275709886e+01 8.051871803727e+01  2.134380492899e-01
3.200000000000e+01 2.723681312837e-02 -1.745454545455e-01 -5.000268216418e+01 -1.235097160628e-07 -5.000268193950e+01 -1.322566741004e+02 5.447362678430e-02 4.662744886753e-10 5.447362631060e-02 -1.745453898937e-01 2.169653214749e-01 7.742067940136e+01 8.225399204855e+01  2.290190164411e-01
3.400000000000e+01 2.961017811651e-02 -1.854545454545e-01 -5.000224913230e+01 -1.188588163267e-06 -5.000226401278e+01 -1.338395465652e+02 5.922036144559e-02 -2.269386711588e-10 5.922035642084e-02 -1.854544493321e-01 2.324318256900e-01 7.794801990342e+01 8.383728999264e+01  2.446748082654e-01
3.600000000000e+01 3.201725408287e-02 -1.963636363636e-01 -5.000178368168e+01 1.035302444691e-05 -5.000170834953e+01 -1.352834443336e+02 6.403448938999e-02 6.293804126971e-09 6.403450882986e-02 -1.963636604749e-01 2.479834191448e-01 7.842897878828e+01 8.528169831805e+01  2.603981595848e-01
3.800000000000e+01 3.445458988100e-02 -2.072727272727e-01 -5.000153504008e+01 1.437727514116e-06 -5.000154037954e+01 -1.366006414424e+02 6.890917124450e-02 4.702737086228e-09 6.890918017456e-02 -2.072727000875e-01 2.636112406829e-01 7.886790562066e+01 8.659910373255e+01  2.761818757970e-01
4.000000000000e+01 3.691927824222e-02 -2.181818181818e-01 -5.000126753858e+01 8.221330152946e-07 -5.000126646309e+01 -1.378017279813e+02 7.383854698276e-02 4.851648569945e-09 7.383855686086e-02 -2.181817871374e-01 2.793081688318e-01 7.926808732765e+01 8.780046098046e+01  2.920203390592e-01
4.200000000000e+01 3.940864486383e-02 -2.290909090909e-01 -5.000104248269e+01 -7.372710736259e-07 -5.000102315198e+01 -1.388967689310e+02 7.881727480184e-02 4.224279170451e-09 7.881729024895e-02 -2.290908951967e-01 2.950674866490e-01 7.963294485521e+01 8.889573611364e+01  3.079081777221e-01
4.400000000000e+01 4.192029510181e-02 -2.400000000000e-01 -5.000085795886e+01 -2.159664093774e-07 -5.000084914802e+01 -1.398949266896e+02 8.384057495446e-02 4.270182676372e-09 8.384059072179e-02 -2.400000044331e-01 3.108831758381e-01 7.996554459884e+01 8.989407313619e+01  3.238405872713e-01
4.600000000000e+01 4.445207347824e-02 -2.509090909091e-01 -5.000072484897e+01 3.370173291162e-07 -5.000073533457e+01 -1.408045815708e+02 8.890413564871e-02 4.516837374021e-09 8.890414733525e-02 -2.509090588661e-01 3.267497733537e-01 8.026868058478e+01 9.080385147904e+01  3.398132003580e-01
4.800000000000e+01 4.700209769652e-02 -2.618181818182e-01 -5.000057633254e+01 2.919233565487e-06 -5.000055778790e+01 -1.416333221741e+02 9.400417767593e-02 6.130744714332e-09 9.400419595565e-02 -2.618182038820e-01 3.426626618488e-01 8.054481876485e+01 9.163275511390e+01  3.558223906978e-01
5.000000000000e+01 4.956860834031e-02 -2.727272727273e-01 -5.000047032388e+01 6.683314791391e-06 -5.000041272691e+01 -1.423882499360e+02 9.913718480137e-02 9.311299357480e-09 9.913721755238e-02 -2.727273370834e-01 3.586173261966e-01 8.079637766225e+01 9.238780841058e+01  3.718645382603e-01
5.200000000000e+01 5.215002342548e-02 -2.836363636364e-01 -5.000040361695e+01 1.764137570708e-06 -5.000039813223e+01 -1.430758638830e+02 1.043000199325e-01 8.780445800201e-09 1.043000476029e-01 -2.836364131289e-01 3.746097576288e-01 8.102555521071e+01 9.307546300837e+01  3.879364468966e-01
5.400000000000e+01 5.474493237104e-02 -2.945454545454e-01 -5.000036228925e+01 -6.549421819988e-06 -5.000039074071e+01 -1.437019989902e+02 1.094898462140e-01 4.622638826598e-09 1.094898651047e-01 -2.945453963077e-01 3.906363554997e-01 8.123425067339e+01 9.370162247523e+01  4.040352519670e-01
5.600000000000e+01 5.735212622869e-02 -3.054545454545e-01 -5.000027698931e+01 -2.286332096238e-06 -5.000027999685e+01 -1.442719658813e+02 1.147042315567e-01 4.824959943490e-09 1.147042528632e-01 -3.054545068045e-01 4.066942481952e-01 8.142417428915e+01 9.427168738821e+01  4.201587490144e-01
5.800000000000e+01 5.997039467615e-02 -3.163636363636e-01 -5.000024535973e+01 -6.296619098557e-06 -5.000027214323e+01 -1.447908527190e+02 1.199407755325e-01 1.766573011255e-09 1.199407895628e-01 -3.163635313018e-01 4.227802067543e-01 8.159712340733e+01 9.479059396755e+01  4.363043138495e-01
6.000000000000e+01 6.259874710863e-02 -3.272727272727e-01 -5.000019115737e+01 -1.600093237961e-06 -5.000020347592e+01 -1.452630616621e+02 1.251974807263e-01 2.302484086421e-09 1.251974943319e-01 -3.272726273367e-01 4.388918499224e-01 8.175448543179e+01 9.526286434545e+01  4.524701148658e-01
6.200000000000e+01 6.522670904173e-02 -3.381818181559e-01 -5.014424550912e+01 -1.189356390156e-06 -5.014617664329e+01 -1.458589090474e+02 1.304539411634e-01 1.996102213413e-09 1.304534099704e-01 -3.381808791012e-01 4.550046692358e-01 8.204977706660e+01 9.571369798579e+01  4.686345546684e-01
6.400000000000e+01 6.787695585044e-02 -3.490909090909e-01 -5.000038702763e+01 5.517059257953e-06 -4.999985705051e+01 -1.461074092090e+02 1.357540702289e-01 5.382878482543e-09 1.357539090721e-01 -3.490906146003e-01 4.711697972256e-01 8.203588442904e+01 9.610728717100e+01  4.848446042508e-01
6.600000000000e+01 7.052323173940e-02 -3.599999999948e-01 -5.011811762366e+01 3.660109705413e-06 -5.011789564031e+01 -1.465968562106e+02 1.410466199891e-01 6.184865287641e-09 1.410464608433e-01 -3.599998075383e-01 4.873291130278e-01 8.227762315819e+01 9.647884957879e+01  5.010463479545e-01
6.800000000000e+01 7.318717165016e-02 -3.709090909091e-01 -5.000025543161e+01 -1.047124906392e-06 -5.000003919941e+01 -1.468020062301e+02 1.463744648829e-01 4.762177943132e-09 1.463743412695e-01 -3.709088944152e-01 5.035292752779e-01 8.226743362038e+01 9.680185891479e+01  5.172832974914e-01
7.000000000000e+01 7.584805998117e-02 -3.818181818158e-01 -5.009661308602e+01 -8.280857910159e-06 -5.009598820279e+01 -1.472041668201e+02 1.516960928195e-01 3.516875560683e-10 1.516961199832e-01 -3.818177793312e-01 5.197249994360e-01 8.246558936964e+01 9.710786617720e+01  5.335138857325e-01
7.200000000000e+01 7.851394953122e-02 -3.927272727276e-01 -5.015000629612e+01 -5.392174453212e-07 -5.014930386867e+01 -1.475465174412e+02 1.570277480021e-01 1.932496064547e-09 1.570279008726e-01 -3.927267261563e-01 5.359328087188e-01 8.261527586865e+01 9.739686236067e+01  5.497545505936e-01
7.400000000000e+01 8.119621606931e-02 -4.036363636364e-01 -5.000023891163e+01 2.070369558598e-06 -5.000032945647e+01 -1.476369592495e+02 1.623923849814e-01 3.213943313858e-09 1.623924327747e-01 -4.036360768878e-01 5.521795226294e-01 8.254584253919e+01 9.763667506545e+01  5.660284857658e-01
7.600000000000e+01 8.387430747120e-02 -4.145454545454e-01 -5.007105478093e+01 1.308573002020e-05 -5.007160859074e+01 -1.479349082465e+02 1.677487102699e-01 1.005987609631e-08 1.677486135296e-01 -4.145442397073e-01 5.684181564575e-01 8.269252387274e+01 9.786357656189e+01  5.822929016071e-01
7.800000000000e+01 8.655639757921e-02 -4.254545454544e-01 -5.011030558555e+01 7.537056329867e-06 -5.011044087652e+01 -1.481879323068e+02 1.731128658288e-01 1.129833650462e-08 1.731127941538e-01 -4.254534672070e-01 5.846672763523e-01 8.280289292296e+01 9.807755907586e+01  5.985662971983e-01
8.000000000000e+01 8.924208056657e-02 -4.363636363637e-01 -5.012933237166e+01 1.470161303094e-05 -5.012997701020e+01 -1.484055968891e+02 1.784843928544e-01 1.778609372601e-08 1.784841568225e-01 -4.363618363964e-01 6.009246103308e-01 8.288830209033e+01 9.827594219978e+01  6.148461112349e-01
8.200000000000e+01 9.193180554192e-02 -4.472727272727e-01 -5.013569519985e+01 1.185512293395e-06 -5.013602435259e+01 -1.485935137264e+02 1.838638612790e-01 1.511731371972e-08 1.838636065809e-01 -4.472708185878e-01 6.171924785075e-01 8.295507775962e+01 9.845765395062e+01  6.311345525178e-01
8.400000000000e+01 9.462545651112e-02 -4.581818181824e-01 -5.013432229268e+01 -1.401056842307e-06 -5.013390576528e+01 -1.487567758955e+02 1.892510127308e-01 1.406949643639e-08 1.892509111527e-01 -4.581805642571e-01 6.334707824999e-01 8.300833465117e+01 9.862266186722e+01  6.474315261989e-01
8.600000000000e+01 9.732245914309e-02 -4.690909090921e-01 -5.012841024519e+01 -3.313044647664e-06 -5.012766397587e+01 -1.488996491719e+02 1.946448602052e-01 1.254447661419e-08 1.946449189690e-01 -4.690899342660e-01 6.497572358374e-01 8.305190779765e+01 9.877161206346e+01  6.637348238531e-01
8.800000000000e+01 1.000213230138e-01 -4.799999999976e-01 -5.012003203414e+01 -3.844011900034e-05 -5.012324220222e+01 -1.490274482994e+02 2.000435479038e-01 -8.058406526281e-09 2.000426307486e-01 -4.799956359686e-01 6.660459672406e-01 8.309024084525e+01 9.890581122030e+01  6.800387252953e-01
9.000000000000e+01 1.027242352271e-01 -4.909090909062e-01 -5.011067556096e+01 -1.012263394837e-05 -5.011213759428e+01 -1.491374139889e+02 2.054494149383e-01 -4.991255769007e-09 2.054484546506e-01 -4.909046652977e-01 6.823472596833e-01 8.312007571471e+01 9.902600741935e+01  6.963536000927e-01
9.200000000000e+01 1.054302090173e-01 -5.018181818182e-01 -5.010093319789e+01 7.718411226487e-06 -5.010052524491e+01 -1.492340560587e+02 2.108610891318e-01 1.579592041817e-09 2.108604072192e-01 -5.018149913841e-01 6.986572750660e-01 8.314517150051e+01 9.913332683795e+01  7.126757395599e-01
9.400000000000e+01 1.081379914993e-01 -5.127272727233e-01 -5.009131125110e+01 -6.721929035003e-07 -5.009188986223e+01 -1.493207790970e+02 2.162768578654e-01 -5.368288010845e-10 2.162759693971e-01 -5.127237713715e-01 7.149708942852e-01 8.316799340345e+01 9.922917854161e+01  7.290001850031e-01
9.600000000000e+01 1.108470271974e-01 -5.236363636358e-01 -5.008217834837e+01 -2.724671655990e-05 -5.008596296568e+01 -1.493989640805e+02 2.216958974190e-01 -1.549074169588e-08 2.216940251837e-01 -5.236301693041e-01 7.312861605094e-01 8.318903513151e+01 9.931489347756e+01  7.453251306072e-01
9.800000000000e+01 1.135592291558e-01 -5.345454545480e-01 -5.007381493252e+01 -4.047728814832e-06 -5.007447370883e+01 -1.494651653642e+02 2.271200606393e-01 -1.158190381067e-08 2.271184331190e-01 -5.345399196066e-01 7.476116012270e-01 8.320448466853e+01 9.939102104521e+01  7.616591664870e-01
1.000000000000e+02 1.162730168229e-01 -5.454545454553e-01 -5.006600727969e+01 -3.944744123697e-06 -5.006574484724e+01 -1.495245610832e+02 2.325474916438e-01 -1.285396178271e-08 2.325460112060e-01 -5.454493529094e-01 7.639409004487e-01 8.321877107005e+01 9.945868502001e+01  7.779961043353e-01
