 TITLE = "Time curves in points"
 VARIABLES = "TIME"  "DISPLACEMENT_X1"  "DISPLACEMENT_Y1"  "STRESS_XX"  "STRESS_XY"  "STRESS_YY"  "STRESS_ZZ"  "STRAIN_XX"  "STRAIN_XY"  "STRAIN_YY"  "STRAIN_ZZ"  "STRAIN_PLS"  p_(1st_Invariant)  q_(2nd_Invariant)   Effective_Strain
 ZONE T="POINT=POINT2"
0.000000000000e+00 0.000000000000e+00 0.000000000000e+00 -5.000000000000e+01 0.000000000000e+00 -5.000000000000e+01 -5.000000000000e+01 0.000000000000e+00 0.000000000000e+00 0.000000000000e+00 0.000000000000e+00 0.000000000000e+00 5.000000000000e+01 0.000000000000e+00  0.000000000000e+00
2.000000000000e+00 6.531467137706e-04 -1.090909090909e-02 -4.924636056171e+01 9.461546277045e-06 -4.924636055174e+01 -7.538716516176e+01 1.306293237282e-03 8.842608816018e-09 1.306293241940e-03 -1.090909978448e-02 7.684320225881e-03 5.795996209173e+01 2.614080460504e+01  1.221539302410e-02
4.000000000000e+00 1.327814692688e-03 -2.181818181818e-02 -4.989415007258e+01 1.588829650417e-06 -4.989415104100e+01 -8.321122957540e+01 2.655629664178e-03 7.534483660969e-09 2.655629196454e-03 -2.181818242650e-02 1.886070433567e-02 6.099984356299e+01 3.331707901862e+01  2.447381185682e-02
6.000000000000e+00 2.326399024726e-03 -3.272727272727e-02 -4.995484044908e+01 -6.204562620802e-08 -4.995484007549e+01 -8.974118806854e+01 4.652798057238e-03 7.020201660984e-09 4.652797895782e-03 -3.272728013357e-02 3.083247515830e-02 6.321695619770e+01 3.978634780626e+01  3.738007811009e-02
8.000000000000e+00 3.558054113478e-03 -4.363636363636e-02 -4.998881858159e+01 -6.252204800751e-07 -4.998882004243e+01 -9.540998004102e+01 7.116108911036e-03 6.515743452202e-09 7.116108087460e-03 -4.363637461892e-02 4.341400106189e-02 6.512920622168e+01 4.542116072901e+01  5.075248311817e-02
1.000000000000e+01 4.976725108004e-03 -5.454545454545e-02 -5.000236479380e+01 -3.555845624811e-07 -5.000236489534e+01 -1.004207050069e+02 9.953450747467e-03 6.405415405687e-09 9.953450083885e-03 -5.454546393525e-02 5.647554470363e-02 6.680847823201e+01 5.041834016232e+01  6.449891435092e-02
1.200000000000e+01 6.549716640256e-03 -6.545454545464e-02 -5.000754082051e+01 1.020630910959e-06 -5.000752830792e+01 -1.049017598635e+02 1.309942913822e-02 7.275391139526e-09 1.309943323556e-02 -6.545456562016e-02 6.992945794032e-02 6.830560966399e+01 5.489422529932e+01  7.855399680706e-02
1.400000000000e+01 8.252846732673e-03 -7.636363636364e-02 -5.000910154927e+01 1.369478913162e-07 -5.000910016970e+01 -1.089388529210e+02 1.650569045479e-02 7.106196952103e-09 1.650569340548e-02 -7.636365741588e-02 8.371220812186e-02 6.965235154667e+01 5.892975206154e+01  9.286934934602e-02
1.600000000000e+01 1.006746825473e-02 -8.727272727273e-02 -5.000903557519e+01 2.900969256068e-07 -5.000903044926e+01 -1.125933277966e+02 2.013493187449e-02 7.276379311572e-09 2.013493646390e-02 -8.727276118869e-02 9.777561357738e-02 7.087046460701e+01 6.258429478435e+01  1.074076953579e-01
1.800000000000e+01 1.197870242510e-02 -9.818181818182e-02 -5.000832355171e+01 -8.277716962136e-08 -5.000832322921e+01 -1.159118076752e+02 2.395740075581e-02 7.144841594023e-09 2.395740479946e-02 -9.818184752036e-02 1.120816709226e-01 7.197615148536e+01 6.590348428470e+01  1.221392502980e-01
2.000000000000e+01 1.397440059531e-02 -1.090909090909e-01 -5.000738076329e+01 -1.778863791258e-06 -5.000739373948e+01 -1.189313184378e+02 2.794880148222e-02 5.965875059800e-09 2.794880110849e-02 -1.090909153096e-01 1.265996359908e-01 7.298203098018e+01 6.892393118639e+01  1.370397166049e-01
2.200000000000e+01 1.604446789452e-02 -1.200000000000e-01 -5.000634484582e+01 -5.443080944323e-07 -5.000633452969e+01 -1.216823393140e+02 3.208893113072e-02 6.051819465882e-09 3.208893579093e-02 -1.200000363752e-01 1.413041693867e-01 7.389833956316e+01 7.167599962621e+01  1.520889698360e-01
2.400000000000e+01 1.811472090713e-02 -1.309090909091e-01 -5.101688442543e+01 8.622190214128e-06 -5.101693504969e+01 -1.251464233045e+02 3.622945531242e-02 1.175583519012e-08 3.622944234424e-02 -1.309092342692e-01 1.560495699748e-01 7.572674759321e+01 7.412951356695e+01  1.671386830975e-01
2.600000000000e+01 2.033790447978e-02 -1.418181818182e-01 -5.001387617971e+01 1.905401291394e-06 -5.001388865803e+01 -1.266433099367e+02 4.067581995471e-02 1.087413626472e-08 4.067580916469e-02 -1.418182593622e-01 1.711015822666e-01 7.555702492481e+01 7.662942751782e+01  1.824940739219e-01
2.800000000000e+01 2.253612752451e-02 -1.527272727273e-01 -5.081359411223e+01 4.237634969275e-07 -5.081347933132e+01 -1.295112745599e+02 4.507222896434e-02 1.067510641232e-08 4.507225563926e-02 -1.527272527768e-01 1.861549303307e-01 7.704611600114e+01 7.869773783814e+01  1.977994950786e-01
3.000000000000e+01 2.485552900650e-02 -1.636363636364e-01 -5.000964547550e+01 8.355346041804e-06 -5.000968734008e+01 -1.307349589515e+02 4.971105820866e-02 1.574335474608e-08 4.971105818449e-02 -1.636364990286e-01 2.014601484250e-01 7.691809725568e+01 8.072529254370e+01  2.133475572252e-01
3.200000000000e+01 2.715467295995e-02 -1.745454545455e-01 -5.065031088362e+01 2.469848422240e-06 -5.065038797516e+01 -1.331098596166e+02 5.430936384179e-02 1.524530977341e-08 5.430934528200e-02 -1.745449909978e-01 2.167585405149e-01 7.813685282512e+01 8.245951018723e+01  2.288543455597e-01
3.400000000000e+01 2.948714929983e-02 -1.854545454545e-01 -5.101590577781e+01 2.000904589502e-05 -5.101473206524e+01 -1.351644223640e+02 5.897396018033e-02 2.671385110806e-08 5.897430428994e-02 -1.854556611049e-01 2.321337785671e-01 7.906502006902e+01 8.414910344863e+01  2.444297933402e-01
3.600000000000e+01 3.185331484870e-02 -1.963636363636e-01 -5.119780704787e+01 -6.985495558131e-06 -5.119861711532e+01 -1.369477318646e+02 6.370666331691e-02 1.786387825921e-08 6.370662877363e-02 -1.963630386251e-01 2.475859567338e-01 7.978138534258e+01 8.574951978583e+01  2.600696846704e-01
3.800000000000e+01 3.425481676538e-02 -2.072727272727e-01 -5.126081313737e+01 4.671337243329e-06 -5.126072849859e+01 -1.384982750228e+02 6.850955022750e-02 2.224199945126e-08 6.850963490994e-02 -2.072736787665e-01 2.631263346569e-01 8.033993888625e+01 8.723750420484e+01  2.757832713352e-01
4.000000000000e+01 3.668850228589e-02 -2.181818181818e-01 -5.124827663790e+01 -9.222470055242e-06 -5.124885421542e+01 -1.398498646428e+02 7.337709651098e-02 1.577456981528e-08 7.337700274025e-02 -2.181809573146e-01 2.787432155281e-01 8.078233183205e+01 8.860129921758e+01  2.915580069402e-01
4.200000000000e+01 3.915391512205e-02 -2.290909090910e-01 -5.119120438881e+01 2.469756291281e-05 -5.119023865156e+01 -1.410305394689e+02 7.830758158996e-02 3.222413790499e-08 7.830783443261e-02 -2.290912987998e-01 2.944414786988e-01 8.113732750309e+01 8.983981795262e+01  3.073990068112e-01
4.400000000000e+01 4.164662708977e-02 -2.400000000000e-01 -5.110914852831e+01 -1.171848262720e-05 -5.111012298038e+01 -1.420657597084e+02 8.329338959017e-02 1.979638375256e-08 8.329325068783e-02 -2.399979730327e-01 3.102055414951e-01 8.142834373903e+01 9.095612395797e+01  3.232912931718e-01
4.600000000000e+01 4.416627371041e-02 -2.509090909090e-01 -5.101621726754e+01 2.838673004078e-05 -5.101546372011e+01 -1.429737629935e+02 8.833236206881e-02 3.876165425954e-08 8.833255088763e-02 -2.509086124265e-01 3.260405503601e-01 8.166848132704e+01 9.195792250197e+01  3.392410689047e-01
4.800000000000e+01 4.670859414937e-02 -2.618181818182e-01 -5.092028900292e+01 1.274654229844e-05 -5.092059187434e+01 -1.437737687611e+02 9.341717328225e-02 3.954869553457e-08 9.341718949758e-02 -2.618175488638e-01 3.419318496973e-01 8.187154987944e+01 9.285332832280e+01  3.552347302537e-01
5.000000000000e+01 4.927190837369e-02 -2.727272727273e-01 -5.082682518563e+01 9.158328189030e-06 -5.082675481584e+01 -1.444786065825e+02 9.854374844718e-02 4.184825437942e-08 9.854381923772e-02 -2.727269118237e-01 3.578766916553e-01 8.204406219464e+01 9.365181658175e+01  3.712706956662e-01
5.200000000000e+01 5.185339288743e-02 -2.836363636338e-01 -5.073863387377e+01 -1.774166251022e-05 -5.073956217457e+01 -1.451016779311e+02 1.037069845272e-01 2.970465918592e-08 1.037067842090e-01 -2.836350583307e-01 3.738669438083e-01 8.219329132648e+01 9.436257991037e+01  3.873419426988e-01
5.400000000000e+01 5.445191203250e-02 -2.945454545441e-01 -5.065735611179e+01 -4.327052583458e-06 -5.065732879588e+01 -1.456519341070e+02 1.089039120984e-01 3.129741238721e-08 1.089038251538e-01 -2.945448128256e-01 3.899017506997e-01 8.232220633823e+01 9.499459165317e+01  4.034486814517e-01
5.600000000000e+01 5.706437333356e-02 -3.054545454545e-01 -5.058338994732e+01 -2.118668849573e-05 -5.058474101421e+01 -1.461401046476e+02 1.141292112976e-01 2.033821942617e-08 1.141287404432e-01 -3.054522591565e-01 4.059704707635e-01 8.243607853636e+01 9.555603917396e+01  4.195812350271e-01
5.800000000000e+01 5.969062779203e-02 -3.163636363636e-01 -5.051697305895e+01 -9.348274606840e-07 -5.051682869427e+01 -1.465715364680e+02 1.193815294401e-01 2.462553039010e-08 1.193812526569e-01 -3.163621661350e-01 4.220761576422e-01 8.253511274042e+01 9.605463559150e+01  4.357435571836e-01
6.000000000000e+01 6.232823121299e-02 -3.272727272729e-01 -5.045754888776e+01 7.053330553175e-07 -5.045741312633e+01 -1.469546789635e+02 1.246567149806e-01 2.523370812701e-08 1.246564599204e-01 -3.272716036017e-01 4.382105610817e-01 8.262321365920e+01 9.649719795654e+01  4.519281910523e-01
6.200000000000e+01 6.497566504984e-02 -3.381818181818e-01 -5.040468689370e+01 -6.608667648495e-06 -5.040563944412e+01 -1.472952043952e+02 1.299518602208e-01 2.137030443729e-08 1.299513228645e-01 -3.381799509122e-01 4.543693566740e-01 8.270184357767e+01 9.689004122981e+01  4.681315424551e-01
6.400000000000e+01 6.763263315838e-02 -3.490909090906e-01 -5.035790543535e+01 5.088223964769e-06 -5.035765509911e+01 -1.475964474718e+02 1.352656215084e-01 2.571565953089e-08 1.352652621611e-01 -3.490897035421e-01 4.705534438717e-01 8.277066933542e+01 9.723866720482e+01  4.843551453770e-01
6.600000000000e+01 7.029647802978e-02 -3.600000000047e-01 -5.031638276090e+01 -2.947736400735e-05 -5.031850558287e+01 -1.478655838294e+02 1.405939215034e-01 8.093947243131e-09 1.405929407903e-01 -3.599960063668e-01 4.867526775030e-01 8.283349072438e+01 9.754813967482e+01  5.005894375144e-01
6.800000000000e+01 7.296879637254e-02 -3.709090909064e-01 -5.027990452189e+01 7.469510163256e-06 -5.027896791719e+01 -1.481021480541e+02 1.459380646460e-01 1.893834184876e-08 1.459375856776e-01 -3.709064080897e-01 5.029763842097e-01 8.288700683106e+01 9.782271183794e+01  5.168442332517e-01
7.000000000000e+01 7.564729206233e-02 -3.818181818159e-01 -5.024756514543e+01 1.271475256529e-05 -5.024594131892e+01 -1.483130759508e+02 1.512947153759e-01 2.433669955546e-08 1.512945830878e-01 -3.818166424179e-01 5.192158709365e-01 8.293552747173e+01 9.806632272875e+01  5.331112916497e-01
7.200000000000e+01 7.833095601415e-02 -3.927272727331e-01 -5.021905839170e+01 1.597760860171e-05 -5.021847645769e+01 -1.485013916888e+02 1.566620643345e-01 3.035910172036e-08 1.566619104008e-01 -3.927258574186e-01 5.354679527596e-01 8.297964217940e+01 9.828262426542e+01  5.493878447863e-01
7.400000000000e+01 8.101967683806e-02 -4.036363636276e-01 -5.019383511840e+01 -4.412031685845e-07 -5.019322683658e+01 -1.486681767300e+02 1.620394046628e-01 2.649959516283e-08 1.620393541801e-01 -4.036354372551e-01 5.517332080240e-01 8.301841289500e+01 9.847464575394e+01  5.656748166766e-01
7.600000000000e+01 8.371237859372e-02 -4.145454545455e-01 -5.017158255215e+01 -2.474112139786e-05 -5.017175299114e+01 -1.488168333092e+02 1.674249225071e-01 1.284131871817e-08 1.674247558636e-01 -4.145437990911e-01 5.680077507500e-01 8.305338961749e+01 9.864516553764e+01  5.819686382765e-01
7.800000000000e+01 8.640905863664e-02 -4.254545454546e-01 -5.015195940733e+01 8.445009573656e-06 -5.015175921070e+01 -1.489484042633e+02 1.728182084009e-01 2.312720815723e-08 1.728181166481e-01 -4.254523492118e-01 5.842925141916e-01 8.308404096044e+01 9.879654495442e+01  5.982705117363e-01
8.000000000000e+01 8.910929227675e-02 -4.363636363636e-01 -5.013462510596e+01 7.782738671409e-06 -5.013463865447e+01 -1.490656199908e+02 1.782187018983e-01 2.554125840711e-08 1.782185837609e-01 -4.363615640195e-01 6.005870173013e-01 8.311162791709e+01 9.893098811062e+01  6.145802068492e-01
8.200000000000e+01 9.181230070861e-02 -4.472727272731e-01 -5.011929115020e+01 -4.585316161511e-06 -5.012019944891e+01 -1.491701914761e+02 1.836249649895e-01 2.123746830440e-08 1.836245962864e-01 -4.472700331286e-01 6.168881285427e-01 8.313656069175e+01 9.905044617971e+01  6.308948137667e-01
8.400000000000e+01 9.451844050200e-02 -4.581818181818e-01 -5.010578273741e+01 8.705290279697e-06 -5.010570627238e+01 -1.492622182468e+02 1.890371228774e-01 2.710366289638e-08 1.890368779821e-01 -4.581797312085e-01 6.331980704779e-01 8.315790241885e+01 9.915647374188e+01  6.472167316382e-01
8.600000000000e+01 9.722651117819e-02 -4.690909090908e-01 -5.009381288645e+01 2.925435652562e-06 -5.009440563882e+01 -1.493447965026e+02 1.944534341783e-01 2.675991802617e-08 1.944530162763e-01 -4.690880024433e-01 6.495119268106e-01 8.317767167596e+01 9.925068724132e+01  6.635412276707e-01
8.800000000000e+01 9.993685467940e-02 -4.799999999997e-01 -5.008322011035e+01 -1.777079771925e-06 -5.008388194400e+01 -1.494179345572e+02 1.998742358350e-01 2.511403491927e-08 1.998737013972e-01 -4.799968017442e-01 6.658320190578e-01 8.319501220384e+01 9.933438353165e+01  6.798707703604e-01
9.000000000000e+01 1.026492560217e-01 -4.909090909088e-01 -5.007381319189e+01 3.450729294009e-06 -5.007393416734e+01 -1.494825535510e+02 2.052989983529e-01 2.742786177006e-08 2.052985051091e-01 -4.909060713464e-01 6.821576838974e-01 8.321010030343e+01 9.940867987149e+01  6.962048230775e-01
9.200000000000e+01 1.053630451762e-01 -5.018181818259e-01 -5.006540021835e+01 -1.294651653656e-05 -5.006604173173e+01 -1.495404195371e+02 2.107267382609e-01 1.947559471350e-08 2.107260809535e-01 -5.018144743330e-01 6.984862923163e-01 8.322395382905e+01 9.947469856360e+01  7.125408839404e-01
9.400000000000e+01 1.080785940163e-01 -5.127272727273e-01 -5.005806429594e+01 -8.751991952760e-06 -5.005791972564e+01 -1.495912773343e+02 2.161577253796e-01 1.755004311152e-08 2.161571805226e-01 -5.127236087214e-01 7.148198572991e-01 8.323575378529e+01 9.953328532359e+01  7.288810616727e-01
9.600000000000e+01 1.107953330065e-01 -5.236363636364e-01 -5.005152669782e+01 -1.809712001781e-05 -5.005176349926e+01 -1.496370053205e+02 2.215912841346e-01 9.503152138214e-09 2.215906573896e-01 -5.236325110202e-01 7.311564002169e-01 8.324676517252e+01 9.958536022215e+01  7.452234817824e-01
9.800000000000e+01 1.135119923672e-01 -5.345454545426e-01 -5.004567970489e+01 -4.836309112944e-05 -5.004995485787e+01 -1.496797778872e+02 2.270257403930e-01 -1.318536043712e-08 2.270239570384e-01 -5.345379235314e-01 7.474904318322e-01 8.325847081667e+01 9.963196067469e+01  7.615627722487e-01
1.000000000000e+02 1.162310681403e-01 -5.454545454550e-01 -5.004069335399e+01 -2.556026602106e-05 -5.004230151456e+01 -1.497146739778e+02 2.324638550290e-01 -1.642117164318e-08 2.324621089349e-01 -5.454471769392e-01 7.638331677614e-01 8.326588961546e+01 9.967317655328e+01  7.779101589226e-01
