VARIABLES  = "X","Y","Z", "DISPLACEMENT_X1", "DISPLACEMENT_Y1", "STRESS_XX", "STRESS_XY", "STRESS_YY", "STRESS_ZZ", "STRAIN_XX", "STRAIN_XY", "STRAIN_YY", "STRAIN_ZZ", "STRAIN_PLS"
ZONE T="0.000000000000e+00s", N=69, E=110, F=FEPOINT, ET=QUADRILATERAL
STRANDID=1, SOLUTIONTIME=0.000000000000e+00
0.000000000000e+00 0.000000000000e+00 0.000000000000e+00 0.000000000000e+00 0.000000000000e+00 -5.000000000000e+01 0.000000000000e+00 -5.000000000000e+01 -5.000000000000e+01 0.000000000000e+00 0.000000000000e+00 0.000000000000e+00 0.000000000000e+00 0.000000000000e+00 
5.000000000000e-01 0.000000000000e+00 0.000000000000e+00 0.000000000000e+00 0.000000000000e+00 -5.000000000000e+01 0.000000000000e+00 -5.000000000000e+01 -5.000000000000e+01 0.000000000000e+00 0.000000000000e+00 0.000000000000e+00 0.000000000000e+00 0.000000000000e+00 
5.000000000000e-01 1.000000000000e+00 0.000000000000e+00 0.000000000000e+00 0.000000000000e+00 -5.000000000000e+01 0.000000000000e+00 -5.000000000000e+01 -5.000000000000e+01 0.000000000000e+00 0.000000000000e+00 0.000000000000e+00 0.000000000000e+00 0.000000000000e+00 
0.000000000000e+00 1.000000000000e+00 0.000000000000e+00 0.000000000000e+00 0.000000000000e+00 -5.000000000000e+01 0.000000000000e+00 -5.000000000000e+01 -5.000000000000e+01 0.000000000000e+00 0.000000000000e+00 0.000000000000e+00 0.000000000000e+00 0.000000000000e+00 
1.250000000000e-01 0.000000000000e+00 0.000000000000e+00 0.000000000000e+00 0.000000000000e+00 -5.000000000000e+01 0.000000000000e+00 -5.000000000000e+01 -5.000000000000e+01 0.000000000000e+00 0.000000000000e+00 0.000000000000e+00 0.000000000000e+00 0.000000000000e+00 
2.500000000000e-01 0.000000000000e+00 0.000000000000e+00 0.000000000000e+00 0.000000000000e+00 -5.000000000000e+01 0.000000000000e+00 -5.000000000000e+01 -5.000000000000e+01 0.000000000000e+00 0.000000000000e+00 0.000000000000e+00 0.000000000000e+00 0.000000000000e+00 
3.750000000000e-01 0.000000000000e+00 0.000000000000e+00 0.000000000000e+00 0.000000000000e+00 -5.000000000000e+01 0.000000000000e+00 -5.000000000000e+01 -5.000000000000e+01 0.000000000000e+00 0.000000000000e+00 0.000000000000e+00 0.000000000000e+00 0.000000000000e+00 
5.000000000000e-01 1.111111111111e-01 0.000000000000e+00 0.000000000000e+00 0.000000000000e+00 -5.000000000000e+01 0.000000000000e+00 -5.000000000000e+01 -5.000000000000e+01 0.000000000000e+00 0.000000000000e+00 0.000000000000e+00 0.000000000000e+00 0.000000000000e+00 
5.000000000000e-01 2.222222222222e-01 0.000000000000e+00 0.000000000000e+00 0.000000000000e+00 -5.000000000000e+01 0.000000000000e+00 -5.000000000000e+01 -5.000000000000e+01 0.000000000000e+00 0.000000000000e+00 0.000000000000e+00 0.000000000000e+00 0.000000000000e+00 
5.000000000000e-01 3.333333333333e-01 0.000000000000e+00 0.000000000000e+00 0.000000000000e+00 -5.000000000000e+01 0.000000000000e+00 -5.000000000000e+01 -5.000000000000e+01 0.000000000000e+00 0.000000000000e+00 0.000000000000e+00 0.000000000000e+00 0.000000000000e+00 
5.000000000000e-01 4.444444444444e-01 0.000000000000e+00 0.000000000000e+00 0.000000000000e+00 -5.000000000000e+01 0.000000000000e+00 -5.000000000000e+01 -5.000000000000e+01 0.000000000000e+00 0.000000000000e+00 0.000000000000e+00 0.000000000000e+00 0.000000000000e+00 
5.000000000000e-01 5.555555555555e-01 0.000000000000e+00 0.000000000000e+00 0.000000000000e+00 -5.000000000000e+01 0.000000000000e+00 -5.000000000000e+01 -5.000000000000e+01 0.000000000000e+00 0.000000000000e+00 0.000000000000e+00 0.000000000000e+00 0.000000000000e+00 
5.000000000000e-01 6.666666666667e-01 0.000000000000e+00 0.000000000000e+00 0.000000000000e+00 -5.000000000000e+01 0.000000000000e+00 -5.000000000000e+01 -5.000000000000e+01 0.000000000000e+00 0.000000000000e+00 0.000000000000e+00 0.000000000000e+00 0.000000000000e+00 
5.000000000000e-01 7.777777777778e-01 0.000000000000e+00 0.000000000000e+00 0.000000000000e+00 -5.000000000000e+01 0.000000000000e+00 -5.000000000000e+01 -5.000000000000e+01 0.000000000000e+00 0.000000000000e+00 0.000000000000e+00 0.000000000000e+00 0.000000000000e+00 
5.000000000000e-01 8.888888888889e-01 0.000000000000e+00 0.000000000000e+00 0.000000000000e+00 -5.000000000000e+01 0.000000000000e+00 -5.000000000000e+01 -5.000000000000e+01 0.000000000000e+00 0.000000000000e+00 0.000000000000e+00 0.000000000000e+00 0.000000000000e+00 
3.750000000000e-01 1.000000000000e+00 0.000000000000e+00 0.000000000000e+00 0.000000000000e+00 -5.000000000000e+01 0.000000000000e+00 -5.000000000000e+01 -5.000000000000e+01 0.000000000000e+00 0.000000000000e+00 0.000000000000e+00 0.000000000000e+00 0.000000000000e+00 
2.500000000000e-01 1.000000000000e+00 0.000000000000e+00 0.000000000000e+00 0.000000000000e+00 -5.000000000000e+01 0.000000000000e+00 -5.000000000000e+01 -5.000000000000e+01 0.000000000000e+00 0.000000000000e+00 0.000000000000e+00 0.000000000000e+00 0.000000000000e+00 
1.250000000000e-01 1.000000000000e+00 0.000000000000e+00 0.000000000000e+00 0.000000000000e+00 -5.000000000000e+01 0.000000000000e+00 -5.000000000000e+01 -5.000000000000e+01 0.000000000000e+00 0.000000000000e+00 0.000000000000e+00 0.000000000000e+00 0.000000000000e+00 
0.000000000000e+00 8.888888888889e-01 0.000000000000e+00 0.000000000000e+00 0.000000000000e+00 -5.000000000000e+01 0.000000000000e+00 -5.000000000000e+01 -5.000000000000e+01 0.000000000000e+00 0.000000000000e+00 0.000000000000e+00 0.000000000000e+00 0.000000000000e+00 
0.000000000000e+00 7.777777777778e-01 0.000000000000e+00 0.000000000000e+00 0.000000000000e+00 -5.000000000000e+01 0.000000000000e+00 -5.000000000000e+01 -5.000000000000e+01 0.000000000000e+00 0.000000000000e+00 0.000000000000e+00 0.000000000000e+00 0.000000000000e+00 
0.000000000000e+00 6.666666666667e-01 0.000000000000e+00 0.000000000000e+00 0.000000000000e+00 -5.000000000000e+01 0.000000000000e+00 -5.000000000000e+01 -5.000000000000e+01 0.000000000000e+00 0.000000000000e+00 0.000000000000e+00 0.000000000000e+00 0.000000000000e+00 
0.000000000000e+00 5.555555555556e-01 0.000000000000e+00 0.000000000000e+00 0.000000000000e+00 -5.000000000000e+01 0.000000000000e+00 -5.000000000000e+01 -5.000000000000e+01 0.000000000000e+00 0.000000000000e+00 0.000000000000e+00 0.000000000000e+00 0.000000000000e+00 
0.000000000000e+00 4.444444444445e-01 0.000000000000e+00 0.000000000000e+00 0.000000000000e+00 -5.000000000000e+01 0.000000000000e+00 -5.000000000000e+01 -5.000000000000e+01 0.000000000000e+00 0.000000000000e+00 0.000000000000e+00 0.000000000000e+00 0.000000000000e+00 
0.000000000000e+00 3.333333333333e-01 0.000000000000e+00 0.000000000000e+00 0.000000000000e+00 -5.000000000000e+01 0.000000000000e+00 -5.000000000000e+01 -5.000000000000e+01 0.000000000000e+00 0.000000000000e+00 0.000000000000e+00 0.000000000000e+00 0.000000000000e+00 
0.000000000000e+00 2.222222222222e-01 0.000000000000e+00 0.000000000000e+00 0.000000000000e+00 -5.000000000000e+01 0.000000000000e+00 -5.000000000000e+01 -5.000000000000e+01 0.000000000000e+00 0.000000000000e+00 0.000000000000e+00 0.000000000000e+00 0.000000000000e+00 
0.000000000000e+00 1.111111111111e-01 0.000000000000e+00 0.000000000000e+00 0.000000000000e+00 -5.000000000000e+01 0.000000000000e+00 -5.000000000000e+01 -5.000000000000e+01 0.000000000000e+00 0.000000000000e+00 0.000000000000e+00 0.000000000000e+00 0.000000000000e+00 
2.589514675558e-01 6.131170471200e-01 0.000000000000e+00 0.000000000000e+00 0.000000000000e+00 -5.000000000000e+01 0.000000000000e+00 -5.000000000000e+01 -5.000000000000e+01 0.000000000000e+00 0.000000000000e+00 0.000000000000e+00 0.000000000000e+00 0.000000000000e+00 
2.516254322439e-01 2.879687005322e-01 0.000000000000e+00 0.000000000000e+00 0.000000000000e+00 -5.000000000000e+01 0.000000000000e+00 -5.000000000000e+01 -5.000000000000e+01 0.000000000000e+00 0.000000000000e+00 0.000000000000e+00 0.000000000000e+00 0.000000000000e+00 
3.093333177154e-01 8.001865036853e-01 0.000000000000e+00 0.000000000000e+00 0.000000000000e+00 -5.000000000000e+01 0.000000000000e+00 -5.000000000000e+01 -5.000000000000e+01 0.000000000000e+00 0.000000000000e+00 0.000000000000e+00 0.000000000000e+00 0.000000000000e+00 
3.261818190709e-01 4.447451429167e-01 0.000000000000e+00 0.000000000000e+00 0.000000000000e+00 -5.000000000000e+01 0.000000000000e+00 -5.000000000000e+01 -5.000000000000e+01 0.000000000000e+00 0.000000000000e+00 0.000000000000e+00 0.000000000000e+00 0.000000000000e+00 
1.589842504896e-01 4.638345688453e-01 0.000000000000e+00 0.000000000000e+00 0.000000000000e+00 -5.000000000000e+01 0.000000000000e+00 -5.000000000000e+01 -5.000000000000e+01 0.000000000000e+00 0.000000000000e+00 0.000000000000e+00 0.000000000000e+00 0.000000000000e+00 
1.588983955413e-01 7.429917284633e-01 0.000000000000e+00 0.000000000000e+00 0.000000000000e+00 -5.000000000000e+01 0.000000000000e+00 -5.000000000000e+01 -5.000000000000e+01 0.000000000000e+00 0.000000000000e+00 0.000000000000e+00 0.000000000000e+00 0.000000000000e+00 
3.470792484928e-01 1.535052867898e-01 0.000000000000e+00 0.000000000000e+00 0.000000000000e+00 -5.000000000000e+01 0.000000000000e+00 -5.000000000000e+01 -5.000000000000e+01 0.000000000000e+00 0.000000000000e+00 0.000000000000e+00 0.000000000000e+00 0.000000000000e+00 
1.565681204010e-01 1.566396714438e-01 0.000000000000e+00 0.000000000000e+00 0.000000000000e+00 -5.000000000000e+01 0.000000000000e+00 -5.000000000000e+01 -5.000000000000e+01 0.000000000000e+00 0.000000000000e+00 0.000000000000e+00 0.000000000000e+00 0.000000000000e+00 
1.783719353894e-01 8.923817557881e-01 0.000000000000e+00 0.000000000000e+00 0.000000000000e+00 -5.000000000000e+01 0.000000000000e+00 -5.000000000000e+01 -5.000000000000e+01 0.000000000000e+00 0.000000000000e+00 0.000000000000e+00 0.000000000000e+00 0.000000000000e+00 
3.625072912338e-01 6.824903560187e-01 0.000000000000e+00 0.000000000000e+00 0.000000000000e+00 -5.000000000000e+01 0.000000000000e+00 -5.000000000000e+01 -5.000000000000e+01 0.000000000000e+00 0.000000000000e+00 0.000000000000e+00 0.000000000000e+00 0.000000000000e+00 
1.387636923039e-01 3.407863315826e-01 0.000000000000e+00 0.000000000000e+00 0.000000000000e+00 -5.000000000000e+01 0.000000000000e+00 -5.000000000000e+01 -5.000000000000e+01 0.000000000000e+00 0.000000000000e+00 0.000000000000e+00 0.000000000000e+00 0.000000000000e+00 
1.015037729946e-01 6.108346079851e-01 0.000000000000e+00 0.000000000000e+00 0.000000000000e+00 -5.000000000000e+01 0.000000000000e+00 -5.000000000000e+01 -5.000000000000e+01 0.000000000000e+00 0.000000000000e+00 0.000000000000e+00 0.000000000000e+00 0.000000000000e+00 
3.795262269175e-01 2.719490921430e-01 0.000000000000e+00 0.000000000000e+00 0.000000000000e+00 -5.000000000000e+01 0.000000000000e+00 -5.000000000000e+01 -5.000000000000e+01 0.000000000000e+00 0.000000000000e+00 0.000000000000e+00 0.000000000000e+00 0.000000000000e+00 
3.680342521626e-01 5.588926803418e-01 0.000000000000e+00 0.000000000000e+00 0.000000000000e+00 -5.000000000000e+01 0.000000000000e+00 -5.000000000000e+01 -5.000000000000e+01 0.000000000000e+00 0.000000000000e+00 0.000000000000e+00 0.000000000000e+00 0.000000000000e+00 
3.845787850981e-01 8.860969553038e-01 0.000000000000e+00 0.000000000000e+00 0.000000000000e+00 -5.000000000000e+01 0.000000000000e+00 -5.000000000000e+01 -5.000000000000e+01 0.000000000000e+00 0.000000000000e+00 0.000000000000e+00 0.000000000000e+00 0.000000000000e+00 
2.520794258593e-01 1.083160548780e-01 0.000000000000e+00 0.000000000000e+00 0.000000000000e+00 -5.000000000000e+01 0.000000000000e+00 -5.000000000000e+01 -5.000000000000e+01 0.000000000000e+00 0.000000000000e+00 0.000000000000e+00 0.000000000000e+00 0.000000000000e+00 
2.368267847428e-01 3.918035843481e-01 0.000000000000e+00 0.000000000000e+00 0.000000000000e+00 -5.000000000000e+01 0.000000000000e+00 -5.000000000000e+01 -5.000000000000e+01 0.000000000000e+00 0.000000000000e+00 0.000000000000e+00 0.000000000000e+00 0.000000000000e+00 
4.068113047681e-01 3.859031984473e-01 0.000000000000e+00 0.000000000000e+00 0.000000000000e+00 -5.000000000000e+01 0.000000000000e+00 -5.000000000000e+01 -5.000000000000e+01 0.000000000000e+00 0.000000000000e+00 0.000000000000e+00 0.000000000000e+00 0.000000000000e+00 
9.579358895840e-02 2.440971713883e-01 0.000000000000e+00 0.000000000000e+00 0.000000000000e+00 -5.000000000000e+01 0.000000000000e+00 -5.000000000000e+01 -5.000000000000e+01 0.000000000000e+00 0.000000000000e+00 0.000000000000e+00 0.000000000000e+00 0.000000000000e+00 
9.407212767522e-02 8.270271821957e-01 0.000000000000e+00 0.000000000000e+00 0.000000000000e+00 -5.000000000000e+01 0.000000000000e+00 -5.000000000000e+01 -5.000000000000e+01 0.000000000000e+00 0.000000000000e+00 0.000000000000e+00 0.000000000000e+00 0.000000000000e+00 
2.516227021218e-01 7.152247998494e-01 0.000000000000e+00 0.000000000000e+00 0.000000000000e+00 -5.000000000000e+01 0.000000000000e+00 -5.000000000000e+01 -5.000000000000e+01 0.000000000000e+00 0.000000000000e+00 0.000000000000e+00 0.000000000000e+00 0.000000000000e+00 
4.124958646476e-01 7.820047072787e-01 0.000000000000e+00 0.000000000000e+00 0.000000000000e+00 -5.000000000000e+01 0.000000000000e+00 -5.000000000000e+01 -5.000000000000e+01 0.000000000000e+00 0.000000000000e+00 0.000000000000e+00 0.000000000000e+00 0.000000000000e+00 
2.857446172640e-01 9.008439229498e-01 0.000000000000e+00 0.000000000000e+00 0.000000000000e+00 -5.000000000000e+01 0.000000000000e+00 -5.000000000000e+01 -5.000000000000e+01 0.000000000000e+00 0.000000000000e+00 0.000000000000e+00 0.000000000000e+00 0.000000000000e+00 
2.523874927360e-01 5.091066351283e-01 0.000000000000e+00 0.000000000000e+00 0.000000000000e+00 -5.000000000000e+01 0.000000000000e+00 -5.000000000000e+01 -5.000000000000e+01 0.000000000000e+00 0.000000000000e+00 0.000000000000e+00 0.000000000000e+00 0.000000000000e+00 
4.121435150797e-01 8.492070391443e-02 0.000000000000e+00 0.000000000000e+00 0.000000000000e+00 -5.000000000000e+01 0.000000000000e+00 -5.000000000000e+01 -5.000000000000e+01 0.000000000000e+00 0.000000000000e+00 0.000000000000e+00 0.000000000000e+00 0.000000000000e+00 
8.819769196411e-02 8.516946377990e-02 0.000000000000e+00 0.000000000000e+00 0.000000000000e+00 -5.000000000000e+01 0.000000000000e+00 -5.000000000000e+01 -5.000000000000e+01 0.000000000000e+00 0.000000000000e+00 0.000000000000e+00 0.000000000000e+00 0.000000000000e+00 
3.200817255356e-01 3.543019263054e-01 0.000000000000e+00 0.000000000000e+00 0.000000000000e+00 -5.000000000000e+01 0.000000000000e+00 -5.000000000000e+01 -5.000000000000e+01 0.000000000000e+00 0.000000000000e+00 0.000000000000e+00 0.000000000000e+00 0.000000000000e+00 
4.169885634503e-01 4.771072683468e-01 0.000000000000e+00 0.000000000000e+00 0.000000000000e+00 -5.000000000000e+01 0.000000000000e+00 -5.000000000000e+01 -5.000000000000e+01 0.000000000000e+00 0.000000000000e+00 0.000000000000e+00 0.000000000000e+00 0.000000000000e+00 
7.948018467492e-02 5.037032300856e-01 0.000000000000e+00 0.000000000000e+00 0.000000000000e+00 -5.000000000000e+01 0.000000000000e+00 -5.000000000000e+01 -5.000000000000e+01 0.000000000000e+00 0.000000000000e+00 0.000000000000e+00 0.000000000000e+00 0.000000000000e+00 
8.096421638074e-02 9.218906870101e-01 0.000000000000e+00 0.000000000000e+00 0.000000000000e+00 -5.000000000000e+01 0.000000000000e+00 -5.000000000000e+01 -5.000000000000e+01 0.000000000000e+00 0.000000000000e+00 0.000000000000e+00 0.000000000000e+00 0.000000000000e+00 
7.930525409953e-02 7.184286874229e-01 0.000000000000e+00 0.000000000000e+00 0.000000000000e+00 -5.000000000000e+01 0.000000000000e+00 -5.000000000000e+01 -5.000000000000e+01 0.000000000000e+00 0.000000000000e+00 0.000000000000e+00 0.000000000000e+00 0.000000000000e+00 
2.661218122358e-01 1.976628741899e-01 0.000000000000e+00 0.000000000000e+00 0.000000000000e+00 -5.000000000000e+01 0.000000000000e+00 -5.000000000000e+01 -5.000000000000e+01 0.000000000000e+00 0.000000000000e+00 0.000000000000e+00 0.000000000000e+00 0.000000000000e+00 
7.835622335767e-02 4.154782256902e-01 0.000000000000e+00 0.000000000000e+00 0.000000000000e+00 -5.000000000000e+01 0.000000000000e+00 -5.000000000000e+01 -5.000000000000e+01 0.000000000000e+00 0.000000000000e+00 0.000000000000e+00 0.000000000000e+00 0.000000000000e+00 
1.740323197534e-01 7.026941424429e-02 0.000000000000e+00 0.000000000000e+00 0.000000000000e+00 -5.000000000000e+01 0.000000000000e+00 -5.000000000000e+01 -5.000000000000e+01 0.000000000000e+00 0.000000000000e+00 0.000000000000e+00 0.000000000000e+00 0.000000000000e+00 
4.306180309316e-01 1.685748948279e-01 0.000000000000e+00 0.000000000000e+00 0.000000000000e+00 -5.000000000000e+01 0.000000000000e+00 -5.000000000000e+01 -5.000000000000e+01 0.000000000000e+00 0.000000000000e+00 0.000000000000e+00 0.000000000000e+00 0.000000000000e+00 
3.268453678584e-01 6.992358094798e-02 0.000000000000e+00 0.000000000000e+00 0.000000000000e+00 -5.000000000000e+01 0.000000000000e+00 -5.000000000000e+01 -5.000000000000e+01 0.000000000000e+00 0.000000000000e+00 0.000000000000e+00 0.000000000000e+00 0.000000000000e+00 
6.711119462000e-02 1.659726929805e-01 0.000000000000e+00 0.000000000000e+00 0.000000000000e+00 -5.000000000000e+01 0.000000000000e+00 -5.000000000000e+01 -5.000000000000e+01 0.000000000000e+00 0.000000000000e+00 0.000000000000e+00 0.000000000000e+00 0.000000000000e+00 
4.291549386527e-01 6.209332067955e-01 0.000000000000e+00 0.000000000000e+00 0.000000000000e+00 -5.000000000000e+01 0.000000000000e+00 -5.000000000000e+01 -5.000000000000e+01 0.000000000000e+00 0.000000000000e+00 0.000000000000e+00 0.000000000000e+00 0.000000000000e+00 
2.149486320640e-01 8.055071588067e-01 0.000000000000e+00 0.000000000000e+00 0.000000000000e+00 -5.000000000000e+01 0.000000000000e+00 -5.000000000000e+01 -5.000000000000e+01 0.000000000000e+00 0.000000000000e+00 0.000000000000e+00 0.000000000000e+00 0.000000000000e+00 
1.780310917010e-01 6.608091874072e-01 0.000000000000e+00 0.000000000000e+00 0.000000000000e+00 -5.000000000000e+01 0.000000000000e+00 -5.000000000000e+01 -5.000000000000e+01 0.000000000000e+00 0.000000000000e+00 0.000000000000e+00 0.000000000000e+00 0.000000000000e+00 
1.819089548864e-01 2.385757522978e-01 0.000000000000e+00 0.000000000000e+00 0.000000000000e+00 -5.000000000000e+01 0.000000000000e+00 -5.000000000000e+01 -5.000000000000e+01 0.000000000000e+00 0.000000000000e+00 0.000000000000e+00 0.000000000000e+00 0.000000000000e+00 
1.755160443574e-01 5.579723222393e-01 0.000000000000e+00 0.000000000000e+00 0.000000000000e+00 -5.000000000000e+01 0.000000000000e+00 -5.000000000000e+01 -5.000000000000e+01 0.000000000000e+00 0.000000000000e+00 0.000000000000e+00 0.000000000000e+00 0.000000000000e+00 
4.386893289369e-01 9.456122625178e-01 0.000000000000e+00 0.000000000000e+00 0.000000000000e+00 -5.000000000000e+01 0.000000000000e+00 -5.000000000000e+01 -5.000000000000e+01 0.000000000000e+00 0.000000000000e+00 0.000000000000e+00 0.000000000000e+00 0.000000000000e+00 
18  35  17  18
13  48  36  13
27  40  36  27
14  48  13  14
41  48  15  41
15  48  14  15
10  39  9  10
24  45  37  24
22  38  21  22
39  58  33  39
28  58  39  28
27  50  40  27
35  49  17  35
36  64  13  36
37  43  31  37
40  50  30  40
29  47  36  29
36  47  27  36
17  49  16  17
39  61  9  39
18  56  35  18
25  45  24  25
36  48  29  36
28  43  37  28
43  50  31  43
37  67  28  37
33  61  39  33
22  55  38  22
16  49  41  16
38  57  21  38
32  65  46  32
37  59  24  37
10  44  39  10
46  65  35  46
2  51  7  2
5  52  1  5
31  59  37  31
38  66  57  38
30  50  43  30
40  54  12  40
57  66  32  57
39  53  28  39
4  56  18  4
35  65  49  35
8  51  2  8
1  52  26  1
55  68  38  55
49  65  29  49
42  58  34  42
30  54  40  30
40  64  36  40
12  64  40  12
11  44  10  11
6  60  5  6
7  62  6  7
58  67  34  58
12  54  11  12
29  48  41  29
45  67  37  45
46  57  32  46
41  49  29  41
20  46  19  20
19  56  4  19
24  59  23  24
31  68  55  31
20  57  46  20
35  56  46  35
13  64  12  13
42  60  6  42
6  62  42  6
28  53  43  28
15  69  41  15
41  69  16  41
44  54  30  44
11  54  44  11
23  55  22  23
21  57  20  21
43  53  30  43
30  53  44  30
44  53  39  44
9  61  8  9
26  63  25  26
3  69  15  3
33  58  42  33
42  62  33  42
34  60  42  34
66  68  27  66
46  56  19  46
29  65  47  29
47  65  32  47
38  68  66  38
45  63  34  45
55  59  31  55
25  63  45  25
47  66  27  47
32  66  47  32
34  67  45  34
27  68  50  27
28  67  58  28
8  61  51  8
33  62  51  33
52  60  34  52
52  63  26  52
50  68  31  50
34  63  52  34
51  61  33  51
51  62  7  51
5  60  52  5
23  59  55  23
16  69  3  16
VARIABLES  = "X","Y","Z", "DISPLACEMENT_X1", "DISPLACEMENT_Y1", "STRESS_XX", "STRESS_XY", "STRESS_YY", "STRESS_ZZ", "STRAIN_XX", "STRAIN_XY", "STRAIN_YY", "STRAIN_ZZ", "STRAIN_PLS"
ZONE T="2.000000000000e+00s", N=69, E=110, F=FEPOINT, ET=QUADRILATERAL
STRANDID=1, SOLUTIONTIME=2.000000000000e+00
0.000000000000e+00 0.000000000000e+00 0.000000000000e+00 0.000000000000e+00 0.000000000000e+00 -4.999376436464e+01 -1.834834943161e-07 -4.999376433203e+01 -7.563772314060e+01 1.153659983464e-03 -1.726188415388e-10 1.153659998805e-03 -1.090908866020e-02 7.617795794013e-03 
5.000000000000e-01 0.000000000000e+00 0.000000000000e+00 5.768300338707e-04 0.000000000000e+00 -4.999376393856e+01 5.526351700638e-08 -4.999376417485e+01 -7.563772343000e+01 1.153660171422e-03 5.199118479487e-11 1.153660060274e-03 -1.090908918544e-02 7.617796343253e-03 
5.000000000000e-01 1.000000000000e+00 0.000000000000e+00 5.768303718771e-04 -1.090909090909e-02 -4.999376274650e+01 -5.512697064840e-08 -4.999376260889e+01 -7.563772483977e+01 1.153660680130e-03 -5.186273466529e-11 1.153660744861e-03 -1.090909172536e-02 7.617798996433e-03 
0.000000000000e+00 1.000000000000e+00 0.000000000000e+00 0.000000000000e+00 -1.090909090909e-02 -4.999376359413e+01 7.747385408150e-08 -4.999376363573e+01 -7.563772656640e+01 1.153660767087e-03 7.288640034763e-11 1.153660747517e-03 -1.090909365730e-02 7.617800836350e-03 
1.250000000000e-01 0.000000000000e+00 0.000000000000e+00 1.442074939193e-04 0.000000000000e+00 -4.999376437709e+01 1.432174336679e-07 -4.999376440013e+01 -7.563772312796e+01 1.153659983915e-03 1.347370678148e-10 1.153659973078e-03 -1.090908862491e-02 7.617795755250e-03 
2.500000000000e-01 0.000000000000e+00 0.000000000000e+00 2.884149979440e-04 0.000000000000e+00 -4.999376416600e+01 6.355910986218e-08 -4.999376429949e+01 -7.563772317239e+01 1.153660058057e-03 5.979557107346e-11 1.153659995263e-03 -1.090908875541e-02 7.617795899202e-03 
3.750000000000e-01 0.000000000000e+00 0.000000000000e+00 4.326225046749e-04 0.000000000000e+00 -4.999376417145e+01 2.610347982408e-07 -4.999376432431e+01 -7.563772338451e+01 1.153660094234e-03 2.455780910176e-10 1.153660022332e-03 -1.090908903764e-02 7.617796178908e-03 
5.000000000000e-01 1.111111111111e-01 0.000000000000e+00 5.768300635793e-04 -1.212121034627e-03 -4.999376360513e+01 1.549850769797e-07 -4.999376398762e+01 -7.563772352615e+01 1.153660289932e-03 1.458079146426e-10 1.153660110010e-03 -1.090908943332e-02 7.617796613458e-03 
5.000000000000e-01 2.222222222222e-01 0.000000000000e+00 5.768301391317e-04 -2.424242122461e-03 -4.999376365887e+01 3.929714268676e-07 -4.999376377616e+01 -7.563772391046e+01 1.153660312617e-03 3.697023506199e-10 1.153660257443e-03 -1.090908999236e-02 7.617797177278e-03 
5.000000000000e-01 3.333333333333e-01 0.000000000000e+00 5.768301910834e-04 -3.636363250356e-03 -4.999376352782e+01 2.392277763168e-07 -4.999376354176e+01 -7.563772417387e+01 1.153660380214e-03 2.250623514715e-10 1.153660373659e-03 -1.090909043329e-02 7.617797632787e-03 
5.000000000000e-01 4.444444444444e-01 0.000000000000e+00 5.768302323893e-04 -4.848484440209e-03 -4.999376339631e+01 1.987078884391e-07 -4.999376340409e+01 -7.563772446129e+01 1.153660462128e-03 1.869417792902e-10 1.153660458470e-03 -1.090909088533e-02 7.617798095045e-03 
5.000000000000e-01 5.555555555555e-01 0.000000000000e+00 5.768302878185e-04 -6.060605690707e-03 -4.999376315664e+01 -5.277853984372e-08 -4.999376316337e+01 -7.563772476085e+01 1.153660574866e-03 -4.965336066932e-11 1.153660571699e-03 -1.090909140133e-02 7.617798630468e-03 
5.000000000000e-01 6.666666666667e-01 0.000000000000e+00 5.768303490358e-04 -7.272726971387e-03 -4.999376290354e+01 1.891461151943e-07 -4.999376278302e+01 -7.563772486500e+01 1.153660645130e-03 1.779461973823e-10 1.153660701822e-03 -1.090909168541e-02 7.617798941786e-03 
5.000000000000e-01 7.777777777778e-01 0.000000000000e+00 5.768303879673e-04 -8.484848285765e-03 -4.999376292634e+01 -2.372853650310e-07 -4.999376265819e+01 -7.563772504203e+01 1.153660653427e-03 -2.232349768002e-10 1.153660779561e-03 -1.090909194952e-02 7.617799209393e-03 
5.000000000000e-01 8.888888888889e-01 0.000000000000e+00 5.768303819811e-04 -9.696969603782e-03 -4.999376275271e+01 -2.945656950487e-07 -4.999376258403e+01 -7.563772490938e+01 1.153660686931e-03 -2.771235627043e-10 1.153660766281e-03 -1.090909182440e-02 7.617799095894e-03 
3.750000000000e-01 1.000000000000e+00 0.000000000000e+00 4.326227875548e-04 -1.090909090909e-02 -4.999376287469e+01 4.474977104858e-08 -4.999376276116e+01 -7.563772516867e+01 1.153660704333e-03 4.210000111115e-11 1.153660757735e-03 -1.090909211056e-02 7.617799367467e-03 
2.500000000000e-01 1.000000000000e+00 0.000000000000e+00 2.884152003394e-04 -1.090909090909e-02 -4.999376321683e+01 2.281862147340e-07 -4.999376308732e+01 -7.563772580278e+01 1.153660719655e-03 2.146746296594e-10 1.153660780574e-03 -1.090909282458e-02 7.617800048577e-03 
1.250000000000e-01 1.000000000000e+00 0.000000000000e+00 1.442076063043e-04 -1.090909090909e-02 -4.999376332692e+01 1.834611822222e-07 -4.999376332616e+01 -7.563772644450e+01 1.153660812002e-03 1.725979065857e-10 1.153660812359e-03 -1.090909362066e-02 7.617800825727e-03 
0.000000000000e+00 8.888888888889e-01 0.000000000000e+00 0.000000000000e+00 -9.696969402878e-03 -4.999376350412e+01 7.098991716939e-08 -4.999376351424e+01 -7.563772643759e+01 1.153660765698e-03 6.678639470163e-11 1.153660760937e-03 -1.090909352926e-02 7.617800718318e-03 
0.000000000000e+00 7.777777777778e-01 0.000000000000e+00 0.000000000000e+00 -8.484847922492e-03 -4.999376271691e+01 -1.678409895104e-07 -4.999376271583e+01 -7.563772588198e+01 1.153660876948e-03 -1.579026292436e-10 1.153660877456e-03 -1.090909312809e-02 7.617800389915e-03 
0.000000000000e+00 6.666666666667e-01 0.000000000000e+00 0.000000000000e+00 -7.272726482954e-03 -4.999376262371e+01 -1.406422187121e-06 -4.999376262141e+01 -7.563772537714e+01 1.153660816487e-03 -1.323143690485e-09 1.153660817569e-03 -1.090909248231e-02 7.617799755212e-03 
0.000000000000e+00 5.555555555556e-01 0.000000000000e+00 0.000000000000e+00 -6.060605185416e-03 -4.999376311909e+01 -1.736923767219e-06 -4.999376312722e+01 -7.563772436932e+01 1.153660519148e-03 -1.634075130994e-09 1.153660515323e-03 -1.090909088438e-02 7.617798118947e-03 
0.000000000000e+00 4.444444444445e-01 0.000000000000e+00 0.000000000000e+00 -4.848484019813e-03 -4.999376303957e+01 -1.517759990626e-06 -4.999376303665e+01 -7.563772398400e+01 1.153660474132e-03 -1.427888668800e-09 1.153660475505e-03 -1.090909039753e-02 7.617797641731e-03 
0.000000000000e+00 3.333333333333e-01 0.000000000000e+00 0.000000000000e+00 -3.636362933177e-03 -4.999376277126e+01 -1.221442804430e-06 -4.999376270512e+01 -7.563772317332e+01 1.153660401624e-03 -1.149117277334e-09 1.153660432738e-03 -1.090908942756e-02 7.617796702646e-03 
0.000000000000e+00 2.222222222222e-01 0.000000000000e+00 0.000000000000e+00 -2.424241923867e-03 -4.999376343840e+01 -6.626501222956e-07 -4.999376344567e+01 -7.563772288179e+01 1.153660186153e-03 -6.234124720116e-10 1.153660182735e-03 -1.090908871438e-02 7.617795929266e-03 
0.000000000000e+00 1.111111111111e-01 0.000000000000e+00 0.000000000000e+00 -1.212120958926e-03 -4.999376429528e+01 -4.524718502600e-07 -4.999376427395e+01 -7.563772333989e+01 1.153660036190e-03 -4.256795360598e-10 1.153660046222e-03 -1.090908896036e-02 7.617796098655e-03 
2.589514675558e-01 6.131170471200e-01 0.000000000000e+00 2.987421215385e-04 -6.688549029641e-03 -4.999376292708e+01 -1.075564021419e-06 -4.999376291621e+01 -7.563772485041e+01 1.153660648005e-03 -1.011876588571e-09 1.153660653117e-03 -1.090909163035e-02 7.617798879924e-03 
2.516254322439e-01 2.879687005322e-01 0.000000000000e+00 2.902902838060e-04 -3.141476202023e-03 -4.999376339179e+01 -2.906487107143e-07 -4.999376334219e+01 -7.563772368596e+01 1.153660327263e-03 -2.734384847197e-10 1.153660350593e-03 -1.090908984381e-02 7.617797060779e-03 
3.093333177154e-01 8.001865036853e-01 0.000000000000e+00 3.568657347768e-04 -8.729307010404e-03 -4.999376275192e+01 -1.152858213856e-06 -4.999376254913e+01 -7.563772523531e+01 1.153660738240e-03 -1.084593997561e-09 1.153660833630e-03 -1.090909227651e-02 7.617799547747e-03 
3.261818190709e-01 4.447451429167e-01 0.000000000000e+00 3.763030702841e-04 -4.851764647076e-03 -4.999376340392e+01 -9.462593387313e-07 -4.999376338438e+01 -7.563772445403e+01 1.153660456068e-03 -8.902283914376e-10 1.153660465256e-03 -1.090909087816e-02 7.617798088444e-03 
1.589842504896e-01 4.638345688453e-01 0.000000000000e+00 1.834138476608e-04 -5.060012739241e-03 -4.999376301323e+01 -9.601384675873e-07 -4.999376304096e+01 -7.563772403947e+01 1.153660493522e-03 -9.032856670398e-10 1.153660480477e-03 -1.090909047806e-02 7.617797722914e-03 
1.588983955413e-01 7.429917284633e-01 0.000000000000e+00 1.833148586090e-04 -8.105363731817e-03 -4.999376266083e+01 -1.157394475563e-06 -4.999376255273e+01 -7.563772541520e+01 1.153660802109e-03 -1.088861672210e-09 1.153660852957e-03 -1.090909254126e-02 7.617799815329e-03 
3.470792484928e-01 1.535052867898e-01 0.000000000000e+00 4.004114829008e-04 -1.674602845319e-03 -4.999376383659e+01 -1.064064171032e-07 -4.999376400890e+01 -7.563772347815e+01 1.153660199440e-03 -1.001057528731e-10 1.153660118388e-03 -1.090908931118e-02 7.617796480492e-03 