VARIABLES  = "X","Y","Z", "DISPLACEMENT_X1", "DISPLACEMENT_Y1", "STRESS_XX", "STRESS_XY", "STRESS_YY", "STRESS_ZZ", "STRAIN_XX", "STRAIN_XY", "STRAIN_YY", "STRAIN_ZZ", "STRAIN_PLS"
ZONE T="0.000000000000e+00s", N=50, E=36, F=FEPOINT, ET=QUADRILATERAL
STRANDID=1, SOLUTIONTIME=0.000000000000e+00
0.000000000000e+00 0.000000000000e+00 0.000000000000e+00 0.000000000000e+00 0.000000000000e+00 -5.000000000000e+01 0.000000000000e+00 -5.000000000000e+01 -5.000000000000e+01 0.000000000000e+00 0.000000000000e+00 0.000000000000e+00 0.000000000000e+00 0.000000000000e+00 
5.000000000000e-01 0.000000000000e+00 0.000000000000e+00 0.000000000000e+00 0.000000000000e+00 -5.000000000000e+01 0.000000000000e+00 -5.000000000000e+01 -5.000000000000e+01 0.000000000000e+00 0.000000000000e+00 0.000000000000e+00 0.000000000000e+00 0.000000000000e+00 
5.000000000000e-01 1.000000000000e+00 0.000000000000e+00 0.000000000000e+00 0.000000000000e+00 -5.000000000000e+01 0.000000000000e+00 -5.000000000000e+01 -5.000000000000e+01 0.000000000000e+00 0.000000000000e+00 0.000000000000e+00 0.000000000000e+00 0.000000000000e+00 
0.000000000000e+00 1.000000000000e+00 0.000000000000e+00 0.000000000000e+00 0.000000000000e+00 -5.000000000000e+01 0.000000000000e+00 -5.000000000000e+01 -5.000000000000e+01 0.000000000000e+00 0.000000000000e+00 0.000000000000e+00 0.000000000000e+00 0.000000000000e+00 
1.250000000000e-01 0.000000000000e+00 0.000000000000e+00 0.000000000000e+00 0.000000000000e+00 -5.000000000000e+01 0.000000000000e+00 -5.000000000000e+01 -5.000000000000e+01 0.000000000000e+00 0.000000000000e+00 0.000000000000e+00 0.000000000000e+00 0.000000000000e+00 
2.500000000000e-01 0.000000000000e+00 0.000000000000e+00 0.000000000000e+00 0.000000000000e+00 -5.000000000000e+01 0.000000000000e+00 -5.000000000000e+01 -5.000000000000e+01 0.000000000000e+00 0.000000000000e+00 0.000000000000e+00 0.000000000000e+00 0.000000000000e+00 
3.750000000000e-01 0.000000000000e+00 0.000000000000e+00 0.000000000000e+00 0.000000000000e+00 -5.000000000000e+01 0.000000000000e+00 -5.000000000000e+01 -5.000000000000e+01 0.000000000000e+00 0.000000000000e+00 0.000000000000e+00 0.000000000000e+00 0.000000000000e+00 
5.000000000000e-01 1.111111111111e-01 0.000000000000e+00 0.000000000000e+00 0.000000000000e+00 -5.000000000000e+01 0.000000000000e+00 -5.000000000000e+01 -5.000000000000e+01 0.000000000000e+00 0.000000000000e+00 0.000000000000e+00 0.000000000000e+00 0.000000000000e+00 
5.000000000000e-01 2.222222222222e-01 0.000000000000e+00 0.000000000000e+00 0.000000000000e+00 -5.000000000000e+01 0.000000000000e+00 -5.000000000000e+01 -5.000000000000e+01 0.000000000000e+00 0.000000000000e+00 0.000000000000e+00 0.000000000000e+00 0.000000000000e+00 
5.000000000000e-01 3.333333333333e-01 0.000000000000e+00 0.000000000000e+00 0.000000000000e+00 -5.000000000000e+01 0.000000000000e+00 -5.000000000000e+01 -5.000000000000e+01 0.000000000000e+00 0.000000000000e+00 0.000000000000e+00 0.000000000000e+00 0.000000000000e+00 
5.000000000000e-01 4.444444444444e-01 0.000000000000e+00 0.000000000000e+00 0.000000000000e+00 -5.000000000000e+01 0.000000000000e+00 -5.000000000000e+01 -5.000000000000e+01 0.000000000000e+00 0.000000000000e+00 0.000000000000e+00 0.000000000000e+00 0.000000000000e+00 
5.000000000000e-01 5.555555555555e-01 0.000000000000e+00 0.000000000000e+00 0.000000000000e+00 -5.000000000000e+01 0.000000000000e+00 -5.000000000000e+01 -5.000000000000e+01 0.000000000000e+00 0.000000000000e+00 0.000000000000e+00 0.000000000000e+00 0.000000000000e+00 
5.000000000000e-01 6.666666666667e-01 0.000000000000e+00 0.000000000000e+00 0.000000000000e+00 -5.000000000000e+01 0.000000000000e+00 -5.000000000000e+01 -5.000000000000e+01 0.000000000000e+00 0.000000000000e+00 0.000000000000e+00 0.000000000000e+00 0.000000000000e+00 
5.000000000000e-01 7.777777777778e-01 0.000000000000e+00 0.000000000000e+00 0.000000000000e+00 -5.000000000000e+01 0.000000000000e+00 -5.000000000000e+01 -5.000000000000e+01 0.000000000000e+00 0.000000000000e+00 0.000000000000e+00 0.000000000000e+00 0.000000000000e+00 
5.000000000000e-01 8.888888888889e-01 0.000000000000e+00 0.000000000000e+00 0.000000000000e+00 -5.000000000000e+01 0.000000000000e+00 -5.000000000000e+01 -5.000000000000e+01 0.000000000000e+00 0.000000000000e+00 0.000000000000e+00 0.000000000000e+00 0.000000000000e+00 
3.750000000000e-01 1.000000000000e+00 0.000000000000e+00 0.000000000000e+00 0.000000000000e+00 -5.000000000000e+01 0.000000000000e+00 -5.000000000000e+01 -5.000000000000e+01 0.000000000000e+00 0.000000000000e+00 0.000000000000e+00 0.000000000000e+00 0.000000000000e+00 
2.500000000000e-01 1.000000000000e+00 0.000000000000e+00 0.000000000000e+00 0.000000000000e+00 -5.000000000000e+01 0.000000000000e+00 -5.000000000000e+01 -5.000000000000e+01 0.000000000000e+00 0.000000000000e+00 0.000000000000e+00 0.000000000000e+00 0.000000000000e+00 
1.250000000000e-01 1.000000000000e+00 0.000000000000e+00 0.000000000000e+00 0.000000000000e+00 -5.000000000000e+01 0.000000000000e+00 -5.000000000000e+01 -5.000000000000e+01 0.000000000000e+00 0.000000000000e+00 0.000000000000e+00 0.000000000000e+00 0.000000000000e+00 
0.000000000000e+00 8.888888888889e-01 0.000000000000e+00 0.000000000000e+00 0.000000000000e+00 -5.000000000000e+01 0.000000000000e+00 -5.000000000000e+01 -5.000000000000e+01 0.000000000000e+00 0.000000000000e+00 0.000000000000e+00 0.000000000000e+00 0.000000000000e+00 
0.000000000000e+00 7.777777777778e-01 0.000000000000e+00 0.000000000000e+00 0.000000000000e+00 -5.000000000000e+01 0.000000000000e+00 -5.000000000000e+01 -5.000000000000e+01 0.000000000000e+00 0.000000000000e+00 0.000000000000e+00 0.000000000000e+00 0.000000000000e+00 
0.000000000000e+00 6.666666666667e-01 0.000000000000e+00 0.000000000000e+00 0.000000000000e+00 -5.000000000000e+01 0.000000000000e+00 -5.000000000000e+01 -5.000000000000e+01 0.000000000000e+00 0.000000000000e+00 0.000000000000e+00 0.000000000000e+00 0.000000000000e+00 
0.000000000000e+00 5.555555555556e-01 0.000000000000e+00 0.000000000000e+00 0.000000000000e+00 -5.000000000000e+01 0.000000000000e+00 -5.000000000000e+01 -5.000000000000e+01 0.000000000000e+00 0.000000000000e+00 0.000000000000e+00 0.000000000000e+00 0.000000000000e+00 
0.000000000000e+00 4.444444444445e-01 0.000000000000e+00 0.000000000000e+00 0.000000000000e+00 -5.000000000000e+01 0.000000000000e+00 -5.000000000000e+01 -5.000000000000e+01 0.000000000000e+00 0.000000000000e+00 0.000000000000e+00 0.000000000000e+00 0.000000000000e+00 
0.000000000000e+00 3.333333333333e-01 0.000000000000e+00 0.000000000000e+00 0.000000000000e+00 -5.000000000000e+01 0.000000000000e+00 -5.000000000000e+01 -5.000000000000e+01 0.000000000000e+00 0.000000000000e+00 0.000000000000e+00 0.000000000000e+00 0.000000000000e+00 
0.000000000000e+00 2.222222222222e-01 0.000000000000e+00 0.000000000000e+00 0.000000000000e+00 -5.000000000000e+01 0.000000000000e+00 -5.000000000000e+01 -5.000000000000e+01 0.000000000000e+00 0.000000000000e+00 0.000000000000e+00 0.000000000000e+00 0.000000000000e+00 
0.000000000000e+00 1.111111111111e-01 0.000000000000e+00 0.000000000000e+00 0.000000000000e+00 -5.000000000000e+01 0.000000000000e+00 -5.000000000000e+01 -5.000000000000e+01 0.000000000000e+00 0.000000000000e+00 0.000000000000e+00 0.000000000000e+00 0.000000000000e+00 
1.250000000000e-01 8.888888888889e-01 0.000000000000e+00 0.000000000000e+00 0.000000000000e+00 -5.000000000000e+01 0.000000000000e+00 -5.000000000000e+01 -5.000000000000e+01 0.000000000000e+00 0.000000000000e+00 0.000000000000e+00 0.000000000000e+00 0.000000000000e+00 
2.500000000000e-01 8.888888888889e-01 0.000000000000e+00 0.000000000000e+00 0.000000000000e+00 -5.000000000000e+01 0.000000000000e+00 -5.000000000000e+01 -5.000000000000e+01 0.000000000000e+00 0.000000000000e+00 0.000000000000e+00 0.000000000000e+00 0.000000000000e+00 
3.750000000000e-01 8.888888888889e-01 0.000000000000e+00 0.000000000000e+00 0.000000000000e+00 -5.000000000000e+01 0.000000000000e+00 -5.000000000000e+01 -5.000000000000e+01 0.000000000000e+00 0.000000000000e+00 0.000000000000e+00 0.000000000000e+00 0.000000000000e+00 
1.250000000000e-01 7.777777777778e-01 0.000000000000e+00 0.000000000000e+00 0.000000000000e+00 -5.000000000000e+01 0.000000000000e+00 -5.000000000000e+01 -5.000000000000e+01 0.000000000000e+00 0.000000000000e+00 0.000000000000e+00 0.000000000000e+00 0.000000000000e+00 
2.500000000000e-01 7.777777777778e-01 0.000000000000e+00 0.000000000000e+00 0.000000000000e+00 -5.000000000000e+01 0.000000000000e+00 -5.000000000000e+01 -5.000000000000e+01 0.000000000000e+00 0.000000000000e+00 0.000000000000e+00 0.000000000000e+00 0.000000000000e+00 
3.750000000000e-01 7.777777777778e-01 0.000000000000e+00 0.000000000000e+00 0.000000000000e+00 -5.000000000000e+01 0.000000000000e+00 -5.000000000000e+01 -5.000000000000e+01 0.000000000000e+00 0.000000000000e+00 0.000000000000e+00 0.000000000000e+00 0.000000000000e+00 
1.250000000000e-01 6.666666666667e-01 0.000000000000e+00 0.000000000000e+00 0.000000000000e+00 -5.000000000000e+01 0.000000000000e+00 -5.000000000000e+01 -5.000000000000e+01 0.000000000000e+00 0.000000000000e+00 0.000000000000e+00 0.000000000000e+00 0.000000000000e+00 
2.500000000000e-01 6.666666666667e-01 0.000000000000e+00 0.000000000000e+00 0.000000000000e+00 -5.000000000000e+01 0.000000000000e+00 -5.000000000000e+01 -5.000000000000e+01 0.000000000000e+00 0.000000000000e+00 0.000000000000e+00 0.000000000000e+00 0.000000000000e+00 
3.750000000000e-01 6.666666666667e-01 0.000000000000e+00 0.000000000000e+00 0.000000000000e+00 -5.000000000000e+01 0.000000000000e+00 -5.000000000000e+01 -5.000000000000e+01 0.000000000000e+00 0.000000000000e+00 0.000000000000e+00 0.000000000000e+00 0.000000000000e+00 
1.250000000000e-01 5.555555555556e-01 0.000000000000e+00 0.000000000000e+00 0.000000000000e+00 -5.000000000000e+01 0.000000000000e+00 -5.000000000000e+01 -5.000000000000e+01 0.000000000000e+00 0.000000000000e+00 0.000000000000e+00 0.000000000000e+00 0.000000000000e+00 
2.500000000000e-01 5.555555555556e-01 0.000000000000e+00 0.000000000000e+00 0.000000000000e+00 -5.000000000000e+01 0.000000000000e+00 -5.000000000000e+01 -5.000000000000e+01 0.000000000000e+00 0.000000000000e+00 0.000000000000e+00 0.000000000000e+00 0.000000000000e+00 
3.750000000000e-01 5.555555555556e-01 0.000000000000e+00 0.000000000000e+00 0.000000000000e+00 -5.000000000000e+01 0.000000000000e+00 -5.000000000000e+01 -5.000000000000e+01 0.000000000000e+00 0.000000000000e+00 0.000000000000e+00 0.000000000000e+00 0.000000000000e+00 
1.250000000000e-01 4.444444444444e-01 0.000000000000e+00 0.000000000000e+00 0.000000000000e+00 -5.000000000000e+01 0.000000000000e+00 -5.000000000000e+01 -5.000000000000e+01 0.000000000000e+00 0.000000000000e+00 0.000000000000e+00 0.000000000000e+00 0.000000000000e+00 
2.500000000000e-01 4.444444444444e-01 0.000000000000e+00 0.000000000000e+00 0.000000000000e+00 -5.000000000000e+01 0.000000000000e+00 -5.000000000000e+01 -5.000000000000e+01 0.000000000000e+00 0.000000000000e+00 0.000000000000e+00 0.000000000000e+00 0.000000000000e+00 
3.750000000000e-01 4.444444444444e-01 0.000000000000e+00 0.000000000000e+00 0.000000000000e+00 -5.000000000000e+01 0.000000000000e+00 -5.000000000000e+01 -5.000000000000e+01 0.000000000000e+00 0.000000000000e+00 0.000000000000e+00 0.000000000000e+00 0.000000000000e+00 
1.250000000000e-01 3.333333333333e-01 0.000000000000e+00 0.000000000000e+00 0.000000000000e+00 -5.000000000000e+01 0.000000000000e+00 -5.000000000000e+01 -5.000000000000e+01 0.000000000000e+00 0.000000000000e+00 0.000000000000e+00 0.000000000000e+00 0.000000000000e+00 
2.500000000000e-01 3.333333333333e-01 0.000000000000e+00 0.000000000000e+00 0.000000000000e+00 -5.000000000000e+01 0.000000000000e+00 -5.000000000000e+01 -5.000000000000e+01 0.000000000000e+00 0.000000000000e+00 0.000000000000e+00 0.000000000000e+00 0.000000000000e+00 
3.750000000000e-01 3.333333333333e-01 0.000000000000e+00 0.000000000000e+00 0.000000000000e+00 -5.000000000000e+01 0.000000000000e+00 -5.000000000000e+01 -5.000000000000e+01 0.000000000000e+00 0.000000000000e+00 0.000000000000e+00 0.000000000000e+00 0.000000000000e+00 
1.250000000000e-01 2.222222222222e-01 0.000000000000e+00 0.000000000000e+00 0.000000000000e+00 -5.000000000000e+01 0.000000000000e+00 -5.000000000000e+01 -5.000000000000e+01 0.000000000000e+00 0.000000000000e+00 0.000000000000e+00 0.000000000000e+00 0.000000000000e+00 
2.500000000000e-01 2.222222222222e-01 0.000000000000e+00 0.000000000000e+00 0.000000000000e+00 -5.000000000000e+01 0.000000000000e+00 -5.000000000000e+01 -5.000000000000e+01 0.000000000000e+00 0.000000000000e+00 0.000000000000e+00 0.000000000000e+00 0.000000000000e+00 
3.750000000000e-01 2.222222222222e-01 0.000000000000e+00 0.000000000000e+00 0.000000000000e+00 -5.000000000000e+01 0.000000000000e+00 -5.000000000000e+01 -5.000000000000e+01 0.000000000000e+00 0.000000000000e+00 0.000000000000e+00 0.000000000000e+00 0.000000000000e+00 
1.250000000000e-01 1.111111111111e-01 0.000000000000e+00 0.000000000000e+00 0.000000000000e+00 -5.000000000000e+01 0.000000000000e+00 -5.000000000000e+01 -5.000000000000e+01 0.000000000000e+00 0.000000000000e+00 0.000000000000e+00 0.000000000000e+00 0.000000000000e+00 
2.500000000000e-01 1.111111111111e-01 0.000000000000e+00 0.000000000000e+00 0.000000000000e+00 -5.000000000000e+01 0.000000000000e+00 -5.000000000000e+01 -5.000000000000e+01 0.000000000000e+00 0.000000000000e+00 0.000000000000e+00 0.000000000000e+00 0.000000000000e+00 
3.750000000000e-01 1.111111111111e-01 0.000000000000e+00 0.000000000000e+00 0.000000000000e+00 -5.000000000000e+01 0.000000000000e+00 -5.000000000000e+01 -5.000000000000e+01 0.000000000000e+00 0.000000000000e+00 0.000000000000e+00 0.000000000000e+00 0.000000000000e+00 
4  19  27  18  
18  27  28  17  
17  28  29  16  
16  29  15  3  
19  20  30  27  
27  30  31  28  
28  31  32  29  
29  32  14  15  
20  21  33  30  
30  33  34  31  
31  34  35  32  
32  35  13  14  
21  22  36  33  
33  36  37  34  
34  37  38  35  
35  38  12  13  
22  23  39  36  
36  39  40  37  
37  40  41  38  
38  41  11  12  
23  24  42  39  
39  42  43  40  
40  43  44  41  
41  44  10  11  
24  25  45  42  
42  45  46  43  
43  46  47  44  
44  47  9  10  
25  26  48  45  
45  48  49  46  
46  49  50  47  
47  50  8  9  
26  1  5  48  
48  5  6  49  
49  6  7  50  
50  7  2  8  
VARIABLES  = "X","Y","Z", "DISPLACEMENT_X1", "DISPLACEMENT_Y1", "STRESS_XX", "STRESS_XY", "STRESS_YY", "STRESS_ZZ", "STRAIN_XX", "STRAIN_XY", "STRAIN_YY", "STRAIN_ZZ", "STRAIN_PLS"
ZONE T="2.000000000000e+00s", N=50, E=36, F=FEPOINT, ET=QUADRILATERAL
STRANDID=1, SOLUTIONTIME=2.000000000000e+00
0.000000000000e+00 0.000000000000e+00 0.000000000000e+00 0.000000000000e+00 0.000000000000e+00 -4.999376211956e+01 8.367871574415e-07 -4.999376211956e+01 -7.563772741067e+01 1.153661289490e-03 7.872387191665e-10 1.153661289490e-03 -1.090909547892e-02 7.617802784616e-03 
5.000000000000e-01 0.000000000000e+00 0.000000000000e+00 5.768301555365e-04 0.000000000000e+00 -4.999376248217e+01 1.302150618203e-06 -4.999376275564e+01 -7.563772274435e+01 1.153660440704e-03 1.225046035430e-09 1.153660312069e-03 -1.090908889660e-02 7.617796184573e-03 
5.000000000000e-01 1.000000000000e+00 0.000000000000e+00 5.768301816747e-04 -1.090909090909e-02 -4.999376267627e+01 4.044848564883e-06 -4.999376413140e+01 -7.563772544781e+01 1.153660967059e-03 3.805340680269e-09 1.153660282577e-03 -1.090909222790e-02 7.617799431767e-03 
0.000000000000e+00 1.000000000000e+00 0.000000000000e+00 0.000000000000e+00 -1.090909090909e-02 -4.999377152133e+01 -1.237513640790e-06 -4.999377152133e+01 -7.563773502375e+01 1.153660110761e-03 -1.164238248342e-09 1.153660110761e-03 -1.090910163203e-02 7.617808069034e-03 
1.250000000000e-01 0.000000000000e+00 0.000000000000e+00 1.442075552388e-04 0.000000000000e+00 -4.999376524401e+01 -1.015937119792e-06 -4.999376408200e+01 -7.563772467358e+01 1.153659892771e-03 -9.557803154077e-10 1.153660439372e-03 -1.090909060775e-02 7.617797705324e-03 
2.500000000000e-01 0.000000000000e+00 0.000000000000e+00 2.884150616480e-04 0.000000000000e+00 -4.999376262051e+01 2.238691540917e-06 -4.999376236601e+01 -7.563772181874e+01 1.153660194096e-03 2.106131320937e-09 1.153660313808e-03 -1.090908769179e-02 7.617794995993e-03 
3.750000000000e-01 0.000000000000e+00 0.000000000000e+00 4.326226023812e-04 0.000000000000e+00 -4.999376457034e+01 1.294856790772e-06 -4.999376458623e+01 -7.563772533303e+01 1.153660302549e-03 1.218184347853e-09 1.153660295074e-03 -1.090909154434e-02 7.617798645657e-03 
5.000000000000e-01 1.111111111111e-01 0.000000000000e+00 5.768302586462e-04 -1.212121063612e-03 -4.999376376369e+01 3.149866777932e-06 -4.999376355628e+01 -7.563772469531e+01 1.153660382917e-03 2.963353349347e-09 1.153660480480e-03 -1.090909108760e-02 7.617798273175e-03 
5.000000000000e-01 2.222222222222e-01 0.000000000000e+00 5.768301733445e-04 -2.424242328942e-03 -4.999376307266e+01 -3.944062235732e-07 -4.999376366174e+01 -7.563772407742e+01 1.153660543082e-03 -3.710521268980e-10 1.153660265983e-03 -1.090909037711e-02 7.617797591867e-03 
5.000000000000e-01 3.333333333333e-01 0.000000000000e+00 5.768302726928e-04 -3.636363529793e-03 -4.999376332088e+01 -1.862535701149e-06 -4.999376312459e+01 -7.563772442924e+01 1.153660455109e-03 -1.752249224650e-09 1.153660547442e-03 -1.090909092132e-02 7.617798146806e-03 
5.000000000000e-01 4.444444444444e-01 0.000000000000e+00 5.768303062814e-04 -4.848484682755e-03 -4.999376283886e+01 -4.910967317080e-07 -4.999376261511e+01 -7.563772440519e+01 1.153660574103e-03 -4.620173182956e-10 1.153660679354e-03 -1.090909111109e-02 7.617798380263e-03 
5.000000000000e-01 5.555555555555e-01 0.000000000000e+00 5.768302020214e-04 -6.060605869829e-03 -4.999376285879e+01 3.189177245108e-06 -4.999376315463e+01 -7.563772400758e+01 1.153660556558e-03 3.000336047789e-09 1.153660417393e-03 -1.090909044375e-02 7.617797690579e-03 
5.000000000000e-01 6.666666666667e-01 0.000000000000e+00 5.768302913518e-04 -7.272727143213e-03 -4.999376423366e+01 2.652406479008e-06 -4.999376380902e+01 -7.563772544696e+01 1.153660363515e-03 2.495349437736e-09 1.153660563261e-03 -1.090909194956e-02 7.617799099178e-03 
5.000000000000e-01 7.777777777778e-01 0.000000000000e+00 5.768303454639e-04 -8.484848475315e-03 -4.999376358659e+01 -3.971798663503e-06 -4.999376303737e+01 -7.563772504876e+01 1.153660452703e-03 -3.736616457003e-09 1.153660711052e-03 -1.090909172541e-02 7.617798939575e-03 
5.000000000000e-01 8.888888888889e-01 0.000000000000e+00 5.768302819235e-04 -9.696969708611e-03 -4.999376220545e+01 -6.685513443248e-06 -4.999376232693e+01 -7.563772344068e+01 1.153660613879e-03 -6.289643206062e-09 1.153660556735e-03 -1.090909000372e-02 7.617797318783e-03 
3.750000000000e-01 1.000000000000e+00 0.000000000000e+00 4.326225433631e-04 -1.090909090909e-02 -4.999376315066e+01 -9.916162322741e-07 -4.999376420955e+01 -7.563772418846e+01 1.153660590476e-03 -9.328995761662e-10 1.153660092380e-03 -1.090909038794e-02 7.617797574589e-03 
2.500000000000e-01 1.000000000000e+00 0.000000000000e+00 2.884150046902e-04 -1.090909090909e-02 -4.999376379539e+01 4.844125559036e-08 -4.999376412982e+01 -7.563772303882e+01 1.153660153469e-03 4.557292674320e-11 1.153659996159e-03 -1.090908869468e-02 7.617795862946e-03 
1.250000000000e-01 1.000000000000e+00 0.000000000000e+00 1.442074943267e-04 -1.090909090909e-02 -4.999376669638e+01 4.986880927780e-07 -4.999376667723e+01 -7.563772591232e+01 1.153659840740e-03 4.691593564951e-10 1.153659849750e-03 -1.090909138718e-02 7.617798300003e-03 
0.000000000000e+00 8.888888888889e-01 0.000000000000e+00 0.000000000000e+00 -9.696968999609e-03 -4.999375942685e+01 -1.327471714903e-05 -4.999375942685e+01 -7.563771924999e+01 1.153660624020e-03 -1.248867752735e-08 1.153660624020e-03 -1.090908556814e-02 7.617793156153e-03 
0.000000000000e+00 7.777777777778e-01 0.000000000000e+00 0.000000000000e+00 -8.484848756688e-03 -4.999376458184e+01 1.025978826797e-05 -4.999376458184e+01 -7.563772448516e+01 1.153660155670e-03 9.652273083033e-09 1.153660155670e-03 -1.090909038746e-02 7.617797493222e-03 
0.000000000000e+00 6.666666666667e-01 0.000000000000e+00 0.000000000000e+00 -7.272727402321e-03 -4.999376388671e+01 5.026639955368e-07 -4.999376388671e+01 -7.563772702769e+01 1.153660763687e-03 4.728993626352e-10 1.153660763687e-03 -1.090909416385e-02 7.617801316432e-03 
0.000000000000e+00 5.555555555556e-01 0.000000000000e+00 0.000000000000e+00 -6.060605911294e-03 -4.999375951535e+01 -7.761377538424e-06 -4.999375951535e+01 -7.563772050679e+01 1.153660811706e-03 -7.301801279585e-09 1.153660811706e-03 -1.090908724089e-02 7.617794814079e-03 
0.000000000000e+00 4.444444444445e-01 0.000000000000e+00 0.000000000000e+00 -4.848484759137e-03 -4.999376053826e+01 2.480169553330e-06 -4.999376053826e+01 -7.563772189164e+01 1.153660776810e-03 2.333310061989e-09 1.153660776810e-03 -1.090908866868e-02 7.617796144233e-03 
0.000000000000e+00 3.333333333333e-01 0.000000000000e+00 0.000000000000e+00 -3.636363574557e-03 -4.999376885568e+01 5.017963093503e-06 -4.999376885568e+01 -7.563773178436e+01 1.153660263668e-03 4.720835702569e-09 1.153660263668e-03 -1.090909841469e-02 7.617805104053e-03 
0.000000000000e+00 2.222222222222e-01 0.000000000000e+00 0.000000000000e+00 -2.424242178852e-03 -4.999376272433e+01 -6.117164843295e-06 -4.999376272433e+01 -7.563772260241e+01 1.153660325042e-03 -5.754947855071e-09 1.153660325042e-03 -1.090908865587e-02 7.617795935382e-03 
0.000000000000e+00 1.111111111111e-01 0.000000000000e+00 0.000000000000e+00 -1.212121334865e-03 -4.999376179098e+01 3.653098553833e-06 -4.999376179098e+01 -7.563772073236e+01 1.153660255163e-03 3.436786815653e-09 1.153660255163e-03 -1.090908652676e-02 7.617793898752e-03 
1.250000000000e-01 8.888888888889e-01 0.000000000000e+00 1.442075650496e-04 -9.696969631189e-03 -4.999376391799e+01 -2.336062295076e-06 -4.999376334592e+01 -7.563772433026e+01 1.153660243241e-03 -2.197736924127e-09 1.153660512337e-03 -1.090909060277e-02 7.617797792852e-03 
2.500000000000e-01 8.888888888889e-01 0.000000000000e+00 2.884151077037e-04 -9.696969826154e-03 -4.999376284539e+01 6.018075971952e-07 -4.999376325670e+01 -7.563772419505e+01 1.153660603581e-03 5.661726157503e-10 1.153660410100e-03 -1.090909067930e-02 7.617797921182e-03 
3.750000000000e-01 8.888888888889e-01 0.000000000000e+00 4.326226783483e-04 -9.696969778995e-03 -4.999376209715e+01 -2.830543868183e-06 -4.999376261691e+01 -7.563772380528e+01 1.153660744981e-03 -2.662938429922e-09 1.153660500489e-03 -1.090909045974e-02 7.617797764778e-03 
1.250000000000e-01 7.777777777778e-01 0.000000000000e+00 1.442075695355e-04 -8.484848517095e-03 -4.999376034301e+01 -1.991164169799e-06 -4.999376152430e+01 -7.563772424496e+01 1.153661346094e-03 -1.873260910938e-09 1.153660790420e-03 -1.090909169776e-02 7.617799125386e-03 
2.500000000000e-01 7.777777777778e-01 0.000000000000e+00 2.884152672434e-04 -8.484848539991e-03 -4.999376124114e+01 -3.274376614108e-06 -4.999376145712e+01 -7.563772535127e+01 1.153661196098e-03 -3.080490937055e-09 1.153661094503e-03 -1.090909301868e-02 7.617800403613e-03 
3.750000000000e-01 7.777777777778e-01 0.000000000000e+00 4.326228099494e-04 -8.484848481256e-03 -4.999376533271e+01 4.523462311578e-06 -4.999376357155e+01 -7.563772597611e+01 1.153660025406e-03 4.255614438928e-09 1.153660853843e-03 -1.090909247720e-02 7.617799586004e-03 
1.250000000000e-01 6.666666666667e-01 0.000000000000e+00 1.442075896227e-04 -7.272727326294e-03 -4.999376170416e+01 5.788156707385e-06 -4.999376147438e+01 -7.563772290240e+01 1.153660617785e-03 5.445421739660e-09 1.153660725873e-03 -1.090908957413e-02 7.617796951687e-03 
2.500000000000e-01 6.666666666667e-01 0.000000000000e+00 2.884151460045e-04 -7.272727123514e-03 -4.999376521015e+01 1.346068364774e-06 -4.999376463217e+01 -7.563772658369e+01 1.153660283088e-03 1.266363701433e-09 1.153660554964e-03 -1.090909309453e-02 7.617800158716e-03 
3.750000000000e-01 6.666666666667e-01 0.000000000000e+00 4.326227198775e-04 -7.272727210172e-03 -4.999376245075e+01 1.262831213077e-06 -4.999376289174e+01 -7.563772456491e+01 1.153660771795e-03 1.188055105025e-09 1.153660564356e-03 -1.090909135373e-02 7.617798626907e-03 
1.250000000000e-01 5.555555555556e-01 0.000000000000e+00 1.442075747932e-04 -6.060605935878e-03 -4.999376560582e+01 1.393985693576e-06 -4.999376511955e+01 -7.563772635624e+01 1.153660151183e-03 1.311443567262e-09 1.153660379923e-03 -1.090909258642e-02 7.617799613091e-03 
2.500000000000e-01 5.555555555556e-01 0.000000000000e+00 2.884150820776e-04 -6.060605853470e-03 -4.999376376803e+01 8.858833113993e-07 -4.999376335338e+01 -7.563772308298e+01 1.153660089667e-03 8.334273527133e-10 1.153660284719e-03 -1.090908893524e-02 7.617796138576e-03 
3.750000000000e-01 5.555555555556e-01 0.000000000000e+00 4.326226276424e-04 -6.060605883659e-03 -4.999376264764e+01 -4.446135649123e-06 -4.999376347162e+01 -7.563772439461e+01 1.153660731866e-03 -4.182866172218e-09 1.153660344273e-03 -1.090909094736e-02 7.617798187367e-03 
1.250000000000e-01 4.444444444444e-01 0.000000000000e+00 1.442075783509e-04 -4.848484611209e-03 -4.999376400682e+01 -2.155720068563e-06 -4.999376380329e+01 -7.563772598473e+01 1.153660536092e-03 -2.028073290724e-09 1.153660631833e-03 -1.090909273452e-02 7.617799891336e-03 
2.500000000000e-01 4.444444444444e-01 0.000000000000e+00 2.884151714719e-04 -4.848484673804e-03 -4.999376095262e+01 -1.441637294684e-06 -4.999376168288e+01 -7.563772387445e+01 1.153661077545e-03 -1.356273441427e-09 1.153660734035e-03 -1.090909102050e-02 7.617798416461e-03 
3.750000000000e-01 4.444444444444e-01 0.000000000000e+00 4.326227577992e-04 -4.848484617850e-03 -4.999376328547e+01 -1.016675993363e-06 -4.999376263673e+01 -7.563772457689e+01 1.153660441798e-03 -9.564755020657e-10 1.153660746958e-03 -1.090909123995e-02 7.617798487589e-03 
1.250000000000e-01 3.333333333333e-01 0.000000000000e+00 1.442075699991e-04 -3.636363432739e-03 -4.999376101089e+01 1.872678274570e-06 -4.999376152772e+01 -7.563772304215e+01 1.153660900395e-03 1.761791129320e-09 1.153660657286e-03 -1.090908990817e-02 7.617797313053e-03 
2.500000000000e-01 3.333333333333e-01 0.000000000000e+00 2.884151573898e-04 -3.636363479935e-03 -4.999376321955e+01 -8.097011837216e-07 -4.999376303066e+01 -7.563772500793e+01 1.153660579413e-03 -7.617562957802e-10 1.153660668265e-03 -1.090909175365e-02 7.617798984468e-03 
3.750000000000e-01 3.333333333333e-01 0.000000000000e+00 4.326227175549e-04 -3.636363458241e-03 -4.999376376979e+01 5.310150430239e-06 -4.999376326715e+01 -7.563772475315e+01 1.153660360143e-03 4.995720041249e-09 1.153660596581e-03 -1.090909122994e-02 7.617798427620e-03 
1.250000000000e-01 2.222222222222e-01 0.000000000000e+00 1.442075585484e-04 -2.424242280587e-03 -4.999376292675e+01 3.933901628695e-06 -4.999376279554e+01 -7.563772330772e+01 1.153660376750e-03 3.700962806980e-09 1.153660438467e-03 -1.090908955548e-02 7.617796819020e-03 
2.500000000000e-01 2.222222222222e-01 0.000000000000e+00 2.884150803169e-04 -2.424242247375e-03 -4.999376530490e+01 6.962917804945e-07 -4.999376474329e+01 -7.563772506247e+01 1.153660004898e-03 6.550622585672e-10 1.153660269073e-03 -1.090909097555e-02 7.617798039219e-03 
3.750000000000e-01 2.222222222222e-01 0.000000000000e+00 4.326225947479e-04 -2.424242289034e-03 -4.999376404235e+01 -5.482809105934e-08 -4.999376414683e+01 -7.563772414865e+01 1.153660251067e-03 -5.158161274503e-11 1.153660201919e-03 -1.090909014765e-02 7.617797298107e-03 
1.250000000000e-01 1.111111111111e-01 0.000000000000e+00 1.442075241770e-04 -1.212121143015e-03 -4.999376465314e+01 -1.991524714868e-06 -4.999376465077e+01 -7.563772460928e+01 1.153660157614e-03 -1.873600221009e-09 1.153660158731e-03 -1.090909052509e-02 7.617797623998e-03 
2.500000000000e-01 1.111111111111e-01 0.000000000000e+00 2.884150719731e-04 -1.212120939732e-03 -4.999376296535e+01 1.639652985214e-07 -4.999376360891e+01 -7.563772414940e+01 1.153660588883e-03 1.542563447325e-10 1.153660286156e-03 -1.090909051112e-02 7.617797732512e-03 
3.750000000000e-01 1.111111111111e-01 0.000000000000e+00 4.326226666199e-04 -1.212121136407e-03 -4.999376124243e+01 -3.874843650876e-06 -4.999376208692e+01 -7.563772277017e+01 1.153660828573e-03 -3.645401833244e-09 1.153660431334e-03 -1.090908936010e-02 7.617796731772e-03 
4  19  27  18  
18  27  28  17  
17  28  29  16  
16  29  15  3  
19  20  30  27  
27  30  31  28  
28  31  32  29  
29  32  14  15  
20  21  33  30  
30  33  34  31  
31  34  35  32  
32  35  13  14  
21  22  36  33  
33  36  37  34  
34  37  38  35  
35  38  12  13  
22  23  39  36  
36  39  40  37  
37  40  41  38  
38  41  11  12  
23  24  42  39  
39  42  43  40  
40  43  44  41  
41  44  10  11  
24  25  45  42  
42  45  46  43  
43  46  47  44  
44  47  9  10  
25  26  48  45  
45  48  49  46  
46  49  50  47  
47  50  8  9  
26  1  5  48  
48  5  6  49  
49  6  7  50  
50  7  2  8  
VARIABLES  = "X","Y","Z", "DISPLACEMENT_X1", "DISPLACEMENT_Y1", "STRESS_XX", "STRESS_XY", "STRESS_YY", "STRESS_ZZ", "STRAIN_XX", "STRAIN_XY", "STRAIN_YY", "STRAIN_ZZ", "STRAIN_PLS"
ZONE T="4.000000000000e+00s", N=50, E=36, F=FEPOINT, ET=QUADRILATERAL
STRANDID=1, SOLUTIONTIME=4.000000000000e+00
0.000000000000e+00 0.000000000000e+00 0.000000000000e+00 0.000000000000e+00 0.000000000000e+00 -4.999988616588e+01 1.154456194151e-07 -4.999988616588e+01 -8.341553809795e+01 2.550443600504e-03 6.488179635347e-10 2.550443600504e-03 -2.181818567753e-02 1.876315288276e-02 
5.000000000000e-01 0.000000000000e+00 0.000000000000e+00 1.275221437855e-03 0.000000000000e+00 -4.999988526121e+01 3.090237310078e-07 -4.999988516565e+01 -8.341553501477e+01 2.550442920702e-03 1.134586403929e-09 2.550442879042e-03 -2.181818114046e-02 1.876314806857e-02 