 TITLE = "Time curves in points"
 VARIABLES = "TIME"  "DISPLACEMENT_X1"  "DISPLACEMENT_Y1"  "STRESS_XX"  "STRESS_XY"  "STRESS_YY"  "STRESS_ZZ"  "STRAIN_XX"  "STRAIN_XY"  "STRAIN_YY"  "STRAIN_ZZ"  "STRAIN_PLS"  p_(1st_Invariant)  q_(2nd_Invariant)   Effective_Strain
 ZONE T="POINT=POINT2"
0.000000000000e+00 0.000000000000e+00 0.000000000000e+00 -5.000000000000e+01 0.000000000000e+00 -5.000000000000e+01 -5.000000000000e+01 0.000000000000e+00 0.000000000000e+00 0.000000000000e+00 0.000000000000e+00 0.000000000000e+00 5.000000000000e+01 1.507288760336e-14  0.000000000000e+00
2.000000000000e+00 5.768303718771e-04 -1.090909090909e-02 -4.999376274650e+01 -5.512697064840e-08 -4.999376260889e+01 -7.563772483977e+01 1.153660680130e-03 -5.186273466529e-11 1.153660744861e-03 -1.090909172536e-02 7.617798996433e-03 5.854175006505e+01 2.564396216208e+01  1.206275243786e-02
4.000000000000e+00 1.275221419675e-03 -2.181818181818e-02 -4.999988536179e+01 -3.426484112729e-08 -4.999988551012e+01 -8.341553520608e+01 2.550442867027e-03 -6.848934874098e-11 2.550442839587e-03 -2.181818123045e-02 1.876314807987e-02 6.113843535933e+01 3.341564977013e+01  2.436862408375e-02
6.000000000000e+00 2.283842308538e-03 -3.272727272727e-02 -4.995361673647e+01 -6.965110767492e-07 -4.995360824696e+01 -8.989297457592e+01 4.567680901060e-03 -6.774709413252e-10 4.567684666530e-03 -3.272727870099e-02 3.074906226374e-02 6.326673318645e+01 3.993936208421e+01  3.729496148478e-02
8.000000000000e+00 3.520644509065e-03 -4.363636363636e-02 -4.998935027424e+01 3.465644336199e-07 -4.998935040853e+01 -9.554390937563e+01 7.041286527887e-03 -1.932091694389e-10 7.041289046572e-03 -4.363637366082e-02 4.334412113922e-02 6.517420335280e+01 4.555455903424e+01  5.067766144805e-02
1.000000000000e+01 4.943568310322e-03 -5.454545454544e-02 -5.000256748130e+01 7.804660758039e-09 -5.000256614294e+01 -1.005398675452e+02 9.887133594041e-03 -2.819787680262e-10 9.887136660641e-03 -5.454546535613e-02 5.641651973859e-02 6.684833372314e+01 5.053730073304e+01  6.443260048347e-02
1.200000000000e+01 6.520106859289e-03 -6.545454545455e-02 -5.000763138770e+01 1.349492028093e-07 -5.000763241320e+01 -1.050087712510e+02 1.304021125172e-02 -1.817759217165e-10 1.304021374996e-02 -6.545455499065e-02 6.987941271380e-02 6.834134501732e+01 5.500113935058e+01  7.849476749149e-02
1.400000000000e+01 8.226256135743e-03 -7.636363636364e-02 -5.000913343800e+01 -4.755669195926e-06 -5.000914804457e+01 -1.090355050863e+02 1.645251483424e-02 -3.694306444236e-09 1.645251212825e-02 -7.636364426761e-02 8.366977445407e-02 6.968459552295e+01 5.902636434500e+01  9.281615774885e-02
1.600000000000e+01 1.004346177379e-02 -8.727272727273e-02 -5.000911243263e+01 -4.199852835065e-06 -5.000913069580e+01 -1.126809951635e+02 2.008693091614e-02 -5.435627356641e-09 2.008692363503e-02 -8.727267435866e-02 9.773962004528e-02 7.089974609732e+01 6.267187359931e+01  1.073596016342e-01
1.800000000000e+01 1.195699045155e-02 -9.818181818182e-02 -5.000824507286e+01 -4.696490561196e-07 -5.000819984149e+01 -1.159913718905e+02 2.391397037145e-02 -4.683291860367e-09 2.391398103810e-02 -9.818183853807e-02 1.120514836452e-01 7.200260560163e+01 6.598314943338e+01  1.220958142429e-01
2.000000000000e+01 1.395468492533e-02 -1.090909090909e-01 -5.000731584970e+01 3.155303927904e-07 -5.000730423251e+01 -1.190037522854e+02 2.790936112240e-02 -4.351650051445e-09 2.790936997873e-02 -1.090909302725e-01 1.265744765956e-01 7.300612412254e+01 6.899644224431e+01  1.370002958231e-01
2.200000000000e+01 1.602652210435e-02 -1.200000000000e-01 -5.000625753457e+01 2.294613088991e-06 -5.000622165195e+01 -1.217483158215e+02 3.205302510771e-02 -2.915068337325e-09 3.205304435961e-02 -1.200000972124e-01 1.412834848422e-01 7.392026500266e+01 7.174207622821e+01  1.520531319461e-01
2.400000000000e+01 1.816392825110e-02 -1.309090909091e-01 -5.000538811171e+01 1.232889718825e-07 -5.000538517295e+01 -1.242510803194e+02 3.632784089753e-02 -3.404176151471e-09 3.632785665298e-02 -1.309091716356e-01 1.561569156818e-01 7.475395120135e+01 7.424569367708e+01  1.672370204108e-01
2.600000000000e+01 2.035966673538e-02 -1.418181818182e-01 -5.000452284630e+01 -3.474733702844e-06 -5.000446107782e+01 -1.265342315057e+02 4.071929912873e-02 -5.652566110060e-09 4.071933423781e-02 -1.418183374755e-01 1.711768157941e-01 7.551440514329e+01 7.652973954370e+01  1.825376541588e-01
2.800000000000e+01 2.260741467322e-02 -1.527272727273e-01 -5.000374374238e+01 -4.891840096445e-06 -5.000362052226e+01 -1.286175879332e+02 4.521476439390e-02 -7.883672653211e-09 4.521483074304e-02 -1.527275374010e-01 1.863273696516e-01 7.620831739928e+01 7.861390580094e+01  1.979423349695e-01
3.000000000000e+01 2.490160573305e-02 -1.636363636364e-01 -5.000320941770e+01 -7.295488999994e-07 -5.000319899581e+01 -1.305189886414e+02 4.980315802868e-02 -7.152617567530e-09 4.980321269929e-02 -1.636365761611e-01 2.015945659060e-01 7.684179901831e+01 8.051578443466e+01  2.134397615251e-01
3.200000000000e+01 2.723749120354e-02 -1.745454545455e-01 -5.000267404358e+01 -6.742870243782e-07 -5.000266813953e+01 -1.322539894112e+02 5.447492843214e-02 -7.391363367859e-09 5.447498366284e-02 -1.745456543620e-01 2.169666916535e-01 7.741977719811e+01 8.225131831967e+01  2.290206104095e-01
3.400000000000e+01 2.961085597175e-02 -1.854545454545e-01 -5.000213760963e+01 8.359110295887e-08 -5.000202303619e+01 -1.338369437370e+02 5.922162422856e-02 -7.179306836670e-09 5.922171358866e-02 -1.854548791637e-01 2.324333104152e-01 7.794703479428e+01 8.383486341415e+01  2.446765480723e-01
3.600000000000e+01 3.201785117764e-02 -1.963636363636e-01 -5.000179751183e+01 -1.466886388028e-06 -5.000173556997e+01 -1.352812216470e+02 6.403560972688e-02 -8.083047279394e-09 6.403570412393e-02 -1.963640073339e-01 2.479846451460e-01 7.842825157626e+01 8.527945510608e+01  2.603996642594e-01
3.800000000000e+01 3.445519580595e-02 -2.072727272727e-01 -5.000146829603e+01 -7.092930821240e-06 -5.000136849813e+01 -1.365984896281e+02 6.891027691870e-02 -1.197465922239e-08 6.891039380576e-02 -2.072732218695e-01 2.636126173782e-01 7.886710880742e+01 8.659707123105e+01  2.761835572318e-01
4.000000000000e+01 3.691988907764e-02 -2.181818181818e-01 -5.000117351888e+01 8.775801025305e-07 -5.000105696363e+01 -1.377997149501e+02 7.383964068541e-02 -9.782793572184e-09 7.383978038502e-02 -2.181824626464e-01 2.793096768723e-01 7.926731514419e+01 8.779859970888e+01  2.920221731817e-01
4.200000000000e+01 3.940927848050e-02 -2.290909090910e-01 -5.000096497043e+01 -9.269426445783e-06 -5.000076993025e+01 -1.388948970777e+02 7.881837714162e-02 -1.545079550573e-08 7.881856062843e-02 -2.290917686993e-01 2.950692012311e-01 7.963221065945e+01 8.889402962748e+01  3.079102375844e-01
4.400000000000e+01 4.192090951090e-02 -2.400000000000e-01 -5.000083505720e+01 -8.454003959371e-06 -5.000070910443e+01 -1.398932730953e+02 8.384162574550e-02 -1.823492072342e-08 8.384182331503e-02 -2.400009279107e-01 3.108848791223e-01 7.996493908565e+01 8.989250101457e+01  3.238426524410e-01
4.600000000000e+01 4.445266143405e-02 -2.509090909091e-01 -5.000070878090e+01 -1.014997992256e-07 -5.000066155264e+01 -1.408030947832e+02 8.890513039872e-02 -1.632376262186e-08 8.890532704704e-02 -2.509099983134e-01 3.267514223134e-01 8.026815503890e+01 9.080240961640e+01  3.398152270363e-01
4.800000000000e+01 4.700258738718e-02 -2.618181818182e-01 -5.000064607076e+01 -4.560602522993e-06 -5.000069264518e+01 -1.416321031136e+02 9.400500115366e-02 -1.894384502087e-08 9.400517881596e-02 -2.618189072073e-01 3.426638761171e-01 8.054448060984e+01 9.163143375563e+01  3.558239971922e-01
5.000000000000e+01 4.956915424540e-02 -2.727272727273e-01 -5.000043509725e+01 -8.076886851546e-06 -5.000022840054e+01 -1.423869458049e+02 9.913807132243e-02 -2.254840640665e-08 9.913831402590e-02 -2.727282965926e-01 3.586188699948e-01 8.079586976758e+01 9.238661405622e+01  3.718664892668e-01
5.200000000000e+01 5.215056152399e-02 -2.836363636364e-01 -5.000037198678e+01 3.747572939719e-06 -5.000028745739e+01 -1.430746934440e+02 1.043008851926e-01 -1.852726898361e-08 1.043011283004e-01 -2.836374261449e-01 3.746113250128e-01 8.102511762940e+01 9.307436372198e+01  3.879384328915e-01
5.400000000000e+01 5.473222271466e-02 -2.945454545455e-01 -5.021375376403e+01 8.360667365748e-06 -5.021257661767e+01 -1.439410474663e+02 1.094638803558e-01 -1.460931738417e-08 1.094644503773e-01 -2.945470848222e-01 3.906087797943e-01 8.145579261600e+01 9.372788228100e+01  4.040112501891e-01
5.600000000000e+01 5.734539767267e-02 -3.054545454545e-01 -5.000081359555e+01 2.687121933225e-06 -5.000110973742e+01 -1.443062288768e+02 1.146904492984e-01 -1.499596374782e-08 1.146907997628e-01 -3.054556805616e-01 4.066775651461e-01 8.143605073660e+01 9.430526721070e+01  4.201463050923e-01
5.800000000000e+01 5.995325167666e-02 -3.163636363638e-01 -5.017482276440e+01 1.056132024166e-05 -5.017552177705e+01 -1.450204712134e+02 1.199063205410e-01 -9.609892908202e-09 1.199065063497e-01 -3.163648003656e-01 4.227404482504e-01 8.179027191829e+01 9.484529894464e+01  4.362712138110e-01
6.000000000000e+01 6.258737993868e-02 -3.272727272727e-01 -5.000048706062e+01 -1.772546626595e-05 -5.000030171863e+01 -1.453195395342e+02 1.251744467882e-01 -2.207919717933e-08 1.251747651291e-01 -3.272740803652e-01 4.388637067327e-01 8.177344277114e+01 9.531914514469e+01  4.524486863239e-01
6.200000000000e+01 6.521473565372e-02 -3.381818181818e-01 -5.014258287900e+01 -1.782506515639e-05 -5.014811223799e+01 -1.459101250016e+02 1.304307315647e-01 -2.809780467828e-08 1.304294657076e-01 -3.381764290370e-01 4.549705325841e-01 8.206694003953e+01 9.576477756286e+01  4.686065276745e-01
6.400000000000e+01 6.786746761353e-02 -3.490909090909e-01 -5.000041701547e+01 -4.435642061789e-06 -4.999773132598e+01 -1.461527838752e+02 1.357348174597e-01 -2.653457466815e-08 1.357349408488e-01 -3.490910242435e-01 4.711455256204e-01 8.205031073887e+01 9.615370973257e+01  4.848259033978e-01
6.600000000000e+01 7.051660863858e-02 -3.600000000003e-01 -5.011664155746e+01 -2.462749901032e-05 -5.010804992289e+01 -1.466327240950e+02 1.410310023175e-01 -3.939756422388e-08 1.410332392968e-01 -3.600048382442e-01 4.873147179718e-01 8.228580519180e+01 9.652037864166e+01  5.010369590551e-01
6.800000000000e+01 7.317156257219e-02 -3.709090909092e-01 -5.018098336107e+01 -3.164167977991e-05 -5.017053830481e+01 -1.470425566931e+02 1.463389700625e-01 -5.156844739554e-08 1.463431630933e-01 -3.709180206956e-01 5.034973956242e-01 8.246469278633e+01 9.686679628253e+01  5.172590872863e-01
7.000000000000e+01 7.583084037974e-02 -3.818181818183e-01 -5.021212253619e+01 -3.413267149654e-05 -5.020719361569e+01 -1.473983582143e+02 1.516573340209e-01 -6.350620522410e-08 1.516617210883e-01 -3.818255425705e-01 5.196867881808e-01 8.260589145539e+01 9.718870023212e+01  5.334850701387e-01
7.200000000000e+01 7.849639868197e-02 -3.927272727273e-01 -5.022267646338e+01 -3.627007266780e-05 -5.022053491559e+01 -1.477058316149e+02 1.569884136544e-01 -7.605009657508e-08 1.569928403427e-01 -3.927333092019e-01 5.358921106890e-01 8.271634766463e+01 9.748422594311e+01  5.497239362138e-01
7.400000000000e+01 8.116878458978e-02 -4.036363636364e-01 -5.022055706189e+01 -4.354698896833e-05 -5.021681135446e+01 -1.479715486015e+02 1.623323908497e-01 -9.215542294999e-08 1.623376210907e-01 -4.036432604166e-01 5.521159823892e-01 8.280297233930e+01 9.775286444721e+01  5.659782664050e-01
7.600000000000e+01 8.384648976019e-02 -4.145454545455e-01 -5.021089406602e+01 -3.678249326321e-05 -5.020774852071e+01 -1.482048998166e+02 1.676873539398e-01 -1.028118677691e-07 1.676930373756e-01 -4.145524215192e-01 5.683528367249e-01 8.287451413446e+01 9.799557856115e+01  5.822426171978e-01
7.800000000000e+01 8.652861307130e-02 -4.254545454544e-01 -5.019720350728e+01 -2.311696446206e-05 -5.019814120635e+01 -1.484118504769e+02 1.730522161902e-01 -1.073657639916e-07 1.730572822312e-01 -4.254599839296e-01 5.846002045607e-01 8.293573173018e+01 9.821417812347e+01  5.985147331564e-01
8.000000000000e+01 8.921773383634e-02 -4.363636363637e-01 -5.018177204235e+01 -2.756882577515e-05 -5.017627941561e+01 -1.485887785474e+02 1.784288369883e-01 -1.174891531585e-07 1.784355386434e-01 -4.363734163458e-01 6.008689465644e-01 8.298227666847e+01 9.840975293344e+01  6.148056041891e-01
8.200000000000e+01 9.191118760218e-02 -4.472727272727e-01 -5.016559556016e+01 -3.425933066787e-05 -5.015753963142e+01 -1.487459244593e+02 1.838141404685e-01 -1.303184452681e-07 1.838224623880e-01 -4.472870015973e-01 6.171488971850e-01 8.302301988363e+01 9.858435711039e+01  6.311053030668e-01
8.400000000000e+01 9.460600127467e-02 -4.581818181818e-01 -5.014966629005e+01 -2.406357256441e-05 -5.014970518972e+01 -1.488904479250e+02 1.892046846199e-01 -1.359473973590e-07 1.892120848951e-01 -4.581941365975e-01 6.334284317484e-01 8.306327313491e+01 9.874076218508e+01  6.474025213868e-01
8.600000000000e+01 9.730341335513e-02 -4.690909090909e-01 -5.013478931739e+01 -2.207268050822e-05 -5.014095755990e+01 -1.490186376419e+02 1.946012063944e-01 -1.427673244416e-07 1.946068980738e-01 -4.690989200350e-01 6.497130592002e-01 8.309812817305e+01 9.888076434752e+01  6.637029722875e-01
8.800000000000e+01 1.000064277592e-01 -4.800000000000e-01 -5.012107049600e+01 -3.367626429848e-05 -5.011995296079e+01 -1.491254964247e+02 2.000062361198e-01 -1.564803810823e-07 2.000129350286e-01 -4.800098255495e-01 6.660154625456e-01 8.312217329384e+01 9.900498470108e+01  6.800194111484e-01
9.000000000000e+01 1.027100073723e-01 -4.909090909091e-01 -5.010823311451e+01 -1.758794348009e-05 -5.011324860332e+01 -1.492267322064e+02 2.054149035170e-01 -1.586303945161e-07 2.054200847330e-01 -4.909154627281e-01 6.823164681717e-01 8.314940464142e+01 9.911599144269e+01  6.963329568676e-01
9.200000000000e+01 1.054186113427e-01 -5.018181818182e-01 -5.009674013354e+01 -1.731109117505e-05 -5.009494011084e+01 -1.493101061862e+02 2.108310561724e-01 -1.642624753803e-07 2.108373031890e-01 -5.018276314675e-01 6.986342232806e-01 8.316726214353e+01 9.921426607628e+01  7.126618111688e-01
9.400000000000e+01 1.081280664172e-01 -5.127272727273e-01 -5.008601897228e+01 -5.943998226854e-05 -5.008618143104e+01 -1.493878406042e+02 2.162502182672e-01 -1.933121146418e-07 2.162562169741e-01 -5.127362103518e-01 7.149519620589e-01 8.318668033584e+01 9.930174040269e+01  7.289894279910e-01
9.600000000000e+01 1.108419206898e-01 -5.236363636358e-01 -5.007657766365e+01 -5.385032553161e-05 -5.006854652893e+01 -1.494513947572e+02 2.216757007061e-01 -2.097517803345e-07 2.216839444423e-01 -5.236509988437e-01 7.312846513126e-01 8.319883964991e+01 9.937883290429e+01  7.453308214522e-01
9.800000000000e+01 1.135568738776e-01 -5.345454545455e-01 -5.006788271958e+01 -5.988534395547e-05 -5.005801056048e+01 -1.495100469628e+02 2.271037935724e-01 -2.307881332458e-07 2.271138666640e-01 -5.345637900353e-01 7.476187428835e-01 8.321198008094e+01 9.944710069030e+01  7.616726202035e-01
1.000000000000e+02 1.162726002444e-01 -5.454545454545e-01 -5.006019862639e+01 -4.353088040940e-05 -5.005342790271e+01 -1.495648070666e+02 2.325344933664e-01 -2.413884810655e-07 2.325453278548e-01 -5.454750629520e-01 7.639542223301e-01 8.322614453190e+01 9.950799397483e+01  7.780149736193e-01
