VARIABLES  = "X","Y","Z", "DISPLACEMENT_X1", "DISPLACEMENT_Y1", "STRESS_XX", "STRESS_XY", "STRESS_YY", "STRESS_ZZ", "STRAIN_XX", "STRAIN_XY", "STRAIN_YY", "STRAIN_ZZ", "STRAIN_PLS"
ZONE T="0.000000000000e+00s", N=50, E=36, F=FEPOINT, ET=QUADRILATERAL
STRANDID=1, SOLUTIONTIME=0.000000000000e+00
0.000000000000e+00 0.000000000000e+00 0.000000000000e+00 0.000000000000e+00 0.000000000000e+00 -5.000000000000e+01 0.000000000000e+00 -5.000000000000e+01 -5.000000000000e+01 0.000000000000e+00 0.000000000000e+00 0.000000000000e+00 0.000000000000e+00 0.000000000000e+00 
5.000000000000e-01 0.000000000000e+00 0.000000000000e+00 0.000000000000e+00 0.000000000000e+00 -5.000000000000e+01 0.000000000000e+00 -5.000000000000e+01 -5.000000000000e+01 0.000000000000e+00 0.000000000000e+00 0.000000000000e+00 0.000000000000e+00 0.000000000000e+00 
5.000000000000e-01 1.000000000000e+00 0.000000000000e+00 0.000000000000e+00 0.000000000000e+00 -5.000000000000e+01 0.000000000000e+00 -5.000000000000e+01 -5.000000000000e+01 0.000000000000e+00 0.000000000000e+00 0.000000000000e+00 0.000000000000e+00 0.000000000000e+00 
0.000000000000e+00 1.000000000000e+00 0.000000000000e+00 0.000000000000e+00 0.000000000000e+00 -5.000000000000e+01 0.000000000000e+00 -5.000000000000e+01 -5.000000000000e+01 0.000000000000e+00 0.000000000000e+00 0.000000000000e+00 0.000000000000e+00 0.000000000000e+00 
1.250000000000e-01 0.000000000000e+00 0.000000000000e+00 0.000000000000e+00 0.000000000000e+00 -5.000000000000e+01 0.000000000000e+00 -5.000000000000e+01 -5.000000000000e+01 0.000000000000e+00 0.000000000000e+00 0.000000000000e+00 0.000000000000e+00 0.000000000000e+00 
2.500000000000e-01 0.000000000000e+00 0.000000000000e+00 0.000000000000e+00 0.000000000000e+00 -5.000000000000e+01 0.000000000000e+00 -5.000000000000e+01 -5.000000000000e+01 0.000000000000e+00 0.000000000000e+00 0.000000000000e+00 0.000000000000e+00 0.000000000000e+00 
3.750000000000e-01 0.000000000000e+00 0.000000000000e+00 0.000000000000e+00 0.000000000000e+00 -5.000000000000e+01 0.000000000000e+00 -5.000000000000e+01 -5.000000000000e+01 0.000000000000e+00 0.000000000000e+00 0.000000000000e+00 0.000000000000e+00 0.000000000000e+00 
5.000000000000e-01 1.111111111111e-01 0.000000000000e+00 0.000000000000e+00 0.000000000000e+00 -5.000000000000e+01 0.000000000000e+00 -5.000000000000e+01 -5.000000000000e+01 0.000000000000e+00 0.000000000000e+00 0.000000000000e+00 0.000000000000e+00 0.000000000000e+00 
5.000000000000e-01 2.222222222222e-01 0.000000000000e+00 0.000000000000e+00 0.000000000000e+00 -5.000000000000e+01 0.000000000000e+00 -5.000000000000e+01 -5.000000000000e+01 0.000000000000e+00 0.000000000000e+00 0.000000000000e+00 0.000000000000e+00 0.000000000000e+00 
5.000000000000e-01 3.333333333333e-01 0.000000000000e+00 0.000000000000e+00 0.000000000000e+00 -5.000000000000e+01 0.000000000000e+00 -5.000000000000e+01 -5.000000000000e+01 0.000000000000e+00 0.000000000000e+00 0.000000000000e+00 0.000000000000e+00 0.000000000000e+00 
5.000000000000e-01 4.444444444444e-01 0.000000000000e+00 0.000000000000e+00 0.000000000000e+00 -5.000000000000e+01 0.000000000000e+00 -5.000000000000e+01 -5.000000000000e+01 0.000000000000e+00 0.000000000000e+00 0.000000000000e+00 0.000000000000e+00 0.000000000000e+00 
5.000000000000e-01 5.555555555555e-01 0.000000000000e+00 0.000000000000e+00 0.000000000000e+00 -5.000000000000e+01 0.000000000000e+00 -5.000000000000e+01 -5.000000000000e+01 0.000000000000e+00 0.000000000000e+00 0.000000000000e+00 0.000000000000e+00 0.000000000000e+00 
5.000000000000e-01 6.666666666667e-01 0.000000000000e+00 0.000000000000e+00 0.000000000000e+00 -5.000000000000e+01 0.000000000000e+00 -5.000000000000e+01 -5.000000000000e+01 0.000000000000e+00 0.000000000000e+00 0.000000000000e+00 0.000000000000e+00 0.000000000000e+00 
5.000000000000e-01 7.777777777778e-01 0.000000000000e+00 0.000000000000e+00 0.000000000000e+00 -5.000000000000e+01 0.000000000000e+00 -5.000000000000e+01 -5.000000000000e+01 0.000000000000e+00 0.000000000000e+00 0.000000000000e+00 0.000000000000e+00 0.000000000000e+00 
5.000000000000e-01 8.888888888889e-01 0.000000000000e+00 0.000000000000e+00 0.000000000000e+00 -5.000000000000e+01 0.000000000000e+00 -5.000000000000e+01 -5.000000000000e+01 0.000000000000e+00 0.000000000000e+00 0.000000000000e+00 0.000000000000e+00 0.000000000000e+00 
3.750000000000e-01 1.000000000000e+00 0.000000000000e+00 0.000000000000e+00 0.000000000000e+00 -5.000000000000e+01 0.000000000000e+00 -5.000000000000e+01 -5.000000000000e+01 0.000000000000e+00 0.000000000000e+00 0.000000000000e+00 0.000000000000e+00 0.000000000000e+00 
2.500000000000e-01 1.000000000000e+00 0.000000000000e+00 0.000000000000e+00 0.000000000000e+00 -5.000000000000e+01 0.000000000000e+00 -5.000000000000e+01 -5.000000000000e+01 0.000000000000e+00 0.000000000000e+00 0.000000000000e+00 0.000000000000e+00 0.000000000000e+00 
1.250000000000e-01 1.000000000000e+00 0.000000000000e+00 0.000000000000e+00 0.000000000000e+00 -5.000000000000e+01 0.000000000000e+00 -5.000000000000e+01 -5.000000000000e+01 0.000000000000e+00 0.000000000000e+00 0.000000000000e+00 0.000000000000e+00 0.000000000000e+00 
0.000000000000e+00 8.888888888889e-01 0.000000000000e+00 0.000000000000e+00 0.000000000000e+00 -5.000000000000e+01 0.000000000000e+00 -5.000000000000e+01 -5.000000000000e+01 0.000000000000e+00 0.000000000000e+00 0.000000000000e+00 0.000000000000e+00 0.000000000000e+00 
0.000000000000e+00 7.777777777778e-01 0.000000000000e+00 0.000000000000e+00 0.000000000000e+00 -5.000000000000e+01 0.000000000000e+00 -5.000000000000e+01 -5.000000000000e+01 0.000000000000e+00 0.000000000000e+00 0.000000000000e+00 0.000000000000e+00 0.000000000000e+00 
0.000000000000e+00 6.666666666667e-01 0.000000000000e+00 0.000000000000e+00 0.000000000000e+00 -5.000000000000e+01 0.000000000000e+00 -5.000000000000e+01 -5.000000000000e+01 0.000000000000e+00 0.000000000000e+00 0.000000000000e+00 0.000000000000e+00 0.000000000000e+00 
0.000000000000e+00 5.555555555556e-01 0.000000000000e+00 0.000000000000e+00 0.000000000000e+00 -5.000000000000e+01 0.000000000000e+00 -5.000000000000e+01 -5.000000000000e+01 0.000000000000e+00 0.000000000000e+00 0.000000000000e+00 0.000000000000e+00 0.000000000000e+00 
0.000000000000e+00 4.444444444445e-01 0.000000000000e+00 0.000000000000e+00 0.000000000000e+00 -5.000000000000e+01 0.000000000000e+00 -5.000000000000e+01 -5.000000000000e+01 0.000000000000e+00 0.000000000000e+00 0.000000000000e+00 0.000000000000e+00 0.000000000000e+00 
0.000000000000e+00 3.333333333333e-01 0.000000000000e+00 0.000000000000e+00 0.000000000000e+00 -5.000000000000e+01 0.000000000000e+00 -5.000000000000e+01 -5.000000000000e+01 0.000000000000e+00 0.000000000000e+00 0.000000000000e+00 0.000000000000e+00 0.000000000000e+00 
0.000000000000e+00 2.222222222222e-01 0.000000000000e+00 0.000000000000e+00 0.000000000000e+00 -5.000000000000e+01 0.000000000000e+00 -5.000000000000e+01 -5.000000000000e+01 0.000000000000e+00 0.000000000000e+00 0.000000000000e+00 0.000000000000e+00 0.000000000000e+00 
0.000000000000e+00 1.111111111111e-01 0.000000000000e+00 0.000000000000e+00 0.000000000000e+00 -5.000000000000e+01 0.000000000000e+00 -5.000000000000e+01 -5.000000000000e+01 0.000000000000e+00 0.000000000000e+00 0.000000000000e+00 0.000000000000e+00 0.000000000000e+00 
1.250000000000e-01 8.888888888889e-01 0.000000000000e+00 0.000000000000e+00 0.000000000000e+00 -5.000000000000e+01 0.000000000000e+00 -5.000000000000e+01 -5.000000000000e+01 0.000000000000e+00 0.000000000000e+00 0.000000000000e+00 0.000000000000e+00 0.000000000000e+00 
2.500000000000e-01 8.888888888889e-01 0.000000000000e+00 0.000000000000e+00 0.000000000000e+00 -5.000000000000e+01 0.000000000000e+00 -5.000000000000e+01 -5.000000000000e+01 0.000000000000e+00 0.000000000000e+00 0.000000000000e+00 0.000000000000e+00 0.000000000000e+00 
3.750000000000e-01 8.888888888889e-01 0.000000000000e+00 0.000000000000e+00 0.000000000000e+00 -5.000000000000e+01 0.000000000000e+00 -5.000000000000e+01 -5.000000000000e+01 0.000000000000e+00 0.000000000000e+00 0.000000000000e+00 0.000000000000e+00 0.000000000000e+00 
1.250000000000e-01 7.777777777778e-01 0.000000000000e+00 0.000000000000e+00 0.000000000000e+00 -5.000000000000e+01 0.000000000000e+00 -5.000000000000e+01 -5.000000000000e+01 0.000000000000e+00 0.000000000000e+00 0.000000000000e+00 0.000000000000e+00 0.000000000000e+00 
2.500000000000e-01 7.777777777778e-01 0.000000000000e+00 0.000000000000e+00 0.000000000000e+00 -5.000000000000e+01 0.000000000000e+00 -5.000000000000e+01 -5.000000000000e+01 0.000000000000e+00 0.000000000000e+00 0.000000000000e+00 0.000000000000e+00 0.000000000000e+00 
3.750000000000e-01 7.777777777778e-01 0.000000000000e+00 0.000000000000e+00 0.000000000000e+00 -5.000000000000e+01 0.000000000000e+00 -5.000000000000e+01 -5.000000000000e+01 0.000000000000e+00 0.000000000000e+00 0.000000000000e+00 0.000000000000e+00 0.000000000000e+00 
1.250000000000e-01 6.666666666667e-01 0.000000000000e+00 0.000000000000e+00 0.000000000000e+00 -5.000000000000e+01 0.000000000000e+00 -5.000000000000e+01 -5.000000000000e+01 0.000000000000e+00 0.000000000000e+00 0.000000000000e+00 0.000000000000e+00 0.000000000000e+00 
2.500000000000e-01 6.666666666667e-01 0.000000000000e+00 0.000000000000e+00 0.000000000000e+00 -5.000000000000e+01 0.000000000000e+00 -5.000000000000e+01 -5.000000000000e+01 0.000000000000e+00 0.000000000000e+00 0.000000000000e+00 0.000000000000e+00 0.000000000000e+00 
3.750000000000e-01 6.666666666667e-01 0.000000000000e+00 0.000000000000e+00 0.000000000000e+00 -5.000000000000e+01 0.000000000000e+00 -5.000000000000e+01 -5.000000000000e+01 0.000000000000e+00 0.000000000000e+00 0.000000000000e+00 0.000000000000e+00 0.000000000000e+00 
1.250000000000e-01 5.555555555556e-01 0.000000000000e+00 0.000000000000e+00 0.000000000000e+00 -5.000000000000e+01 0.000000000000e+00 -5.000000000000e+01 -5.000000000000e+01 0.000000000000e+00 0.000000000000e+00 0.000000000000e+00 0.000000000000e+00 0.000000000000e+00 
2.500000000000e-01 5.555555555556e-01 0.000000000000e+00 0.000000000000e+00 0.000000000000e+00 -5.000000000000e+01 0.000000000000e+00 -5.000000000000e+01 -5.000000000000e+01 0.000000000000e+00 0.000000000000e+00 0.000000000000e+00 0.000000000000e+00 0.000000000000e+00 
3.750000000000e-01 5.555555555556e-01 0.000000000000e+00 0.000000000000e+00 0.000000000000e+00 -5.000000000000e+01 0.000000000000e+00 -5.000000000000e+01 -5.000000000000e+01 0.000000000000e+00 0.000000000000e+00 0.000000000000e+00 0.000000000000e+00 0.000000000000e+00 
1.250000000000e-01 4.444444444444e-01 0.000000000000e+00 0.000000000000e+00 0.000000000000e+00 -5.000000000000e+01 0.000000000000e+00 -5.000000000000e+01 -5.000000000000e+01 0.000000000000e+00 0.000000000000e+00 0.000000000000e+00 0.000000000000e+00 0.000000000000e+00 
2.500000000000e-01 4.444444444444e-01 0.000000000000e+00 0.000000000000e+00 0.000000000000e+00 -5.000000000000e+01 0.000000000000e+00 -5.000000000000e+01 -5.000000000000e+01 0.000000000000e+00 0.000000000000e+00 0.000000000000e+00 0.000000000000e+00 0.000000000000e+00 
3.750000000000e-01 4.444444444444e-01 0.000000000000e+00 0.000000000000e+00 0.000000000000e+00 -5.000000000000e+01 0.000000000000e+00 -5.000000000000e+01 -5.000000000000e+01 0.000000000000e+00 0.000000000000e+00 0.000000000000e+00 0.000000000000e+00 0.000000000000e+00 
1.250000000000e-01 3.333333333333e-01 0.000000000000e+00 0.000000000000e+00 0.000000000000e+00 -5.000000000000e+01 0.000000000000e+00 -5.000000000000e+01 -5.000000000000e+01 0.000000000000e+00 0.000000000000e+00 0.000000000000e+00 0.000000000000e+00 0.000000000000e+00 
2.500000000000e-01 3.333333333333e-01 0.000000000000e+00 0.000000000000e+00 0.000000000000e+00 -5.000000000000e+01 0.000000000000e+00 -5.000000000000e+01 -5.000000000000e+01 0.000000000000e+00 0.000000000000e+00 0.000000000000e+00 0.000000000000e+00 0.000000000000e+00 
3.750000000000e-01 3.333333333333e-01 0.000000000000e+00 0.000000000000e+00 0.000000000000e+00 -5.000000000000e+01 0.000000000000e+00 -5.000000000000e+01 -5.000000000000e+01 0.000000000000e+00 0.000000000000e+00 0.000000000000e+00 0.000000000000e+00 0.000000000000e+00 
1.250000000000e-01 2.222222222222e-01 0.000000000000e+00 0.000000000000e+00 0.000000000000e+00 -5.000000000000e+01 0.000000000000e+00 -5.000000000000e+01 -5.000000000000e+01 0.000000000000e+00 0.000000000000e+00 0.000000000000e+00 0.000000000000e+00 0.000000000000e+00 
2.500000000000e-01 2.222222222222e-01 0.000000000000e+00 0.000000000000e+00 0.000000000000e+00 -5.000000000000e+01 0.000000000000e+00 -5.000000000000e+01 -5.000000000000e+01 0.000000000000e+00 0.000000000000e+00 0.000000000000e+00 0.000000000000e+00 0.000000000000e+00 
3.750000000000e-01 2.222222222222e-01 0.000000000000e+00 0.000000000000e+00 0.000000000000e+00 -5.000000000000e+01 0.000000000000e+00 -5.000000000000e+01 -5.000000000000e+01 0.000000000000e+00 0.000000000000e+00 0.000000000000e+00 0.000000000000e+00 0.000000000000e+00 
1.250000000000e-01 1.111111111111e-01 0.000000000000e+00 0.000000000000e+00 0.000000000000e+00 -5.000000000000e+01 0.000000000000e+00 -5.000000000000e+01 -5.000000000000e+01 0.000000000000e+00 0.000000000000e+00 0.000000000000e+00 0.000000000000e+00 0.000000000000e+00 
2.500000000000e-01 1.111111111111e-01 0.000000000000e+00 0.000000000000e+00 0.000000000000e+00 -5.000000000000e+01 0.000000000000e+00 -5.000000000000e+01 -5.000000000000e+01 0.000000000000e+00 0.000000000000e+00 0.000000000000e+00 0.000000000000e+00 0.000000000000e+00 
3.750000000000e-01 1.111111111111e-01 0.000000000000e+00 0.000000000000e+00 0.000000000000e+00 -5.000000000000e+01 0.000000000000e+00 -5.000000000000e+01 -5.000000000000e+01 0.000000000000e+00 0.000000000000e+00 0.000000000000e+00 0.000000000000e+00 0.000000000000e+00 
4  19  27  18  
18  27  28  17  
17  28  29  16  
16  29  15  3  
19  20  30  27  
27  30  31  28  
28  31  32  29  
29  32  14  15  
20  21  33  30  
30  33  34  31  
31  34  35  32  
32  35  13  14  
21  22  36  33  
33  36  37  34  
34  37  38  35  
35  38  12  13  
22  23  39  36  
36  39  40  37  
37  40  41  38  
38  41  11  12  
23  24  42  39  
39  42  43  40  
40  43  44  41  
41  44  10  11  
24  25  45  42  
42  45  46  43  
43  46  47  44  
44  47  9  10  
25  26  48  45  
45  48  49  46  
46  49  50  47  
47  50  8  9  
26  1  5  48  
48  5  6  49  
49  6  7  50  
50  7  2  8  
VARIABLES  = "X","Y","Z", "DISPLACEMENT_X1", "DISPLACEMENT_Y1", "STRESS_XX", "STRESS_XY", "STRESS_YY", "STRESS_ZZ", "STRAIN_XX", "STRAIN_XY", "STRAIN_YY", "STRAIN_ZZ", "STRAIN_PLS"
ZONE T="2.000000000000e+00s", N=50, E=36, F=FEPOINT, ET=QUADRILATERAL
STRANDID=1, SOLUTIONTIME=2.000000000000e+00
0.000000000000e+00 0.000000000000e+00 0.000000000000e+00 0.000000000000e+00 0.000000000000e+00 -4.999376212107e+01 8.392222903890e-07 -4.999376212107e+01 -7.563772742344e+01 1.153661291239e-03 7.895296616256e-10 1.153661291239e-03 -1.090909549565e-02 7.617802801143e-03 
5.000000000000e-01 0.000000000000e+00 0.000000000000e+00 5.768301527374e-04 0.000000000000e+00 -4.999376250511e+01 1.296026758222e-06 -4.999376275770e+01 -7.563772270201e+01 1.153660425427e-03 1.219284783615e-09 1.153660306613e-03 -1.090908883330e-02 7.617796120412e-03 
5.000000000000e-01 1.000000000000e+00 0.000000000000e+00 5.768301942297e-04 -1.090909090909e-02 -4.999376264475e+01 4.048028657714e-06 -4.999376406687e+01 -7.563772547948e+01 1.153660977154e-03 3.808332486443e-09 1.153660308198e-03 -1.090909229262e-02 7.617799500528e-03 
0.000000000000e+00 1.000000000000e+00 0.000000000000e+00 0.000000000000e+00 -1.090909090909e-02 -4.999377141212e+01 -1.237340932237e-06 -4.999377141212e+01 -7.563773507880e+01 1.153660148520e-03 -1.164075773484e-09 1.153660148520e-03 -1.090910175605e-02 7.617808202347e-03 
1.250000000000e-01 0.000000000000e+00 0.000000000000e+00 1.442075554007e-04 0.000000000000e+00 -4.999376523705e+01 -1.016745635008e-06 -4.999376407350e+01 -7.563772467087e+01 1.153659893974e-03 -9.565409560647e-10 1.153660441297e-03 -1.090909060753e-02 7.617797705793e-03 
2.500000000000e-01 0.000000000000e+00 0.000000000000e+00 2.884150612930e-04 0.000000000000e+00 -4.999376264065e+01 2.239497311303e-06 -4.999376237157e+01 -7.563772181284e+01 1.153660186319e-03 2.106889377467e-09 1.153660312893e-03 -1.090908767798e-02 7.617794981086e-03 
3.750000000000e-01 0.000000000000e+00 0.000000000000e+00 4.326226010157e-04 0.000000000000e+00 -4.999376459006e+01 1.292180207824e-06 -4.999376459483e+01 -7.563772531929e+01 1.153660293929e-03 1.215666251300e-09 1.153660291683e-03 -1.090909151925e-02 7.617798619401e-03 
5.000000000000e-01 1.111111111111e-01 0.000000000000e+00 5.768302544601e-04 -1.212121057278e-03 -4.999376378781e+01 3.160331361735e-06 -4.999376357063e+01 -7.563772466230e+01 1.153660370057e-03 2.973198283768e-09 1.153660472218e-03 -1.090909103398e-02 7.617798218050e-03 
5.000000000000e-01 2.222222222222e-01 0.000000000000e+00 5.768301670245e-04 -2.424242317192e-03 -4.999376309233e+01 -4.015376786055e-07 -4.999376369516e+01 -7.563772406173e+01 1.153660536754e-03 -3.777613069692e-10 1.153660253183e-03 -1.090909034381e-02 7.617797556332e-03 
5.000000000000e-01 3.333333333333e-01 0.000000000000e+00 5.768302672105e-04 -3.636363513828e-03 -4.999376333363e+01 -1.860344460312e-06 -4.999376314962e+01 -7.563772440981e+01 1.153660449806e-03 -1.750187729967e-09 1.153660536360e-03 -1.090909088637e-02 7.617798110302e-03 
5.000000000000e-01 4.444444444444e-01 0.000000000000e+00 5.768303038600e-04 -4.848484664756e-03 -4.999376283706e+01 -4.734744572386e-07 -4.999376262220e+01 -7.563772439459e+01 1.153660573724e-03 -4.454385118107e-10 1.153660674796e-03 -1.090909109546e-02 7.617798364458e-03 
5.000000000000e-01 5.555555555555e-01 0.000000000000e+00 5.768302017261e-04 -6.060605852181e-03 -4.999376284853e+01 3.177681729068e-06 -4.999376315416e+01 -7.563772401127e+01 1.153660560879e-03 2.989521215721e-09 1.153660417111e-03 -1.090909045119e-02 7.617797698467e-03 
5.000000000000e-01 6.666666666667e-01 0.000000000000e+00 5.768302923339e-04 -7.272727127088e-03 -4.999376422522e+01 2.643815240508e-06 -4.999376380706e+01 -7.563772545879e+01 1.153660368384e-03 2.487266918042e-09 1.153660565080e-03 -1.090909196803e-02 7.617799118031e-03 
5.000000000000e-01 7.777777777778e-01 0.000000000000e+00 5.768303498756e-04 -8.484848462254e-03 -4.999376357231e+01 -3.958196802866e-06 -4.999376302279e+01 -7.563772507742e+01 1.153660461210e-03 -3.723820013108e-09 1.153660719699e-03 -1.090909177093e-02 7.617798986209e-03 
5.000000000000e-01 8.888888888889e-01 0.000000000000e+00 5.768302917420e-04 -9.696969701047e-03 -4.999376217907e+01 -6.679017896041e-06 -4.999376228152e+01 -7.563772347682e+01 1.153660624843e-03 -6.283532305461e-09 1.153660576648e-03 -1.090909006908e-02 7.617797387096e-03 
3.750000000000e-01 1.000000000000e+00 0.000000000000e+00 4.326225538940e-04 -1.090909090909e-02 -4.999376310765e+01 -9.851961907039e-07 -4.999376414916e+01 -7.563772425434e+01 1.153660610943e-03 -9.268596911882e-10 1.153660121022e-03 -1.090909050092e-02 7.617797691738e-03 
2.500000000000e-01 1.000000000000e+00 0.000000000000e+00 2.884150126028e-04 -1.090909090909e-02 -4.999376373589e+01 5.151601879291e-08 -4.999376405277e+01 -7.563772310075e+01 1.153660177564e-03 4.846562339997e-11 1.153660028505e-03 -1.090908880970e-02 7.617795983622e-03 
1.250000000000e-01 1.000000000000e+00 0.000000000000e+00 1.442074986948e-04 -1.090909090909e-02 -4.999376660277e+01 5.010223268101e-07 -4.999376657906e+01 -7.563772597017e+01 1.153659874419e-03 4.713553769693e-10 1.153659885570e-03 -1.090909150905e-02 7.617798429976e-03 
0.000000000000e+00 8.888888888889e-01 0.000000000000e+00 0.000000000000e+00 -9.696968986003e-03 -4.999375937944e+01 -1.327247102735e-05 -4.999375937944e+01 -7.563771932655e+01 1.153660649242e-03 -1.248656449852e-08 1.153660649242e-03 -1.090908569374e-02 7.617793285484e-03 
0.000000000000e+00 7.777777777778e-01 0.000000000000e+00 0.000000000000e+00 -8.484848730640e-03 -4.999376460857e+01 1.025681791929e-05 -4.999376460857e+01 -7.563772456616e+01 1.153660162272e-03 9.649478680481e-09 1.153660162272e-03 -1.090909048582e-02 7.617797588780e-03 
0.000000000000e+00 6.666666666667e-01 0.000000000000e+00 0.000000000000e+00 -7.272727369521e-03 -4.999376390747e+01 4.967492655980e-07 -4.999376390747e+01 -7.563772704654e+01 1.153660761428e-03 4.673348570164e-10 1.153660761428e-03 -1.090909418021e-02 7.617801330869e-03 
0.000000000000e+00 5.555555555556e-01 0.000000000000e+00 0.000000000000e+00 -6.060605882002e-03 -4.999375947337e+01 -7.759705372074e-06 -4.999375947337e+01 -7.563772043461e+01 1.153660810565e-03 -7.300228090957e-09 1.153660810565e-03 -1.090908716138e-02 7.617794738667e-03 
0.000000000000e+00 4.444444444445e-01 0.000000000000e+00 0.000000000000e+00 -4.848484741046e-03 -4.999376049319e+01 2.484574180544e-06 -4.999376049319e+01 -7.563772179058e+01 1.153660771629e-03 2.337453858678e-09 1.153660771629e-03 -1.090908855120e-02 7.617796031280e-03 
0.000000000000e+00 3.333333333333e-01 0.000000000000e+00 0.000000000000e+00 -3.636363567594e-03 -4.999376888731e+01 5.021860449715e-06 -4.999376888731e+01 -7.563773173489e+01 1.153660247109e-03 4.724502263134e-09 1.153660247109e-03 -1.090909833308e-02 7.617805019942e-03 
0.000000000000e+00 2.222222222222e-01 0.000000000000e+00 0.000000000000e+00 -2.424242178186e-03 -4.999376279245e+01 -6.113614949643e-06 -4.999376279245e+01 -7.563772260100e+01 1.153660307014e-03 -5.751608153417e-09 1.153660307014e-03 -1.090908862338e-02 7.617795896908e-03 
0.000000000000e+00 1.111111111111e-01 0.000000000000e+00 0.000000000000e+00 -1.212121335621e-03 -4.999376181536e+01 3.647656830885e-06 -4.999376181536e+01 -7.563772074068e+01 1.153660250191e-03 3.431667315023e-09 1.153660250191e-03 -1.090908652715e-02 7.617793896952e-03 
1.250000000000e-01 8.888888888889e-01 0.000000000000e+00 1.442075681312e-04 -9.696969617964e-03 -4.999376387055e+01 -2.321338752952e-06 -4.999376329738e+01 -7.563772440291e+01 1.153660267701e-03 -2.183885224372e-09 1.153660537316e-03 -1.090909072330e-02 7.617797917190e-03 
2.500000000000e-01 8.888888888889e-01 0.000000000000e+00 2.884151135989e-04 -9.696969814073e-03 -4.999376280067e+01 6.292257041681e-07 -4.999376320685e+01 -7.563772425670e+01 1.153660625064e-03 5.919672140350e-10 1.153660433999e-03 -1.090909078453e-02 7.617798030214e-03 
3.750000000000e-01 8.888888888889e-01 0.000000000000e+00 4.326226865208e-04 -9.696969768204e-03 -4.999376206202e+01 -2.801334055671e-06 -4.999376256797e+01 -7.563772385207e+01 1.153660760561e-03 -2.635458235338e-09 1.153660522563e-03 -1.090909054236e-02 7.617797850825e-03 
1.250000000000e-01 7.777777777778e-01 0.000000000000e+00 1.442075704828e-04 -8.484848491963e-03 -4.999376036198e+01 -1.993024875670e-06 -4.999376154441e+01 -7.563772431896e+01 1.153661353669e-03 -1.875011449621e-09 1.153660797463e-03 -1.090909178981e-02 7.617799215314e-03 
2.500000000000e-01 7.777777777778e-01 0.000000000000e+00 2.884152693651e-04 -8.484848518170e-03 -4.999376123260e+01 -3.280045594403e-06 -4.999376145412e+01 -7.563772539855e+01 1.153661206837e-03 -3.085824253506e-09 1.153661102636e-03 -1.090909308569e-02 7.617800470862e-03 
3.750000000000e-01 7.777777777778e-01 0.000000000000e+00 4.326228133884e-04 -8.484848463451e-03 -4.999376531277e+01 4.540257844302e-06 -4.999376355138e+01 -7.563772599764e+01 1.153660034201e-03 4.271415468443e-09 1.153660862745e-03 -1.090909251553e-02 7.617799625976e-03 
1.250000000000e-01 6.666666666667e-01 0.000000000000e+00 1.442075895152e-04 -7.272727294897e-03 -4.999376171635e+01 5.748474766329e-06 -4.999376148840e+01 -7.563772291825e+01 1.153660617449e-03 5.408089498458e-09 1.153660724678e-03 -1.090908958984e-02 7.617796966155e-03 
2.500000000000e-01 6.666666666667e-01 0.000000000000e+00 2.884151459917e-04 -7.272727097061e-03 -4.999376521347e+01 1.297833804363e-06 -4.999376463843e+01 -7.563772659334e+01 1.153660284148e-03 1.220985252663e-09 1.153660554642e-03 -1.090909310553e-02 7.617800169246e-03 
3.750000000000e-01 6.666666666667e-01 0.000000000000e+00 4.326227202859e-04 -7.272727189600e-03 -4.999376243889e+01 1.226276495365e-06 -4.999376288905e+01 -7.563772457167e+01 1.153660776986e-03 1.153664904618e-09 1.153660565237e-03 -1.090909136622e-02 7.617798639995e-03 
1.250000000000e-01 5.555555555556e-01 0.000000000000e+00 1.442075746195e-04 -6.060605907534e-03 -4.999376556996e+01 1.362196364219e-06 -4.999376508252e+01 -7.563772629312e+01 1.153660149843e-03 1.281536569338e-09 1.153660379127e-03 -1.090909251678e-02 7.617799547002e-03 
2.500000000000e-01 5.555555555556e-01 0.000000000000e+00 2.884150817490e-04 -6.060605828506e-03 -4.999376375051e+01 8.499932339935e-07 -4.999376333598e+01 -7.563772305059e+01 1.153660088824e-03 7.996624389182e-10 1.153660283818e-03 -1.090908889895e-02 7.617796103995e-03 
3.750000000000e-01 5.555555555556e-01 0.000000000000e+00 4.326226271409e-04 -6.060605862841e-03 -4.999376264663e+01 -4.473370626590e-06 -4.999376347190e+01 -7.563772439017e+01 1.153660731522e-03 -4.208488481408e-09 1.153660343319e-03 -1.090909094147e-02 7.617798181535e-03 
1.250000000000e-01 4.444444444444e-01 0.000000000000e+00 1.442075776197e-04 -4.848484593030e-03 -4.999376397145e+01 -2.133681380774e-06 -4.999376376600e+01 -7.563772589443e+01 1.153660529986e-03 -2.007339566428e-09 1.153660626626e-03 -1.090909262779e-02 7.617799788303e-03 
2.500000000000e-01 4.444444444444e-01 0.000000000000e+00 2.884151698968e-04 -4.848484655057e-03 -4.999376094381e+01 -1.422354111092e-06 -4.999376167236e+01 -7.563772382230e+01 1.153661070917e-03 -1.338132070149e-09 1.153660728213e-03 -1.090909095377e-02 7.617798350872e-03 
3.750000000000e-01 4.444444444444e-01 0.000000000000e+00 4.326227555371e-04 -4.848484598652e-03 -4.999376328967e+01 -9.820158898367e-07 -4.999376264715e+01 -7.563772456332e+01 1.153660439075e-03 -9.238677280792e-10 1.153660741313e-03 -1.090909121819e-02 7.617798465262e-03 
1.250000000000e-01 3.333333333333e-01 0.000000000000e+00 1.442075681233e-04 -3.636363424853e-03 -4.999376103444e+01 1.905487160276e-06 -4.999376155327e+01 -7.563772299262e+01 1.153660886147e-03 1.792657288601e-09 1.153660642093e-03 -1.090908982966e-02 7.617797232666e-03 
2.500000000000e-01 3.333333333333e-01 0.000000000000e+00 2.884151538364e-04 -3.636363468809e-03 -4.999376324277e+01 -7.504183097735e-07 -4.999376305727e+01 -7.563772496577e+01 1.153660566632e-03 -7.059837386038e-10 1.153660653892e-03 -1.090909168503e-02 7.617798913897e-03 
3.750000000000e-01 3.333333333333e-01 0.000000000000e+00 4.326227128014e-04 -3.636363443150e-03 -4.999376378240e+01 5.356881797565e-06 -4.999376329325e+01 -7.563772472588e+01 1.153660353687e-03 5.039684286801e-09 1.153660583779e-03 -1.090909118409e-02 7.617798380222e-03 
1.250000000000e-01 2.222222222222e-01 0.000000000000e+00 1.442075564998e-04 -2.424242278577e-03 -4.999376298522e+01 3.944972341339e-06 -4.999376285683e+01 -7.563772330502e+01 1.153660361319e-03 3.711377981892e-09 1.153660421712e-03 -1.090908952494e-02 7.617796783226e-03 
2.500000000000e-01 2.222222222222e-01 0.000000000000e+00 2.884150767552e-04 -2.424242242136e-03 -4.999376533442e+01 7.199316208495e-07 -4.999376478274e+01 -7.563772504323e+01 1.153659995000e-03 6.773023090920e-10 1.153660254503e-03 -1.090909093386e-02 7.617797994602e-03 
3.750000000000e-01 2.222222222222e-01 0.000000000000e+00 4.326225898305e-04 -2.424242279882e-03 -4.999376406904e+01 -3.817183939133e-08 -4.999376417361e+01 -7.563772411087e+01 1.153660237767e-03 -3.591163023117e-11 1.153660188576e-03 -1.090909008417e-02 7.617797232488e-03 
1.250000000000e-01 1.111111111111e-01 0.000000000000e+00 1.442075234614e-04 -1.212121142692e-03 -4.999376467988e+01 -1.985445831278e-06 -4.999376467607e+01 -7.563772461514e+01 1.153660151465e-03 -1.867881286274e-09 1.153660153255e-03 -1.090909052141e-02 7.617797617990e-03 
2.500000000000e-01 1.111111111111e-01 0.000000000000e+00 2.884150703875e-04 -1.212120937840e-03 -4.999376299043e+01 1.469060124714e-07 -4.999376362957e+01 -7.563772414188e+01 1.153660580610e-03 1.382071931457e-10 1.153660279962e-03 -1.090909049062e-02 7.617797710041e-03 
3.750000000000e-01 1.111111111111e-01 0.000000000000e+00 4.326226639102e-04 -1.212121132653e-03 -4.999376126192e+01 -3.873486586955e-06 -4.999376210093e+01 -7.563772274604e+01 1.153660818862e-03 -3.644125115917e-09 1.153660424199e-03 -1.090908931971e-02 7.617796690039e-03 
4  19  27  18  
18  27  28  17  
17  28  29  16  
16  29  15  3  
19  20  30  27  
27  30  31  28  
28  31  32  29  
29  32  14  15  
20  21  33  30  
30  33  34  31  
31  34  35  32  
32  35  13  14  
21  22  36  33  
33  36  37  34  
34  37  38  35  
35  38  12  13  
22  23  39  36  
36  39  40  37  
37  40  41  38  
38  41  11  12  
23  24  42  39  
39  42  43  40  
40  43  44  41  
41  44  10  11  
24  25  45  42  
42  45  46  43  
43  46  47  44  
44  47  9  10  
25  26  48  45  
45  48  49  46  
46  49  50  47  
47  50  8  9  
26  1  5  48  
48  5  6  49  
49  6  7  50  
50  7  2  8  
VARIABLES  = "X","Y","Z", "DISPLACEMENT_X1", "DISPLACEMENT_Y1", "STRESS_XX", "STRESS_XY", "STRESS_YY", "STRESS_ZZ", "STRAIN_XX", "STRAIN_XY", "STRAIN_YY", "STRAIN_ZZ", "STRAIN_PLS"
ZONE T="4.000000000000e+00s", N=50, E=36, F=FEPOINT, ET=QUADRILATERAL
STRANDID=1, SOLUTIONTIME=4.000000000000e+00
0.000000000000e+00 0.000000000000e+00 0.000000000000e+00 0.000000000000e+00 0.000000000000e+00 -4.999988607948e+01 1.542183075891e-07 -4.999988607948e+01 -8.341553845343e+01 2.550443743461e-03 6.878255013964e-10 2.550443743461e-03 -2.181818634939e-02 1.876315363141e-02 
5.000000000000e-01 0.000000000000e+00 0.000000000000e+00 1.275221455495e-03 0.000000000000e+00 -4.999988529764e+01 1.985478020484e-07 -4.999988492275e+01 -8.341553480801e+01 2.550442817591e-03 1.023964395476e-09 2.550442917518e-03 -2.181818087204e-02 1.876314778455e-02 