 TITLE = "Profiles along polylines"
 VARIABLES = "DIST" "DISPLACEMENT_X1" "DISPLACEMENT_Y1" "STRESS_XX" "STRESS_XY" "STRESS_YY" "STRESS_ZZ" "STRAIN_XX" "STRAIN_XY" "STRAIN_YY"  p_(1st_Invariant)  q_(2nd_Invariant)   Effective_Strain
 ZONE T="TIME=0.000000000000e+00"
0.000000000000e+00 0.000000000000e+00 0.000000000000e+00 -1.070410689636e+01 1.587296651641e-07 -2.497625235208e+01 -1.070410777453e+01 0.000000000000e+00 0.000000000000e+00 0.000000000000e+00 1.546148900766e+01 1.427214501663e+01  0.000000000000e+00
5.454930089679e-01 0.000000000000e+00 0.000000000000e+00 -1.069837337830e+01 5.787326990625e-07 -2.496287289428e+01 -1.069837388177e+01 0.000000000000e+00 0.000000000000e+00 0.000000000000e+00 1.545320671812e+01 1.426449926424e+01  0.000000000000e+00
1.090986017936e+00 0.000000000000e+00 0.000000000000e+00 -1.069263995023e+01 5.839209764795e-07 -2.494949432326e+01 -1.069264028205e+01 0.000000000000e+00 0.000000000000e+00 0.000000000000e+00 1.544492485185e+01 1.425685420712e+01  0.000000000000e+00
1.576857321493e+00 0.000000000000e+00 0.000000000000e+00 -1.068753314448e+01 5.812543326932e-07 -2.493757808425e+01 -1.068753336862e+01 0.000000000000e+00 0.000000000000e+00 0.000000000000e+00 1.543754819912e+01 1.425004482770e+01  0.000000000000e+00
2.062728625050e+00 0.000000000000e+00 0.000000000000e+00 -1.068242632665e+01 5.786770748462e-07 -2.492566189652e+01 -1.068242646695e+01 0.000000000000e+00 0.000000000000e+00 0.000000000000e+00 1.543017156338e+01 1.424323549972e+01  0.000000000000e+00
2.495760229428e+00 0.000000000000e+00 0.000000000000e+00 -1.067787488246e+01 5.779398636201e-07 -2.491504163952e+01 -1.067787495659e+01 0.000000000000e+00 0.000000000000e+00 0.000000000000e+00 1.542359715953e+01 1.423716671999e+01  0.000000000000e+00
2.928791833805e+00 0.000000000000e+00 0.000000000000e+00 -1.067332343606e+01 5.777329970266e-07 -2.490442139232e+01 -1.067332344851e+01 0.000000000000e+00 0.000000000000e+00 0.000000000000e+00 1.541702275896e+01 1.423109795003e+01  0.000000000000e+00
3.314529828825e+00 0.000000000000e+00 0.000000000000e+00 -1.066926907692e+01 5.771804597031e-07 -2.489496103523e+01 -1.066926903364e+01 0.000000000000e+00 0.000000000000e+00 0.000000000000e+00 1.541116638193e+01 1.422569197995e+01  0.000000000000e+00
3.700267823845e+00 0.000000000000e+00 0.000000000000e+00 -1.066521471954e+01 5.767016442153e-07 -2.488550066525e+01 -1.066521461544e+01 0.000000000000e+00 0.000000000000e+00 0.000000000000e+00 1.540531000008e+01 1.422028599776e+01  0.000000000000e+00
4.043939715870e+00 0.000000000000e+00 0.000000000000e+00 -1.066160250628e+01 5.771990957662e-07 -2.487707196698e+01 -1.066160234198e+01 0.000000000000e+00 0.000000000000e+00 0.000000000000e+00 1.540009227175e+01 1.421546954285e+01  0.000000000000e+00
4.387611607894e+00 0.000000000000e+00 0.000000000000e+00 -1.065799030766e+01 5.725064384174e-07 -2.486864321990e+01 -1.065799005827e+01 0.000000000000e+00 0.000000000000e+00 0.000000000000e+00 1.539487452861e+01 1.421065303694e+01  0.000000000000e+00
4.693805803947e+00 0.000000000000e+00 0.000000000000e+00 -1.065477205467e+01 5.585224327888e-07 -2.486113355405e+01 -1.065477168262e+01 0.000000000000e+00 0.000000000000e+00 0.000000000000e+00 1.539022576378e+01 1.420636168541e+01  0.000000000000e+00
5.000000000000e+00 0.000000000000e+00 0.000000000000e+00 -1.065155371223e+01 2.365142573803e-07 -2.485362345989e+01 -1.065155315164e+01 0.000000000000e+00 0.000000000000e+00 0.000000000000e+00 1.538557677459e+01 1.420207002796e+01  0.000000000000e+00
5.281293062422e+00 0.000000000000e+00 0.000000000000e+00 -1.064859715879e+01 -4.385307266593e-08 -2.484672536535e+01 -1.064859675724e+01 0.000000000000e+00 0.000000000000e+00 0.000000000000e+00 1.538130642713e+01 1.419812840734e+01  0.000000000000e+00
5.562586124843e+00 0.000000000000e+00 0.000000000000e+00 -1.064564051168e+01 -5.715692745445e-08 -2.483982683491e+01 -1.064564020398e+01 0.000000000000e+00 0.000000000000e+00 0.000000000000e+00 1.537703585019e+01 1.419418647709e+01  0.000000000000e+00
5.903654518747e+00 0.000000000000e+00 0.000000000000e+00 -1.064205561140e+01 -6.183409515045e-08 -2.483146226890e+01 -1.064205536409e+01 0.000000000000e+00 0.000000000000e+00 0.000000000000e+00 1.537185774813e+01 1.418940678116e+01  0.000000000000e+00
6.244722912650e+00 0.000000000000e+00 0.000000000000e+00 -1.063847072274e+01 -6.292684098228e-08 -2.482309765253e+01 -1.063847051258e+01 0.000000000000e+00 0.000000000000e+00 0.000000000000e+00 1.536667962929e+01 1.418462703487e+01  0.000000000000e+00
6.658257388739e+00 0.000000000000e+00 0.000000000000e+00 -1.063412416741e+01 -6.355388969173e-08 -2.481295579139e+01 -1.063412398764e+01 0.000000000000e+00 0.000000000000e+00 0.000000000000e+00 1.536040131548e+01 1.417883171387e+01  0.000000000000e+00
7.071791864828e+00 0.000000000000e+00 0.000000000000e+00 -1.062977761574e+01 -6.379410703767e-08 -2.480281391027e+01 -1.062977745780e+01 0.000000000000e+00 0.000000000000e+00 0.000000000000e+00 1.535412299461e+01 1.417303637350e+01  0.000000000000e+00
7.573083389471e+00 0.000000000000e+00 0.000000000000e+00 -1.062450867599e+01 -6.362545473154e-08 -2.479051978212e+01 -1.062450853743e+01 0.000000000000e+00 0.000000000000e+00 0.000000000000e+00 1.534651233185e+01 1.416601117541e+01  0.000000000000e+00
8.074374914115e+00 0.000000000000e+00 0.000000000000e+00 -1.061923973799e+01 -6.363485635087e-08 -2.477822564280e+01 -1.061923961423e+01 0.000000000000e+00 0.000000000000e+00 0.000000000000e+00 1.533890166501e+01 1.415898596669e+01  0.000000000000e+00
8.682563631455e+00 0.000000000000e+00 0.000000000000e+00 -1.061284723405e+01 -6.371534656640e-08 -2.476330984809e+01 -1.061284712464e+01 0.000000000000e+00 0.000000000000e+00 0.000000000000e+00 1.532966806893e+01 1.415046266874e+01  0.000000000000e+00
9.290752348795e+00 0.000000000000e+00 0.000000000000e+00 -1.060645473155e+01 -6.370937071573e-08 -2.474839404581e+01 -1.060645463321e+01 0.000000000000e+00 0.000000000000e+00 0.000000000000e+00 1.532043447019e+01 1.414193936343e+01  0.000000000000e+00
1.002772910440e+01 0.000000000000e+00 0.000000000000e+00 -1.059870857487e+01 -6.390352794292e-08 -2.473031971605e+01 -1.059870848728e+01 0.000000000000e+00 0.000000000000e+00 0.000000000000e+00 1.530924559274e+01 1.413161118498e+01  0.000000000000e+00
1.076470585999e+01 0.000000000000e+00 0.000000000000e+00 -1.059096241992e+01 -6.366386657308e-08 -2.471224538016e+01 -1.059096234002e+01 0.000000000000e+00 0.000000000000e+00 0.000000000000e+00 1.529805671337e+01 1.412128300019e+01  0.000000000000e+00
1.165833906230e+01 0.000000000000e+00 0.000000000000e+00 -1.058156969351e+01 -6.333051505077e-08 -2.469032904574e+01 -1.058156962177e+01 0.000000000000e+00 0.000000000000e+00 0.000000000000e+00 1.528448945367e+01 1.410875938809e+01  0.000000000000e+00
1.255197226460e+01 0.000000000000e+00 0.000000000000e+00 -1.057217696746e+01 -6.333767189552e-08 -2.466841270718e+01 -1.057217690239e+01 0.000000000000e+00 0.000000000000e+00 0.000000000000e+00 1.527092219234e+01 1.409623577225e+01  0.000000000000e+00
1.363578457093e+01 0.000000000000e+00 0.000000000000e+00 -1.056078532310e+01 -6.357673989802e-08 -2.464183222626e+01 -1.056078526481e+01 0.000000000000e+00 0.000000000000e+00 0.000000000000e+00 1.525446760472e+01 1.408104693231e+01  0.000000000000e+00
1.471959687725e+01 0.000000000000e+00 0.000000000000e+00 -1.054939367963e+01 -6.350823726453e-08 -2.461525174178e+01 -1.054939362642e+01 0.000000000000e+00 0.000000000000e+00 0.000000000000e+00 1.523801301594e+01 1.406585808875e+01  0.000000000000e+00
1.603364479030e+01 0.000000000000e+00 0.000000000000e+00 -1.053558209526e+01 -6.329115317540e-08 -2.458302472999e+01 -1.053558204758e+01 0.000000000000e+00 0.000000000000e+00 0.000000000000e+00 1.521806295761e+01 1.404744265857e+01  0.000000000000e+00
1.734769270334e+01 0.000000000000e+00 0.000000000000e+00 -1.052177051131e+01 -6.326086636285e-08 -2.455079771569e+01 -1.052177046810e+01 0.000000000000e+00 0.000000000000e+00 0.000000000000e+00 1.519811289837e+01 1.402902722599e+01  0.000000000000e+00
1.894091660434e+01 0.000000000000e+00 0.000000000000e+00 -1.050502458826e+01 -6.316157726777e-08 -2.451172391046e+01 -1.050502454962e+01 0.000000000000e+00 0.000000000000e+00 0.000000000000e+00 1.517392434945e+01 1.400669934152e+01  0.000000000000e+00
2.053414050534e+01 0.000000000000e+00 0.000000000000e+00 -1.048827866543e+01 -6.307490112950e-08 -2.447265010353e+01 -1.048827863069e+01 0.000000000000e+00 0.000000000000e+00 0.000000000000e+00 1.514973579988e+01 1.398437145547e+01  0.000000000000e+00
2.246588672828e+01 0.000000000000e+00 0.000000000000e+00 -1.046797463100e+01 -6.294991487593e-08 -2.442527403694e+01 -1.046797460038e+01 0.000000000000e+00 0.000000000000e+00 0.000000000000e+00 1.512040775611e+01 1.395729942125e+01  0.000000000000e+00
2.439763295123e+01 0.000000000000e+00 0.000000000000e+00 -1.044767059669e+01 -6.282864241287e-08 -2.437789796891e+01 -1.044767056968e+01 0.000000000000e+00 0.000000000000e+00 0.000000000000e+00 1.509107971176e+01 1.393022738573e+01  0.000000000000e+00
2.674066075506e+01 0.000000000000e+00 0.000000000000e+00 -1.042304369878e+01 -6.273937591885e-08 -2.432043522047e+01 -1.042304367577e+01 0.000000000000e+00 0.000000000000e+00 0.000000000000e+00 1.505550753167e+01 1.389739153319e+01  0.000000000000e+00
2.908368855890e+01 0.000000000000e+00 0.000000000000e+00 -1.039841680097e+01 -6.258997392581e-08 -2.426297247045e+01 -1.039841678143e+01 0.000000000000e+00 0.000000000000e+00 0.000000000000e+00 1.501993535095e+01 1.386455567925e+01  0.000000000000e+00
3.192363373876e+01 0.000000000000e+00 0.000000000000e+00 -1.036856694559e+01 -6.234512695988e-08 -2.419332282230e+01 -1.036856693037e+01 0.000000000000e+00 0.000000000000e+00 0.000000000000e+00 1.497681889942e+01 1.382475588433e+01  0.000000000000e+00
3.476357891862e+01 0.000000000000e+00 0.000000000000e+00 -1.033871708927e+01 -6.218297487885e-08 -2.412367317282e+01 -1.033871707863e+01 0.000000000000e+00 0.000000000000e+00 0.000000000000e+00 1.493370244691e+01 1.378495608888e+01  0.000000000000e+00
3.820666078923e+01 0.000000000000e+00 0.000000000000e+00 -1.030252783240e+01 -6.199891678191e-08 -2.403923159588e+01 -1.030252782848e+01 0.000000000000e+00 0.000000000000e+00 0.000000000000e+00 1.488142908559e+01 1.373670376544e+01  0.000000000000e+00
4.164974265985e+01 0.000000000000e+00 0.000000000000e+00 -1.026633857104e+01 -6.195903935848e-08 -2.395479001710e+01 -1.026633857644e+01 0.000000000000e+00 0.000000000000e+00 0.000000000000e+00 1.482915572153e+01 1.368845144336e+01  0.000000000000e+00
4.582487132993e+01 0.000000000000e+00 0.000000000000e+00 -1.022245495293e+01 -6.092090088799e-08 -2.385239499019e+01 -1.022245498293e+01 0.000000000000e+00 0.000000000000e+00 0.000000000000e+00 1.476576830868e+01 1.362994002226e+01  0.000000000000e+00
5.000000000000e+01 0.000000000000e+00 0.000000000000e+00 -1.017857123643e+01 -5.406686179026e-08 -2.374999997754e+01 -1.017857136419e+01 0.000000000000e+00 0.000000000000e+00 0.000000000000e+00 1.470238085939e+01 1.357142867723e+01  0.000000000000e+00
 TITLE = "Profiles along polylines"
 VARIABLES = "DIST" "DISPLACEMENT_X1" "DISPLACEMENT_Y1" "STRESS_XX" "STRESS_XY" "STRESS_YY" "STRESS_ZZ" "STRAIN_XX" "STRAIN_XY" "STRAIN_YY"  p_(1st_Invariant)  q_(2nd_Invariant)   Effective_Strain
 ZONE T="TIME=1.000000000000e-01"
0.000000000000e+00 0.000000000000e+00 0.000000000000e+00 0.000000000000e+00 0.000000000000e+00 0.000000000000e+00 0.000000000000e+00 0.000000000000e+00 0.000000000000e+00 0.000000000000e+00 -0.000000000000e+00 0.000000000000e+00  0.000000000000e+00
5.454930089679e-01 0.000000000000e+00 0.000000000000e+00 0.000000000000e+00 0.000000000000e+00 0.000000000000e+00 0.000000000000e+00 0.000000000000e+00 0.000000000000e+00 0.000000000000e+00 -0.000000000000e+00 0.000000000000e+00  0.000000000000e+00
1.090986017936e+00 0.000000000000e+00 0.000000000000e+00 0.000000000000e+00 0.000000000000e+00 0.000000000000e+00 0.000000000000e+00 0.000000000000e+00 0.000000000000e+00 0.000000000000e+00 -0.000000000000e+00 0.000000000000e+00  0.000000000000e+00
1.576857321493e+00 0.000000000000e+00 0.000000000000e+00 0.000000000000e+00 0.000000000000e+00 0.000000000000e+00 0.000000000000e+00 0.000000000000e+00 0.000000000000e+00 0.000000000000e+00 -0.000000000000e+00 0.000000000000e+00  0.000000000000e+00
2.062728625050e+00 0.000000000000e+00 0.000000000000e+00 0.000000000000e+00 0.000000000000e+00 0.000000000000e+00 0.000000000000e+00 0.000000000000e+00 0.000000000000e+00 0.000000000000e+00 -0.000000000000e+00 0.000000000000e+00  0.000000000000e+00
2.495760229428e+00 0.000000000000e+00 0.000000000000e+00 0.000000000000e+00 0.000000000000e+00 0.000000000000e+00 0.000000000000e+00 0.000000000000e+00 0.000000000000e+00 0.000000000000e+00 -0.000000000000e+00 0.000000000000e+00  0.000000000000e+00
2.928791833805e+00 0.000000000000e+00 0.000000000000e+00 0.000000000000e+00 0.000000000000e+00 0.000000000000e+00 0.000000000000e+00 0.000000000000e+00 0.000000000000e+00 0.000000000000e+00 -0.000000000000e+00 0.000000000000e+00  0.000000000000e+00
3.314529828825e+00 0.000000000000e+00 0.000000000000e+00 0.000000000000e+00 0.000000000000e+00 0.000000000000e+00 0.000000000000e+00 0.000000000000e+00 0.000000000000e+00 0.000000000000e+00 -0.000000000000e+00 0.000000000000e+00  0.000000000000e+00
3.700267823845e+00 0.000000000000e+00 0.000000000000e+00 0.000000000000e+00 0.000000000000e+00 0.000000000000e+00 0.000000000000e+00 0.000000000000e+00 0.000000000000e+00 0.000000000000e+00 -0.000000000000e+00 0.000000000000e+00  0.000000000000e+00
4.043939715870e+00 0.000000000000e+00 0.000000000000e+00 0.000000000000e+00 0.000000000000e+00 0.000000000000e+00 0.000000000000e+00 0.000000000000e+00 0.000000000000e+00 0.000000000000e+00 -0.000000000000e+00 0.000000000000e+00  0.000000000000e+00
4.387611607894e+00 0.000000000000e+00 0.000000000000e+00 0.000000000000e+00 0.000000000000e+00 0.000000000000e+00 0.000000000000e+00 0.000000000000e+00 0.000000000000e+00 0.000000000000e+00 -0.000000000000e+00 0.000000000000e+00  0.000000000000e+00
4.693805803947e+00 0.000000000000e+00 0.000000000000e+00 0.000000000000e+00 0.000000000000e+00 0.000000000000e+00 0.000000000000e+00 0.000000000000e+00 0.000000000000e+00 0.000000000000e+00 -0.000000000000e+00 0.000000000000e+00  0.000000000000e+00
5.000000000000e+00 0.000000000000e+00 -7.941726824734e-03 2.276104405987e+00 -8.682733219642e-02 1.094526958266e-01 7.156671305440e-01 8.114276765566e-05 -9.030063828415e-06 7.069845064227e-04 -1.033741410786e+00 1.941915803825e+00  6.702903756448e-04
5.281293062422e+00 0.000000000000e+00 -7.734913066560e-03 -1.555977611835e+00 -1.391678462003e-02 -6.819093532917e-02 -4.872505641494e-01 -5.557378559925e-05 -1.447341039764e-06 7.600937883204e-04 7.038063704380e-01 1.328995810964e+00  7.893532709153e-04
5.562586124843e+00 0.000000000000e+00 -7.518376560459e-03 -4.244359824936e+00 -5.440112394690e-03 -6.530483282650e-01 -1.469222445960e+00 -1.443071277064e-04 -5.657657447273e-07 7.805387589288e-04 2.122210199721e+00 3.260768582531e+00  8.618025109815e-04
5.903654518747e+00 0.000000000000e+00 -7.252095341436e-03 -6.658613895367e+00 -1.245916573761e-03 -1.656410634120e+00 -2.494507358846e+00 -2.165335270390e-04 -1.295688929253e-07 7.814301887359e-04 3.603177296111e+00 4.640271336257e+00  9.092446279555e-04
6.244722912650e+00 0.000000000000e+00 -6.988620041241e-03 -8.380121784357e+00 1.019109874515e-03 -2.841192198486e+00 -3.366394194853e+00 -2.607138237260e-04 1.059939713410e-07 7.649111150886e-04 4.862569392565e+00 5.295896933830e+00  9.233004100493e-04
6.658257388739e+00 0.000000000000e+00 -6.679354273792e-03 -9.822060594809e+00 1.876650633635e-03 -4.358915958146e+00 -4.254292965887e+00 -2.895239073562e-04 1.951782755025e-07 7.318588581977e-04 6.145089839614e+00 5.516201265010e+00  9.117742219407e-04
7.071791864828e+00 0.000000000000e+00 -6.385343193243e-03 -1.078597494880e+01 1.401071563216e-03 -5.871063991352e+00 -4.997111682045e+00 -3.010208816585e-04 1.457180771616e-07 6.915523754444e-04 7.218050207399e+00 5.405140703892e+00  8.814930678388e-04
7.573083389471e+00 0.000000000000e+00 -6.052126912900e-03 -1.153537696511e+01 4.634912734465e-03 -7.604390633913e+00 -5.741930279707e+00 -3.012592204362e-04 4.820375414316e-07 6.397846463052e-04 8.293899292910e+00 5.122771002990e+00  8.323600377356e-04
8.074374914115e+00 0.000000000000e+00 -5.744910357106e-03 -1.198128636406e+01 5.104568111766e-03 -9.193241226196e+00 -6.352358277076e+00 -2.927042540880e-04 5.308817016487e-07 5.885413601310e-04 9.175628622443e+00 4.874874325019e+00  7.773841510278e-04
8.682563631455e+00 0.000000000000e+00 -5.405813123736e-03 -1.225562697903e+01 4.336577909622e-03 -1.092819289312e+01 -6.955145961644e+00 -2.756250072148e-04 4.510107289967e-07 5.292256211826e-04 1.004632194460e+01 4.777153703997e+00  7.084612400174e-04
9.290752348795e+00 0.000000000000e+00 -5.100784659611e-03 -1.236408411057e+01 4.005997661215e-03 -1.243371666639e+01 -7.439340233088e+00 -2.560866765152e-04 4.166303825409e-07 4.756732749236e-04 1.074571367002e+01 4.959931612293e+00  6.431637110332e-04
1.002772910440e+01 0.000000000000e+00 -4.771770151420e-03 -1.236190885204e+01 -6.476574868932e-03 -1.400253987545e+01 -7.909334618246e+00 -2.315338556022e-04 -6.735571404020e-07 4.179971105217e-04 1.142459444858e+01 5.460974704434e+00  5.701853684214e-04
1.076470585999e+01 0.000000000000e+00 -4.481542589057e-03 -1.234439768798e+01 4.731630554978e-03 -1.524921664878e+01 -8.278084301029e+00 -2.114482919671e-04 4.920961987599e-07 3.718078360041e-04 1.195723287926e+01 6.065051454675e+00  5.114394445376e-04
1.165833906230e+01 0.000000000000e+00 -4.173398755242e-03 -1.224207945067e+01 2.288757240851e-02 -1.657888381455e+01 -8.646288979566e+00 -1.869811007671e-04 2.380314116859e-06 3.211605586269e-04 1.248908408159e+01 6.879926782476e+00  4.451673718082e-04
1.255197226460e+01 0.000000000000e+00 -3.905891443945e-03 -1.210534254876e+01 1.969969306192e-02 -1.764108359911e+01 -8.923927844362e+00 -1.654335612451e-04 2.048774665558e-06 2.797121626018e-04 1.289011799741e+01 7.640581176128e+00  3.897352033230e-04
1.363578457093e+01 0.000000000000e+00 -3.626190177259e-03 -1.193031733886e+01 -3.127337781740e-03 -1.870312797370e+01 -9.190033593768e+00 -1.424947517138e-04 -3.252365173200e-07 2.375335342390e-04 1.327449296878e+01 8.481719821532e+00  3.325274928115e-04
1.471959687725e+01 0.000000000000e+00 -3.386399720421e-03 -1.180074176895e+01 -3.109366811097e-03 -1.949225118413e+01 -9.387897885923e+00 -1.254678791504e-04 -3.233675434975e-07 2.059982504917e-04 1.356029694633e+01 9.139998530408e+00  2.898688413779e-04
1.603364479030e+01 0.000000000000e+00 -3.139099332101e-03 -1.164172454870e+01 7.486818474914e-03 -2.031880263507e+01 -9.588158155130e+00 -1.067854499860e-04 7.786357036710e-07 1.724735065289e-04 1.384956177963e+01 9.865492545210e+00  2.440690939245e-04
1.734769270334e+01 0.000000000000e+00 -2.929811208033e-03 -1.150922418767e+01 3.259406467889e-03 -2.094419106272e+01 -9.736024575118e+00 -9.220637760589e-05 3.389848517906e-07 1.466847595195e-04 1.406314660850e+01 1.043517840181e+01  2.086721107478e-04
1.894091660434e+01 0.000000000000e+00 -2.716556314644e-03 -1.137241079684e+01 3.161210083607e-03 -2.153384539831e+01 -9.871876858545e+00 -7.802776278198e-05 3.287724174991e-07 1.219260026963e-04 1.425937768456e+01 1.098881079648e+01  1.745514806225e-04
2.053414050534e+01 0.000000000000e+00 -2.538542537313e-03 -1.125659327721e+01 2.091349475023e-03 -2.199028272050e+01 -9.974062799311e+00 -6.669158304384e-05 2.175069051921e-07 1.023438806859e-04 1.440697959900e+01 1.142905378692e+01  1.474708598616e-04
2.246588672828e+01 0.000000000000e+00 -2.359871442061e-03 -1.113604897883e+01 2.151428932864e-03 -2.241844381253e+01 -1.006634783741e+01 -5.562445776160e-05 2.237551558090e-07 8.347057999469e-05 1.454028020959e+01 1.185350151782e+01  1.212624178230e-04
2.439763295123e+01 0.000000000000e+00 -2.213356416935e-03 -1.103685953673e+01 1.965836812124e-03 -2.274295619420e+01 -1.013394471928e+01 -4.695156910311e-05 2.044535626397e-07 6.870322806429e-05 1.463792015007e+01 1.218267515128e+01  1.007493580701e-04
2.674066075506e+01 0.000000000000e+00 -2.069359009614e-03 -1.093747120751e+01 -2.123959187118e-03 -2.304419311598e+01 -1.019449929704e+01 -3.863453814761e-05 -2.208852305652e-07 5.448028173950e-05 1.472538787351e+01 1.249478653152e+01  8.102897957093e-05
2.908368855890e+01 0.000000000000e+00 -1.954317899309e-03 -1.086960456743e+01 -1.139036463554e-03 -2.325491420673e+01 -1.023735563225e+01 -3.287694361307e-05 -1.184532828523e-07 4.404384995613e-05 1.478729146880e+01 1.271323075779e+01  6.684925882421e-05
3.192363373876e+01 0.000000000000e+00 -1.844911937206e-03 -1.080626800952e+01 2.126456229975e-03 -2.345934623751e+01 -1.027968427411e+01 -2.738235345008e-05 2.211579318106e-07 3.354488428402e-05 1.484843284038e+01 1.292441866534e+01  5.285581474628e-05
3.476357891862e+01 0.000000000000e+00 -1.761044825128e-03 -1.076633322096e+01 1.411375116238e-03 -2.360068802666e+01 -1.031010637428e+01 -2.372379547369e-05 1.467894791181e-07 2.570747097484e-05 1.489237587396e+01 1.306844250139e+01  4.282097570824e-05
3.820666078923e+01 0.000000000000e+00 -1.684787797121e-03 -1.075476621034e+01 6.638266206791e-04 -2.371736285568e+01 -1.034163871981e+01 -2.148262930397e-05 6.904441643797e-08 1.877094083891e-05 1.493792259528e+01 1.317401960141e+01  3.488717596644e-05
4.164974265985e+01 0.000000000000e+00 -1.627907749713e-03 -1.079004514252e+01 4.851374995118e-04 -2.378661364167e+01 -1.037299763526e+01 -2.168647065860e-05 5.046074368932e-08 1.429144258096e-05 1.498321880648e+01 1.321003060473e+01  3.137653469923e-05
4.582487132993e+01 0.000000000000e+00 -1.572637228175e-03 -1.092041099077e+01 -2.227221975396e-03 -2.381095885599e+01 -1.041941095403e+01 -2.605200347091e-05 -2.316247496675e-07 1.239638947501e-05 1.505026026693e+01 1.314820919890e+01  3.399248576624e-05
5.000000000000e+01 0.000000000000e+00 -1.515259183631e-03 -1.118279920313e+01 -6.188499138118e-03 -2.376322503581e+01 -1.048380727168e+01 -3.634758707877e-05 -6.435982874106e-07 1.518456415924e-05 1.514327717021e+01 1.294408880129e+01  4.587900390650e-05
 ZONE T="TIME=2.000000000000e-01"
0.000000000000e+00 0.000000000000e+00 0.000000000000e+00 0.000000000000e+00 0.000000000000e+00 0.000000000000e+00 0.000000000000e+00 0.000000000000e+00 0.000000000000e+00 0.000000000000e+00 -0.000000000000e+00 0.000000000000e+00  0.000000000000e+00
5.454930089679e-01 0.000000000000e+00 0.000000000000e+00 0.000000000000e+00 0.000000000000e+00 0.000000000000e+00 0.000000000000e+00 0.000000000000e+00 0.000000000000e+00 0.000000000000e+00 -0.000000000000e+00 0.000000000000e+00  0.000000000000e+00
1.090986017936e+00 0.000000000000e+00 0.000000000000e+00 0.000000000000e+00 0.000000000000e+00 0.000000000000e+00 0.000000000000e+00 0.000000000000e+00 0.000000000000e+00 0.000000000000e+00 -0.000000000000e+00 0.000000000000e+00  0.000000000000e+00
1.576857321493e+00 0.000000000000e+00 0.000000000000e+00 0.000000000000e+00 0.000000000000e+00 0.000000000000e+00 0.000000000000e+00 0.000000000000e+00 0.000000000000e+00 0.000000000000e+00 -0.000000000000e+00 0.000000000000e+00  0.000000000000e+00
2.062728625050e+00 0.000000000000e+00 0.000000000000e+00 0.000000000000e+00 0.000000000000e+00 0.000000000000e+00 0.000000000000e+00 0.000000000000e+00 0.000000000000e+00 0.000000000000e+00 -0.000000000000e+00 0.000000000000e+00  0.000000000000e+00
2.495760229428e+00 0.000000000000e+00 0.000000000000e+00 0.000000000000e+00 0.000000000000e+00 0.000000000000e+00 0.000000000000e+00 0.000000000000e+00 0.000000000000e+00 0.000000000000e+00 -0.000000000000e+00 0.000000000000e+00  0.000000000000e+00
2.928791833805e+00 0.000000000000e+00 0.000000000000e+00 0.000000000000e+00 0.000000000000e+00 0.000000000000e+00 0.000000000000e+00 0.000000000000e+00 0.000000000000e+00 0.000000000000e+00 -0.000000000000e+00 0.000000000000e+00  0.000000000000e+00
3.314529828825e+00 0.000000000000e+00 0.000000000000e+00 0.000000000000e+00 0.000000000000e+00 0.000000000000e+00 0.000000000000e+00 0.000000000000e+00 0.000000000000e+00 0.000000000000e+00 -0.000000000000e+00 0.000000000000e+00  0.000000000000e+00
3.700267823845e+00 0.000000000000e+00 0.000000000000e+00 0.000000000000e+00 0.000000000000e+00 0.000000000000e+00 0.000000000000e+00 0.000000000000e+00 0.000000000000e+00 0.000000000000e+00 -0.000000000000e+00 0.000000000000e+00  0.000000000000e+00
4.043939715870e+00 0.000000000000e+00 0.000000000000e+00 0.000000000000e+00 0.000000000000e+00 0.000000000000e+00 0.000000000000e+00 0.000000000000e+00 0.000000000000e+00 0.000000000000e+00 -0.000000000000e+00 0.000000000000e+00  0.000000000000e+00
4.387611607894e+00 0.000000000000e+00 0.000000000000e+00 0.000000000000e+00 0.000000000000e+00 0.000000000000e+00 0.000000000000e+00 0.000000000000e+00 0.000000000000e+00 0.000000000000e+00 -0.000000000000e+00 0.000000000000e+00  0.000000000000e+00
4.693805803947e+00 0.000000000000e+00 0.000000000000e+00 0.000000000000e+00 0.000000000000e+00 0.000000000000e+00 0.000000000000e+00 0.000000000000e+00 0.000000000000e+00 0.000000000000e+00 -0.000000000000e+00 0.000000000000e+00  0.000000000000e+00
5.000000000000e+00 0.000000000000e+00 -7.956501178697e-03 1.186790414132e+00 -6.723226599095e-02 8.454091330658e-02 3.813993982314e-01 4.188036215944e-05 -6.992176943047e-06 7.230710158119e-04 -5.509102418898e-01 9.946996220405e-01  7.031712837196e-04
5.281293062422e+00 0.000000000000e+00 -7.745953234885e-03 -2.423486088134e+00 -1.506384160742e-02 -1.331012635514e-01 -7.669762055057e-01 -8.613849301626e-05 -1.566634966453e-06 7.712641846033e-04 1.107854519064e+00 2.048541748892e+00  8.177476261326e-04
5.562586124843e+00 0.000000000000e+00 -7.526627701888e-03 -4.999689938533e+00 -5.568049932360e-03 -7.426249839256e-01 -1.722694476738e+00 -1.704037480130e-04 -5.790712486449e-07 7.890613184348e-04 2.488336466399e+00 3.861477923943e+00  8.866313854308e-04
5.903654518747e+00 0.000000000000e+00 -7.257918787227e-03 -7.298144478962e+00 -1.010623219564e-03 -1.772606463149e+00 -2.721225282633e+00 -2.379997853490e-04 -1.050983840888e-07 7.871773376634e-04 3.930658741582e+00 5.117599216760e+00  9.293224033076e-04
6.244722912650e+00 0.000000000000e+00 -6.992837832006e-03 -8.924727755668e+00 1.211144535160e-03 -2.973770367428e+00 -3.569549436929e+00 -2.784692616462e-04 1.259655760481e-07 7.685811228915e-04 5.156015853342e+00 5.676565430039e+00  9.393020480952e-04
6.658257388739e+00 0.000000000000e+00 -6.682417869924e-03 -1.027524937947e+01 1.933162471237e-03 -4.500285197230e+00 -4.432660373010e+00 -3.038146189882e-04 2.010555066132e-07 7.337827629358e-04 6.402731649904e+00 5.809072780752e+00  9.239450837058e-04
7.071791864828e+00 0.000000000000e+00 -6.387844867647e-03 -1.116765512580e+01 1.389449833055e-03 -6.013273255626e+00 -5.154278514427e+00 -3.126955755786e-04 1.445094172249e-07 6.923301689861e-04 7.445068965283e+00 5.633215524128e+00  8.908356914747e-04
7.573083389471e+00 0.000000000000e+00 -6.054447698665e-03 -1.185039774759e+01 4.608235592572e-03 -7.741261980442e+00 -5.877497918411e+00 -3.105907839128e-04 4.792631186748e-07 6.397168534983e-04 8.489719215482e+00 5.293121622270e+00  8.392825125016e-04
8.074374914115e+00 0.000000000000e+00 -5.747373127289e-03 -1.224556955644e+01 5.051941104694e-03 -9.321234376083e+00 -6.470041179758e+00 -3.003274691526e-04 5.254084929132e-07 5.880052272763e-04 9.345615037429e+00 5.001895643275e+00  7.826504238487e-04
8.682563631455e+00 0.000000000000e+00 -5.408670486041e-03 -1.247348585646e+01 4.271497473993e-03 -1.104343044620e+01 -7.055074890799e+00 -2.817573645252e-04 4.442423636913e-07 5.284295727383e-04 1.019066373115e+01 4.863708738179e+00  7.124005485781e-04
9.290752348795e+00 0.000000000000e+00 -5.104138632628e-03 -1.254716077561e+01 3.965816327018e-03 -1.253614609620e+01 -7.524992061541e+00 -2.611527680175e-04 4.124515237844e-07 4.748008396532e-04 1.086943297778e+01 5.016675145998e+00  6.462450537218e-04
1.002772910440e+01 0.000000000000e+00 -4.775751309276e-03 -1.251357311790e+01 -6.455517002850e-03 -1.409051023324e+01 -7.981225005341e+00 -2.356820972980e-04 -6.713671223295e-07 4.171609520456e-04 1.152843611883e+01 5.493292551701e+00  5.726150811748e-04
1.076470585999e+01 0.000000000000e+00 -4.486116622352e-03 -1.247133043306e+01 4.567018238103e-03 -1.532610158256e+01 -8.339229604685e+00 -2.148692389209e-04 4.749765178049e-07 3.709893752377e-04 1.204555387343e+01 6.084426051526e+00  5.133388626305e-04
1.165833906230e+01 0.000000000000e+00 -4.178620400068e-03 -1.234720167246e+01 2.253071451698e-02 -1.664304884577e+01 -8.697075155470e+00 -1.898065751533e-04 2.343200896139e-06 3.204648581504e-04 1.256244189123e+01 6.889095376463e+00  4.467293030848e-04
1.255197226460e+01 0.000000000000e+00 -3.911671278125e-03 -1.219389575863e+01 1.940778475753e-02 -1.769537122844e+01 -8.966780096121e+00 -1.678100110671e-04 2.018416201901e-06 2.791175229685e-04 1.295201569440e+01 7.644313931672e+00  3.910469640243e-04
1.363578457093e+01 0.000000000000e+00 -3.632541288309e-03 -1.200363853606e+01 -3.108157826490e-03 -1.874765630219e+01 -9.225388451472e+00 -1.444690013673e-04 -3.232418019740e-07 2.370565137584e-04 1.332556109657e+01 8.481570967308e+00  3.336385983927e-04
1.471959687725e+01 0.000000000000e+00 -3.393231249422e-03 -1.186174044689e+01 -3.095872151025e-03 -1.953019902460e+01 -9.417581841447e+00 -1.270962447161e-04 -3.219640988499e-07 2.055685284745e-04 1.360317377098e+01 9.139044043178e+00  2.907562111179e-04
1.603364479030e+01 0.000000000000e+00 -3.146415879519e-03 -1.169166330908e+01 7.396049644825e-03 -2.034958885236e+01 -9.612375648434e+00 -1.081229558741e-04 7.691957453418e-07 1.721319328813e-04 1.388454260329e+01 9.863345970933e+00  2.448125084103e-04