 TITLE = "Profiles along polylines"
 VARIABLES = "DIST" "DISPLACEMENT_X1" "DISPLACEMENT_Y1" "STRESS_XX" "STRESS_XY" "STRESS_YY" "STRESS_ZZ" "STRAIN_XX" "STRAIN_XY" "STRAIN_YY"  p_(1st_Invariant)  q_(2nd_Invariant)   Effective_Strain
 ZONE T="TIME=0.000000000000e+00"
0.000000000000e+00 0.000000000000e+00 0.000000000000e+00 -1.070410723828e+01 -1.444131164073e-11 -2.497624994874e+01 -1.070410715611e+01 0.000000000000e+00 0.000000000000e+00 0.000000000000e+00 1.546148811438e+01 1.427214275155e+01  0.000000000000e+00
3.922954844226e-01 0.000000000000e+00 0.000000000000e+00 -1.069999664212e+01 -7.737481419163e-09 -2.496665856144e+01 -1.069999656107e+01 0.000000000000e+00 0.000000000000e+00 0.000000000000e+00 1.545555058821e+01 1.426666195985e+01  0.000000000000e+00
7.845909688452e-01 0.000000000000e+00 0.000000000000e+00 -1.069588604256e+01 -1.499195645223e-08 -2.495706717430e+01 -1.069588596506e+01 0.000000000000e+00 0.000000000000e+00 0.000000000000e+00 1.544961306064e+01 1.426118117049e+01  0.000000000000e+00
1.176886453268e+00 0.000000000000e+00 0.000000000000e+00 -1.069187665737e+01 -2.117815282475e-08 -2.494771196070e+01 -1.069187658542e+01 0.000000000000e+00 0.000000000000e+00 0.000000000000e+00 1.544382173449e+01 1.425583533931e+01  0.000000000000e+00
1.569181937690e+00 0.000000000000e+00 0.000000000000e+00 -1.068786726916e+01 -2.603719753589e-08 -2.493835674682e+01 -1.068786720479e+01 0.000000000000e+00 0.000000000000e+00 0.000000000000e+00 1.543803040692e+01 1.425048950985e+01  0.000000000000e+00
1.961477422113e+00 0.000000000000e+00 0.000000000000e+00 -1.068405781986e+01 -2.874936700992e-08 -2.492946806244e+01 -1.068405776469e+01 0.000000000000e+00 0.000000000000e+00 0.000000000000e+00 1.543252788233e+01 1.424541027017e+01  0.000000000000e+00
2.353772906536e+00 0.000000000000e+00 0.000000000000e+00 -1.068024836823e+01 -2.945783159106e-08 -2.492057937686e+01 -1.068024832352e+01 0.000000000000e+00 0.000000000000e+00 0.000000000000e+00 1.542702535620e+01 1.424033103098e+01  0.000000000000e+00
2.746068390958e+00 0.000000000000e+00 0.000000000000e+00 -1.067673265738e+01 -2.724631476209e-08 -2.491237608868e+01 -1.067673262382e+01 0.000000000000e+00 0.000000000000e+00 0.000000000000e+00 1.542194712329e+01 1.423564344808e+01  0.000000000000e+00
3.138363875381e+00 0.000000000000e+00 0.000000000000e+00 -1.067321694497e+01 -2.239705772163e-08 -2.490417279812e+01 -1.067321692293e+01 0.000000000000e+00 0.000000000000e+00 0.000000000000e+00 1.541686888867e+01 1.423095586417e+01  0.000000000000e+00
3.530659359804e+00 0.000000000000e+00 0.000000000000e+00 -1.067008154252e+01 -1.420172498686e-08 -2.489685689564e+01 -1.067008153145e+01 0.000000000000e+00 0.000000000000e+00 0.000000000000e+00 1.541233998987e+01 1.422677535865e+01  0.000000000000e+00
3.922954844226e+00 0.000000000000e+00 0.000000000000e+00 -1.066694613960e+01 -3.159285388573e-09 -2.488954098913e+01 -1.066694613862e+01 0.000000000000e+00 0.000000000000e+00 0.000000000000e+00 1.540781108912e+01 1.422259485002e+01  0.000000000000e+00
4.315250328649e+00 0.000000000000e+00 0.000000000000e+00 -1.066426825139e+01 1.157739448152e-08 -2.488329261039e+01 -1.066426825853e+01 0.000000000000e+00 0.000000000000e+00 0.000000000000e+00 1.540394304010e+01 1.421902435543e+01  0.000000000000e+00
4.707545813071e+00 0.000000000000e+00 0.000000000000e+00 -1.066159036396e+01 2.904559473876e-08 -2.487704422520e+01 -1.066159037675e+01 0.000000000000e+00 0.000000000000e+00 0.000000000000e+00 1.540007498864e+01 1.421545385485e+01  0.000000000000e+00
5.099841297494e+00 0.000000000000e+00 0.000000000000e+00 -1.065943593073e+01 5.011800594658e-08 -2.487201722049e+01 -1.065943594537e+01 0.000000000000e+00 0.000000000000e+00 0.000000000000e+00 1.539696303219e+01 1.421258128244e+01  0.000000000000e+00
5.492136781917e+00 0.000000000000e+00 0.000000000000e+00 -1.065728149959e+01 7.326688906271e-08 -2.486699020570e+01 -1.065728151159e+01 0.000000000000e+00 0.000000000000e+00 0.000000000000e+00 1.539385107229e+01 1.420970870011e+01  0.000000000000e+00
5.884432266339e+00 0.000000000000e+00 0.000000000000e+00 -1.065570357358e+01 1.002297816436e-07 -2.486330834705e+01 -1.065570357619e+01 0.000000000000e+00 0.000000000000e+00 0.000000000000e+00 1.539157183228e+01 1.420760477217e+01  0.000000000000e+00
6.276727750762e+00 0.000000000000e+00 0.000000000000e+00 -1.065412565099e+01 1.279573785414e-07 -2.485962647103e+01 -1.065412563660e+01 0.000000000000e+00 0.000000000000e+00 0.000000000000e+00 1.538929258621e+01 1.420550082723e+01  0.000000000000e+00
6.669023235184e+00 0.000000000000e+00 0.000000000000e+00 -1.065316308991e+01 1.593315210177e-07 -2.485738039583e+01 -1.065316304572e+01 0.000000000000e+00 0.000000000000e+00 0.000000000000e+00 1.538790217715e+01 1.420421732801e+01  0.000000000000e+00
7.061318719607e+00 0.000000000000e+00 0.000000000000e+00 -1.065220053534e+01 1.908129022878e-07 -2.485513427719e+01 -1.065220044376e+01 0.000000000000e+00 0.000000000000e+00 0.000000000000e+00 1.538651175210e+01 1.420293378764e+01  0.000000000000e+00
7.453614204030e+00 0.000000000000e+00 0.000000000000e+00 -1.065187702771e+01 2.159982984875e-07 -2.485437920313e+01 -1.065187686925e+01 0.000000000000e+00 0.000000000000e+00 0.000000000000e+00 1.538604436670e+01 1.420250225465e+01  0.000000000000e+00
7.845909688452e+00 0.000000000000e+00 0.000000000000e+00 -1.065155371223e+01 2.365142573803e-07 -2.485362345989e+01 -1.065155315164e+01 0.000000000000e+00 0.000000000000e+00 0.000000000000e+00 1.538557677459e+01 1.420207002796e+01  0.000000000000e+00
 TITLE = "Profiles along polylines"
 VARIABLES = "DIST" "DISPLACEMENT_X1" "DISPLACEMENT_Y1" "STRESS_XX" "STRESS_XY" "STRESS_YY" "STRESS_ZZ" "STRAIN_XX" "STRAIN_XY" "STRAIN_YY"  p_(1st_Invariant)  q_(2nd_Invariant)   Effective_Strain
 ZONE T="TIME=1.000000000000e-01"
0.000000000000e+00 1.147789226500e-03 0.000000000000e+00 -1.035234517314e+01 5.730611090707e-01 -5.456408927612e+01 -1.947493033478e+01 4.743744326784e-04 5.959835534552e-05 -1.082484839732e-03 2.813045492801e+01 4.044205327427e+01  1.385988295130e-03
3.922954844226e-01 1.131114924878e-03 -3.981439285927e-04 -9.673662188024e+00 1.988861203323e+00 -4.878817348258e+01 -1.753855070118e+01 4.089742068979e-04 2.068415659506e-04 -8.831139606120e-04 2.533346212393e+01 3.600051251325e+01  1.198612239714e-03
7.845909688452e-01 1.142765380419e-03 -7.937438176322e-04 -1.100948161014e+01 4.920861135282e+00 -5.401559957763e+01 -1.950752435633e+01 4.418982268317e-04 5.117695596278e-04 -1.052838488626e-03 2.817753518137e+01 4.035987744348e+01  1.598347469657e-03
1.176886453268e+00 1.122750228906e-03 -1.204763148022e-03 -1.089785537506e+01 6.133016885566e+00 -4.758056476192e+01 -1.754352604109e+01 3.455748783742e-04 6.378337583003e-04 -8.206225739671e-04 2.534064872602e+01 3.548022814463e+01  1.515561170438e-03
1.569181937690e+00 1.127212192117e-03 -1.610399451670e-03 -1.334263874346e+01 9.098730144260e+00 -5.125539881957e+01 -1.937941126891e+01 3.139121746712e-04 9.462679377124e-04 -9.165258964484e-04 2.799248294398e+01 3.864336891933e+01  1.978013710618e-03
1.961477422113e+00 1.102731615216e-03 -2.049424280774e-03 -1.326298090001e+01 9.557495434067e+00 -4.534492497399e+01 -1.758237176220e+01 2.246083277019e-04 9.939795281332e-04 -7.028914315301e-04 2.539675921207e+01 3.440015950295e+01  1.914775820149e-03
2.353772906536e+00 1.093515634039e-03 -2.482500769937e-03 -1.690483283185e+01 1.275076363159e+01 -4.784971660490e+01 -1.942636483102e+01 1.311196662821e-04 1.326079420750e-03 -7.375170774675e-04 2.806030475592e+01 3.706293782570e+01  2.435833879790e-03
2.746068390958e+00 1.060064626610e-03 -2.977093060430e-03 -1.672841822224e+01 1.191923585485e+01 -4.184209100440e+01 -1.757115276799e+01 4.382219812308e-05 1.239600531735e-03 -5.218353281195e-04 2.538055399821e+01 3.219389930702e+01  2.215158888363e-03
3.138363875381e+00 1.027157829398e-03 -3.476887704025e-03 -2.169741947880e+01 1.571475181610e+01 -4.446017707927e+01 -1.984727896742e+01 -9.620730544567e-05 1.634334191201e-03 -5.398609963053e-04 2.866829184183e+01 3.611842642477e+01  2.874354173510e-03
3.530659359804e+00 9.597318327751e-04 -4.097080036755e-03 -2.247384513109e+01 1.472276872008e+01 -3.917923631526e+01 -1.849592443390e+01 -2.068518756774e-04 1.531167948362e-03 -3.357398988921e-04 2.671633529342e+01 3.180607529058e+01  2.668236572838e-03
3.922954844226e+00 7.756526372308e-04 -4.910913721462e-03 -2.006850910361e+01 2.071482489210e+01 -2.922417465452e+01 -1.478780512744e+01 -2.745966067096e-04 2.154341789106e-03 -1.111628318027e-05 2.136016296186e+01 3.804434670978e+01  3.741128173077e-03
4.315250328649e+00 5.868606718161e-04 -5.614730058509e-03 -1.286538331714e+01 1.106559391244e+01 -9.338683152380e+00 -6.661219940855e+00 -3.226164959383e-04 1.150821765686e-03 6.001611792986e-04 9.621762136791e+00 1.990957405761e+01  2.151991856485e-03
4.707545813071e+00 4.393258763581e-04 -6.103632301968e-03 -1.444598566848e+01 1.032763006912e+01 -7.853969307685e+00 -6.689986492848e+00 -4.033119577969e-04 1.074073524163e-03 6.786764937490e-04 9.663313823003e+00 1.929928387238e+01  2.087554183679e-03
5.099841297494e+00 3.497054688766e-04 -6.572171900728e-03 -9.609902023194e+00 5.845891047315e+00 -3.397774373597e+00 -3.902302919037e+00 -2.967951541754e-04 6.079726637061e-04 7.652897106707e-04 5.636659771943e+00 1.175730452409e+01  1.417667895492e-03
5.492136781917e+00 2.565030644108e-04 -6.920144226401e-03 -9.068477308171e+00 4.715336466391e+00 -2.698150463083e+00 -3.529988331376e+00 -2.880014274193e-04 4.903949848809e-04 7.821604212487e-04 5.098872034210e+00 1.013297257586e+01  1.281188818302e-03
5.884432266339e+00 2.054746150101e-04 -7.252999717799e-03 -5.123983869708e+00 2.095683956365e+00 -7.047282444509e-01 -1.748613634248e+00 -1.755192523803e-04 2.179511210416e-04 7.930774883536e-04 2.525775249469e+00 5.402036129305e+00  9.703027114332e-04
6.276727750762e+00 1.411946865951e-04 -7.489029703922e-03 -3.622514354656e+00 1.246298132926e+00 -4.351215059580e-01 -1.217290758184e+00 -1.250716262778e-04 1.296149925112e-04 7.793588445268e-04 1.758308872933e+00 3.596937355368e+00  8.780198956926e-04
6.669023235184e+00 1.074246558248e-04 -7.700891260407e-03 -7.501620331814e-01 1.664101503438e-01 -7.306414607502e-03 -2.272405343367e-01 -2.719191563673e-05 1.730663904251e-05 7.500558764202e-04 3.282363273752e-01 7.210431366591e-01  7.646026637462e-04
7.061318719607e+00 6.231277444812e-05 -7.828559734183e-03 6.751230287533e-01 -7.689667475825e-02 6.718964844431e-02 2.226938031593e-01 2.352632451161e-05 -7.997274098647e-06 7.304663432847e-04 -3.216688267856e-01 5.629988155993e-01  7.191253350834e-04
7.453614204030e+00 3.329617309843e-05 -7.924020803860e-03 1.833420755074e+00 -1.499004931775e-01 1.875851130431e-02 5.556537799136e-01 6.644389098079e-05 -1.558967388322e-05 7.106115673866e-04 -8.026110154308e-01 1.635353933918e+00  6.803652744185e-04
7.845909688452e+00 0.000000000000e+00 -7.941726824734e-03 2.276104405987e+00 -8.682733219642e-02 1.094526958266e-01 7.156671305440e-01 8.114276765566e-05 -9.030063828415e-06 7.069845064227e-04 -1.033741410786e+00 1.941915803825e+00  6.702903756448e-04
 ZONE T="TIME=2.000000000000e-01"
0.000000000000e+00 8.829010836377e-04 0.000000000000e+00 -9.378710936159e+00 6.502707640732e-01 -5.626480099311e+01 -1.969305357878e+01 5.363458216897e-04 6.762815946578e-05 -1.159579440327e-03 2.844552183602e+01 4.268911410603e+01  1.505970653920e-03
3.922954844226e-01 8.647481851343e-04 -4.247372300900e-04 -8.610253818855e+00 2.247639923267e+00 -4.970529045171e+01 -1.749466328117e+01 4.619892962541e-04 2.337545528247e-04 -9.330861888472e-04 2.527006918391e+01 3.765348975472e+01  1.295794486136e-03
7.845909688452e-01 8.799897893862e-04 -8.454699923928e-04 -1.011519091874e+01 5.536769654269e+00 -5.549573780109e+01 -1.968327861595e+01 4.975405642848e-04 5.758240456024e-04 -1.120666454746e-03 2.843140244526e+01 4.252886948672e+01  1.748066626491e-03
1.176886453268e+00 8.609959346926e-04 -1.281381964658e-03 -9.982779955586e+00 6.869341799693e+00 -4.809726506649e+01 -1.742401350662e+01 3.869441483943e-04 7.144115493695e-04 -8.537056415973e-04 2.516801950957e+01 3.695985277197e+01  1.655302716894e-03
1.569181937690e+00 8.710332634805e-04 -1.707733534649e-03 -1.268439552107e+01 1.010031748099e+01 -5.197759722733e+01 -1.939859782452e+01 3.491385231271e-04 1.050433020732e-03 -9.530825127600e-04 2.802019685764e+01 4.038889633481e+01  2.161770200210e-03
1.961477422113e+00 8.504357281744e-04 -2.166561427424e-03 -1.256367958241e+01 1.051597106153e+01 -4.514936755498e+01 -1.731391414122e+01 2.470121999263e-04 1.093660993389e-03 -7.066822420329e-04 2.500898709287e+01 3.551561726875e+01  2.079244348015e-03
2.353772906536e+00 8.488011447209e-04 -2.612395726778e-03 -1.645349414975e+01 1.384760094162e+01 -4.758536428904e+01 -1.921165753164e+01 1.434244981830e-04 1.440150500994e-03 -7.349355366111e-04 2.775017199014e+01 3.829101950717e+01  2.624539766650e-03
2.746068390958e+00 8.227233746278e-04 -3.117054233821e-03 -1.616551031394e+01 1.275945250054e+01 -4.071983727911e+01 -1.706560427792e+01 4.680488787065e-05 1.326983062887e-03 -4.897666558885e-04 2.465031729032e+01 3.271138677442e+01  2.355342373356e-03
3.138363875381e+00 8.008150305508e-04 -3.616323354660e-03 -2.121457524645e+01 1.651448097574e+01 -4.312814526281e+01 -1.930281615278e+01 -9.941147172477e-05 1.717506023804e-03 -4.989074082111e-04 2.788184555401e+01 3.665974749152e+01  3.009763271154e-03
3.530659359804e+00 7.467583242500e-04 -4.226617699256e-03 -2.166075621324e+01 1.505896514574e+01 -3.710363292615e+01 -1.762931674182e+01 -2.096348519375e-04 1.566132376632e-03 -2.728721226473e-04 2.546456862707e+01 3.158020363926e+01  2.723878544068e-03
3.922954844226e+00 5.910159487624e-04 -4.998191153126e-03 -2.002272302715e+01 2.052227023040e+01 -2.819237358147e+01 -1.446452898259e+01 -2.890260902661e-04 2.134316104289e-03 2.572701308625e-05 2.089320853040e+01 3.750381234624e+01  3.709117069755e-03
4.315250328649e+00 4.312259176783e-04 -5.675267999006e-03 -1.320644067622e+01 1.136285293330e+01 -9.602755053959e+00 -6.842758719053e+00 -3.309114621441e-04 1.181736703855e-03 5.958694568828e-04 9.883984816409e+00 2.044244528656e+01  2.202554823464e-03
4.707545813071e+00 3.083388854747e-04 -6.150165747435e-03 -1.499224226203e+01 1.071528904239e+01 -8.156931085980e+00 -6.944752004404e+00 -4.184694940610e-04 1.114390057384e-03 6.761702878785e-04 1.003130845081e+01 2.002320493850e+01  2.154269067207e-03
5.099841297494e+00 2.382869826727e-04 -6.608969712713e-03 -1.017324084592e+01 6.193014725835e+00 -3.607144362161e+00 -4.134115562425e+00 -3.140345155011e-04 6.440735262722e-04 7.664567287215e-04 5.971500256836e+00 1.244955710530e+01  1.473519454612e-03
5.492136781917e+00 1.642814954680e-04 -6.949928794571e-03 -9.849093996848e+00 5.105798285299e+00 -2.924711792000e+00 -3.832141736654e+00 -3.128815181561e-04 5.310030140474e-04 7.860912092195e-04 5.535315841834e+00 1.098611098856e+01  1.344499999014e-03
5.884432266339e+00 1.296940057133e-04 -7.277871209715e-03 -5.866302642736e+00 2.406557336870e+00 -8.246857622747e-01 -2.007296521503e+00 -2.006683184405e-04 2.502819526140e-04 8.002912075640e-04 2.899428308838e+00 6.182940502494e+00  1.014519615004e-03
6.276727750762e+00 8.197383289955e-05 -7.509810188989e-03 -4.569557641789e+00 1.545533009901e+00 -5.592961758446e-01 -1.538656145290e+00 -1.576068770792e-04 1.607354197166e-04 7.896127618222e-04 2.222503320974e+00 4.503317697245e+00  9.221085989635e-04
6.669023235184e+00 6.323920496952e-05 -7.719385602111e-03 -1.594769367588e+00 3.726742850377e-01 -5.013686341706e-02 -4.934718693014e-01 -5.726746760769e-05 3.875810905067e-05 7.616727225003e-04 7.127927001021e-01 1.521283736928e+00  7.947015414999e-04
7.061318719607e+00 3.330503057599e-05 -7.844765342740e-03 -3.895297371407e-01 8.922440959813e-02 1.988600098230e-02 -1.108931208475e-01 -1.448909926652e-05 9.279318674417e-06 7.453530736650e-04 1.601789523353e-01 3.937821484511e-01  7.528737944421e-04
7.453614204030e+00 1.875550225680e-05 -7.939670946428e-03 9.383863271403e-01 -8.226182305477e-02 1.735980370288e-02 2.867238392530e-01 3.388645764257e-05 -8.555252190453e-06 7.245231915057e-04 -4.141566566987e-01 8.325001152662e-01  7.083432780942e-04
7.845909688452e+00 0.000000000000e+00 -7.956501178697e-03 1.186790414132e+00 -6.723226599095e-02 8.454091330658e-02 3.813993982314e-01 4.188036215944e-05 -6.992176943047e-06 7.230710158119e-04 -5.509102418898e-01 9.946996220405e-01  7.031712837196e-04
 ZONE T="TIME=3.000000000000e-01"
0.000000000000e+00 6.180129407749e-04 0.000000000000e+00 -8.405076699175e+00 7.274804190759e-01 -5.796551271010e+01 -1.991117682278e+01 5.983172107010e-04 7.565796358606e-05 -1.236674040923e-03 2.876058874402e+01 4.494404857171e+01  1.626174010734e-03
3.922954844226e-01 5.983814453906e-04 -4.513305315872e-04 -7.546845449685e+00 2.506418643210e+00 -5.062240742084e+01 -1.745077586116e+01 5.150043856102e-04 2.606675396988e-04 -9.830584170825e-04 2.520667624389e+01 3.931692907354e+01  1.393468859882e-03
7.845909688452e-01 6.172141983537e-04 -8.971961671535e-04 -9.220900227337e+00 6.152678173257e+00 -5.697587602456e+01 -1.985903287557e+01 5.531829017378e-04 6.398785315771e-04 -1.188494420866e-03 2.868526970915e+01 4.471297528237e+01  1.898504334775e-03
1.176886453268e+00 5.992416404797e-04 -1.358000781293e-03 -9.067704536114e+00 7.605666713821e+00 -4.861396537107e+01 -1.730450097215e+01 4.283134184144e-04 7.909893404388e-04 -8.867887092276e-04 2.499539029311e+01 3.846499135235e+01  1.796291321788e-03
1.569181937690e+00 6.148543348438e-04 -1.805067617628e-03 -1.202615229869e+01 1.110190481771e+01 -5.269979563508e+01 -1.941778438013e+01 3.843648715830e-04 1.154598103752e-03 -9.896391290717e-04 2.804791077130e+01 4.216744896095e+01  2.346656093384e-03
1.961477422113e+00 5.981398411323e-04 -2.283698574075e-03 -1.186437826480e+01 1.147444668899e+01 -4.495381013597e+01 -1.704545652023e+01 2.694160721507e-04 1.193342458645e-03 -7.104730525357e-04 2.462121497367e+01 3.667838488741e+01  2.245210125648e-03
2.353772906536e+00 6.040866554027e-04 -2.742290683620e-03 -1.600215546766e+01 1.494443825165e+01 -4.732101197319e+01 -1.899695023225e+01 1.557293300839e-04 1.554221581237e-03 -7.323539957547e-04 2.744003922437e+01 3.957340931702e+01  2.814508334903e-03
2.746068390958e+00 5.853821226454e-04 -3.257015407212e-03 -1.560260240565e+01 1.359966914623e+01 -3.959758355382e+01 -1.656005578784e+01 4.978757761820e-05 1.414365594038e-03 -4.576979836575e-04 2.392008058244e+01 3.329496604721e+01  2.497207244466e-03
3.138363875381e+00 5.744722317037e-04 -3.755759005294e-03 -2.073173101410e+01 1.731421013538e+01 -4.179611344636e+01 -1.875835333814e+01 -1.026156380039e-04 1.800677856407e-03 -4.579538201169e-04 2.709539926620e+01 3.726279681654e+01  3.146518818434e-03
3.530659359804e+00 5.337848157249e-04 -4.356155361757e-03 -2.084766729538e+01 1.539516157141e+01 -3.502802953705e+01 -1.676270904973e+01 -2.124178281976e-04 1.601096804901e-03 -2.100043464025e-04 2.421280196072e+01 3.141223876562e+01  2.781213301431e-03
3.922954844226e+00 4.063792602939e-04 -5.085468584790e-03 -1.997693695069e+01 2.032971556869e+01 -2.716057250840e+01 -1.414125283773e+01 -3.034555738226e-04 2.114290419472e-03 6.257030935284e-05 2.042625409894e+01 3.697936265138e+01  3.677724781932e-03
4.315250328649e+00 2.755911635405e-04 -5.735805939504e-03 -1.354749803530e+01 1.166011195417e+01 -9.866826955540e+00 -7.024297497251e+00 -3.392064283500e-04 1.212651642025e-03 5.915777344669e-04 1.014620749603e+01 2.097532745013e+01  2.253278545159e-03
4.707545813071e+00 1.773518945912e-04 -6.196699192902e-03 -1.553849885559e+01 1.110294801567e+01 -8.459892864276e+00 -7.199517515961e+00 -4.336270303251e-04 1.154706590605e-03 6.736640820081e-04 1.039930307861e+01 2.074712686632e+01  2.221264636034e-03
5.099841297494e+00 1.268684964688e-04 -6.645767524697e-03 -1.073657966865e+01 6.540138404356e+00 -3.816514350723e+00 -4.365928205812e+00 -3.312738768268e-04 6.801743888383e-04 7.676237467724e-04 6.306340741728e+00 1.314181916133e+01  1.530096039570e-03
5.492136781917e+00 7.205992652536e-05 -6.979713362741e-03 -1.062971068553e+01 5.496260104208e+00 -3.151273120917e+00 -4.134295141933e+00 -3.377616088929e-04 5.716110432139e-04 7.900219971903e-04 5.971759649459e+00 1.183927857988e+01  1.408997627922e-03
5.884432266339e+00 5.391339641653e-05 -7.302742701632e-03 -6.608621415765e+00 2.717430717375e+00 -9.446432800985e-01 -2.265979408759e+00 -2.258173845007e-04 2.826127841865e-04 8.075049267745e-04 3.273081368207e+00 6.963896011200e+00  1.060667858380e-03
6.276727750762e+00 2.275297920411e-05 -7.530590674056e-03 -5.516600928923e+00 1.844767886877e+00 -6.834708457318e-01 -1.860021532397e+00 -1.901421278807e-04 1.918558469221e-04 7.998666791176e-04 2.686697769017e+00 5.409852222619e+00  9.687389140220e-04
6.669023235184e+00 1.905375411431e-05 -7.737879943815e-03 -2.439376701996e+00 5.789384197322e-01 -9.296731222642e-02 -7.597032042667e-01 -8.734301957872e-05 6.020957905890e-05 7.732895685804e-04 1.097349072830e+00 2.321906005436e+00  8.270565797479e-04
7.061318719607e+00 4.297286703924e-06 -7.860970951297e-03 -1.454182503033e+00 2.553454939546e-01 -2.741764647626e-02 -4.444800448526e-01 -5.250452304464e-05 2.655591144749e-05 7.602398040454e-04 6.420267314538e-01 1.345419262125e+00  7.891469839039e-04
7.453614204030e+00 4.214831415232e-06 -7.955321088997e-03 4.335189920805e-02 -1.462315293213e-02 1.596109610209e-02 1.779389859304e-02 1.329024304407e-06 -1.520830497699e-06 7.384348156247e-04 -2.570229796773e-02 3.667319365188e-02  7.377759037752e-04
7.845909688452e+00 0.000000000000e+00 -7.971275532661e-03 9.747642227943e-02 -4.763719978694e-02 5.962913078682e-02 4.713166591987e-02 2.617956663333e-06 -4.954290057829e-06 7.391575252011e-04 -6.807907299537e-02 9.417806383542e-02  7.379019266542e-04
 ZONE T="TIME=4.000000000000e-01"
0.000000000000e+00 3.531247979121e-04 0.000000000000e+00 -7.431442462191e+00 8.046900740785e-01 -5.966622442709e+01 -2.012930006678e+01 6.602885997122e-04 8.368776770634e-05 -1.313768641518e-03 2.907565565202e+01 4.720572835595e+01  1.746552736791e-03
3.922954844226e-01 3.320147056469e-04 -4.779238330845e-04 -6.483437080515e+00 2.765197363154e+00 -5.153952438996e+01 -1.740688844114e+01 5.680194749664e-04 2.875805265729e-04 -1.033030645318e-03 2.514328330387e+01 4.098955677256e+01  1.491538682259e-03
7.845909688452e-01 3.544386073212e-04 -9.489223419141e-04 -8.326609535934e+00 6.768586692244e+00 -5.845601424802e+01 -2.003478713519e+01 6.088252391909e-04 7.039330175518e-04 -1.256322386986e-03 2.893913697305e+01 4.691008381575e+01  2.049502371131e-03
1.176886453268e+00 3.374873462668e-04 -1.434619597929e-03 -8.152629116642e+00 8.341991627949e+00 -4.913066567564e+01 -1.718498843768e+01 4.696826884346e-04 8.675671315081e-04 -9.198717768578e-04 2.482276107666e+01 3.999276331570e+01  1.938254871234e-03
1.569181937690e+00 3.586754062071e-04 -1.902401700608e-03 -1.136790907630e+01 1.210349215444e+01 -5.342199404284e+01 -1.943697093574e+01 4.195912200389e-04 1.258763186771e-03 -1.026195745383e-03 2.807562468496e+01 4.397501990477e+01  2.532424037497e-03
1.961477422113e+00 3.458439540902e-04 -2.400835720725e-03 -1.116507694719e+01 1.243292231645e+01 -4.475825271697e+01 -1.677699889925e+01 2.918199443751e-04 1.293023923901e-03 -7.142638630385e-04 2.423344285447e+01 3.788410640010e+01  2.412364149564e-03
2.353772906536e+00 3.593721660845e-04 -2.872185640462e-03 -1.555081678557e+01 1.604127556169e+01 -4.705665965734e+01 -1.878224293287e+01 1.680341619849e-04 1.668292661480e-03 -7.297724548983e-04 2.712990645859e+01 4.090499982270e+01  3.005500163278e-03
2.746068390958e+00 3.480408706630e-04 -3.396976580603e-03 -1.503969449735e+01 1.443988579191e+01 -3.847532982853e+01 -1.605450729776e+01 5.277026736574e-05 1.501748125190e-03 -4.256293114265e-04 2.318984387455e+01 3.394122818530e+01  2.640482508739e-03
3.138363875381e+00 3.481294328565e-04 -3.895194655928e-03 -2.024888678174e+01 1.811393929502e+01 -4.046408162991e+01 -1.821389052350e+01 -1.058198042829e-04 1.883849689010e-03 -4.170002320227e-04 2.630895297838e+01 3.792462984325e+01  3.284452632311e-03
3.530659359804e+00 3.208113071998e-04 -4.485693024258e-03 -2.003457837753e+01 1.573135799707e+01 -3.295242614795e+01 -1.589610135764e+01 -2.152008044577e-04 1.636061233170e-03 -1.471365701577e-04 2.296103529437e+01 3.130311282452e+01  2.840138328374e-03
3.922954844226e+00 2.217425718255e-04 -5.172746016454e-03 -1.993115087422e+01 2.013716090699e+01 -2.612877143534e+01 -1.381797669287e+01 -3.178850573790e-04 2.094264734655e-03 9.941360561943e-05 1.995929966748e+01 3.647169150689e+01  3.646967289526e-03
4.315250328649e+00 1.199564094027e-04 -5.796343880001e-03 -1.388855539438e+01 1.195737097503e+01 -1.013089885712e+01 -7.205836275449e+00 -3.475013945558e-04 1.243566580195e-03 5.872860120510e-04 1.040843017565e+01 2.150821973559e+01  2.304152405006e-03
4.707545813071e+00 4.636490370774e-05 -6.243232638370e-03 -1.608475544915e+01 1.149060698895e+01 -8.762854642572e+00 -7.454283027517e+00 -4.487845665893e-04 1.195023123826e-03 6.711578761376e-04 1.076729770641e+01 2.147104956868e+01  2.288516239379e-03
5.099841297494e+00 1.545001026490e-05 -6.682565336681e-03 -1.129991849138e+01 6.887262082876e+00 -4.025884339285e+00 -4.597740849199e+00 -3.485132381525e-04 7.162752514044e-04 7.687907648233e-04 6.641181226620e+00 1.383408926981e+01  1.587320126338e-03
5.492136781917e+00 -2.016164241732e-05 -7.009497930911e-03 -1.141032737420e+01 5.886721923116e+00 -3.377834449833e+00 -4.436448547211e+00 -3.626416996297e-04 6.122190723804e-04 7.939527851611e-04 6.408203457083e+00 1.269246946582e+01  1.474526023023e-03
5.884432266339e+00 -2.186721288024e-05 -7.327614193548e-03 -7.350940188794e+00 3.028304097880e+00 -1.064600797922e+00 -2.524662296015e+00 -2.509664505609e-04 3.149436157591e-04 8.147186459850e-04 3.646734427577e+00 7.744887186692e+00  1.108506256876e-03
6.276727750762e+00 -3.646787449133e-05 -7.551371159124e-03 -6.463644216058e+00 2.144002763852e+00 -8.076455156189e-01 -2.181386919503e+00 -2.226773786821e-04 2.229762741275e-04 8.101205964131e-04 3.150892217060e+00 6.316474547025e+00  1.017561488563e-03
6.669023235184e+00 -2.513169674090e-05 -7.756374285519e-03 -3.283984036404e+00 7.852025544266e-01 -1.357977610358e-01 -1.025934539232e+00 -1.174185715498e-04 8.166104906712e-05 7.849064146605e-04 1.481905445557e+00 3.122616382848e+00  8.614135891277e-04
7.061318719607e+00 -2.471045716814e-05 -7.877176559854e-03 -2.518835268924e+00 4.214665783111e-01 -7.472129393481e-02 -7.780669688577e-01 -9.051994682274e-05 4.383250422057e-05 7.751265344259e-04 1.123874510572e+00 2.298311009795e+00  8.276130032205e-04
7.453614204030e+00 -1.032583942634e-05 -7.970971231566e-03 -8.516825287241e-01 5.301551719051e-02 1.456238850133e-02 -2.511360420668e-01 -3.122840903375e-05 5.513591195055e-06 7.523464397438e-04 3.627520607632e-01 7.741110597452e-01  7.684960379501e-04
7.845909688452e+00 0.000000000000e+00 -7.986049886624e-03 -9.918375695726e-01 -2.804213358293e-02 3.471734826705e-02 -2.871360663917e-01 -3.664444883277e-05 -2.916403172612e-06 7.552440345902e-04 4.147520958991e-01 9.106939650588e-01  7.742334176581e-04
 ZONE T="TIME=5.000000000000e-01"
0.000000000000e+00 8.823665504933e-05 0.000000000000e+00 -6.457808225207e+00 8.818997290812e-01 -6.136693614408e+01 -2.034742331079e+01 7.222599887235e-04 9.171757182661e-05 -1.390863242114e-03 2.939072256003e+01 4.947322837612e+01  1.867072911828e-03
3.922954844226e-01 6.564796590322e-05 -5.045171345818e-04 -5.420028711346e+00 3.023976083097e+00 -5.245664135909e+01 -1.736300102113e+01 6.210345643225e-04 3.144935134471e-04 -1.083002873553e-03 2.507989036386e+01 4.267029234282e+01  1.589930778979e-03
7.845909688452e-01 9.166301628861e-05 -1.000648516675e-03 -7.432318844532e+00 7.384495211231e+00 -5.993615247148e+01 -2.021054139480e+01 6.644675766439e-04 7.679875035265e-04 -1.324150353106e-03 2.919300423694e+01 4.911845024853e+01  2.200945412999e-03
1.176886453268e+00 7.573305205385e-05 -1.511238414565e-03 -7.237553697171e+00 9.078316542077e+00 -4.964736598021e+01 -1.706547590322e+01 5.110519584547e-04 9.441449225774e-04 -9.529548444881e-04 2.465013186020e+01 4.154067152316e+01  2.080993845247e-03
1.569181937690e+00 1.024964775703e-04 -1.999735783587e-03 -1.070966585392e+01 1.310507949117e+01 -5.414419245060e+01 -1.945615749136e+01 4.548175684947e-04 1.362928269791e-03 -1.062752361695e-03 2.810333859862e+01 4.580817414389e+01  2.718893240593e-03
1.961477422113e+00 9.354806704812e-05 -2.517972867376e-03 -1.046577562959e+01 1.339139794391e+01 -4.456269529796e+01 -1.650854127826e+01 3.142238165994e-04 1.392705389157e-03 -7.180546735413e-04 2.384567073527e+01 3.912881124357e+01  2.580475518993e-03
2.353772906536e+00 1.146576767663e-04 -3.002080597303e-03 -1.509947810347e+01 1.713811287172e+01 -4.679230734148e+01 -1.856753563349e+01 1.803389938858e-04 1.782363741723e-03 -7.271909140420e-04 2.681977369281e+01 4.228114274078e+01  3.197331884464e-03
2.746068390958e+00 1.106996186806e-04 -3.536937753994e-03 -1.447678658905e+01 1.528010243760e+01 -3.735307610325e+01 -1.554895880769e+01 5.575295711329e-05 1.589130656341e-03 -3.935606391954e-04 2.245960716666e+01 3.464666570728e+01  2.784950496357e-03
3.138363875381e+00 1.217866340094e-04 -4.034630306563e-03 -1.976604254939e+01 1.891366845467e+01 -3.913204981345e+01 -1.766942770885e+01 -1.090239705620e-04 1.967021521613e-03 -3.760466439285e-04 2.552250669057e+01 3.864222628954e+01  3.423422294400e-03
3.530659359804e+00 1.078377986748e-04 -4.615230686760e-03 -1.922148945967e+01 1.606755442274e+01 -3.087682275885e+01 -1.502949366556e+01 -2.179837807178e-04 1.671025661439e-03 -8.426879391296e-05 2.170926862803e+01 3.125344215610e+01  2.900556707177e-03
3.922954844226e+00 3.710588335702e-05 -5.260023448119e-03 -1.988536479776e+01 1.994460624529e+01 -2.509697036228e+01 -1.349470054801e+01 -3.323145409355e-04 2.074239049838e-03 1.362569018860e-04 1.949234523602e+01 3.598150911673e+01  3.616860787319e-03