 TITLE = "Time curves in points"
 VARIABLES = "TIME"  "DISPLACEMENT_X1"  "DISPLACEMENT_Y1"  "STRESS_XX"  "STRESS_XY"  "STRESS_YY"  "STRESS_ZZ"  "STRAIN_XX"  "STRAIN_XY"  "STRAIN_YY"  "STRAIN_PLS"  p_(1st_Invariant)  q_(2nd_Invariant)   Effective_Strain
 ZONE T="POINT=POINT10"
0.000000000000e+00 0.000000000000e+00 0.000000000000e+00 -5.649383287554e+06 7.426781174852e-04 -1.318189433805e+07 -5.649383287681e+06 0.000000000000e+00 0.000000000000e+00 0.000000000000e+00 0.000000000000e+00 8.160220304428e+06 7.532511050432e+06  0.000000000000e+00
2.000000000000e-02 -1.019524616547e-12 -4.256400170861e-04 -7.318895447938e+06 7.674370870518e-03 -7.926342239146e+06 -4.573571306125e+06 -1.019691824149e-04 5.149257464072e-13 1.552474900729e-04 0.000000000000e+00 6.606269664403e+06 3.094096732253e+06  2.243433907451e-04
