 TITLE = "Time curves in points"
 VARIABLES = "TIME"  "DISPLACEMENT_X1"  "DISPLACEMENT_Y1"  "STRESS_XX"  "STRESS_XY"  "STRESS_YY"  "STRESS_ZZ"  "STRAIN_XX"  "STRAIN_XY"  "STRAIN_YY"  "STRAIN_PLS"  p_(1st_Invariant)  q_(2nd_Invariant)   Effective_Strain
 ZONE T="POINT=POINT9"
0.000000000000e+00 0.000000000000e+00 0.000000000000e+00 -5.661472704252e+06 1.968229858535e-03 -1.321010297757e+07 -5.661472704546e+06 0.000000000000e+00 0.000000000000e+00 0.000000000000e+00 0.000000000000e+00 8.177682795455e+06 7.548630273169e+06  0.000000000000e+00
2.000000000000e-02 -1.265802574961e-12 -6.760640373983e-04 -5.933123315390e+06 5.640694689646e-03 -6.353779724873e+05 -1.970550386363e+06 -1.471812802319e-04 2.728116775082e-13 3.299698140848e-04 0.000000000000e+00 2.846350558080e+06 4.772356614445e+06  4.232112795434e-04
