 TITLE = "Time curves in points"
 VARIABLES = "TIME"  "DISPLACEMENT_X1"  "DISPLACEMENT_Y1"  "STRESS_XX"  "STRESS_XY"  "STRESS_YY"  "STRESS_ZZ"  "STRAIN_XX"  "STRAIN_XY"  "STRAIN_YY"  "STRAIN_PLS"  p_(1st_Invariant)  q_(2nd_Invariant)   Effective_Strain
 ZONE T="POINT=POINT12"
0.000000000000e+00 0.000000000000e+00 0.000000000000e+00 -5.675785708050e+06 -1.191295527048e-04 -1.324350000074e+07 -5.675785712638e+06 0.000000000000e+00 0.000000000000e+00 0.000000000000e+00 0.000000000000e+00 8.198357140478e+06 7.567714290400e+06  0.000000000000e+00
2.000000000000e-02 -1.112038587664e-04 -2.192492254464e-05 -3.323779630900e+05 2.954767033547e+02 -3.337593835381e+07 -1.011249489507e+07 3.632614858821e-04 2.194966697902e-08 -5.829842263414e-04 0.000000000000e+00 1.460693707066e+07 2.939996065116e+07  8.268042289685e-04
