 TITLE = "Time curves in points"
 VARIABLES = "TIME"  "DISPLACEMENT_X1"  "DISPLACEMENT_Y1"  "STRESS_XX"  "STRESS_XY"  "STRESS_YY"  "STRESS_ZZ"  "STRAIN_XX"  "STRAIN_XY"  "STRAIN_YY"  "STRAIN_PLS"  p_(1st_Invariant)  q_(2nd_Invariant)   Effective_Strain
 ZONE T="POINT=POINT15"
0.000000000000e+00 0.000000000000e+00 0.000000000000e+00 -5.636547450778e+06 5.755708706416e-04 -1.315194405165e+07 -5.636547450727e+06 0.000000000000e+00 0.000000000000e+00 0.000000000000e+00 0.000000000000e+00 8.141679651050e+06 7.515396600893e+06  0.000000000000e+00
2.000000000000e-02 -5.263011711797e-13 -3.002846739427e-04 -6.552436261874e+06 3.961556942158e-03 -1.067056150306e+07 -5.166899329482e+06 -5.146280034412e-05 2.515303932486e-13 7.472156444389e-05 0.000000000000e+00 7.463299031474e+06 4.958274166184e+06  1.098959187804e-04
