VARIABLES  = "X","Y","Z", "DISPLACEMENT_X1", "DISPLACEMENT_Y1", "STRESS_XX", "STRESS_XY", "STRESS_YY", "STRESS_ZZ", "STRAIN_XX", "STRAIN_XY", "STRAIN_YY", "STRAIN_PLS"
ZONE T="0.000000000000e+00s", N=1729, E=3152, F=FEPOINT, ET=QUADRILATERAL
STRANDID=1, SOLUTIONTIME=0.000000000000e+00
5.274890831691e-01 3.601931519005e-01 0.000000000000e+00 0.000000000000e+00 0.000000000000e+00 -5.671690170364e+06 7.492997200866e-04 -1.323394374246e+07 -5.671690173848e+06 0.000000000000e+00 0.000000000000e+00 0.000000000000e+00 0.000000000000e+00 
6.601442824766e-01 3.171499013949e-01 0.000000000000e+00 0.000000000000e+00 0.000000000000e+00 -5.672108225557e+06 1.451767837000e-03 -1.323491920293e+07 -5.672108228547e+06 0.000000000000e+00 0.000000000000e+00 0.000000000000e+00 0.000000000000e+00 
6.195223679727e-01 5.109623326886e-01 0.000000000000e+00 0.000000000000e+00 0.000000000000e+00 -5.669982121197e+06 2.695489787126e-03 -1.322995829378e+07 -5.669982124493e+06 0.000000000000e+00 0.000000000000e+00 0.000000000000e+00 0.000000000000e+00 
0.000000000000e+00 7.871337589362e-01 0.000000000000e+00 0.000000000000e+00 0.000000000000e+00 -5.666803976783e+06 2.185346810920e-03 -1.322254260969e+07 -5.666803975941e+06 0.000000000000e+00 0.000000000000e+00 0.000000000000e+00 0.000000000000e+00 
2.219892622809e-01 8.842849139646e-01 0.000000000000e+00 0.000000000000e+00 0.000000000000e+00 -5.665735721077e+06 2.286533175673e-03 -1.322005001703e+07 -5.665735721432e+06 0.000000000000e+00 0.000000000000e+00 0.000000000000e+00 0.000000000000e+00 
0.000000000000e+00 9.474533848814e-01 0.000000000000e+00 0.000000000000e+00 0.000000000000e+00 -5.664851587373e+06 2.558927666154e-03 -1.321798703358e+07 -5.664851586285e+06 0.000000000000e+00 0.000000000000e+00 0.000000000000e+00 0.000000000000e+00 
7.217978663560e-01 4.223464425004e-01 0.000000000000e+00 0.000000000000e+00 0.000000000000e+00 -5.670991416207e+06 8.187694646209e-04 -1.323231331015e+07 -5.670991417907e+06 0.000000000000e+00 0.000000000000e+00 0.000000000000e+00 0.000000000000e+00 
1.462097179408e-01 7.577934371578e-01 0.000000000000e+00 0.000000000000e+00 0.000000000000e+00 -5.667164007699e+06 3.183697407379e-03 -1.322338268780e+07 -5.667164008650e+06 0.000000000000e+00 0.000000000000e+00 0.000000000000e+00 0.000000000000e+00 
2.224029670984e-01 1.118095219660e+00 0.000000000000e+00 0.000000000000e+00 0.000000000000e+00 -5.663059230094e+06 1.229345151318e-03 -1.321380486999e+07 -5.663059230025e+06 0.000000000000e+00 0.000000000000e+00 0.000000000000e+00 0.000000000000e+00 
2.500066048588e-01 3.741613255361e-01 0.000000000000e+00 0.000000000000e+00 0.000000000000e+00 -5.671499040026e+06 1.610705870675e-03 -1.323349776025e+07 -5.671499040084e+06 0.000000000000e+00 0.000000000000e+00 0.000000000000e+00 0.000000000000e+00 
2.688279416994e-01 4.984093656919e-01 0.000000000000e+00 0.000000000000e+00 0.000000000000e+00 -5.670105776741e+06 3.110510424729e-03 -1.323024681874e+07 -5.670105778645e+06 0.000000000000e+00 0.000000000000e+00 0.000000000000e+00 0.000000000000e+00 
1.722075445643e-01 4.157457896301e-01 0.000000000000e+00 0.000000000000e+00 0.000000000000e+00 -5.671082711342e+06 1.639553877279e-03 -1.323252632774e+07 -5.671082711726e+06 0.000000000000e+00 0.000000000000e+00 0.000000000000e+00 0.000000000000e+00 
8.779064490726e-02 4.413533761815e-01 0.000000000000e+00 0.000000000000e+00 0.000000000000e+00 -5.670707754643e+06 1.989864232552e-03 -1.323165142629e+07 -5.670707754281e+06 0.000000000000e+00 0.000000000000e+00 0.000000000000e+00 0.000000000000e+00 
0.000000000000e+00 5.425413849766e-01 0.000000000000e+00 0.000000000000e+00 0.000000000000e+00 -5.669549348277e+06 1.597010154698e-03 -1.322894848153e+07 -5.669549348942e+06 0.000000000000e+00 0.000000000000e+00 0.000000000000e+00 0.000000000000e+00 
0.000000000000e+00 4.500000000000e-01 0.000000000000e+00 0.000000000000e+00 0.000000000000e+00 -5.670655577032e+06 1.739582184379e-03 -1.323152967809e+07 -5.670655576537e+06 0.000000000000e+00 0.000000000000e+00 0.000000000000e+00 0.000000000000e+00 
5.425413849766e-01 0.000000000000e+00 0.000000000000e+00 0.000000000000e+00 0.000000000000e+00 -5.675785708415e+06 7.632323560439e-04 -1.324349999747e+07 -5.675785711765e+06 0.000000000000e+00 0.000000000000e+00 0.000000000000e+00 0.000000000000e+00 
4.413533761815e-01 8.779064490726e-02 0.000000000000e+00 0.000000000000e+00 0.000000000000e+00 -5.674766275498e+06 1.907117637668e-03 -1.324112132369e+07 -5.674766279756e+06 0.000000000000e+00 0.000000000000e+00 0.000000000000e+00 0.000000000000e+00 
4.500000000000e-01 0.000000000000e+00 0.000000000000e+00 0.000000000000e+00 0.000000000000e+00 -5.675785711008e+06 3.581581082901e-04 -1.324349999816e+07 -5.675785712751e+06 0.000000000000e+00 0.000000000000e+00 0.000000000000e+00 0.000000000000e+00 
5.916341546874e-01 7.351899944897e-01 0.000000000000e+00 0.000000000000e+00 0.000000000000e+00 -5.667542074743e+06 2.102607914464e-03 -1.322426484574e+07 -5.667542076146e+06 0.000000000000e+00 0.000000000000e+00 0.000000000000e+00 0.000000000000e+00 
4.603340314152e-01 6.378082249701e-01 0.000000000000e+00 0.000000000000e+00 0.000000000000e+00 -5.668657396381e+06 2.026508412645e-03 -1.322686726410e+07 -5.668657398145e+06 0.000000000000e+00 0.000000000000e+00 0.000000000000e+00 0.000000000000e+00 
3.397056259675e-01 7.310947758343e-01 0.000000000000e+00 0.000000000000e+00 0.000000000000e+00 -5.667533963789e+06 1.723044783775e-03 -1.322424592033e+07 -5.667533965237e+06 0.000000000000e+00 0.000000000000e+00 0.000000000000e+00 0.000000000000e+00 
4.477276554199e-01 8.510992295494e-01 0.000000000000e+00 0.000000000000e+00 0.000000000000e+00 -5.666190361257e+06 1.818439451724e-03 -1.322111084832e+07 -5.666190362872e+06 0.000000000000e+00 0.000000000000e+00 0.000000000000e+00 0.000000000000e+00 
6.087594943952e-01 1.830905763997e-01 0.000000000000e+00 0.000000000000e+00 0.000000000000e+00 -5.673699093385e+06 -6.912984251991e-04 -1.323863123408e+07 -5.673699098240e+06 0.000000000000e+00 0.000000000000e+00 0.000000000000e+00 0.000000000000e+00 
5.058400153822e-01 2.440735940061e-01 0.000000000000e+00 0.000000000000e+00 0.000000000000e+00 -5.672979083548e+06 2.162568557277e-03 -1.323695119664e+07 -5.672979084057e+06 0.000000000000e+00 0.000000000000e+00 0.000000000000e+00 0.000000000000e+00 
4.966796411828e-01 4.736556835311e-01 0.000000000000e+00 0.000000000000e+00 0.000000000000e+00 -5.670408975110e+06 1.606963315976e-03 -1.323095428194e+07 -5.670408977114e+06 0.000000000000e+00 0.000000000000e+00 0.000000000000e+00 0.000000000000e+00 
7.871337589362e-01 0.000000000000e+00 0.000000000000e+00 0.000000000000e+00 0.000000000000e+00 -5.675785708406e+06 2.040963964907e-04 -1.324350000065e+07 -5.675785712716e+06 0.000000000000e+00 0.000000000000e+00 0.000000000000e+00 0.000000000000e+00 
9.416232473704e-01 1.624304614484e-01 0.000000000000e+00 0.000000000000e+00 0.000000000000e+00 -5.673868610322e+06 1.159576602267e-03 -1.323902677104e+07 -5.673868614407e+06 0.000000000000e+00 0.000000000000e+00 0.000000000000e+00 0.000000000000e+00 
7.641358949221e-01 1.778493288416e-01 0.000000000000e+00 0.000000000000e+00 0.000000000000e+00 -5.673752626587e+06 2.282112503482e-03 -1.323875614212e+07 -5.673752630612e+06 0.000000000000e+00 0.000000000000e+00 0.000000000000e+00 0.000000000000e+00 
9.474533848814e-01 0.000000000000e+00 0.000000000000e+00 0.000000000000e+00 0.000000000000e+00 -5.675785708415e+06 1.925993230261e-04 -1.324350000145e+07 -5.675785712960e+06 0.000000000000e+00 0.000000000000e+00 0.000000000000e+00 0.000000000000e+00 
4.362591128962e-01 1.053222667063e+00 0.000000000000e+00 0.000000000000e+00 0.000000000000e+00 -5.663851890457e+06 1.775876454438e-03 -1.321565441021e+07 -5.663851890201e+06 0.000000000000e+00 0.000000000000e+00 0.000000000000e+00 0.000000000000e+00 
9.855490035665e-02 5.552253179019e-01 0.000000000000e+00 0.000000000000e+00 0.000000000000e+00 -5.669396117846e+06 1.658472741855e-03 -1.322859094002e+07 -5.669396117361e+06 0.000000000000e+00 0.000000000000e+00 0.000000000000e+00 0.000000000000e+00 
5.567521161807e-01 9.623733361308e-02 0.000000000000e+00 0.000000000000e+00 0.000000000000e+00 -5.674644833715e+06 2.281038001110e-03 -1.324083795834e+07 -5.674644837616e+06 0.000000000000e+00 0.000000000000e+00 0.000000000000e+00 0.000000000000e+00 
4.157457896301e-01 1.722075445643e-01 0.000000000000e+00 0.000000000000e+00 0.000000000000e+00 -5.673836751881e+06 -2.086946475082e-04 -1.323895242299e+07 -5.673836752460e+06 0.000000000000e+00 0.000000000000e+00 0.000000000000e+00 0.000000000000e+00 
3.741613255361e-01 2.500066048588e-01 0.000000000000e+00 0.000000000000e+00 0.000000000000e+00 -5.672951120199e+06 2.346610856722e-03 -1.323688595256e+07 -5.672951121828e+06 0.000000000000e+00 0.000000000000e+00 0.000000000000e+00 0.000000000000e+00 
8.171541746504e-01 4.985615746079e-01 0.000000000000e+00 0.000000000000e+00 0.000000000000e+00 -5.670205568772e+06 3.047733450939e-03 -1.323047967498e+07 -5.670205573126e+06 0.000000000000e+00 0.000000000000e+00 0.000000000000e+00 0.000000000000e+00 
9.545126062423e-01 3.258526016114e-01 0.000000000000e+00 0.000000000000e+00 0.000000000000e+00 -5.672086769310e+06 1.000189959345e-03 -1.323486914262e+07 -5.672086773578e+06 0.000000000000e+00 0.000000000000e+00 0.000000000000e+00 0.000000000000e+00 
1.053222667063e+00 4.362591128962e-01 0.000000000000e+00 0.000000000000e+00 0.000000000000e+00 -5.670810359998e+06 2.220608401576e-03 -1.323189085056e+07 -5.670810363166e+06 0.000000000000e+00 0.000000000000e+00 0.000000000000e+00 0.000000000000e+00 
1.738881707763e-01 5.029960597197e-01 0.000000000000e+00 0.000000000000e+00 0.000000000000e+00 -5.670075919512e+06 2.482415982176e-03 -1.323017714453e+07 -5.670075919211e+06 0.000000000000e+00 0.000000000000e+00 0.000000000000e+00 0.000000000000e+00 
7.385551708030e-01 6.511055808615e-01 0.000000000000e+00 0.000000000000e+00 0.000000000000e+00 -5.668394638700e+06 2.469780968059e-03 -1.322625416452e+07 -5.668394640965e+06 0.000000000000e+00 0.000000000000e+00 0.000000000000e+00 0.000000000000e+00 
0.000000000000e+00 1.140000000000e+00 0.000000000000e+00 0.000000000000e+00 0.000000000000e+00 -5.662701492715e+06 1.303262163430e-03 -1.321297014916e+07 -5.662701492563e+06 0.000000000000e+00 0.000000000000e+00 0.000000000000e+00 0.000000000000e+00 
4.367444702627e-01 3.112762776229e-01 0.000000000000e+00 0.000000000000e+00 0.000000000000e+00 -5.672252234759e+06 6.310906213568e-04 -1.323525522652e+07 -5.672252238385e+06 0.000000000000e+00 0.000000000000e+00 0.000000000000e+00 0.000000000000e+00 
3.181980515339e-01 3.181980515339e-01 0.000000000000e+00 0.000000000000e+00 0.000000000000e+00 -5.672174660919e+06 -6.174192211626e-04 -1.323507421368e+07 -5.672174662379e+06 0.000000000000e+00 0.000000000000e+00 0.000000000000e+00 0.000000000000e+00 
4.171770108882e-01 3.968810810960e-01 0.000000000000e+00 0.000000000000e+00 0.000000000000e+00 -5.671274593937e+06 2.454684129275e-03 -1.323297405915e+07 -5.671274595928e+06 0.000000000000e+00 0.000000000000e+00 0.000000000000e+00 0.000000000000e+00 
8.130069997139e-01 3.300269882479e-01 0.000000000000e+00 0.000000000000e+00 0.000000000000e+00 -5.672015649016e+06 1.327242120814e-03 -1.323470319646e+07 -5.672015653644e+06 0.000000000000e+00 0.000000000000e+00 0.000000000000e+00 0.000000000000e+00 
2.302046756190e-01 7.019914859149e-01 0.000000000000e+00 0.000000000000e+00 0.000000000000e+00 -5.667817007654e+06 2.417320854408e-03 -1.322490635245e+07 -5.667817008032e+06 0.000000000000e+00 0.000000000000e+00 0.000000000000e+00 0.000000000000e+00 
3.281978317700e-01 4.243957902718e-01 0.000000000000e+00 0.000000000000e+00 0.000000000000e+00 -5.670968150931e+06 2.582462377846e-03 -1.323225902628e+07 -5.670968153163e+06 0.000000000000e+00 0.000000000000e+00 0.000000000000e+00 0.000000000000e+00 
6.333500656423e-01 9.478753580249e-01 0.000000000000e+00 0.000000000000e+00 0.000000000000e+00 -5.665083049796e+06 1.581639318566e-03 -1.321852712269e+07 -5.665083051747e+06 0.000000000000e+00 0.000000000000e+00 0.000000000000e+00 0.000000000000e+00 
8.061017305527e-01 8.061017305527e-01 0.000000000000e+00 0.000000000000e+00 0.000000000000e+00 -5.666638720945e+06 2.851617031301e-03 -1.322215702585e+07 -5.666638724040e+06 0.000000000000e+00 0.000000000000e+00 0.000000000000e+00 0.000000000000e+00 
3.956911463744e-01 5.124636225679e-01 0.000000000000e+00 0.000000000000e+00 0.000000000000e+00 -5.669978198612e+06 2.064320936412e-03 -1.322994913535e+07 -5.669978200189e+06 0.000000000000e+00 0.000000000000e+00 0.000000000000e+00 0.000000000000e+00 
9.478753580249e-01 6.333500656423e-01 0.000000000000e+00 0.000000000000e+00 0.000000000000e+00 -5.668581472226e+06 2.310015604727e-03 -1.322669011464e+07 -5.668581476059e+06 0.000000000000e+00 0.000000000000e+00 0.000000000000e+00 0.000000000000e+00 
6.536499690359e-01 0.000000000000e+00 0.000000000000e+00 0.000000000000e+00 0.000000000000e+00 -5.675785708210e+06 -1.989592279454e-04 -1.324350000025e+07 -5.675785712538e+06 0.000000000000e+00 0.000000000000e+00 0.000000000000e+00 0.000000000000e+00 
6.796849806491e-01 9.903948014293e-02 0.000000000000e+00 0.000000000000e+00 0.000000000000e+00 -5.674661459660e+06 -4.560394370697e-04 -1.324087674503e+07 -5.674661461408e+06 0.000000000000e+00 0.000000000000e+00 0.000000000000e+00 0.000000000000e+00 
0.000000000000e+00 6.536499690359e-01 0.000000000000e+00 0.000000000000e+00 0.000000000000e+00 -5.668277818160e+06 2.540204513971e-03 -1.322598157247e+07 -5.668277817189e+06 0.000000000000e+00 0.000000000000e+00 0.000000000000e+00 0.000000000000e+00 
1.073908802677e-01 6.708041116246e-01 0.000000000000e+00 0.000000000000e+00 0.000000000000e+00 -5.668110218944e+06 2.241505888783e-03 -1.322559051281e+07 -5.668110219527e+06 0.000000000000e+00 0.000000000000e+00 0.000000000000e+00 0.000000000000e+00 
1.140000000000e+00 0.000000000000e+00 0.000000000000e+00 0.000000000000e+00 0.000000000000e+00 -5.675785708050e+06 -1.191295527048e-04 -1.324350000074e+07 -5.675785712638e+06 0.000000000000e+00 0.000000000000e+00 0.000000000000e+00 0.000000000000e+00 
1.118095219660e+00 2.224029670984e-01 0.000000000000e+00 0.000000000000e+00 0.000000000000e+00 -5.673183775348e+06 7.031716436568e-04 -1.323742882059e+07 -5.673183778782e+06 0.000000000000e+00 0.000000000000e+00 0.000000000000e+00 0.000000000000e+00 
3.237018493841e-01 6.084057693700e-01 0.000000000000e+00 0.000000000000e+00 0.000000000000e+00 -5.668892402551e+06 2.539706336973e-03 -1.322741560978e+07 -5.668892403699e+06 0.000000000000e+00 0.000000000000e+00 0.000000000000e+00 0.000000000000e+00 
1.943668820947e-01 5.961168951400e-01 0.000000000000e+00 0.000000000000e+00 0.000000000000e+00 -5.668991275135e+06 2.644966985223e-03 -1.322764631457e+07 -5.668991276911e+06 0.000000000000e+00 0.000000000000e+00 0.000000000000e+00 0.000000000000e+00 
4.991830586611e-01 1.592358963502e-01 0.000000000000e+00 0.000000000000e+00 0.000000000000e+00 -5.673978131077e+06 8.945266180204e-04 -1.323928231849e+07 -5.673978134870e+06 0.000000000000e+00 0.000000000000e+00 0.000000000000e+00 0.000000000000e+00 
2.153237403070e-01 1.221161613735e+00 0.000000000000e+00 0.000000000000e+00 0.000000000000e+00 -5.661793901349e+06 2.419458864025e-03 -1.321085243410e+07 -5.661793900635e+06 0.000000000000e+00 0.000000000000e+00 0.000000000000e+00 0.000000000000e+00 
1.221161613735e+00 2.153237403070e-01 0.000000000000e+00 0.000000000000e+00 0.000000000000e+00 -5.673166067742e+06 1.530617690997e-03 -1.323738750683e+07 -5.673166072371e+06 0.000000000000e+00 0.000000000000e+00 0.000000000000e+00 0.000000000000e+00 
0.000000000000e+00 1.240000000000e+00 0.000000000000e+00 0.000000000000e+00 0.000000000000e+00 -5.661472704252e+06 1.968229858535e-03 -1.321010297757e+07 -5.661472704546e+06 0.000000000000e+00 0.000000000000e+00 0.000000000000e+00 0.000000000000e+00 
1.240000000000e+00 0.000000000000e+00 0.000000000000e+00 0.000000000000e+00 0.000000000000e+00 -5.675785708105e+06 1.137989793070e-04 -1.324350000069e+07 -5.675785712638e+06 0.000000000000e+00 0.000000000000e+00 0.000000000000e+00 0.000000000000e+00 
1.165218849775e+00 4.241049777238e-01 0.000000000000e+00 0.000000000000e+00 0.000000000000e+00 -5.670837754504e+06 1.215048509337e-03 -1.323195477294e+07 -5.670837758233e+06 0.000000000000e+00 0.000000000000e+00 0.000000000000e+00 0.000000000000e+00 
4.241049777238e-01 1.165218849775e+00 0.000000000000e+00 0.000000000000e+00 0.000000000000e+00 -5.662418399139e+06 2.839582943188e-03 -1.321230960262e+07 -5.662418400528e+06 0.000000000000e+00 0.000000000000e+00 0.000000000000e+00 0.000000000000e+00 
6.200000000000e-01 1.073871500693e+00 0.000000000000e+00 0.000000000000e+00 0.000000000000e+00 -5.663396861035e+06 2.298640563267e-03 -1.321459268269e+07 -5.663396863119e+06 0.000000000000e+00 0.000000000000e+00 0.000000000000e+00 0.000000000000e+00 
1.073871500693e+00 6.200000000000e-01 0.000000000000e+00 0.000000000000e+00 0.000000000000e+00 -5.668559426619e+06 2.282218885029e-03 -1.322663867190e+07 -5.668559429555e+06 0.000000000000e+00 0.000000000000e+00 0.000000000000e+00 0.000000000000e+00 
9.498951094675e-01 7.970566360113e-01 0.000000000000e+00 0.000000000000e+00 0.000000000000e+00 -5.666522386881e+06 2.654816359626e-03 -1.322188557703e+07 -5.666522389173e+06 0.000000000000e+00 0.000000000000e+00 0.000000000000e+00 0.000000000000e+00 
7.970566360113e-01 9.498951094675e-01 0.000000000000e+00 0.000000000000e+00 0.000000000000e+00 -5.664837177280e+06 2.777243356941e-03 -1.321795342035e+07 -5.664837179289e+06 0.000000000000e+00 0.000000000000e+00 0.000000000000e+00 0.000000000000e+00 
9.126820546328e-01 2.823015424662e+00 0.000000000000e+00 0.000000000000e+00 0.000000000000e+00 -5.643866402564e+06 7.378157024087e-04 -1.316902160627e+07 -5.643866402650e+06 0.000000000000e+00 0.000000000000e+00 0.000000000000e+00 0.000000000000e+00 
1.465104840998e+00 2.436551828030e+00 0.000000000000e+00 0.000000000000e+00 0.000000000000e+00 -5.648038516361e+06 1.318647826259e-03 -1.317875654020e+07 -5.648038516968e+06 0.000000000000e+00 0.000000000000e+00 0.000000000000e+00 0.000000000000e+00 
1.422681175982e+00 3.256557742335e+00 0.000000000000e+00 0.000000000000e+00 0.000000000000e+00 -5.638589138719e+06 9.616917750036e-04 -1.315670799136e+07 -5.638589139023e+06 0.000000000000e+00 0.000000000000e+00 0.000000000000e+00 0.000000000000e+00 
4.830946886447e-01 1.653095271723e+00 0.000000000000e+00 0.000000000000e+00 0.000000000000e+00 -5.657099073378e+06 1.472196059267e-03 -1.319989783876e+07 -5.657099073641e+06 0.000000000000e+00 0.000000000000e+00 0.000000000000e+00 0.000000000000e+00 
9.070975749545e-01 1.456406576746e+00 0.000000000000e+00 0.000000000000e+00 0.000000000000e+00 -5.659516897789e+06 2.081375714586e-03 -1.320553943159e+07 -5.659516898813e+06 0.000000000000e+00 0.000000000000e+00 0.000000000000e+00 0.000000000000e+00 
9.769180272609e-01 1.917342174029e+00 0.000000000000e+00 0.000000000000e+00 0.000000000000e+00 -5.653983190346e+06 1.324221181427e-03 -1.319262744521e+07 -5.653983190667e+06 0.000000000000e+00 0.000000000000e+00 0.000000000000e+00 0.000000000000e+00 
4.888451572198e+00 1.654973103015e+00 0.000000000000e+00 0.000000000000e+00 0.000000000000e+00 -5.657367617002e+06 6.696919439047e-04 -1.320052444536e+07 -5.657367618709e+06 0.000000000000e+00 0.000000000000e+00 0.000000000000e+00 0.000000000000e+00 
5.744718117337e+00 1.046974635846e+00 0.000000000000e+00 0.000000000000e+00 0.000000000000e+00 -5.664519242871e+06 3.541824103194e-04 -1.321721157248e+07 -5.664519244605e+06 0.000000000000e+00 0.000000000000e+00 0.000000000000e+00 0.000000000000e+00 
5.815248921403e+00 2.743861934776e+00 0.000000000000e+00 0.000000000000e+00 0.000000000000e+00 -5.644645560725e+06 6.483701351809e-04 -1.317083964556e+07 -5.644645561886e+06 0.000000000000e+00 0.000000000000e+00 0.000000000000e+00 0.000000000000e+00 
0.000000000000e+00 5.428028782210e+00 0.000000000000e+00 0.000000000000e+00 0.000000000000e+00 -5.613687394260e+06 1.422814264318e-04 -1.309860391990e+07 -5.613687394247e+06 0.000000000000e+00 0.000000000000e+00 0.000000000000e+00 0.000000000000e+00 
1.173319728299e+00 5.801563455476e+00 0.000000000000e+00 0.000000000000e+00 0.000000000000e+00 -5.609671987985e+06 2.173102554385e-04 -1.308923463869e+07 -5.609671988002e+06 0.000000000000e+00 0.000000000000e+00 0.000000000000e+00 0.000000000000e+00 
0.000000000000e+00 6.278086851761e+00 0.000000000000e+00 0.000000000000e+00 0.000000000000e+00 -5.603616805260e+06 2.883510737876e-04 -1.307510587883e+07 -5.603616805227e+06 0.000000000000e+00 0.000000000000e+00 0.000000000000e+00 0.000000000000e+00 
2.558112980483e+00 4.012140364017e+00 0.000000000000e+00 0.000000000000e+00 0.000000000000e+00 -5.630357347010e+06 7.479894107944e-04 -1.313750047734e+07 -5.630357347304e+06 0.000000000000e+00 0.000000000000e+00 0.000000000000e+00 0.000000000000e+00 
1.740539943909e+00 3.985668263965e+00 0.000000000000e+00 0.000000000000e+00 0.000000000000e+00 -5.630542115626e+06 8.824504962227e-04 -1.313793160422e+07 -5.630542115955e+06 0.000000000000e+00 0.000000000000e+00 0.000000000000e+00 0.000000000000e+00 
2.173879176485e+00 2.953956310327e+00 0.000000000000e+00 0.000000000000e+00 0.000000000000e+00 -5.642108279045e+06 1.068544069110e-03 -1.316491931957e+07 -5.642108279584e+06 0.000000000000e+00 0.000000000000e+00 0.000000000000e+00 0.000000000000e+00 
6.834535249966e+00 1.500115342452e+00 0.000000000000e+00 0.000000000000e+00 0.000000000000e+00 -5.658522359745e+06 3.383616345712e-04 -1.320321884441e+07 -5.658522361246e+06 0.000000000000e+00 0.000000000000e+00 0.000000000000e+00 0.000000000000e+00 
2.312125944166e+00 5.124225865783e+00 0.000000000000e+00 0.000000000000e+00 0.000000000000e+00 -5.617525770771e+06 4.548889754902e-04 -1.310756013235e+07 -5.617525770938e+06 0.000000000000e+00 0.000000000000e+00 0.000000000000e+00 0.000000000000e+00 
1.235648593543e+00 4.623666072542e+00 0.000000000000e+00 0.000000000000e+00 0.000000000000e+00 -5.623573041300e+06 2.673627730653e-04 -1.312167043009e+07 -5.623573041416e+06 0.000000000000e+00 0.000000000000e+00 0.000000000000e+00 0.000000000000e+00 
9.644492689762e-01 3.255362372319e+00 0.000000000000e+00 0.000000000000e+00 0.000000000000e+00 -5.638832235778e+06 1.061965463928e-03 -1.315727521693e+07 -5.638832235814e+06 0.000000000000e+00 0.000000000000e+00 0.000000000000e+00 0.000000000000e+00 
4.833868992114e+00 8.748937999735e+00 0.000000000000e+00 0.000000000000e+00 0.000000000000e+00 -5.576487777417e+06 1.858822924643e-04 -1.301180481420e+07 -5.576487777484e+06 0.000000000000e+00 0.000000000000e+00 0.000000000000e+00 0.000000000000e+00 
3.380756637548e+00 8.933812247663e+00 0.000000000000e+00 0.000000000000e+00 0.000000000000e+00 -5.574372906191e+06 1.009106808679e-04 -1.300687011465e+07 -5.574372906252e+06 0.000000000000e+00 0.000000000000e+00 0.000000000000e+00 0.000000000000e+00 
3.967502998825e+00 7.050894084890e+00 0.000000000000e+00 0.000000000000e+00 0.000000000000e+00 -5.595640084563e+06 4.114096883680e-04 -1.305649353121e+07 -5.595640084733e+06 0.000000000000e+00 0.000000000000e+00 0.000000000000e+00 0.000000000000e+00 
2.842422947327e+00 7.484243079138e+00 0.000000000000e+00 0.000000000000e+00 0.000000000000e+00 -5.590151987722e+06 2.884055618967e-04 -1.304368797179e+07 -5.590151987853e+06 0.000000000000e+00 0.000000000000e+00 0.000000000000e+00 0.000000000000e+00 
1.359733883415e+00 1.423334678283e+00 0.000000000000e+00 0.000000000000e+00 0.000000000000e+00 -5.659587648346e+06 2.112511776975e-03 -1.320570451754e+07 -5.659587649765e+06 0.000000000000e+00 0.000000000000e+00 0.000000000000e+00 0.000000000000e+00 
1.589643723422e+00 1.873186873279e+00 0.000000000000e+00 0.000000000000e+00 0.000000000000e+00 -5.654447340730e+06 1.411902112319e-03 -1.319371046458e+07 -5.654447341594e+06 0.000000000000e+00 0.000000000000e+00 0.000000000000e+00 0.000000000000e+00 
3.305634118726e+00 1.437817075962e+00 0.000000000000e+00 0.000000000000e+00 0.000000000000e+00 -5.659270501282e+06 1.077638579334e-03 -1.320496450956e+07 -5.659270503253e+06 0.000000000000e+00 0.000000000000e+00 0.000000000000e+00 0.000000000000e+00 
2.476827672014e+00 1.473701957247e+00 0.000000000000e+00 0.000000000000e+00 0.000000000000e+00 -5.659160321052e+06 1.274908886617e-03 -1.320470742243e+07 -5.659160323046e+06 0.000000000000e+00 0.000000000000e+00 0.000000000000e+00 0.000000000000e+00 
2.823476133693e+00 8.762389950237e-01 0.000000000000e+00 0.000000000000e+00 0.000000000000e+00 -5.666025539178e+06 9.650933898196e-04 -1.322072626684e+07 -5.666025541804e+06 0.000000000000e+00 0.000000000000e+00 0.000000000000e+00 0.000000000000e+00 
1.911064785850e+00 8.726435894487e-01 0.000000000000e+00 0.000000000000e+00 0.000000000000e+00 -5.665612927999e+06 1.602731925097e-03 -1.321976350701e+07 -5.665612930502e+06 0.000000000000e+00 0.000000000000e+00 0.000000000000e+00 0.000000000000e+00 
1.480658185310e+00 9.441705426826e-01 0.000000000000e+00 0.000000000000e+00 0.000000000000e+00 -5.665167368183e+06 2.215995816333e-03 -1.321872386777e+07 -5.665167370785e+06 0.000000000000e+00 0.000000000000e+00 0.000000000000e+00 0.000000000000e+00 
1.660663097753e+00 4.793189421322e-01 0.000000000000e+00 0.000000000000e+00 0.000000000000e+00 -5.670425917582e+06 1.003089764622e-03 -1.323099381999e+07 -5.670425921272e+06 0.000000000000e+00 0.000000000000e+00 0.000000000000e+00 0.000000000000e+00 
0.000000000000e+00 3.420000000000e+00 0.000000000000e+00 0.000000000000e+00 0.000000000000e+00 -5.636547450778e+06 5.755708706416e-04 -1.315194405165e+07 -5.636547450727e+06 0.000000000000e+00 0.000000000000e+00 0.000000000000e+00 0.000000000000e+00 
7.964725740007e-01 3.746583986747e+00 0.000000000000e+00 0.000000000000e+00 0.000000000000e+00 -5.633022904145e+06 3.167043506008e-04 -1.314372011052e+07 -5.633022904400e+06 0.000000000000e+00 0.000000000000e+00 0.000000000000e+00 0.000000000000e+00 
0.000000000000e+00 4.009542446487e+00 0.000000000000e+00 0.000000000000e+00 0.000000000000e+00 -5.629631985633e+06 5.106054764663e-04 -1.313580796621e+07 -5.629631985554e+06 0.000000000000e+00 0.000000000000e+00 0.000000000000e+00 0.000000000000e+00 
6.704045013900e+00 7.961841063371e+00 0.000000000000e+00 0.000000000000e+00 0.000000000000e+00 -5.585091025685e+06 3.072754752076e-04 -1.303187906072e+07 -5.585091025921e+06 0.000000000000e+00 0.000000000000e+00 0.000000000000e+00 0.000000000000e+00 
8.787859058236e+00 9.331273264579e+00 0.000000000000e+00 0.000000000000e+00 0.000000000000e+00 -5.569861098738e+06 1.623403156917e-04 -1.299634256474e+07 -5.569861099042e+06 0.000000000000e+00 0.000000000000e+00 0.000000000000e+00 0.000000000000e+00 
7.294934425517e+00 1.032749884486e+01 0.000000000000e+00 0.000000000000e+00 0.000000000000e+00 -5.558272700887e+06 1.626405192266e-04 -1.296930296922e+07 -5.558272701032e+06 0.000000000000e+00 0.000000000000e+00 0.000000000000e+00 0.000000000000e+00 
9.374625952803e-01 2.376430442774e+00 0.000000000000e+00 0.000000000000e+00 0.000000000000e+00 -5.648809494199e+06 1.093324149164e-03 -1.318055548615e+07 -5.648809494104e+06 0.000000000000e+00 0.000000000000e+00 0.000000000000e+00 0.000000000000e+00 
4.667604276772e-01 2.102745086855e+00 0.000000000000e+00 0.000000000000e+00 0.000000000000e+00 -5.651561075837e+06 1.005295235708e-03 -1.318697584306e+07 -5.651561075668e+06 0.000000000000e+00 0.000000000000e+00 0.000000000000e+00 0.000000000000e+00 
6.053877643748e-01 1.361938885461e+00 0.000000000000e+00 0.000000000000e+00 0.000000000000e+00 -5.660385000949e+06 1.594955174581e-03 -1.320756500251e+07 -5.660385001038e+06 0.000000000000e+00 0.000000000000e+00 0.000000000000e+00 0.000000000000e+00 
2.942602954648e+00 2.220914616281e+00 0.000000000000e+00 0.000000000000e+00 0.000000000000e+00 -5.649991218351e+06 1.318923602812e-03 -1.318331284684e+07 -5.649991219556e+06 0.000000000000e+00 0.000000000000e+00 0.000000000000e+00 0.000000000000e+00 
4.482358406394e+00 2.869215699304e+00 0.000000000000e+00 0.000000000000e+00 0.000000000000e+00 -5.643595837505e+06 8.766079438490e-04 -1.316839029136e+07 -5.643595838661e+06 0.000000000000e+00 0.000000000000e+00 0.000000000000e+00 0.000000000000e+00 
4.633649783484e+00 0.000000000000e+00 0.000000000000e+00 0.000000000000e+00 0.000000000000e+00 -5.675785711199e+06 2.185126488754e-05 -1.324350000010e+07 -5.675785713389e+06 0.000000000000e+00 0.000000000000e+00 0.000000000000e+00 0.000000000000e+00 
4.163379759845e+00 9.557854181675e-01 0.000000000000e+00 0.000000000000e+00 0.000000000000e+00 -5.664788841045e+06 5.860321955971e-04 -1.321784063597e+07 -5.664788843103e+06 0.000000000000e+00 0.000000000000e+00 0.000000000000e+00 0.000000000000e+00 
3.972609728322e+00 0.000000000000e+00 0.000000000000e+00 0.000000000000e+00 0.000000000000e+00 -5.675785710865e+06 7.792644909969e-05 -1.324350000010e+07 -5.675785713291e+06 0.000000000000e+00 0.000000000000e+00 0.000000000000e+00 0.000000000000e+00 
8.812823687237e+00 7.720887913704e+00 0.000000000000e+00 0.000000000000e+00 0.000000000000e+00 -5.588933209412e+06 3.121849511450e-04 -1.304084415679e+07 -5.588933209860e+06 0.000000000000e+00 0.000000000000e+00 0.000000000000e+00 0.000000000000e+00 
1.474449693823e+01 8.667093029504e+00 0.000000000000e+00 0.000000000000e+00 0.000000000000e+00 -5.579542310867e+06 1.145223294757e-04 -1.301893206057e+07 -5.579542311432e+06 0.000000000000e+00 0.000000000000e+00 0.000000000000e+00 0.000000000000e+00 
1.267928763497e+01 7.280291238065e+00 0.000000000000e+00 0.000000000000e+00 0.000000000000e+00 -5.592317316320e+06 1.632982685446e-04 -1.304874040672e+07 -5.592317316912e+06 0.000000000000e+00 0.000000000000e+00 0.000000000000e+00 0.000000000000e+00 
1.523262243528e+01 5.446667986122e+00 0.000000000000e+00 0.000000000000e+00 0.000000000000e+00 -5.615900675730e+06 9.487028476435e-05 -1.310376824603e+07 -5.615900676528e+06 0.000000000000e+00 0.000000000000e+00 0.000000000000e+00 0.000000000000e+00 