 TITLE = "Time curves in points"
 VARIABLES = "TIME"  "DISPLACEMENT_X1"  "DISPLACEMENT_Y1"  "STRESS_XX"  "STRESS_XY"  "STRESS_YY"  "STRESS_ZZ"  "STRAIN_XX"  "STRAIN_XY"  "STRAIN_YY"  "STRAIN_PLS"  p_(1st_Invariant)  q_(2nd_Invariant)   Effective_Strain
 ZONE T="POINT=POINT8"
0.000000000000e+00 0.000000000000e+00 0.000000000000e+00 -5.675785709769e+06 8.232808140270e-05 -1.324350000099e+07 -5.675785713227e+06 0.000000000000e+00 0.000000000000e+00 0.000000000000e+00 0.000000000000e+00 8.198357141328e+06 7.567714289490e+06  0.000000000000e+00
2.000000000000e-02 3.497253277453e-06 -2.229711581285e-05 -6.419782128928e+06 -3.031219027308e+03 -1.635737979687e+07 -6.833148577740e+06 1.535361082743e-05 -2.251762767158e-07 -7.267062887951e-05 0.000000000000e+00 9.870103501180e+06 9.737498515435e+06  8.144115872611e-05
