 TITLE = "Time curves in points"
 VARIABLES = "TIME"  "DISPLACEMENT_X1"  "DISPLACEMENT_Y1"  "STRESS_XX"  "STRESS_XY"  "STRESS_YY"  "STRESS_ZZ"  "STRAIN_XX"  "STRAIN_XY"  "STRAIN_YY"  "STRAIN_PLS"  p_(1st_Invariant)  q_(2nd_Invariant)   Effective_Strain
 ZONE T="POINT=POINT13"
0.000000000000e+00 0.000000000000e+00 0.000000000000e+00 -5.675785710730e+06 -2.306732863196e-04 -1.324350000053e+07 -5.675785713377e+06 0.000000000000e+00 0.000000000000e+00 0.000000000000e+00 0.000000000000e+00 8.198357141544e+06 7.567714288472e+06  0.000000000000e+00
2.000000000000e-02 9.416905868025e-06 -2.259652135654e-05 -6.210294180645e+06 -1.718945601912e+03 -1.449859002368e+07 -6.212665261299e+06 8.806861168829e-08 -1.276930847206e-07 -2.667638908020e-05 0.000000000000e+00 8.973849821876e+06 8.287111091940e+06  2.672144755738e-05
