 TITLE = "Profiles along polylines"
 VARIABLES = "DIST" "DISPLACEMENT_X1" "DISPLACEMENT_Y1" "STRESS_XX" "STRESS_XY" "STRESS_YY" "STRESS_ZZ" "STRAIN_XX" "STRAIN_XY" "STRAIN_YY" "STRAIN_PLS"  p_(1st_Invariant)  q_(2nd_Invariant)   Effective_Strain
 ZONE T="TIME=0.000000000000e+00"
0.000000000000e+00 0.000000000000e+00 0.000000000000e+00 -1.134365859629e+07 -1.976972727012e-06 -2.646853672468e+07 -1.134365859629e+07 0.000000000000e+00 0.000000000000e+00 0.000000000000e+00 0.000000000000e+00 1.638528463909e+07 1.512487812838e+07  0.000000000000e+00
7.070220833141e+00 0.000000000000e+00 0.000000000000e+00 -1.126604286932e+07 7.125212193930e-08 -2.628743336172e+07 -1.126604286931e+07 0.000000000000e+00 0.000000000000e+00 0.000000000000e+00 0.000000000000e+00 1.627317303345e+07 1.502139049241e+07  0.000000000000e+00
1.414774882844e+01 0.000000000000e+00 0.000000000000e+00 -1.118426850698e+07 -1.268632375373e-06 -2.609662651628e+07 -1.118426850698e+07 0.000000000000e+00 0.000000000000e+00 0.000000000000e+00 0.000000000000e+00 1.615505451008e+07 1.491235800930e+07  0.000000000000e+00
2.124946316189e+01 0.000000000000e+00 0.000000000000e+00 -1.110589528844e+07 -1.694401811848e-06 -2.591375567305e+07 -1.110589528844e+07 0.000000000000e+00 0.000000000000e+00 0.000000000000e+00 0.000000000000e+00 1.604184874998e+07 1.480786038460e+07  0.000000000000e+00
2.836603873868e+01 0.000000000000e+00 0.000000000000e+00 -1.102284878030e+07 1.947057984778e-06 -2.571998048742e+07 -1.102284878031e+07 0.000000000000e+00 0.000000000000e+00 0.000000000000e+00 0.000000000000e+00 1.592189268268e+07 1.469713170711e+07  0.000000000000e+00
3.549924657106e+01 0.000000000000e+00 0.000000000000e+00 -1.094412870439e+07 -1.731943470407e-07 -2.553630031028e+07 -1.094412870440e+07 0.000000000000e+00 0.000000000000e+00 0.000000000000e+00 0.000000000000e+00 1.580818590636e+07 1.459217160588e+07  0.000000000000e+00
4.265511446664e+01 0.000000000000e+00 0.000000000000e+00 -1.086060445399e+07 7.375354778471e-07 -2.534141039264e+07 -1.086060445399e+07 0.000000000000e+00 0.000000000000e+00 0.000000000000e+00 0.000000000000e+00 1.568753976687e+07 1.448080593865e+07  0.000000000000e+00
4.981981579660e+01 0.000000000000e+00 0.000000000000e+00 -1.078152199884e+07 1.551127274760e-06 -2.515688466393e+07 -1.078152199883e+07 0.000000000000e+00 0.000000000000e+00 0.000000000000e+00 0.000000000000e+00 1.557330955387e+07 1.437536266509e+07  0.000000000000e+00
5.701521859668e+01 0.000000000000e+00 0.000000000000e+00 -1.069756261696e+07 -6.541816441591e-07 -2.496097943953e+07 -1.069756261695e+07 0.000000000000e+00 0.000000000000e+00 0.000000000000e+00 0.000000000000e+00 1.545203489115e+07 1.426341682257e+07  0.000000000000e+00
6.421890326873e+01 0.000000000000e+00 0.000000000000e+00 -1.061806551723e+07 -4.886091457241e-07 -2.477548620682e+07 -1.061806551721e+07 0.000000000000e+00 0.000000000000e+00 0.000000000000e+00 0.000000000000e+00 1.533720574709e+07 1.415742068960e+07  0.000000000000e+00
7.144659158985e+01 0.000000000000e+00 0.000000000000e+00 -1.053371251624e+07 -1.397392966713e-06 -2.457866253790e+07 -1.053371251624e+07 0.000000000000e+00 0.000000000000e+00 0.000000000000e+00 0.000000000000e+00 1.521536252346e+07 1.404495002166e+07  0.000000000000e+00
7.869028999687e+01 0.000000000000e+00 0.000000000000e+00 -1.045378569128e+07 -1.453340578818e-06 -2.439216661301e+07 -1.045378569129e+07 0.000000000000e+00 0.000000000000e+00 0.000000000000e+00 0.000000000000e+00 1.509991266519e+07 1.393838092173e+07  0.000000000000e+00
8.594947181161e+01 0.000000000000e+00 0.000000000000e+00 -1.036903873209e+07 3.112957570966e-06 -2.419442370826e+07 -1.036903873211e+07 0.000000000000e+00 0.000000000000e+00 0.000000000000e+00 0.000000000000e+00 1.497750039082e+07 1.382538497617e+07  0.000000000000e+00
9.323342025208e+01 0.000000000000e+00 0.000000000000e+00 -1.028864481557e+07 9.399198833777e-07 -2.400683790302e+07 -1.028864481558e+07 0.000000000000e+00 0.000000000000e+00 0.000000000000e+00 0.000000000000e+00 1.486137584472e+07 1.371819308745e+07  0.000000000000e+00
1.005263594919e+02 0.000000000000e+00 0.000000000000e+00 -1.020351933283e+07 5.682331386051e-07 -2.380821177660e+07 -1.020351933283e+07 0.000000000000e+00 0.000000000000e+00 0.000000000000e+00 0.000000000000e+00 1.473841681409e+07 1.360469244377e+07  0.000000000000e+00
1.078485282901e+02 0.000000000000e+00 0.000000000000e+00 -1.012268572547e+07 9.846779730624e-07 -2.361960002605e+07 -1.012268572546e+07 0.000000000000e+00 0.000000000000e+00 0.000000000000e+00 0.000000000000e+00 1.462165715899e+07 1.349691430059e+07  0.000000000000e+00
1.151821840634e+02 0.000000000000e+00 0.000000000000e+00 -1.003712619903e+07 -3.047766440339e-06 -2.341996113102e+07 -1.003712619901e+07 0.000000000000e+00 0.000000000000e+00 0.000000000000e+00 0.000000000000e+00 1.449807117635e+07 1.338283493199e+07  0.000000000000e+00
1.225358463513e+02 0.000000000000e+00 0.000000000000e+00 -9.955975018036e+06 -9.639205981362e-07 -2.323060837539e+07 -9.955975018027e+06 0.000000000000e+00 0.000000000000e+00 0.000000000000e+00 0.000000000000e+00 1.438085280382e+07 1.327463335736e+07  0.000000000000e+00
1.299104489107e+02 0.000000000000e+00 0.000000000000e+00 -9.869911700802e+06 -2.524615725401e-06 -2.302979396856e+07 -9.869911700810e+06 0.000000000000e+00 0.000000000000e+00 0.000000000000e+00 0.000000000000e+00 1.425653912339e+07 1.315988226776e+07  0.000000000000e+00
1.372956046872e+02 0.000000000000e+00 0.000000000000e+00 -9.788396155991e+06 -2.425693860519e-06 -2.283959103068e+07 -9.788396156001e+06 0.000000000000e+00 0.000000000000e+00 0.000000000000e+00 0.000000000000e+00 1.413879444756e+07 1.305119487468e+07  0.000000000000e+00
1.447113823214e+02 0.000000000000e+00 0.000000000000e+00 -9.701848094486e+06 2.660835998355e-06 -2.263764555386e+07 -9.701848094502e+06 0.000000000000e+00 0.000000000000e+00 0.000000000000e+00 0.000000000000e+00 1.401378058095e+07 1.293579745936e+07  0.000000000000e+00
1.521370678941e+02 0.000000000000e+00 0.000000000000e+00 -9.619894655852e+06 2.856409390237e-06 -2.244642086369e+07 -9.619894655863e+06 0.000000000000e+00 0.000000000000e+00 0.000000000000e+00 0.000000000000e+00 1.389540339180e+07 1.282652620783e+07  0.000000000000e+00
1.595852106441e+02 0.000000000000e+00 0.000000000000e+00 -9.532976028711e+06 1.227279792513e-06 -2.224361073364e+07 -9.532976028704e+06 0.000000000000e+00 0.000000000000e+00 0.000000000000e+00 0.000000000000e+00 1.376985426368e+07 1.271063470493e+07  0.000000000000e+00
1.670525220784e+02 0.000000000000e+00 0.000000000000e+00 -9.450560984529e+06 3.079875504678e-06 -2.205130896386e+07 -9.450560984517e+06 0.000000000000e+00 0.000000000000e+00 0.000000000000e+00 0.000000000000e+00 1.365081031097e+07 1.260074797934e+07  0.000000000000e+00
1.745321583134e+02 0.000000000000e+00 0.000000000000e+00 -9.363270169097e+06 -1.879191098789e-06 -2.184763039450e+07 -9.363270169079e+06 0.000000000000e+00 0.000000000000e+00 0.000000000000e+00 0.000000000000e+00 1.352472357756e+07 1.248436022541e+07  0.000000000000e+00
1.820413181550e+02 0.000000000000e+00 0.000000000000e+00 -9.280392731258e+06 -2.850247044556e-06 -2.165424970624e+07 -9.280392731249e+06 0.000000000000e+00 0.000000000000e+00 0.000000000000e+00 0.000000000000e+00 1.340501172292e+07 1.237385697499e+07  0.000000000000e+00
1.895610536006e+02 0.000000000000e+00 0.000000000000e+00 -9.192680556003e+06 -2.324177323770e-06 -2.144958796402e+07 -9.192680556007e+06 0.000000000000e+00 0.000000000000e+00 0.000000000000e+00 0.000000000000e+00 1.327831635868e+07 1.225690740801e+07  0.000000000000e+00
1.971036768020e+02 0.000000000000e+00 0.000000000000e+00 -9.109774916987e+06 2.841814360993e-06 -2.125614147299e+07 -9.109774916994e+06 0.000000000000e+00 0.000000000000e+00 0.000000000000e+00 0.000000000000e+00 1.315856376899e+07 1.214636655600e+07  0.000000000000e+00
2.046657001721e+02 0.000000000000e+00 0.000000000000e+00 -9.021169951818e+06 -1.349229370204e-07 -2.104939655427e+07 -9.021169951827e+06 0.000000000000e+00 0.000000000000e+00 0.000000000000e+00 0.000000000000e+00 1.303057881931e+07 1.202822660245e+07  0.000000000000e+00
2.122398168550e+02 0.000000000000e+00 0.000000000000e+00 -8.937567454600e+06 1.825351657574e-06 -2.085432406076e+07 -8.937567454609e+06 0.000000000000e+00 0.000000000000e+00 0.000000000000e+00 0.000000000000e+00 1.290981965666e+07 1.191675660616e+07  0.000000000000e+00
2.198443451662e+02 0.000000000000e+00 0.000000000000e+00 -8.848796190801e+06 6.307322971721e-06 -2.064719111191e+07 -8.848796190812e+06 0.000000000000e+00 0.000000000000e+00 0.000000000000e+00 0.000000000000e+00 1.278159449784e+07 1.179839492110e+07  0.000000000000e+00
2.274601001588e+02 0.000000000000e+00 0.000000000000e+00 -8.764734814897e+06 7.883261796198e-06 -2.045104790144e+07 -8.764734814900e+06 0.000000000000e+00 0.000000000000e+00 0.000000000000e+00 0.000000000000e+00 1.266017251041e+07 1.168631308654e+07  0.000000000000e+00
2.350972038012e+02 0.000000000000e+00 0.000000000000e+00 -8.675614736158e+06 1.092486589086e-05 -2.024310105106e+07 -8.675614736165e+06 0.000000000000e+00 0.000000000000e+00 0.000000000000e+00 0.000000000000e+00 1.253144350779e+07 1.156748631490e+07  0.000000000000e+00
2.427558923997e+02 0.000000000000e+00 0.000000000000e+00 -8.591085139385e+06 4.990202665856e-06 -2.004586532524e+07 -8.591085139388e+06 0.000000000000e+00 0.000000000000e+00 0.000000000000e+00 0.000000000000e+00 1.240934520134e+07 1.145478018586e+07  0.000000000000e+00
2.504262328183e+02 0.000000000000e+00 0.000000000000e+00 -8.501572599286e+06 7.990940678627e-06 -1.983700273166e+07 -8.501572599283e+06 0.000000000000e+00 0.000000000000e+00 0.000000000000e+00 0.000000000000e+00 1.228004931007e+07 1.133543013237e+07  0.000000000000e+00
2.581263234159e+02 0.000000000000e+00 0.000000000000e+00 -8.416590200324e+06 7.261189216378e-06 -1.963871046739e+07 -8.416590200315e+06 0.000000000000e+00 0.000000000000e+00 0.000000000000e+00 0.000000000000e+00 1.215729695601e+07 1.122212026707e+07  0.000000000000e+00
2.658400190923e+02 0.000000000000e+00 0.000000000000e+00 -8.326575658918e+06 6.108506240006e-06 -1.942867653744e+07 -8.326575658909e+06 0.000000000000e+00 0.000000000000e+00 0.000000000000e+00 0.000000000000e+00 1.202727595176e+07 1.110210087853e+07  0.000000000000e+00
2.735716031658e+02 0.000000000000e+00 0.000000000000e+00 -8.241246413127e+06 -3.113606238936e-07 -1.922957496394e+07 -8.241246413121e+06 0.000000000000e+00 0.000000000000e+00 0.000000000000e+00 0.000000000000e+00 1.190402259673e+07 1.098832855082e+07  0.000000000000e+00
2.813288623489e+02 0.000000000000e+00 0.000000000000e+00 -8.150717627647e+06 -1.098843535157e-06 -1.901834113115e+07 -8.150717627640e+06 0.000000000000e+00 0.000000000000e+00 0.000000000000e+00 0.000000000000e+00 1.177325879548e+07 1.086762350351e+07  0.000000000000e+00
2.890983981244e+02 0.000000000000e+00 0.000000000000e+00 -8.064972601688e+06 -1.055253047812e-05 -1.881826940393e+07 -8.064972601684e+06 0.000000000000e+00 0.000000000000e+00 0.000000000000e+00 0.000000000000e+00 1.164940486910e+07 1.075329680224e+07  0.000000000000e+00
2.968929691466e+02 0.000000000000e+00 0.000000000000e+00 -7.974000852562e+06 -1.048182566977e-05 -1.860600198932e+07 -7.974000852564e+06 0.000000000000e+00 0.000000000000e+00 0.000000000000e+00 0.000000000000e+00 1.151800123148e+07 1.063200113675e+07  0.000000000000e+00
3.047064798793e+02 0.000000000000e+00 0.000000000000e+00 -7.887772406578e+06 -7.313731321659e-06 -1.840480228199e+07 -7.887772406570e+06 0.000000000000e+00 0.000000000000e+00 0.000000000000e+00 0.000000000000e+00 1.139344903171e+07 1.051702987541e+07  0.000000000000e+00
3.125326753387e+02 0.000000000000e+00 0.000000000000e+00 -7.796417701672e+06 -1.491936322822e-05 -1.819164130387e+07 -7.796417701662e+06 0.000000000000e+00 0.000000000000e+00 0.000000000000e+00 0.000000000000e+00 1.126149223573e+07 1.039522360220e+07  0.000000000000e+00
3.203902333055e+02 0.000000000000e+00 0.000000000000e+00 -7.709685520679e+06 -1.725975725115e-05 -1.798926621488e+07 -7.709685520668e+06 0.000000000000e+00 0.000000000000e+00 0.000000000000e+00 0.000000000000e+00 1.113621241874e+07 1.027958069421e+07  0.000000000000e+00
3.282608085761e+02 0.000000000000e+00 0.000000000000e+00 -7.617842564254e+06 -2.261386264618e-05 -1.777496598322e+07 -7.617842564244e+06 0.000000000000e+00 0.000000000000e+00 0.000000000000e+00 0.000000000000e+00 1.100355037057e+07 1.015712341898e+07  0.000000000000e+00
3.361498600136e+02 0.000000000000e+00 0.000000000000e+00 -7.530768289948e+06 -1.367132606078e-05 -1.757179267652e+07 -7.530768289940e+06 0.000000000000e+00 0.000000000000e+00 0.000000000000e+00 0.000000000000e+00 1.087777641880e+07 1.004102438658e+07  0.000000000000e+00
3.440650150977e+02 0.000000000000e+00 0.000000000000e+00 -7.438409015438e+06 -1.492520123992e-05 -1.735628770267e+07 -7.438409015433e+06 0.000000000000e+00 0.000000000000e+00 0.000000000000e+00 0.000000000000e+00 1.074436857785e+07 9.917878687237e+06  0.000000000000e+00
3.519934549381e+02 0.000000000000e+00 0.000000000000e+00 -7.350906728840e+06 -2.367184009945e-05 -1.715211570063e+07 -7.350906728842e+06 0.000000000000e+00 0.000000000000e+00 0.000000000000e+00 0.000000000000e+00 1.061797638610e+07 9.801208971792e+06  0.000000000000e+00
3.599454933141e+02 0.000000000000e+00 0.000000000000e+00 -7.258101182597e+06 -2.356870189279e-05 -1.693556942605e+07 -7.258101182595e+06 0.000000000000e+00 0.000000000000e+00 0.000000000000e+00 0.000000000000e+00 1.048392393042e+07 9.677468243457e+06  0.000000000000e+00
3.679189082206e+02 0.000000000000e+00 0.000000000000e+00 -7.170103109135e+06 -2.146507167761e-05 -1.673024058802e+07 -7.170103109146e+06 0.000000000000e+00 0.000000000000e+00 0.000000000000e+00 0.000000000000e+00 1.035681560210e+07 9.560137478878e+06  0.000000000000e+00
3.759060000135e+02 0.000000000000e+00 0.000000000000e+00 -7.076892447691e+06 -1.592479857621e-05 -1.651274904465e+07 -7.076892447701e+06 0.000000000000e+00 0.000000000000e+00 0.000000000000e+00 0.000000000000e+00 1.022217798001e+07 9.435856596950e+06  0.000000000000e+00
3.839210253241e+02 0.000000000000e+00 0.000000000000e+00 -6.988535497663e+06 -1.702104743950e-05 -1.630658282788e+07 -6.988535497664e+06 0.000000000000e+00 0.000000000000e+00 0.000000000000e+00 0.000000000000e+00 1.009455127440e+07 9.318047330221e+06  0.000000000000e+00
3.919534812235e+02 0.000000000000e+00 0.000000000000e+00 -6.895839202081e+06 -3.998389345162e-06 -1.609029147160e+07 -6.895839202106e+06 0.000000000000e+00 0.000000000000e+00 0.000000000000e+00 0.000000000000e+00 9.960656625264e+06 9.194452269511e+06  0.000000000000e+00
4.000000000000e+02 0.000000000000e+00 0.000000000000e+00 -6.814580607758e+06 1.288844954717e-06 -1.590068808480e+07 -6.814580607768e+06 0.000000000000e+00 0.000000000000e+00 0.000000000000e+00 0.000000000000e+00 9.843283100109e+06 9.086107477039e+06  0.000000000000e+00
4.078483509821e+02 0.000000000000e+00 0.000000000000e+00 -6.720449515475e+06 -5.110854907615e-06 -1.568104886950e+07 -6.720449515492e+06 0.000000000000e+00 0.000000000000e+00 0.000000000000e+00 0.000000000000e+00 9.707315966822e+06 8.960599354015e+06  0.000000000000e+00
4.152299968033e+02 0.000000000000e+00 0.000000000000e+00 -6.634262111156e+06 -5.596058546516e-06 -1.547994492605e+07 -6.634262111163e+06 0.000000000000e+00 0.000000000000e+00 0.000000000000e+00 0.000000000000e+00 9.582823049458e+06 8.845682814894e+06  0.000000000000e+00
4.221730480211e+02 0.000000000000e+00 0.000000000000e+00 -6.552675400682e+06 1.513082898528e-05 -1.528957593490e+07 -6.552675400676e+06 0.000000000000e+00 0.000000000000e+00 0.000000000000e+00 0.000000000000e+00 9.464975578754e+06 8.736900534226e+06  0.000000000000e+00
4.287030242355e+02 0.000000000000e+00 0.000000000000e+00 -6.479199262895e+06 6.286889930779e-06 -1.511813161339e+07 -6.479199262885e+06 0.000000000000e+00 0.000000000000e+00 0.000000000000e+00 0.000000000000e+00 9.358843379722e+06 8.638932350497e+06  0.000000000000e+00
4.348463496730e+02 0.000000000000e+00 0.000000000000e+00 -6.411850894472e+06 5.991097338080e-06 -1.496098542047e+07 -6.411850894483e+06 0.000000000000e+00 0.000000000000e+00 0.000000000000e+00 0.000000000000e+00 9.261562403143e+06 8.549134525995e+06  0.000000000000e+00
4.406211355678e+02 0.000000000000e+00 0.000000000000e+00 -6.344630105160e+06 -1.039685016617e-05 -1.480413691206e+07 -6.344630105167e+06 0.000000000000e+00 0.000000000000e+00 0.000000000000e+00 0.000000000000e+00 9.164465707463e+06 8.459506806899e+06  0.000000000000e+00
4.460547738156e+02 0.000000000000e+00 0.000000000000e+00 -6.285082929211e+06 -7.874829112640e-07 -1.466519350160e+07 -6.285082929242e+06 0.000000000000e+00 0.000000000000e+00 0.000000000000e+00 0.000000000000e+00 9.078453120017e+06 8.380110572371e+06  0.000000000000e+00
4.511646868338e+02 0.000000000000e+00 0.000000000000e+00 -6.225547407515e+06 1.094951527358e-05 -1.452627728432e+07 -6.225547407551e+06 0.000000000000e+00 0.000000000000e+00 0.000000000000e+00 0.000000000000e+00 8.992457366463e+06 8.300729876790e+06  0.000000000000e+00
4.559705175445e+02 0.000000000000e+00 0.000000000000e+00 -6.173040024737e+06 6.621602601463e-06 -1.440376005783e+07 -6.173040024771e+06 0.000000000000e+00 0.000000000000e+00 0.000000000000e+00 0.000000000000e+00 8.916613369113e+06 8.230720033078e+06  0.000000000000e+00
4.604929189399e+02 0.000000000000e+00 0.000000000000e+00 -6.119954080098e+06 1.129979597546e-05 -1.427989285368e+07 -6.119954080133e+06 0.000000000000e+00 0.000000000000e+00 0.000000000000e+00 0.000000000000e+00 8.839933671303e+06 8.159938773563e+06  0.000000000000e+00
4.647447386486e+02 0.000000000000e+00 0.000000000000e+00 -6.072087036726e+06 3.173283691845e-06 -1.416820308582e+07 -6.072087036765e+06 0.000000000000e+00 0.000000000000e+00 0.000000000000e+00 0.000000000000e+00 8.770792386439e+06 8.096116049079e+06  0.000000000000e+00
4.687438090223e+02 0.000000000000e+00 0.000000000000e+00 -6.027517546643e+06 -3.332856011592e-06 -1.406420760892e+07 -6.027517546669e+06 0.000000000000e+00 0.000000000000e+00 0.000000000000e+00 0.000000000000e+00 8.706414234078e+06 8.036690062265e+06  0.000000000000e+00
4.725049215215e+02 0.000000000000e+00 0.000000000000e+00 -5.986171470986e+06 9.866239769618e-06 -1.396773343238e+07 -5.986171471009e+06 0.000000000000e+00 0.000000000000e+00 0.000000000000e+00 0.000000000000e+00 8.646692124791e+06 7.981561961380e+06  0.000000000000e+00
4.760433207100e+02 0.000000000000e+00 0.000000000000e+00 -5.943988892936e+06 -1.957679922729e-06 -1.386930741678e+07 -5.943988892915e+06 0.000000000000e+00 0.000000000000e+00 0.000000000000e+00 0.000000000000e+00 8.585761734211e+06 7.925318523856e+06  0.000000000000e+00
4.793701278799e+02 0.000000000000e+00 0.000000000000e+00 -5.906962452871e+06 -1.446878224203e-05 -1.378291238975e+07 -5.906962452785e+06 0.000000000000e+00 0.000000000000e+00 0.000000000000e+00 0.000000000000e+00 8.532279098467e+06 7.875949936918e+06  0.000000000000e+00
4.825000000000e+02 0.000000000000e+00 0.000000000000e+00 -5.872986509770e+06 1.537758366875e-05 -1.370363518900e+07 -5.872986509630e+06 0.000000000000e+00 0.000000000000e+00 0.000000000000e+00 0.000000000000e+00 8.483202736133e+06 7.830648679298e+06  0.000000000000e+00
4.860000000000e+02 0.000000000000e+00 0.000000000000e+00 -5.830967677661e+06 1.079513229757e-05 -1.360559124688e+07 -5.830967677361e+06 0.000000000000e+00 0.000000000000e+00 0.000000000000e+00 0.000000000000e+00 8.422508867300e+06 7.774623569366e+06  0.000000000000e+00
4.895000000000e+02 0.000000000000e+00 0.000000000000e+00 -5.792288518247e+06 -3.653297987012e-06 -1.351533987423e+07 -5.792288517744e+06 0.000000000000e+00 0.000000000000e+00 0.000000000000e+00 0.000000000000e+00 8.366638970075e+06 7.723051356238e+06  0.000000000000e+00
4.930000000000e+02 0.000000000000e+00 0.000000000000e+00 -5.752059867657e+06 3.218949916684e-05 -1.342147302186e+07 -5.752059866857e+06 0.000000000000e+00 0.000000000000e+00 0.000000000000e+00 0.000000000000e+00 8.308530918793e+06 7.669413154608e+06  0.000000000000e+00
4.965000000000e+02 0.000000000000e+00 0.000000000000e+00 -5.712752440150e+06 -9.997270698839e-06 -1.332975569043e+07 -5.712752439174e+06 0.000000000000e+00 0.000000000000e+00 0.000000000000e+00 0.000000000000e+00 8.251753523251e+06 7.617003250766e+06  0.000000000000e+00
5.000000000000e+02 0.000000000000e+00 0.000000000000e+00 -5.675785715648e+06 -2.719559929499e-05 -1.324349999975e+07 -5.675785714618e+06 0.000000000000e+00 0.000000000000e+00 0.000000000000e+00 0.000000000000e+00 8.198357143338e+06 7.567714284614e+06  0.000000000000e+00
5.035000000000e+02 0.000000000000e+00 0.000000000000e+00 -5.638818990942e+06 3.064048006296e-05 -1.315724430905e+07 -5.638818989997e+06 0.000000000000e+00 0.000000000000e+00 0.000000000000e+00 0.000000000000e+00 8.144960763330e+06 7.518425318579e+06  0.000000000000e+00
5.070000000000e+02 0.000000000000e+00 0.000000000000e+00 -5.599511563002e+06 4.539118961991e-05 -1.306552697797e+07 -5.599511562292e+06 0.000000000000e+00 0.000000000000e+00 0.000000000000e+00 0.000000000000e+00 8.088183367756e+06 7.466015415325e+06  0.000000000000e+00
5.105000000000e+02 0.000000000000e+00 0.000000000000e+00 -5.559282911672e+06 4.876945238915e-05 -1.297166012588e+07 -5.559282911264e+06 0.000000000000e+00 0.000000000000e+00 0.000000000000e+00 0.000000000000e+00 8.030075316271e+06 7.412377214408e+06  0.000000000000e+00
5.140000000000e+02 0.000000000000e+00 0.000000000000e+00 -5.520603751747e+06 1.548240702309e-05 -1.288140875344e+07 -5.520603751555e+06 0.000000000000e+00 0.000000000000e+00 0.000000000000e+00 0.000000000000e+00 7.974205418913e+06 7.360805001786e+06  0.000000000000e+00
5.175000000000e+02 0.000000000000e+00 0.000000000000e+00 -5.478584919256e+06 1.650519639450e-07 -1.278336481142e+07 -5.478584919202e+06 0.000000000000e+00 0.000000000000e+00 0.000000000000e+00 0.000000000000e+00 7.913511549958e+06 7.304779892189e+06  0.000000000000e+00
5.206298721201e+02 0.000000000000e+00 0.000000000000e+00 -5.444608975943e+06 -2.269940573426e-05 -1.270408761065e+07 -5.444608975979e+06 0.000000000000e+00 0.000000000000e+00 0.000000000000e+00 0.000000000000e+00 7.864435187525e+06 7.259478634693e+06  0.000000000000e+00
5.239566792900e+02 0.000000000000e+00 0.000000000000e+00 -5.407582535746e+06 -1.686277245569e-05 -1.261769258370e+07 -5.407582535835e+06 0.000000000000e+00 0.000000000000e+00 0.000000000000e+00 0.000000000000e+00 7.810952551762e+06 7.210110047914e+06  0.000000000000e+00
5.274950784785e+02 0.000000000000e+00 0.000000000000e+00 -5.365399957514e+06 5.803956629762e-06 -1.251926656789e+07 -5.365399957622e+06 0.000000000000e+00 0.000000000000e+00 0.000000000000e+00 0.000000000000e+00 7.750022161010e+06 7.153866610325e+06  0.000000000000e+00
5.312561909777e+02 0.000000000000e+00 0.000000000000e+00 -5.324053881973e+06 4.305857961258e-06 -1.242279239149e+07 -5.324053882039e+06 0.000000000000e+00 0.000000000000e+00 0.000000000000e+00 0.000000000000e+00 7.690300051834e+06 7.098738509483e+06  0.000000000000e+00
5.352552613514e+02 0.000000000000e+00 0.000000000000e+00 -5.279484391759e+06 -5.448810918132e-06 -1.231879691438e+07 -5.279484391842e+06 0.000000000000e+00 0.000000000000e+00 0.000000000000e+00 0.000000000000e+00 7.625921899327e+06 7.039312522580e+06  0.000000000000e+00
5.395070810601e+02 0.000000000000e+00 0.000000000000e+00 -5.231617348450e+06 1.325098921853e-05 -1.220710714654e+07 -5.231617348497e+06 0.000000000000e+00 0.000000000000e+00 0.000000000000e+00 0.000000000000e+00 7.556780614496e+06 6.975489798068e+06  0.000000000000e+00
5.440294824555e+02 0.000000000000e+00 0.000000000000e+00 -5.178531403769e+06 -7.344218716082e-06 -1.208323994226e+07 -5.178531403810e+06 0.000000000000e+00 0.000000000000e+00 0.000000000000e+00 0.000000000000e+00 7.480100916614e+06 6.904708538474e+06  0.000000000000e+00
5.488353131662e+02 0.000000000000e+00 0.000000000000e+00 -5.126024020965e+06 -1.091837921119e-05 -1.196072271573e+07 -5.126024021010e+06 0.000000000000e+00 0.000000000000e+00 0.000000000000e+00 0.000000000000e+00 7.404256919236e+06 6.834698694746e+06  0.000000000000e+00
5.539452261844e+02 0.000000000000e+00 0.000000000000e+00 -5.066488499294e+06 4.264343211406e-06 -1.182180649847e+07 -5.066488499329e+06 0.000000000000e+00 0.000000000000e+00 0.000000000000e+00 0.000000000000e+00 7.318261165697e+06 6.755317999157e+06  0.000000000000e+00
5.593788644322e+02 0.000000000000e+00 0.000000000000e+00 -5.006941323351e+06 8.725881484610e-06 -1.168286308797e+07 -5.006941323396e+06 0.000000000000e+00 0.000000000000e+00 0.000000000000e+00 0.000000000000e+00 7.232248578238e+06 6.675921764595e+06  0.000000000000e+00
5.651536503270e+02 0.000000000000e+00 0.000000000000e+00 -4.939720534018e+06 9.997270698840e-06 -1.152601457955e+07 -4.939720534071e+06 0.000000000000e+00 0.000000000000e+00 0.000000000000e+00 0.000000000000e+00 7.135151882548e+06 6.586294045509e+06  0.000000000000e+00
5.712969757645e+02 0.000000000000e+00 0.000000000000e+00 -4.872372165637e+06 -2.353107915074e-05 -1.136886838656e+07 -4.872372165659e+06 0.000000000000e+00 0.000000000000e+00 0.000000000000e+00 0.000000000000e+00 7.037870905952e+06 6.496496220912e+06  0.000000000000e+00
5.778269519789e+02 0.000000000000e+00 0.000000000000e+00 -4.798896027869e+06 6.499653023773e-07 -1.119742406507e+07 -4.798896027881e+06 0.000000000000e+00 0.000000000000e+00 0.000000000000e+00 0.000000000000e+00 6.931738706939e+06 6.398528037191e+06  0.000000000000e+00
5.847700031967e+02 0.000000000000e+00 0.000000000000e+00 -4.717309317403e+06 1.080551098503e-05 -1.100705507394e+07 -4.717309317404e+06 0.000000000000e+00 0.000000000000e+00 0.000000000000e+00 0.000000000000e+00 6.813891236250e+06 6.289745756540e+06  0.000000000000e+00
5.921516490179e+02 0.000000000000e+00 0.000000000000e+00 -4.631121913068e+06 -1.978437297655e-06 -1.080595113043e+07 -4.631121913050e+06 0.000000000000e+00 0.000000000000e+00 0.000000000000e+00 0.000000000000e+00 6.689398318850e+06 6.174829217374e+06  0.000000000000e+00
6.000000000000e+02 0.000000000000e+00 0.000000000000e+00 -4.536990820803e+06 -2.121179532184e-05 -1.058631191514e+07 -4.536990820782e+06 0.000000000000e+00 0.000000000000e+00 0.000000000000e+00 0.000000000000e+00 6.553431185573e+06 6.049321094344e+06  0.000000000000e+00
6.080465187765e+02 0.000000000000e+00 0.000000000000e+00 -4.455732226425e+06 -1.588458116229e-05 -1.039670852833e+07 -4.455732226427e+06 0.000000000000e+00 0.000000000000e+00 0.000000000000e+00 0.000000000000e+00 6.436057660395e+06 5.940976301905e+06  0.000000000000e+00
6.160789746759e+02 0.000000000000e+00 0.000000000000e+00 -4.363035930891e+06 -1.696915400217e-06 -1.018041717205e+07 -4.363035930883e+06 0.000000000000e+00 0.000000000000e+00 0.000000000000e+00 0.000000000000e+00 6.302163011275e+06 5.817381241165e+06  0.000000000000e+00
6.240939999865e+02 0.000000000000e+00 0.000000000000e+00 -4.274678980834e+06 -2.301992879318e-05 -9.974250955289e+06 -4.274678980837e+06 0.000000000000e+00 0.000000000000e+00 0.000000000000e+00 0.000000000000e+00 6.174536305653e+06 5.699571974454e+06  0.000000000000e+00
6.320810917794e+02 0.000000000000e+00 0.000000000000e+00 -4.181468319428e+06 -1.883472307368e-05 -9.756759411986e+06 -4.181468319424e+06 0.000000000000e+00 0.000000000000e+00 0.000000000000e+00 0.000000000000e+00 6.039898683613e+06 5.575291092559e+06  0.000000000000e+00
6.400545066859e+02 0.000000000000e+00 0.000000000000e+00 -4.093470245965e+06 -5.075178169460e-06 -9.551430573899e+06 -4.093470245959e+06 0.000000000000e+00 0.000000000000e+00 0.000000000000e+00 0.000000000000e+00 5.912790355274e+06 5.457960327937e+06  0.000000000000e+00
6.480065450619e+02 0.000000000000e+00 0.000000000000e+00 -4.000664699709e+06 -3.640843562059e-05 -9.334884299309e+06 -4.000664699706e+06 0.000000000000e+00 0.000000000000e+00 0.000000000000e+00 0.000000000000e+00 5.778737899575e+06 5.334219599602e+06  0.000000000000e+00
6.559349849023e+02 0.000000000000e+00 0.000000000000e+00 -3.913162413098e+06 -2.689377388877e-06 -9.130712297289e+06 -3.913162413116e+06 0.000000000000e+00 0.000000000000e+00 0.000000000000e+00 0.000000000000e+00 5.652345707834e+06 5.217549884182e+06  0.000000000000e+00
6.638501399864e+02 0.000000000000e+00 0.000000000000e+00 -3.820803138593e+06 -4.640570631941e-06 -8.915207323380e+06 -3.820803138592e+06 0.000000000000e+00 0.000000000000e+00 0.000000000000e+00 0.000000000000e+00 5.518937866855e+06 5.094404184788e+06  0.000000000000e+00
6.717391914239e+02 0.000000000000e+00 0.000000000000e+00 -3.733728864313e+06 -3.082470176543e-05 -8.712034016748e+06 -3.733728864319e+06 0.000000000000e+00 0.000000000000e+00 0.000000000000e+00 0.000000000000e+00 5.393163915127e+06 4.978305152432e+06  0.000000000000e+00
6.796097666945e+02 0.000000000000e+00 0.000000000000e+00 -3.641885907866e+06 -2.075478025435e-05 -8.497733785078e+06 -3.641885907883e+06 0.000000000000e+00 0.000000000000e+00 0.000000000000e+00 0.000000000000e+00 5.260501866943e+06 4.855847877203e+06  0.000000000000e+00
6.874673246613e+02 0.000000000000e+00 0.000000000000e+00 -3.555153726950e+06 -9.330440029335e-06 -8.295358696182e+06 -3.555153726940e+06 0.000000000000e+00 0.000000000000e+00 0.000000000000e+00 0.000000000000e+00 5.135222050024e+06 4.740204969237e+06  0.000000000000e+00
6.952935201207e+02 0.000000000000e+00 0.000000000000e+00 -3.463799021991e+06 -2.731670540290e-05 -8.082197717935e+06 -3.463799021978e+06 0.000000000000e+00 0.000000000000e+00 0.000000000000e+00 0.000000000000e+00 5.003265253968e+06 4.618398695951e+06  0.000000000000e+00
7.031070308534e+02 0.000000000000e+00 0.000000000000e+00 -3.377570576003e+06 -5.831525018335e-06 -7.880998010649e+06 -3.377570575996e+06 0.000000000000e+00 0.000000000000e+00 0.000000000000e+00 0.000000000000e+00 4.878713054216e+06 4.503427434649e+06  0.000000000000e+00