 TITLE = "Profiles along polylines"
 VARIABLES = "DIST" "DISPLACEMENT_X1" "DISPLACEMENT_Y1" "STRESS_XX" "STRESS_XY" "STRESS_YY" "STRESS_ZZ" "STRAIN_XX" "STRAIN_XY" "STRAIN_YY" "STRAIN_PLS"  p_(1st_Invariant)  q_(2nd_Invariant)   Effective_Strain
 ZONE T="TIME=0.000000000000e+00"
0.000000000000e+00 0.000000000000e+00 0.000000000000e+00 -5.675785715648e+06 -2.719559929499e-05 -1.324349999975e+07 -5.675785714618e+06 0.000000000000e+00 0.000000000000e+00 0.000000000000e+00 0.000000000000e+00 8.198357143338e+06 7.567714284614e+06  0.000000000000e+00
2.771288594735e+00 0.000000000000e+00 0.000000000000e+00 -5.675785715850e+06 2.675658641405e-06 -1.324349999978e+07 -5.675785714689e+06 0.000000000000e+00 0.000000000000e+00 0.000000000000e+00 0.000000000000e+00 8.198357143440e+06 7.567714284512e+06  0.000000000000e+00
5.088453386307e+00 0.000000000000e+00 0.000000000000e+00 -5.675785715900e+06 -1.810930681499e-05 -1.324349999976e+07 -5.675785714698e+06 0.000000000000e+00 0.000000000000e+00 0.000000000000e+00 0.000000000000e+00 8.198357143452e+06 7.567714284461e+06  0.000000000000e+00
7.025401218877e+00 0.000000000000e+00 0.000000000000e+00 -5.675785715875e+06 -1.807611411978e-06 -1.324349999970e+07 -5.675785714672e+06 0.000000000000e+00 0.000000000000e+00 0.000000000000e+00 0.000000000000e+00 8.198357143415e+06 7.567714284425e+06  0.000000000000e+00
8.644496023202e+00 0.000000000000e+00 0.000000000000e+00 -5.675785716238e+06 1.300223790550e-04 -1.324349999969e+07 -5.675785714778e+06 0.000000000000e+00 0.000000000000e+00 0.000000000000e+00 0.000000000000e+00 8.198357143568e+06 7.567714284181e+06  0.000000000000e+00
9.998174884078e+00 0.000000000000e+00 0.000000000000e+00 -5.675785716376e+06 4.422495753756e-05 -1.324349999960e+07 -5.675785714792e+06 0.000000000000e+00 0.000000000000e+00 0.000000000000e+00 0.000000000000e+00 8.198357143588e+06 7.567714284013e+06  0.000000000000e+00
1.112962402407e+01 0.000000000000e+00 0.000000000000e+00 -5.675785716559e+06 -4.683016774945e-05 -1.324349999954e+07 -5.675785714830e+06 0.000000000000e+00 0.000000000000e+00 0.000000000000e+00 0.000000000000e+00 8.198357143643e+06 7.567714283846e+06  0.000000000000e+00
1.207544789055e+01 0.000000000000e+00 0.000000000000e+00 -5.675785716792e+06 2.216595147234e-04 -1.324349999933e+07 -5.675785714836e+06 0.000000000000e+00 0.000000000000e+00 0.000000000000e+00 0.000000000000e+00 8.198357143653e+06 7.567714283515e+06  0.000000000000e+00
1.286635021652e+01 0.000000000000e+00 0.000000000000e+00 -5.675785717154e+06 -1.290838637564e-04 -1.324349999919e+07 -5.675785714905e+06 0.000000000000e+00 0.000000000000e+00 0.000000000000e+00 0.000000000000e+00 8.198357143751e+06 7.567714283166e+06  0.000000000000e+00
1.352739027168e+01 0.000000000000e+00 0.000000000000e+00 -5.675785717607e+06 3.085343572767e-04 -1.324349999975e+07 -5.675785715207e+06 0.000000000000e+00 0.000000000000e+00 0.000000000000e+00 0.000000000000e+00 8.198357144188e+06 7.567714283344e+06  0.000000000000e+00
1.408000000000e+01 0.000000000000e+00 0.000000000000e+00 -5.675785718016e+06 -1.752371803626e-04 -1.324349999979e+07 -5.675785715342e+06 0.000000000000e+00 0.000000000000e+00 0.000000000000e+00 0.000000000000e+00 8.198357144383e+06 7.567714283113e+06  0.000000000000e+00
1.465000000000e+01 0.000000000000e+00 0.000000000000e+00 -5.675785718041e+06 6.702182704922e-05 -1.324349999917e+07 -5.675785715163e+06 0.000000000000e+00 0.000000000000e+00 0.000000000000e+00 0.000000000000e+00 8.198357144124e+06 7.567714282566e+06  0.000000000000e+00
1.522000000000e+01 0.000000000000e+00 0.000000000000e+00 -5.675785718672e+06 -1.090428229328e-04 -1.324349999962e+07 -5.675785715488e+06 0.000000000000e+00 0.000000000000e+00 0.000000000000e+00 0.000000000000e+00 8.198357144594e+06 7.567714282541e+06  0.000000000000e+00
1.567618708187e+01 0.000000000000e+00 0.000000000000e+00 -5.675785720537e+06 4.553512479330e-04 -1.324349999993e+07 -5.675785716142e+06 0.000000000000e+00 0.000000000000e+00 0.000000000000e+00 0.000000000000e+00 8.198357145538e+06 7.567714281595e+06  0.000000000000e+00
1.601230646764e+01 0.000000000000e+00 0.000000000000e+00 -5.675785719463e+06 7.798151696831e-04 -1.324349999923e+07 -5.675785715607e+06 0.000000000000e+00 0.000000000000e+00 0.000000000000e+00 0.000000000000e+00 8.198357144766e+06 7.567714281693e+06  0.000000000000e+00
1.626000000000e+01 0.000000000000e+00 0.000000000000e+00 -5.675785720342e+06 4.554512706696e-04 -1.324349999954e+07 -5.675785715966e+06 0.000000000000e+00 0.000000000000e+00 0.000000000000e+00 0.000000000000e+00 8.198357145284e+06 7.567714281391e+06  0.000000000000e+00
1.636000000000e+01 0.000000000000e+00 0.000000000000e+00 -5.675785720797e+06 5.626938975031e-04 -1.324350000023e+07 -5.675785716309e+06 0.000000000000e+00 0.000000000000e+00 0.000000000000e+00 0.000000000000e+00 8.198357145779e+06 7.567714281679e+06  0.000000000000e+00
1.655254661512e+01 0.000000000000e+00 0.000000000000e+00 -5.675785720595e+06 3.979895083747e-04 -1.324349999896e+07 -5.675785715867e+06 0.000000000000e+00 0.000000000000e+00 0.000000000000e+00 0.000000000000e+00 8.198357145141e+06 7.567714280730e+06  0.000000000000e+00
1.671286624106e+01 0.000000000000e+00 0.000000000000e+00 -5.675785719253e+06 4.563617589118e-04 -1.324349999930e+07 -5.675785715565e+06 0.000000000000e+00 0.000000000000e+00 0.000000000000e+00 0.000000000000e+00 8.198357144705e+06 7.567714281889e+06  0.000000000000e+00
1.684635003096e+01 0.000000000000e+00 0.000000000000e+00 -5.675785720528e+06 5.490946282008e-04 -1.324349999929e+07 -5.675785715947e+06 0.000000000000e+00 0.000000000000e+00 0.000000000000e+00 0.000000000000e+00 8.198357145256e+06 7.567714281057e+06  0.000000000000e+00
1.695745861502e+01 0.000000000000e+00 0.000000000000e+00 -5.675785719126e+06 3.513556479944e-04 -1.324350000081e+07 -5.675785715982e+06 0.000000000000e+00 0.000000000000e+00 0.000000000000e+00 0.000000000000e+00 8.198357145307e+06 7.567714283261e+06  0.000000000000e+00
1.705000000000e+01 0.000000000000e+00 0.000000000000e+00 -5.675785718703e+06 -8.999411618956e-04 -1.324350000046e+07 -5.675785715750e+06 0.000000000000e+00 0.000000000000e+00 0.000000000000e+00 0.000000000000e+00 8.198357144973e+06 7.567714283238e+06  0.000000000000e+00
1.716700338981e+01 0.000000000000e+00 0.000000000000e+00 -5.675785715360e+06 -6.226278395994e-04 -1.324350000057e+07 -5.675785714779e+06 0.000000000000e+00 0.000000000000e+00 0.000000000000e+00 0.000000000000e+00 8.198357143569e+06 7.567714285500e+06  0.000000000000e+00
1.731435117068e+01 0.000000000000e+00 0.000000000000e+00 -5.675785714877e+06 -2.342843393173e-03 -1.324349999959e+07 -5.675785714340e+06 0.000000000000e+00 0.000000000000e+00 0.000000000000e+00 0.000000000000e+00 8.198357142935e+06 7.567714284981e+06  0.000000000000e+00
1.750000000000e+01 0.000000000000e+00 0.000000000000e+00 -5.675785715762e+06 -7.065395277386e-04 -1.324349999998e+07 -5.675785714723e+06 0.000000000000e+00 0.000000000000e+00 0.000000000000e+00 0.000000000000e+00 8.198357143488e+06 7.567714284737e+06  0.000000000000e+00
1.768564882932e+01 0.000000000000e+00 0.000000000000e+00 -5.675785712363e+06 1.404132626884e-03 -1.324349999850e+07 -5.675785713260e+06 0.000000000000e+00 0.000000000000e+00 0.000000000000e+00 0.000000000000e+00 8.198357141375e+06 7.567714285692e+06  0.000000000000e+00
1.783299661019e+01 0.000000000000e+00 0.000000000000e+00 -5.675785711836e+06 2.920562652119e-04 -1.324350000061e+07 -5.675785713733e+06 0.000000000000e+00 0.000000000000e+00 0.000000000000e+00 0.000000000000e+00 8.198357142059e+06 7.567714287823e+06  0.000000000000e+00
1.795000000000e+01 0.000000000000e+00 0.000000000000e+00 -5.675785711008e+06 3.581581082901e-04 -1.324349999816e+07 -5.675785712751e+06 0.000000000000e+00 0.000000000000e+00 0.000000000000e+00 0.000000000000e+00 8.198357140640e+06 7.567714286282e+06  0.000000000000e+00
1.804254138498e+01 0.000000000000e+00 0.000000000000e+00 -5.675785708415e+06 7.632323560439e-04 -1.324349999747e+07 -5.675785711765e+06 0.000000000000e+00 0.000000000000e+00 0.000000000000e+00 0.000000000000e+00 8.198357139216e+06 7.567714287377e+06  0.000000000000e+00
1.815364996904e+01 0.000000000000e+00 0.000000000000e+00 -5.675785708210e+06 -1.989592279454e-04 -1.324350000025e+07 -5.675785712538e+06 0.000000000000e+00 0.000000000000e+00 0.000000000000e+00 0.000000000000e+00 8.198357140332e+06 7.567714289875e+06  0.000000000000e+00
1.828713375894e+01 0.000000000000e+00 0.000000000000e+00 -5.675785708406e+06 2.040963964907e-04 -1.324350000065e+07 -5.675785712716e+06 0.000000000000e+00 0.000000000000e+00 0.000000000000e+00 0.000000000000e+00 8.198357140589e+06 7.567714290086e+06  0.000000000000e+00
1.844745338488e+01 0.000000000000e+00 0.000000000000e+00 -5.675785708415e+06 1.925993230261e-04 -1.324350000145e+07 -5.675785712960e+06 0.000000000000e+00 0.000000000000e+00 0.000000000000e+00 0.000000000000e+00 8.198357140942e+06 7.567714290763e+06  0.000000000000e+00
1.864000000000e+01 0.000000000000e+00 0.000000000000e+00 -5.675785708050e+06 -1.191295527048e-04 -1.324350000074e+07 -5.675785712638e+06 0.000000000000e+00 0.000000000000e+00 0.000000000000e+00 0.000000000000e+00 8.198357140478e+06 7.567714290400e+06  0.000000000000e+00
1.874000000000e+01 0.000000000000e+00 0.000000000000e+00 -5.675785708105e+06 1.137989793070e-04 -1.324350000069e+07 -5.675785712638e+06 0.000000000000e+00 0.000000000000e+00 0.000000000000e+00 0.000000000000e+00 8.198357140476e+06 7.567714290316e+06  0.000000000000e+00
1.898769353236e+01 0.000000000000e+00 0.000000000000e+00 -5.675785708634e+06 2.263778224905e-04 -1.324350000114e+07 -5.675785712931e+06 0.000000000000e+00 0.000000000000e+00 0.000000000000e+00 0.000000000000e+00 8.198357140900e+06 7.567714290353e+06  0.000000000000e+00
1.932381291813e+01 0.000000000000e+00 0.000000000000e+00 -5.675785709061e+06 1.702812216869e-04 -1.324350000107e+07 -5.675785713038e+06 0.000000000000e+00 0.000000000000e+00 0.000000000000e+00 0.000000000000e+00 8.198357141055e+06 7.567714290017e+06  0.000000000000e+00
1.978000000000e+01 0.000000000000e+00 0.000000000000e+00 -5.675785709769e+06 8.232808140270e-05 -1.324350000099e+07 -5.675785713227e+06 0.000000000000e+00 0.000000000000e+00 0.000000000000e+00 0.000000000000e+00 8.198357141328e+06 7.567714289490e+06  0.000000000000e+00
2.035000000000e+01 0.000000000000e+00 0.000000000000e+00 -5.675785710210e+06 1.162657935493e-04 -1.324350000046e+07 -5.675785713201e+06 0.000000000000e+00 0.000000000000e+00 0.000000000000e+00 0.000000000000e+00 8.198357141291e+06 7.567714288755e+06  0.000000000000e+00
2.092000000000e+01 0.000000000000e+00 0.000000000000e+00 -5.675785710730e+06 -2.306732863196e-04 -1.324350000053e+07 -5.675785713377e+06 0.000000000000e+00 0.000000000000e+00 0.000000000000e+00 0.000000000000e+00 8.198357141544e+06 7.567714288472e+06  0.000000000000e+00
2.147260972832e+01 0.000000000000e+00 0.000000000000e+00 -5.675785710865e+06 7.792644909969e-05 -1.324350000010e+07 -5.675785713291e+06 0.000000000000e+00 0.000000000000e+00 0.000000000000e+00 0.000000000000e+00 8.198357141420e+06 7.567714288026e+06  0.000000000000e+00
2.213364978348e+01 0.000000000000e+00 0.000000000000e+00 -5.675785711199e+06 2.185126488754e-05 -1.324350000010e+07 -5.675785713389e+06 0.000000000000e+00 0.000000000000e+00 0.000000000000e+00 0.000000000000e+00 8.198357141562e+06 7.567714287804e+06  0.000000000000e+00
2.292455210945e+01 0.000000000000e+00 0.000000000000e+00 -5.675785711513e+06 -6.453656521940e-05 -1.324350000007e+07 -5.675785713475e+06 0.000000000000e+00 0.000000000000e+00 0.000000000000e+00 0.000000000000e+00 8.198357141686e+06 7.567714287575e+06  0.000000000000e+00
2.387037597593e+01 0.000000000000e+00 0.000000000000e+00 -5.675785711882e+06 7.913902182211e-05 -1.324350000025e+07 -5.675785713639e+06 0.000000000000e+00 0.000000000000e+00 0.000000000000e+00 0.000000000000e+00 8.198357141924e+06 7.567714287489e+06  0.000000000000e+00
2.500182511592e+01 0.000000000000e+00 0.000000000000e+00 -5.675785712132e+06 2.391112565776e-05 -1.324350000029e+07 -5.675785713726e+06 0.000000000000e+00 0.000000000000e+00 0.000000000000e+00 0.000000000000e+00 8.198357142048e+06 7.567714287358e+06  0.000000000000e+00
2.635550397680e+01 0.000000000000e+00 0.000000000000e+00 -5.675785712316e+06 -4.492752054498e-05 -1.324350000026e+07 -5.675785713773e+06 0.000000000000e+00 0.000000000000e+00 0.000000000000e+00 0.000000000000e+00 8.198357142117e+06 7.567714287217e+06  0.000000000000e+00
2.797459878112e+01 0.000000000000e+00 0.000000000000e+00 -5.675785712618e+06 8.815310176132e-05 -1.324350000032e+07 -5.675785713883e+06 0.000000000000e+00 0.000000000000e+00 0.000000000000e+00 0.000000000000e+00 8.198357142275e+06 7.567714287074e+06  0.000000000000e+00
2.991154661369e+01 0.000000000000e+00 0.000000000000e+00 -5.675785712722e+06 3.960875789482e-05 -1.324350000023e+07 -5.675785713885e+06 0.000000000000e+00 0.000000000000e+00 0.000000000000e+00 0.000000000000e+00 8.198357142278e+06 7.567714286924e+06  0.000000000000e+00
3.222871140527e+01 0.000000000000e+00 0.000000000000e+00 -5.675785712775e+06 9.908499907615e-06 -1.324350000020e+07 -5.675785713893e+06 0.000000000000e+00 0.000000000000e+00 0.000000000000e+00 0.000000000000e+00 8.198357142290e+06 7.567714286868e+06  0.000000000000e+00
3.500000000000e+01 0.000000000000e+00 0.000000000000e+00 -5.675785712861e+06 -2.893882918517e-05 -1.324350000023e+07 -5.675785713926e+06 0.000000000000e+00 0.000000000000e+00 0.000000000000e+00 0.000000000000e+00 8.198357142338e+06 7.567714286833e+06  0.000000000000e+00
 TITLE = "Profiles along polylines"
 VARIABLES = "DIST" "DISPLACEMENT_X1" "DISPLACEMENT_Y1" "STRESS_XX" "STRESS_XY" "STRESS_YY" "STRESS_ZZ" "STRAIN_XX" "STRAIN_XY" "STRAIN_YY" "STRAIN_PLS"  p_(1st_Invariant)  q_(2nd_Invariant)   Effective_Strain
 ZONE T="TIME=2.000000000000e-02"
0.000000000000e+00 0.000000000000e+00 -2.352165073488e-05 -5.736743929825e+06 1.004166309153e+01 -1.333982654803e+07 -5.722971143358e+06 -5.115606019828e-07 7.459541356155e-10 -1.825241583218e-06 0.000000000000e+00 8.266513873739e+06 7.609978358883e+06  1.630791547954e-06
2.771288594735e+00 -1.174532820086e-06 -2.349739196912e-05 -5.738520272445e+06 1.170590180958e+02 -1.334784301847e+07 -5.725908987274e+06 -4.684191203967e-07 8.695812574069e-09 -2.013876283780e-06 0.000000000000e+00 8.270757426062e+06 7.615636222790e+06  1.825377454873e-06
5.088453386307e+00 -2.299900839264e-06 -2.343781316272e-05 -5.749729428653e+06 2.156188983224e+02 -1.336756698045e+07 -5.735188922731e+06 -5.400758896035e-07 1.601740522064e-08 -2.401797270122e-06 0.000000000000e+00 8.284161777278e+06 7.625118211765e+06  2.182642656918e-06
7.025401218877e+00 -3.315998335122e-06 -2.335622780398e-05 -5.765494757753e+06 3.217091738014e+02 -1.339617433780e+07 -5.748500728667e+06 -6.312067499463e-07 2.389839590238e-08 -2.969917752681e-06 0.000000000000e+00 8.303389941408e+06 7.639190791677e+06  2.710334792340e-06
8.644496023202e+00 -4.410701293292e-06 -2.326053448595e-05 -5.791595808195e+06 4.369634661669e+02 -1.344155798973e+07 -5.769946139378e+06 -8.041305018417e-07 3.246013354216e-08 -3.859052430721e-06 0.000000000000e+00 8.334366645768e+06 7.660809996834e+06  3.526881163309e-06
9.998174884078e+00 -5.442937138218e-06 -2.315606657242e-05 -5.823058602186e+06 5.629555673424e+02 -1.350314842671e+07 -5.797862108669e+06 -9.358697003488e-07 4.181955314587e-08 -5.109818377381e-06 0.000000000000e+00 8.374689712522e+06 7.692719081072e+06  4.712665740030e-06
1.112962402407e+01 -6.644254631734e-06 -2.304618730556e-05 -5.877765299231e+06 7.152935637374e+02 -1.359630450200e+07 -5.842220940368e+06 -1.320218979254e-06 5.313609678502e-08 -6.922287428357e-06 0.000000000000e+00 8.438763580531e+06 7.736372721652e+06  6.366362893014e-06
1.207544789055e+01 -7.684046375524e-06 -2.293366298703e-05 -5.936263302805e+06 8.968586421483e+02 -1.372417011091e+07 -5.898130024113e+06 -1.416378850196e-06 6.662376837917e-08 -9.594958371128e-06 0.000000000000e+00 8.519521145941e+06 7.807043450142e+06  8.971765448624e-06
1.286635021652e+01 -8.477876206101e-06 -2.282028228174e-05 -6.002935672194e+06 1.113783647609e+03 -1.389421490411e+07 -5.969145172890e+06 -1.255075604887e-06 8.273822341147e-08 -1.327320231438e-05 0.000000000000e+00 8.622098583063e+06 7.908228859914e+06  1.269309965571e-05
1.352739027168e+01 -9.265889780004e-06 -2.270743546693e-05 -6.115781257053e+06 1.387973142510e+03 -1.414515111334e+07 -6.078279711117e+06 -1.392914474223e-06 1.031065533811e-07 -1.854012151366e-05 0.000000000000e+00 8.779737360502e+06 8.048186517275e+06  1.788528461467e-05
1.408000000000e+01 -9.416911402814e-06 -2.259651926548e-05 -6.210294202979e+06 1.718960363560e+03 -1.449859002188e+07 -6.212665267458e+06 8.806820850006e-08 1.276942114535e-07 -2.667638888468e-05 0.000000000000e+00 8.973849830772e+06 8.287111075895e+06  2.672144717543e-05
1.465000000000e+01 -8.278258418670e-06 -2.246106020971e-05 -6.325946130540e+06 2.225146502881e+03 -1.510396569667e+07 -6.428973548162e+06 3.826732761441e-06 1.652965923781e-07 -4.112746353853e-05 0.000000000000e+00 9.286295125122e+06 8.726962834696e+06  4.316917791375e-05
1.522000000000e+01 -3.497259237537e-06 -2.229711457271e-05 -6.419782149326e+06 3.031238934419e+03 -1.635737979579e+07 -6.833148583535e+06 1.535361053173e-05 2.251777575143e-07 -7.267062875883e-05 0.000000000000e+00 9.870103509551e+06 9.737498500819e+06  8.144115843166e-05
1.567618708187e+01 9.362923782182e-06 -2.214106000282e-05 -6.235372398609e+06 3.970979600901e+03 -1.875140214557e+07 -7.496032363253e+06 4.682451313577e-05 2.949870222409e-07 -1.369700613737e-04 0.000000000000e+00 1.082760230248e+07 1.193573851343e+07  1.654301974645e-04
1.601230646764e+01 3.555678976033e-05 -2.201731641241e-05 -5.110642536636e+06 4.258465020658e+03 -2.330908415448e+07 -8.525918007335e+06 1.268530890549e-04 3.163430578912e-07 -2.680024977881e-04 0.000000000000e+00 1.231521489948e+07 1.675394720656e+07  3.491622688108e-04
1.626000000000e+01 7.949911622874e-05 -2.194067537483e-05 -2.794828740655e+06 2.629636529087e+03 -2.870188198987e+07 -9.449013219158e+06 2.471554236498e-04 1.953443940415e-07 -4.340200238078e-04 0.000000000000e+00 1.364857464989e+07 2.330371833553e+07  5.972685341123e-04
1.636000000000e+01 1.112038527305e-04 -2.192492328442e-05 -3.323779638271e+05 -2.954746958760e+02 -3.337593835673e+07 -1.011249489617e+07 3.632614862273e-04 -2.194959620603e-08 -5.829842265646e-04 0.000000000000e+00 1.460693707224e+07 2.939996065318e+07  8.268042294483e-04
1.655254661512e+01 0.000000000000e+00 0.000000000000e+00 0.000000000000e+00 0.000000000000e+00 0.000000000000e+00 0.000000000000e+00 0.000000000000e+00 0.000000000000e+00 0.000000000000e+00 0.000000000000e+00 -0.000000000000e+00 0.000000000000e+00  0.000000000000e+00
1.671286624106e+01 0.000000000000e+00 0.000000000000e+00 0.000000000000e+00 0.000000000000e+00 0.000000000000e+00 0.000000000000e+00 0.000000000000e+00 0.000000000000e+00 0.000000000000e+00 0.000000000000e+00 -0.000000000000e+00 0.000000000000e+00  0.000000000000e+00
1.684635003096e+01 0.000000000000e+00 0.000000000000e+00 0.000000000000e+00 0.000000000000e+00 0.000000000000e+00 0.000000000000e+00 0.000000000000e+00 0.000000000000e+00 0.000000000000e+00 0.000000000000e+00 -0.000000000000e+00 0.000000000000e+00  0.000000000000e+00
1.695745861502e+01 0.000000000000e+00 0.000000000000e+00 0.000000000000e+00 0.000000000000e+00 0.000000000000e+00 0.000000000000e+00 0.000000000000e+00 0.000000000000e+00 0.000000000000e+00 0.000000000000e+00 -0.000000000000e+00 0.000000000000e+00  0.000000000000e+00
1.705000000000e+01 0.000000000000e+00 0.000000000000e+00 0.000000000000e+00 0.000000000000e+00 0.000000000000e+00 0.000000000000e+00 0.000000000000e+00 0.000000000000e+00 0.000000000000e+00 0.000000000000e+00 -0.000000000000e+00 0.000000000000e+00  0.000000000000e+00
1.716700338981e+01 0.000000000000e+00 0.000000000000e+00 0.000000000000e+00 0.000000000000e+00 0.000000000000e+00 0.000000000000e+00 0.000000000000e+00 0.000000000000e+00 0.000000000000e+00 0.000000000000e+00 -0.000000000000e+00 0.000000000000e+00  0.000000000000e+00
1.731435117068e+01 0.000000000000e+00 0.000000000000e+00 0.000000000000e+00 0.000000000000e+00 0.000000000000e+00 0.000000000000e+00 0.000000000000e+00 0.000000000000e+00 0.000000000000e+00 0.000000000000e+00 -0.000000000000e+00 0.000000000000e+00  0.000000000000e+00
1.750000000000e+01 0.000000000000e+00 0.000000000000e+00 0.000000000000e+00 0.000000000000e+00 0.000000000000e+00 0.000000000000e+00 0.000000000000e+00 0.000000000000e+00 0.000000000000e+00 0.000000000000e+00 -0.000000000000e+00 0.000000000000e+00  0.000000000000e+00
1.768564882932e+01 0.000000000000e+00 0.000000000000e+00 0.000000000000e+00 0.000000000000e+00 0.000000000000e+00 0.000000000000e+00 0.000000000000e+00 0.000000000000e+00 0.000000000000e+00 0.000000000000e+00 -0.000000000000e+00 0.000000000000e+00  0.000000000000e+00
1.783299661019e+01 0.000000000000e+00 0.000000000000e+00 0.000000000000e+00 0.000000000000e+00 0.000000000000e+00 0.000000000000e+00 0.000000000000e+00 0.000000000000e+00 0.000000000000e+00 0.000000000000e+00 -0.000000000000e+00 0.000000000000e+00  0.000000000000e+00
1.795000000000e+01 0.000000000000e+00 0.000000000000e+00 0.000000000000e+00 0.000000000000e+00 0.000000000000e+00 0.000000000000e+00 0.000000000000e+00 0.000000000000e+00 0.000000000000e+00 0.000000000000e+00 -0.000000000000e+00 0.000000000000e+00  0.000000000000e+00
1.804254138498e+01 0.000000000000e+00 0.000000000000e+00 0.000000000000e+00 0.000000000000e+00 0.000000000000e+00 0.000000000000e+00 0.000000000000e+00 0.000000000000e+00 0.000000000000e+00 0.000000000000e+00 -0.000000000000e+00 0.000000000000e+00  0.000000000000e+00
1.815364996904e+01 0.000000000000e+00 0.000000000000e+00 0.000000000000e+00 0.000000000000e+00 0.000000000000e+00 0.000000000000e+00 0.000000000000e+00 0.000000000000e+00 0.000000000000e+00 0.000000000000e+00 -0.000000000000e+00 0.000000000000e+00  0.000000000000e+00
1.828713375894e+01 0.000000000000e+00 0.000000000000e+00 0.000000000000e+00 0.000000000000e+00 0.000000000000e+00 0.000000000000e+00 0.000000000000e+00 0.000000000000e+00 0.000000000000e+00 0.000000000000e+00 -0.000000000000e+00 0.000000000000e+00  0.000000000000e+00
1.844745338488e+01 0.000000000000e+00 0.000000000000e+00 0.000000000000e+00 0.000000000000e+00 0.000000000000e+00 0.000000000000e+00 0.000000000000e+00 0.000000000000e+00 0.000000000000e+00 0.000000000000e+00 -0.000000000000e+00 0.000000000000e+00  0.000000000000e+00
1.864000000000e+01 -1.112038587664e-04 -2.192492254464e-05 -3.323779630900e+05 2.954767033547e+02 -3.337593835381e+07 -1.011249489507e+07 3.632614858821e-04 2.194966697902e-08 -5.829842263414e-04 0.000000000000e+00 1.460693707066e+07 2.939996065116e+07  8.268042289685e-04
1.874000000000e+01 -7.949912230305e-05 -2.194067494105e-05 -2.794828740379e+06 -2.629626705684e+03 -2.870188198885e+07 -9.449013218768e+06 2.471554233147e-04 -1.953437065902e-07 -4.340200236183e-04 0.000000000000e+00 1.364857464933e+07 2.330371833484e+07  5.972685336743e-04
1.898769353236e+01 -3.555679585156e-05 -2.201731656472e-05 -5.110642520091e+06 -4.258446568658e+03 -2.330908415351e+07 -8.525918002082e+06 1.268530891715e-04 -3.163417619169e-07 -2.680024977770e-04 0.000000000000e+00 1.231521489190e+07 1.675394721804e+07  3.491622688838e-04
1.932381291813e+01 -9.362929844518e-06 -2.214106071587e-05 -6.235372382072e+06 -3.970957793206e+03 -1.875140214515e+07 -7.496032358166e+06 4.682451325002e-05 -2.949854487162e-07 -1.369700613897e-04 0.000000000000e+00 1.082760229513e+07 1.193573852466e+07  1.654301975512e-04
1.978000000000e+01 3.497253277453e-06 -2.229711581285e-05 -6.419782128928e+06 -3.031219027308e+03 -1.635737979687e+07 -6.833148577740e+06 1.535361082743e-05 -2.251762767158e-07 -7.267062887951e-05 0.000000000000e+00 9.870103501180e+06 9.737498515435e+06  8.144115872611e-05
2.035000000000e+01 8.278252651637e-06 -2.246106193797e-05 -6.325946108437e+06 -2.225129071742e+03 -1.510396569882e+07 -6.428973542178e+06 3.826733142108e-06 -1.652953111091e-07 -4.112746372000e-05 0.000000000000e+00 9.286295116479e+06 8.726962851024e+06  4.316917829504e-05
2.092000000000e+01 9.416905868025e-06 -2.259652135654e-05 -6.210294180645e+06 -1.718945601912e+03 -1.449859002368e+07 -6.212665261299e+06 8.806861168829e-08 -1.276930847206e-07 -2.667638908020e-05 0.000000000000e+00 8.973849821876e+06 8.287111091940e+06  2.672144755738e-05
2.147260972832e+01 9.265884488225e-06 -2.270743783601e-05 -6.115781232292e+06 -1.387959436126e+03 -1.414515111454e+07 -6.078279704049e+06 -1.392913996230e-06 -1.031055639011e-07 -1.854012173657e-05 0.000000000000e+00 8.779737350293e+06 8.048186534324e+06  1.788528503047e-05
2.213364978348e+01 8.477871219529e-06 -2.282028493047e-05 -6.002935650387e+06 -1.113772597407e+03 -1.389421490744e+07 -5.969145167348e+06 -1.255075165643e-06 -8.273739457348e-08 -1.327320255424e-05 0.000000000000e+00 8.622098575059e+06 7.908228876867e+06  1.269310006469e-05
2.292455210945e+01 7.684041757955e-06 -2.293366589271e-05 -5.936263279540e+06 -8.968486533113e+02 -1.372417011315e+07 -5.898130017807e+06 -1.416378365804e-06 -6.662303802326e-08 -9.594958610653e-06 0.000000000000e+00 8.519521136833e+06 7.807043467106e+06  8.971765852157e-06
2.387037597593e+01 6.644250440200e-06 -2.304619045413e-05 -5.877765278881e+06 -7.152853292083e+02 -1.359630450500e+07 -5.842220935166e+06 -1.320218546151e-06 -5.313548747723e-08 -6.922287662769e-06 0.000000000000e+00 8.438763573017e+06 7.736372737382e+06  6.366363253980e-06
2.500182511592e+01 5.442933434816e-06 -2.315606995358e-05 -5.823058582193e+06 -5.629490700296e+02 -1.350314842952e+07 -5.797862103514e+06 -9.358692672699e-07 -4.181907554988e-08 -5.109818607935e-06 0.000000000000e+00 8.374689705075e+06 7.692719096416e+06  4.712666103191e-06
2.635550397680e+01 4.410698155630e-06 -2.326053807067e-05 -5.791595789699e+06 -4.369578686507e+02 -1.344155799267e+07 -5.769946134711e+06 -8.041300965264e-07 -3.245972404800e-08 -3.859052654690e-06 0.000000000000e+00 8.334366639027e+06 7.660810011326e+06  3.526881500866e-06
2.797459878112e+01 3.315995835183e-06 -2.335623151366e-05 -5.765494740626e+06 -3.217047554970e+02 -1.339617434075e+07 -5.748500724411e+06 -6.312063635367e-07 -2.389807409972e-08 -2.969917967408e-06 0.000000000000e+00 8.303389935261e+06 7.639190805288e+06  2.710335115835e-06
2.991154661369e+01 2.299899061831e-06 -2.343781691310e-05 -5.749729412387e+06 -2.156156919219e+02 -1.336756698323e+07 -5.735188918686e+06 -5.400755234898e-07 -1.601716862799e-08 -2.401797476185e-06 0.000000000000e+00 8.284161771435e+06 7.625118224686e+06  2.182642963814e-06
3.222871140527e+01 1.174531865087e-06 -2.349739573869e-05 -5.738520256977e+06 -1.170572730367e+02 -1.334784302122e+07 -5.725908983461e+06 -4.684187721492e-07 -8.695683875927e-09 -2.013876482626e-06 0.000000000000e+00 8.270757420554e+06 7.615636235173e+06  1.825377749639e-06
3.500000000000e+01 0.000000000000e+00 -2.352165449180e-05 -5.736743914710e+06 -1.004156418900e+01 -1.333982655092e+07 -5.722971139690e+06 -5.115602546167e-07 -7.459426185844e-10 -1.825241783205e-06 0.000000000000e+00 8.266513868441e+06 7.609978371146e+06  1.630791825831e-06
