 TITLE = "Time curves in points"
 VARIABLES = "TIME"  "DISPLACEMENT_X1"  "DISPLACEMENT_Y1"  "STRESS_XX"  "STRESS_XY"  "STRESS_YY"  "STRESS_ZZ"  "STRAIN_XX"  "STRAIN_XY"  "STRAIN_YY"  "STRAIN_PLS"  p_(1st_Invariant)  q_(2nd_Invariant)   Effective_Strain
 ZONE T="POINT=POINT11"
0.000000000000e+00 0.000000000000e+00 0.000000000000e+00 -5.662701492715e+06 1.303262163430e-03 -1.321297014916e+07 -5.662701492563e+06 0.000000000000e+00 0.000000000000e+00 0.000000000000e+00 0.000000000000e+00 8.179457711480e+06 7.550268656523e+06  0.000000000000e+00
2.000000000000e-02 -1.226573349405e-12 -7.088506198550e-04 -4.082617132603e+06 1.401156783686e-03 4.489592431252e+04 -1.211316362487e+06 -1.066483143134e-04 6.077524076988e-15 3.270983090933e-04 0.000000000000e+00 1.749679190259e+06 3.664614676674e+06  3.914736900957e-04
