 TITLE = "Time curves in points"
 VARIABLES = "TIME"  "DISPLACEMENT_X1"  "DISPLACEMENT_Y1"  "STRESS_XX"  "STRESS_XY"  "STRESS_YY"  "STRESS_ZZ"  "STRAIN_XX"  "STRAIN_XY"  "STRAIN_YY"  "STRAIN_PLS"  p_(1st_Invariant)  q_(2nd_Invariant)   Effective_Strain
 ZONE T="POINT=POINT7"
0.000000000000e+00 0.000000000000e+00 0.000000000000e+00 -5.675785708105e+06 1.137989793070e-04 -1.324350000069e+07 -5.675785712638e+06 0.000000000000e+00 0.000000000000e+00 0.000000000000e+00 0.000000000000e+00 8.198357140476e+06 7.567714290316e+06  0.000000000000e+00
2.000000000000e-02 -7.949912230305e-05 -2.194067494105e-05 -2.794828740379e+06 -2.629626705684e+03 -2.870188198885e+07 -9.449013218768e+06 2.471554233147e-04 -1.953437065902e-07 -4.340200236183e-04 0.000000000000e+00 1.364857464933e+07 2.330371833484e+07  5.972685336743e-04
