 TITLE = "Time curves in points"
 VARIABLES = "TIME"  "DISPLACEMENT_X1"  "DISPLACEMENT_Y1"  "STRESS_XX"  "STRESS_XY"  "STRESS_YY"  "STRESS_ZZ"  "STRAIN_XX"  "STRAIN_XY"  "STRAIN_YY"  "STRAIN_PLS"  p_(1st_Invariant)  q_(2nd_Invariant)   Effective_Strain
 ZONE T="POINT=POINT5"
0.000000000000e+00 0.000000000000e+00 0.000000000000e+00 0.000000000000e+00 0.000000000000e+00 0.000000000000e+00 0.000000000000e+00 0.000000000000e+00 0.000000000000e+00 0.000000000000e+00 0.000000000000e+00 -0.000000000000e+00 0.000000000000e+00  0.000000000000e+00
1.000000000000e+01 1.835543541356e-03 -4.813619489961e-03 5.137354998628e+00 2.365451596242e+00 -4.756072487492e+01 -1.230277726413e+01 1.087374123681e-04 2.949668979364e-05 -2.198296395260e-04 0.000000000000e+00 1.824204904681e+01 4.667944340367e+01  2.943854030906e-04
2.000000000000e+01 3.671101488484e-03 -9.627242905661e-03 1.027482651933e+01 4.730927088491e+00 -9.512145593874e+01 -2.460552253163e+01 2.174753517435e-04 5.899367756553e-05 -4.396595171347e-04 0.000000000000e+00 3.648405065035e+01 9.335898991762e+01  5.887715089383e-04
3.000000000000e+01 5.506657803957e-03 -1.444086233907e-02 1.541228918326e+01 7.096421822548e+00 -1.426822077207e+02 -3.690827637587e+01 3.262132893730e-04 8.849090527876e-05 -6.594894704441e-04 0.000000000000e+00 5.472606497112e+01 1.400385505852e+02  8.831577561239e-04
4.000000000000e+01 7.342204968981e-03 -1.925447447919e-02 2.054967176282e+01 9.461965514947e+00 -1.902428973018e+02 -4.921103540630e+01 4.349507600201e-04 1.179887434923e-04 -8.793190036016e-04 0.000000000000e+00 7.296808698175e+01 1.867179989392e+02  1.177543448636e-03
5.000000000000e+01 9.188864496060e-03 -2.416851077033e-02 2.612854802174e+01 1.222170661172e+01 -2.381649273251e+02 -6.149054999798e+01 5.462959712201e-04 1.524021414124e-04 -1.101546383528e-03 0.000000000000e+00 9.117564310045e+01 2.341347942187e+02  1.477597141575e-03
6.000000000000e+01 1.105252627670e-02 -2.928703960500e-02 3.250757397473e+01 1.576853380082e+01 -2.868184462179e+02 -7.375015295053e+01 6.625058856142e-04 1.966303393239e-04 -1.328458667544e-03 0.000000000000e+00 1.093536750646e+02 2.829750777442e+02  1.788803688759e-03
7.000000000000e+01 1.293307628284e-02 -3.470048110737e-02 3.988271692356e+01 2.044822004387e+01 -3.363831106772e+02 -8.598511418856e+01 7.847728474366e-04 2.549850541961e-04 -1.561205488015e-03 0.000000000000e+00 1.274951693141e+02 3.336364929023e+02  2.115059055378e-03
8.000000000000e+01 1.486766631578e-02 -4.067921844240e-02 4.922760127664e+01 2.743714052142e+01 -3.870220339945e+02 -9.796038548819e+01 9.177018024487e-04 3.421354400447e-04 -1.802269340615e-03 0.000000000000e+00 1.452516060687e+02 3.873315533489e+02  2.468899992855e-03
9.000000000000e+01 1.896386929396e-02 -5.415598678518e-02 9.141987669405e+01 5.279984902739e+01 -4.131034893372e+02 -9.903296599107e+01 1.314662733520e-03 7.303443898202e-04 -2.168703154141e-03 2.464703554009e-04 1.402388595447e+02 4.506569372245e+02  3.298929140453e-03
1.000000000000e+02 4.259919127002e-02 -1.403999173120e-01 7.986358973809e+01 7.406773226697e+01 -4.178710869799e+02 -1.503870423475e+02 5.726898253409e-03 3.686941586092e-03 -6.718322645035e-03 6.895719065145e-03 1.627981798631e+02 4.501216779357e+02  1.253750325093e-02
