 TITLE = "Time curves in points"
 VARIABLES = "TIME"  "DISPLACEMENT_X1"  "DISPLACEMENT_Y1"  "STRESS_XX"  "STRESS_XY"  "STRESS_YY"  "STRESS_ZZ"  "STRAIN_XX"  "STRAIN_XY"  "STRAIN_YY"  "STRAIN_PLS"  p_(1st_Invariant)  q_(2nd_Invariant)   Effective_Strain
 ZONE T="POINT=POINT0"
0.000000000000e+00 0.000000000000e+00 0.000000000000e+00 0.000000000000e+00 0.000000000000e+00 0.000000000000e+00 0.000000000000e+00 0.000000000000e+00 0.000000000000e+00 0.000000000000e+00 0.000000000000e+00 -0.000000000000e+00 0.000000000000e+00  0.000000000000e+00
1.000000000000e+01 2.359333686865e-03 0.000000000000e+00 -3.342111083439e+00 4.508307303101e+00 -1.317934590139e+02 -3.918931532822e+01 2.235035934063e-04 5.621765510875e-05 -5.773772129265e-04 0.000000000000e+00 5.810829514184e+01 1.150700814145e+02  7.223887169316e-04
2.000000000000e+01 4.718665400047e-03 0.000000000000e+00 -6.684227195118e+00 9.016619237969e+00 -2.635870575202e+02 -7.837867256744e+01 4.470074167728e-04 1.124353679747e-04 -1.154755034263e-03 0.000000000000e+00 1.162166524276e+02 2.301402834338e+02  1.444778190793e-03
3.000000000000e+01 7.077981889775e-03 0.000000000000e+00 -1.002631642538e+01 1.352490262646e+01 -3.953798136410e+02 -1.175677777192e+02 6.705098360033e-04 1.686527248732e-04 -1.732129175152e-03 0.000000000000e+00 1.743246359285e+02 3.452097543254e+02  2.167163074986e-03
4.000000000000e+01 9.437331728500e-03 0.000000000000e+00 -1.336844437505e+01 1.803322968852e+01 -5.271738528648e+02 -1.567572661996e+02 8.940144038357e-04 2.248706263721e-04 -2.309508926042e-03 0.000000000000e+00 2.324331878131e+02 4.602803406253e+02  2.889554961446e-03
5.000000000000e+01 1.152021433305e-02 0.000000000000e+00 -1.192734630699e+01 2.216994177924e+01 -5.411007171605e+02 -2.046649137171e+02 1.830390898301e-03 4.829636270104e-04 -3.368482007134e-03 1.374693917221e-03 2.525643257282e+02 4.654623046291e+02  4.643533382561e-03
6.000000000000e+01 1.287829541262e-02 0.000000000000e+00 -3.856638247041e+00 2.079163254433e+01 -5.253287657343e+02 -2.281711942808e+02 3.067477152939e-03 6.889145451217e-04 -4.604885423940e-03 3.162912372279e-03 2.524521994207e+02 4.545033410053e+02  6.794378296261e-03
7.000000000000e+01 1.315428680645e-02 0.000000000000e+00 -2.961371353333e+00 1.882184128316e+01 -5.251434874394e+02 -2.442904274891e+02 4.433401776759e-03 8.787588956399e-04 -6.001338075639e-03 5.108090829218e-03 2.574650954273e+02 4.538269974531e+02  9.197505340566e-03
8.000000000000e+01 1.224588883562e-02 0.000000000000e+00 -3.632081836001e+00 1.581870801831e+01 -5.260138973669e+02 -2.548200695344e+02 6.060634600055e-03 1.061621449653e-03 -7.653074138333e-03 7.417937708766e-03 2.614886829124e+02 4.533352224105e+02  1.204427007954e-02
9.000000000000e+01 1.578577777596e-02 0.000000000000e+00 -3.670782198144e+00 1.092346887483e+01 -5.266608855472e+02 -2.636506383011e+02 1.040243617737e-02 1.535402348576e-03 -1.201419339602e-02 1.355162182880e-02 2.646607686821e+02 4.533202493659e+02  1.961124122848e-02
1.000000000000e+02 5.069465405408e-02 0.000000000000e+00 -3.318853789957e+00 1.087207811611e+01 -5.268679366302e+02 -2.652439709641e+02 4.321384580923e-02 5.468475326416e-03 -4.482854334321e-02 5.979618602525e-02 2.651435871281e+02 4.537977088174e+02  7.683723833514e-02
