 TITLE = "Time curves in points"
 VARIABLES = "TIME"  "DISPLACEMENT_X1"  "DISPLACEMENT_Y1"  "STRESS_XX"  "STRESS_XY"  "STRESS_YY"  "STRESS_ZZ"  "STRAIN_XX"  "STRAIN_XY"  "STRAIN_YY"  "STRAIN_PLS"  p_(1st_Invariant)  q_(2nd_Invariant)   Effective_Strain
 ZONE T="POINT=POINT5"
0.000000000000e+00 0.000000000000e+00 0.000000000000e+00 0.000000000000e+00 0.000000000000e+00 0.000000000000e+00 0.000000000000e+00 0.000000000000e+00 0.000000000000e+00 0.000000000000e+00 0.000000000000e+00 -0.000000000000e+00 0.000000000000e+00  0.000000000000e+00
1.000000000000e+01 1.835554339907e-03 -4.813620273321e-03 5.137437449878e+00 2.365478671927e+00 -4.756072935189e+01 -1.230275465158e+01 1.087377854562e-04 2.949702742181e-05 -2.198298084263e-04 0.000000000000e+00 1.824201551787e+01 4.667951799695e+01  2.943859390058e-04
2.000000000000e+01 3.671109150159e-03 -9.627237895553e-03 1.027487158182e+01 4.731013075315e+00 -9.512143997540e+01 -2.460550483414e+01 2.174755223615e-04 5.899474980335e-05 -4.396595279470e-04 0.000000000000e+00 3.648402440924e+01 9.335902518221e+01  5.887719680449e-04
3.000000000000e+01 5.506648656520e-03 -1.444084166449e-02 1.541223856362e+01 7.096448893559e+00 -1.426820997138e+02 -3.690825973356e+01 3.262128700018e-04 8.849124284864e-05 -6.594889007954e-04 0.000000000000e+00 5.472604029459e+01 1.400384180913e+02  8.831570155258e-04
4.000000000000e+01 7.342215088569e-03 -1.925448178449e-02 2.054973411240e+01 9.461915098440e+00 -1.902429206281e+02 -4.921102408957e+01 4.349510782046e-04 1.179881148090e-04 -8.793192195977e-04 0.000000000000e+00 7.296807020177e+01 1.867180622526e+02  1.177543697170e-03
5.000000000000e+01 9.188864162291e-03 -2.416851101848e-02 2.612854701900e+01 1.222170730282e+01 -2.381649298835e+02 -6.149055103070e+01 5.462959714070e-04 1.524021500303e-04 -1.101546393041e-03 0.000000000000e+00 9.117564463173e+01 2.341347957861e+02  1.477597153230e-03
6.000000000000e+01 1.105252630862e-02 -2.928703969445e-02 3.250757425401e+01 1.576853387606e+01 -2.868184467637e+02 -7.375015302780e+01 6.625058878373e-04 1.966303402622e-04 -1.328458670465e-03 0.000000000000e+00 1.093536751792e+02 2.829750784656e+02  1.788803693428e-03
7.000000000000e+01 1.293307633823e-02 -3.470048167252e-02 3.988271762203e+01 2.044822112083e+01 -3.363831139285e+02 -8.598511492887e+01 7.847728564073e-04 2.549850676256e-04 -1.561205503671e-03 0.000000000000e+00 1.274951704118e+02 3.336364965412e+02  2.115059081335e-03
8.000000000000e+01 1.486766632796e-02 -4.067921847365e-02 4.922760140426e+01 2.743714058524e+01 -3.870220341207e+02 -9.796038548777e+01 9.177018032418e-04 3.421354408405e-04 -1.802269341404e-03 0.000000000000e+00 1.452516060681e+02 3.873315535768e+02  2.468899994493e-03
9.000000000000e+01 1.896386966586e-02 -5.415598797691e-02 9.141987645798e+01 5.279984989404e+01 -4.131034889428e+02 -9.903296810770e+01 1.314662799153e-03 7.303444318455e-04 -2.168703223749e-03 2.464704570422e-04 1.402388601975e+02 4.506569366986e+02  3.298929275723e-03
1.000000000000e+02 4.259919135753e-02 -1.403999175932e-01 7.986358975237e+01 7.406773233588e+01 -4.178710869482e+02 -1.503870428027e+02 5.726898272355e-03 3.686941590027e-03 -6.718322664812e-03 6.895719092759e-03 1.627981799995e+02 4.501216779355e+02  1.253750328325e-02
