 TITLE = "Time curves in points"
 VARIABLES = "TIME"  "DISPLACEMENT_X1"  "DISPLACEMENT_Y1"  "STRESS_XX"  "STRESS_XY"  "STRESS_YY"  "STRESS_ZZ"  "STRAIN_XX"  "STRAIN_XY"  "STRAIN_YY"  "STRAIN_PLS"  p_(1st_Invariant)  q_(2nd_Invariant)   Effective_Strain
 ZONE T="POINT=POINT0"
0.000000000000e+00 0.000000000000e+00 0.000000000000e+00 0.000000000000e+00 0.000000000000e+00 0.000000000000e+00 0.000000000000e+00 0.000000000000e+00 0.000000000000e+00 0.000000000000e+00 0.000000000000e+00 -0.000000000000e+00 0.000000000000e+00  0.000000000000e+00
1.000000000000e+01 2.359316405554e-03 0.000000000000e+00 -3.342096621095e+00 4.508299505288e+00 -1.317932544568e+02 -3.918925181259e+01 2.235032875642e-04 5.621755787164e-05 -5.773763335478e-04 0.000000000000e+00 5.810820096350e+01 1.150699100047e+02  7.223876384892e-04
2.000000000000e+01 4.718655982900e-03 0.000000000000e+00 -6.684219554089e+00 9.016610722610e+00 -2.635868159628e+02 -7.837860029989e+01 4.470070138331e-04 1.124352617899e-04 -1.154753978758e-03 0.000000000000e+00 1.162165452722e+02 2.301400736884e+02  1.444776873400e-03
3.000000000000e+01 7.077993418084e-03 0.000000000000e+00 -1.002632802504e+01 1.352491769251e+01 -3.953802331267e+02 -1.175679027340e+02 6.705105431346e-04 1.686529127437e-04 -1.732131011148e-03 0.000000000000e+00 1.743248212952e+02 3.452101199108e+02  2.167165371685e-03
4.000000000000e+01 9.437318368151e-03 0.000000000000e+00 -1.336844022757e+01 1.803322889413e+01 -5.271738390040e+02 -1.567572609771e+02 8.940143971337e-04 2.248706164661e-04 -2.309508872183e-03 0.000000000000e+00 2.324331800696e+02 4.602803314671e+02  2.889554903002e-03
5.000000000000e+01 1.152021495057e-02 0.000000000000e+00 -1.192734705551e+01 2.216994151648e+01 -5.411007191303e+02 -2.046649131005e+02 1.830390859452e-03 4.829636132719e-04 -3.368481972551e-03 1.374693858987e-03 2.525643264288e+02 4.654623059378e+02  4.643533316967e-03
6.000000000000e+01 1.287829540379e-02 0.000000000000e+00 -3.856638290936e+00 2.079163257037e+01 -5.253287657401e+02 -2.281711938971e+02 3.067477128396e-03 6.889145390548e-04 -4.604885398719e-03 3.162912337221e-03 2.524521993094e+02 4.545033410089e+02  6.794378252230e-03
7.000000000000e+01 1.315428693510e-02 0.000000000000e+00 -2.961371170365e+00 1.882184130993e+01 -5.251434873152e+02 -2.442904258823e+02 4.433401549421e-03 8.787588599530e-04 -6.001337844416e-03 5.108090505754e-03 2.574650947893e+02 4.538269975705e+02  9.197504939987e-03
8.000000000000e+01 1.224588882336e-02 0.000000000000e+00 -3.632081872370e+00 1.581870819144e+01 -5.260138973680e+02 -2.548200693502e+02 6.060634576760e-03 1.061621442266e-03 -7.653074114740e-03 7.417937675468e-03 2.614886828636e+02 4.533352224027e+02  1.204427003754e-02
9.000000000000e+01 1.578577723291e-02 0.000000000000e+00 -3.670782200555e+00 1.092346900426e+01 -5.266608855172e+02 -2.636506380543e+02 1.040243575279e-02 1.535402294818e-03 -1.201419297089e-02 1.355162122961e-02 2.646607685907e+02 4.533202493480e+02  1.961124048740e-02
1.000000000000e+02 5.069465384402e-02 0.000000000000e+00 -3.318853786149e+00 1.087207812761e+01 -5.268679366232e+02 -2.652439709571e+02 4.321384572927e-02 5.468475316472e-03 -4.482854326322e-02 5.979618591244e-02 2.651435871221e+02 4.537977088154e+02  7.683723819556e-02
