 TITLE = "Time curves in points"
 VARIABLES = "TIME"  "DISPLACEMENT_X1"  "DISPLACEMENT_Y1"  "STRESS_XX"  "STRESS_XY"  "STRESS_YY"  "STRESS_ZZ"  "STRAIN_XX"  "STRAIN_XY"  "STRAIN_YY"  "STRAIN_PLS"  p_(1st_Invariant)  q_(2nd_Invariant)   Effective_Strain
 ZONE T="POINT=POINT3"
0.000000000000e+00 0.000000000000e+00 0.000000000000e+00 0.000000000000e+00 0.000000000000e+00 0.000000000000e+00 0.000000000000e+00 0.000000000000e+00 0.000000000000e+00 0.000000000000e+00 0.000000000000e+00 -0.000000000000e+00 0.000000000000e+00  0.000000000000e+00
1.000000000000e+00 4.444444506329e-04 -2.000000000000e-03 1.686411981912e-06 -9.366484522512e-07 -1.587301585635e+04 -6.349206341866e+03 4.444444440486e-04 -1.311307833152e-13 -6.666666660139e-04 0.000000000000e+00 7.407407398843e+03 1.383777441084e+04  9.686442087589e-04
2.000000000000e+00 8.888889438622e-04 -3.999999999999e-03 4.640851329896e-07 -2.111752200026e-07 -3.174603149896e+04 -1.269841259940e+04 8.888888819902e-04 -2.956453080036e-14 -1.333333322969e-03 0.000000000000e+00 1.481481469930e+04 2.767554863288e+04  1.937288404301e-03
3.000000000000e+00 1.333333367136e-03 -6.000000000000e-03 1.084707340245e-06 1.607569277761e-06 -4.761904751424e+04 -1.904761900526e+04 1.333333330444e-03 2.250596988866e-13 -1.999999995628e-03 0.000000000000e+00 2.222222217281e+04 4.151332318137e+04  2.905932622696e-03
4.000000000000e+00 1.777777857668e-03 -7.999999999999e-03 -2.019670865392e+02 7.350443089852e-06 -6.352160275324e+04 -2.552982135077e+04 1.777777767694e-03 1.031864300313e-12 -2.666666651971e-03 8.845421581986e-06 2.975113039685e+04 5.520077860288e+04  3.874576817120e-03
5.000000000000e+00 2.765029107232e-03 -1.000000000000e-02 -4.161342451933e+02 -3.812778587482e+00 -6.716114110319e+04 -3.076304133883e+04 2.772919457177e-03 -6.953034666224e-07 -3.327297995461e-03 1.041117954551e-03 3.278010556240e+04 5.788200266189e+04  5.290210304739e-03
6.000000000000e+00 3.826033517780e-03 -1.200000000000e-02 -4.329244530923e+02 -6.022999341919e+00 -6.951679736481e+04 -3.487559019712e+04 3.840744659175e-03 -1.277978068009e-06 -3.989947511827e-03 2.181733432450e-03 3.494177067167e+04 5.982847220067e+04  6.781989028319e-03
7.000000000000e+00 4.928284054302e-03 -1.400000000000e-02 -4.217280446889e+02 -6.911493694135e+00 -7.119300215051e+04 -3.813294342187e+04 4.952801467138e-03 -1.726419950399e-06 -4.653595461128e-03 3.389342668927e-03 3.658255787235e+04 6.133382742638e+04  8.320729322459e-03
8.000000000000e+00 6.058673414497e-03 -1.600000000000e-02 -4.039741535908e+02 -7.041673927430e+00 -7.242186894555e+04 -4.070158846381e+04 6.097060924464e-03 -2.081770353563e-06 -5.318011042620e-03 4.645507880002e-03 3.784247718765e+04 6.251660331749e+04  9.893414157468e-03
9.000000000000e+00 7.208782340252e-03 -1.800000000000e-02 -3.852564468189e+02 -6.624850704629e+00 -7.334972699478e+04 -4.272390764489e+04 7.265558332000e-03 -2.345052541005e-06 -5.983295585773e-03 5.937797092684e-03 3.881963036216e+04 6.345989450748e+04  1.149174327664e-02
1.000000000000e+01 8.373011465109e-03 -2.000000000000e-02 -3.678369928670e+02 -5.773778857947e+00 -7.407522864967e+04 -4.431906972819e+04 8.452373654664e-03 -2.508856214034e-06 -6.649508189069e-03 7.257041467920e-03 3.958737845691e+04 6.422585008228e+04  1.310964249213e-02
1.100000000000e+01 9.547848552643e-03 -2.200000000000e-02 -3.526231498501e+02 -4.610415870538e+00 -7.466452827305e+04 -4.558341643526e+04 9.652915772511e-03 -2.573306674030e-06 -7.316559490876e-03 8.596281874156e-03 4.020018928605e+04 6.486060089733e+04  1.474235320668e-02
1.200000000000e+01 1.066033723620e-02 -2.400000000000e-02 -3.144375562785e+02 -2.786516484880e+00 -7.507842027936e+04 -4.653324597893e+04 1.083806469296e-02 -2.435614971476e-06 -7.968356455219e-03 9.922738801132e-03 4.064203460486e+04 6.534775584157e+04  1.634992145061e-02
1.300000000000e+01 7.240559878449e-03 -2.600000000000e-02 1.555830801525e+01 -4.668274444571e+00 -7.127729361043e+04 -4.488079696564e+04 1.074549297253e-02 -2.699061085833e-06 -7.817949019324e-03 9.922738801132e-03 3.871417742269e+04 6.243047580068e+04  1.614291436492e-02
1.400000000000e+01 3.921436292609e-03 -2.800000000000e-02 1.560041497211e+01 -6.449995783693e+00 -6.823068378001e+04 -4.366213619069e+04 1.066018966577e-02 -2.948502073310e-06 -7.689992585441e-03 9.922738801132e-03 3.729240651858e+04 5.987033389617e+04  1.596096598720e-02
1.500000000000e+01 6.009709474317e-04 -3.000000000000e-02 1.564059028509e+01 -8.212550568855e+00 -6.517537543532e+04 -4.243999678269e+04 1.057464271948e-02 -3.195259743232e-06 -7.561670759873e-03 9.922738801132e-03 3.586657720924e+04 5.731163739744e+04  1.577859089407e-02
1.600000000000e+01 -2.721410902753e-03 -3.200000000000e-02 1.567255783777e+01 -9.957364060087e+00 -6.210730125332e+04 -4.121275432287e+04 1.048873798502e-02 -3.439533632005e-06 -7.432812539321e-03 9.922738801132e-03 3.443479433945e+04 5.475230472101e+04  1.559555018174e-02
1.700000000000e+01 -6.094466491468e-03 -3.400000000000e-02 1.563577399252e+01 -1.119116153749e+01 -5.870177700059e+04 -3.985055933532e+04 1.039338176103e-02 -3.612265278842e-06 -7.289779490758e-03 9.922738801132e-03 3.284556685397e+04 5.192502881247e+04  1.539249069517e-02
1.800000000000e+01 -9.410862218001e-03 -3.600000000000e-02 1.548965869446e+01 -1.302163932450e+01 -5.567175624079e+04 -3.863860947752e+04 1.030853504291e-02 -3.868532169023e-06 -7.162514527618e-03 9.922738801132e-03 3.143162535320e+04 4.942336412032e+04  1.521192249484e-02
1.900000000000e+01 -1.273069019633e-02 -3.800000000000e-02 1.537204165568e+01 -1.479643308841e+01 -5.262021874335e+04 -3.741804152535e+04 1.022308705307e-02 -4.117003295969e-06 -7.034346659448e-03 9.922738801132e-03 3.000762940901e+04 4.691947023539e+04  1.503018066857e-02
2.000000000000e+01 -1.610059106487e-02 -4.000000000000e-02 1.427351786628e+01 -1.610762309217e+01 -4.923455856186e+04 -3.606421686227e+04 1.012824242998e-02 -4.300569896497e-06 -6.892118173160e-03 9.922738801132e-03 2.842816730209e+04 4.416199942566e+04  1.482861041473e-02
