 TITLE = "Time curves in points"
 VARIABLES = "TIME"  "DISPLACEMENT_X1"  "DISPLACEMENT_Y1"  "STRESS_XX"  "STRESS_XY"  "STRESS_YY"  "STRESS_ZZ"  "STRAIN_XX"  "STRAIN_XY"  "STRAIN_YY"  "STRAIN_PLS"  p_(1st_Invariant)  q_(2nd_Invariant)   Effective_Strain
 ZONE T="POINT=POINT6"
0.000000000000e+00 0.000000000000e+00 0.000000000000e+00 0.000000000000e+00 0.000000000000e+00 0.000000000000e+00 0.000000000000e+00 0.000000000000e+00 0.000000000000e+00 0.000000000000e+00 0.000000000000e+00 -0.000000000000e+00 0.000000000000e+00  0.000000000000e+00
1.000000000000e+00 1.777777840925e-04 -2.000000000000e-03 1.027603603790e-06 -2.367417398032e-07 -1.587301587253e+04 -6.349206348602e+03 4.444444444741e-04 -3.314384357245e-14 -6.666666666751e-04 0.000000000000e+00 7.407407406702e+03 1.383777442439e+04  9.686442097072e-04
2.000000000000e+00 3.555556126103e-04 -4.000000000000e-03 -2.657009847300e-06 2.028256629077e-06 -3.174603175250e+04 -1.269841270206e+04 8.888888889584e-04 2.839559280707e-13 -1.333333333531e-03 0.000000000000e+00 1.481481481907e+04 2.767554885126e+04  1.937288419588e-03
3.000000000000e+00 5.333333676297e-04 -6.000000000000e-03 7.920106226165e-06 -1.461941350124e-06 -4.761904763138e+04 -1.904761904938e+04 1.333333334011e-03 -2.046717890173e-13 -2.000000000740e-03 0.000000000000e+00 2.222222222428e+04 4.151332328929e+04  2.905932630250e-03
4.000000000000e+00 7.111111941442e-04 -8.000000000000e-03 -2.019672116815e+02 1.969361234461e-06 -6.352160310957e+04 -2.552982157150e+04 1.777777777751e-03 2.764613685067e-13 -2.666666666509e-03 8.845427747042e-06 2.975113063092e+04 5.520077880406e+04  3.874576838536e-03
5.000000000000e+00 1.090674186635e-03 -1.000000000000e-02 -4.199121500622e+02 4.248244383042e-01 -6.722199186309e+04 -3.085392422072e+04 2.794796902020e-03 7.799291155992e-08 -3.341204608848e-03 1.064234656282e-03 3.283194274462e+04 5.792833197074e+04  5.320951631974e-03
6.000000000000e+00 1.501200263840e-03 -1.200000000000e-02 -4.347591615678e+02 1.201872751393e-01 -6.958587104669e+04 -3.499607115527e+04 3.879945089661e-03 4.074926647227e-08 -4.013622581965e-03 2.224053427786e-03 3.500556712118e+04 5.988662128677e+04  6.836356877963e-03
7.000000000000e+00 1.926436770999e-03 -1.400000000000e-02 -4.243736693673e+02 -3.254633851274e-01 -7.126520380839e+04 -3.826424235888e+04 5.007855850636e-03 -3.740381337293e-08 -4.685931750240e-03 3.449475443468e-03 3.665127327888e+04 6.139764789653e+04  8.396609275415e-03
8.000000000000e+00 2.359998468850e-03 -1.600000000000e-02 -4.082690142240e+02 -7.992278867247e-01 -7.249584771898e+04 -4.083453674138e+04 6.167645379279e-03 -1.429002444481e-07 -5.358697650191e-03 4.723186998154e-03 3.791288449153e+04 6.258330744901e+04  9.990297137379e-03
9.000000000000e+00 2.798391662872e-03 -1.800000000000e-02 -3.910361519831e+02 -1.280051951303e+00 -7.342414559488e+04 -4.285254524651e+04 7.351160073831e-03 -2.735988457149e-07 -6.031959927401e-03 6.032501256410e-03 3.888924233113e+04 6.352730746370e+04  1.160887583734e-02
1.000000000000e+01 3.239967607344e-03 -2.000000000000e-02 -3.746548438404e+02 -1.746868239757e+00 -7.414893899762e+04 -4.443959876169e+04 8.551949376978e-03 -4.259792652237e-07 -6.705524422685e-03 7.367626748016e-03 3.965439753439e+04 6.429233702569e+04  1.324557291637e-02
1.100000000000e+01 3.684381959473e-03 -2.200000000000e-02 -3.600245976046e+02 -2.177170464095e+00 -7.473672217487e+04 -4.569386062785e+04 9.764998484196e-03 -5.949667333366e-07 -7.379104317631e-03 8.721107615283e-03 4.026353580011e+04 6.492510172112e+04  1.489507702112e-02
1.200000000000e+01 4.014724828813e-03 -2.400000000000e-02 -3.815758002844e+02 -3.366232580979e+00 -7.534440369701e+04 -4.677470956667e+04 1.102222969574e-02 -9.593362967776e-07 -8.074562205980e-03 1.012586673690e-02 4.083356302132e+04 6.552852782426e+04  1.660384848075e-02
1.300000000000e+01 6.529546214794e-04 -2.600000000000e-02 -4.322762373607e+01 -4.787135273822e+00 -7.126710961033e+04 -4.500845266138e+04 1.092227608473e-02 -1.158262673776e-06 -7.912789603283e-03 1.012586673690e-02 3.877292996515e+04 6.238681763878e+04  1.638090445760e-02
1.400000000000e+01 -2.612627474211e-03 -2.800000000000e-02 -7.741563220173e+01 -5.117689421073e+00 -6.801773581368e+04 -4.372237834611e+04 1.082985772207e-02 -1.204540254391e-06 -7.775358639587e-03 1.012586673690e-02 3.727250993066e+04 5.962815789659e+04  1.618480931034e-02
1.500000000000e+01 -5.879443055726e-03 -3.000000000000e-02 -1.109888550986e+02 -5.452184963634e+00 -6.476409925483e+04 -4.243435301173e+04 1.073734582306e-02 -1.251369630349e-06 -7.637765853874e-03 1.012586673690e-02 3.576981370722e+04 5.687666298023e+04  1.598860220748e-02
1.600000000000e+01 -9.148013444914e-03 -3.200000000000e-02 -1.439230232492e+02 -5.789346762941e+00 -6.150384993750e+04 -4.114342695205e+04 1.064467560711e-02 -1.298572282252e-06 -7.499913225838e-03 1.012586673690e-02 3.426373330427e+04 5.413200060304e+04  1.579214885964e-02
1.700000000000e+01 -1.246292847977e-02 -3.400000000000e-02 -1.605466469642e+02 -6.221873209542e+00 -5.806652417422e+04 -3.977514609623e+04 1.054773229354e-02 -1.359125984776e-06 -7.355080082316e-03 1.012586673690e-02 3.266740563914e+04 5.126886709873e+04  1.558625294293e-02
1.800000000000e+01 -1.572608287745e-02 -3.600000000000e-02 -1.940497153863e+02 -6.513505209473e+00 -5.482928299364e+04 -3.849365085136e+04 1.045568241161e-02 -1.399954464767e-06 -7.218177866816e-03 1.012586673690e-02 3.117232785346e+04 4.857325032663e+04  1.539137315691e-02
1.900000000000e+01 -1.899238602660e-02 -3.800000000000e-02 -2.261880130799e+02 -6.822697739866e+00 -5.158088191313e+04 -3.720714573824e+04 1.036337737286e-02 -1.443241419022e-06 -7.080845149099e-03 1.012586673690e-02 2.967140522148e+04 4.588845383513e+04  1.519603353660e-02
2.000000000000e+01 -2.230489184028e-02 -4.000000000000e-02 -2.331607479015e+02 -7.083603229004e+00 -4.817333628256e+04 -3.584691657994e+04 1.026767324034e-02 -1.479768187501e-06 -6.937532996040e-03 1.012586673690e-02 2.808447120347e+04 4.311925879759e+04  1.499289185941e-02
