 TITLE = "Time curves in points"
 VARIABLES = "TIME"  "DISPLACEMENT_X1"  "DISPLACEMENT_Y1"  "STRESS_XX"  "STRESS_XY"  "STRESS_YY"  "STRESS_ZZ"  "STRAIN_XX"  "STRAIN_XY"  "STRAIN_YY"  "STRAIN_PLS"  p_(1st_Invariant)  q_(2nd_Invariant)   Effective_Strain
 ZONE T="POINT=POINT3"
0.000000000000e+00 0.000000000000e+00 0.000000000000e+00 0.000000000000e+00 0.000000000000e+00 0.000000000000e+00 0.000000000000e+00 0.000000000000e+00 0.000000000000e+00 0.000000000000e+00 0.000000000000e+00 -0.000000000000e+00 0.000000000000e+00  0.000000000000e+00
1.000000000000e+00 4.444444560837e-04 -2.000000000000e-03 -2.205009271468e-08 -3.146315983047e-08 -1.587301584514e+04 -6.349206338064e+03 4.444444436630e-04 -4.404842376265e-15 -6.666666654952e-04 0.000000000000e+00 7.407407394408e+03 1.383777439962e+04  9.686442079732e-04
2.000000000000e+00 8.888889588771e-04 -3.999999999998e-03 5.482546839630e-06 1.465029476288e-06 -3.174603142364e+04 -1.269841256726e+04 8.888888800922e-04 2.051041266803e-13 -1.333333319946e-03 0.000000000000e+00 1.481481466181e+04 2.767554857148e+04  1.937288400003e-03
3.000000000000e+00 1.333333401334e-03 -6.000000000000e-03 3.977987338051e-07 9.541953609111e-07 -4.761904736919e+04 -1.904761894752e+04 1.333333326354e-03 1.335873505275e-13 -1.999999989517e-03 0.000000000000e+00 2.222222210544e+04 4.151332305433e+04  2.905932613803e-03
4.000000000000e+00 1.777777777319e-03 -8.000000000000e-03 -2.019672152393e+02 1.728484507264e-07 -6.352160311900e+04 -2.552982157671e+04 1.777777777867e-03 2.426467953070e-14 -2.666666666806e-03 8.845427748952e-06 2.975113063698e+04 5.520077880926e+04  3.874576838903e-03
5.000000000000e+00 2.765029112723e-03 -1.000000000000e-02 -4.161342347354e+02 -3.812779908275e+00 -6.716114106244e+04 -3.076304130240e+04 2.772919450162e-03 -6.953037086839e-07 -3.327297990509e-03 1.041117947417e-03 3.278010553319e+04 5.788200263627e+04  5.290210294444e-03
6.000000000000e+00 3.826033520920e-03 -1.200000000000e-02 -4.329244572050e+02 -6.022997086178e+00 -6.951679738035e+04 -3.487559021162e+04 3.840744660741e-03 -1.277977708695e-06 -3.989947513107e-03 2.181733433973e-03 3.494177068306e+04 5.982847221055e+04  6.781989030782e-03
7.000000000000e+00 4.928284023157e-03 -1.400000000000e-02 -4.217280446758e+02 -6.911493811138e+00 -7.119300215691e+04 -3.813294343487e+04 4.952801471420e-03 -1.726419929234e-06 -4.653595463674e-03 3.389342673614e-03 3.658255787882e+04 6.133382743231e+04  8.320729328387e-03
8.000000000000e+00 6.058673339962e-03 -1.600000000000e-02 -4.039741506602e+02 -7.041676882775e+00 -7.242186894229e+04 -4.070158846968e+04 6.097060928979e-03 -2.081770872331e-06 -5.318011045025e-03 4.645507885112e-03 3.784247718754e+04 6.251660331782e+04  9.893414163498e-03
9.000000000000e+00 7.208782403641e-03 -1.800000000000e-02 -3.852564329771e+02 -6.624857092049e+00 -7.334972692758e+04 -4.272390756570e+04 7.265558289682e-03 -2.345053837408e-06 -5.983295560964e-03 5.937797046306e-03 3.881963030875e+04 6.345989445790e+04  1.149174321811e-02
1.000000000000e+01 8.373011501611e-03 -2.000000000000e-02 -3.678369858817e+02 -5.773783067900e+00 -7.407522860441e+04 -4.431906966589e+04 8.452373608098e-03 -2.508857412560e-06 -6.649508162601e-03 7.257041416367e-03 3.958737841873e+04 6.422585004534e+04  1.310964242834e-02
1.100000000000e+01 9.547848445947e-03 -2.200000000000e-02 -3.526231825985e+02 -4.610417377952e+00 -7.466452838238e+04 -4.558341651795e+04 9.652915806793e-03 -2.573307582931e-06 -7.316559512186e-03 8.596281911089e-03 4.020018936098e+04 6.486060096459e+04  1.474235325518e-02
1.200000000000e+01 1.066033732635e-02 -2.400000000000e-02 -3.144375281365e+02 -2.786506564288e+00 -7.507842017464e+04 -4.653324589162e+04 1.083806463044e-02 -2.435613778722e-06 -7.968356418823e-03 9.922738732380e-03 4.064203453147e+04 6.534775577303e+04  1.634992136413e-02
1.300000000000e+01 7.240559869026e-03 -2.600000000000e-02 1.555830877681e+01 -4.668264395310e+00 -7.127729374366e+04 -4.488079698446e+04 1.074549291552e-02 -2.699059875065e-06 -7.817948992155e-03 9.922738732380e-03 3.871417747311e+04 6.243047590841e+04  1.614291429096e-02
1.400000000000e+01 3.921436354724e-03 -2.800000000000e-02 1.560041252921e+01 -6.449989862778e+00 -6.823068364950e+04 -4.366213610529e+04 1.066018960124e-02 -2.948501440511e-06 -7.689992547105e-03 9.922738732380e-03 3.729240644742e+04 5.987033377910e+04  1.596096589728e-02
1.500000000000e+01 6.009709648321e-04 -3.000000000000e-02 1.564058715012e+01 -8.212542877737e+00 -6.517537551383e+04 -4.243999678118e+04 1.057464266077e-02 -3.195258862605e-06 -7.561670730296e-03 9.922738732380e-03 3.586657723595e+04 5.731163745445e+04  1.577859081657e-02
1.600000000000e+01 -2.721410942846e-03 -3.200000000000e-02 1.567254735488e+01 -9.957360409667e+00 -6.210730146941e+04 -4.121275437933e+04 1.048873792986e-02 -3.439533317075e-06 -7.432812515317e-03 9.922738732380e-03 3.443479443379e+04 5.475230488541e+04  1.559555011198e-02
1.700000000000e+01 -6.094466412923e-03 -3.400000000000e-02 1.563577210371e+01 -1.119115390937e+01 -5.870177695224e+04 -3.985055928256e+04 1.039338169882e-02 -3.612264407033e-06 -7.289779455889e-03 9.922738732380e-03 3.284556682090e+04 5.192502876388e+04  1.539249061015e-02
1.800000000000e+01 -9.410862270892e-03 -3.600000000000e-02 1.548965425203e+01 -1.302163165294e+01 -5.567175647674e+04 -3.863860953950e+04 1.030853498855e-02 -3.868531291134e-06 -7.162514504618e-03 9.922738732380e-03 3.143162545399e+04 4.942336430321e+04  1.521192242659e-02
1.900000000000e+01 -1.273068997208e-02 -3.800000000000e-02 1.537204158256e+01 -1.479642599993e+01 -5.262021840253e+04 -3.741804135488e+04 1.022308698274e-02 -4.117002499712e-06 -7.034346612346e-03 9.922738732380e-03 3.000762923861e+04 4.691946994854e+04  1.503018056622e-02
2.000000000000e+01 -1.610059097248e-02 -4.000000000000e-02 1.427351348014e+01 -1.610761380760e+01 -4.923455847197e+04 -3.606421679390e+04 1.012824236651e-02 -4.300568792785e-06 -6.892118136476e-03 9.922738732380e-03 2.842816725080e+04 4.416199934015e+04  1.482861032705e-02
