 TITLE = "Time curves in points"
 VARIABLES = "TIME"  "DISPLACEMENT_X1"  "DISPLACEMENT_Y1"  "STRESS_XX"  "STRESS_XY"  "STRESS_YY"  "STRESS_ZZ"  "STRAIN_XX"  "STRAIN_XY"  "STRAIN_YY"  "STRAIN_PLS"  p_(1st_Invariant)  q_(2nd_Invariant)   Effective_Strain
 ZONE T="POINT=POINT6"
0.000000000000e+00 0.000000000000e+00 0.000000000000e+00 0.000000000000e+00 0.000000000000e+00 0.000000000000e+00 0.000000000000e+00 0.000000000000e+00 0.000000000000e+00 0.000000000000e+00 0.000000000000e+00 -0.000000000000e+00 0.000000000000e+00  0.000000000000e+00
1.000000000000e+00 1.777777896758e-04 -2.000000000000e-03 -5.995918602114e-07 -3.006157037916e-08 -1.587301587124e+04 -6.349206348736e+03 4.444444443695e-04 -4.208619853082e-15 -6.666666665753e-04 0.000000000000e+00 7.407407406859e+03 1.383777442188e+04  9.686442095317e-04
2.000000000000e+00 3.555556277144e-04 -3.999999999998e-03 1.650382222983e-06 1.189159056478e-05 -3.174603178908e+04 -1.269841271497e+04 8.888888901636e-04 1.664822679069e-12 -1.333333335188e-03 0.000000000000e+00 1.481481483414e+04 2.767554888681e+04  1.937288422077e-03
3.000000000000e+00 5.333334030420e-04 -6.000000000000e-03 7.073008924231e-07 2.153605243460e-06 -4.761904765293e+04 -1.904761906089e+04 1.333333334312e-03 3.015047340844e-13 -2.000000001443e-03 0.000000000000e+00 2.222222223771e+04 4.151332330196e+04  2.905932631137e-03
4.000000000000e+00 7.111111105856e-04 -8.000000000000e-03 -2.019672148344e+02 -1.598802655534e-07 -6.352160311813e+04 -2.552982157643e+04 1.777777777903e-03 -2.244418963953e-14 -2.666666666806e-03 8.845427799044e-06 2.975113063646e+04 5.520077880882e+04  3.874576838931e-03
5.000000000000e+00 1.090674191824e-03 -1.000000000000e-02 -4.199121531531e+02 4.248253333799e-01 -6.722199189007e+04 -3.085392425676e+04 2.794796910134e-03 7.799307508920e-08 -3.341204614115e-03 1.064234664797e-03 3.283194276666e+04 5.792833199033e+04  5.320951643474e-03
6.000000000000e+00 1.501200265550e-03 -1.200000000000e-02 -4.347591580848e+02 1.201857723986e-01 -6.958587103840e+04 -3.499607115226e+04 3.879945090227e-03 4.074902481005e-08 -4.013622582081e-03 2.224053428518e-03 3.500556711625e+04 5.988662128260e+04  6.836356878551e-03
7.000000000000e+00 1.926436735395e-03 -1.400000000000e-02 -4.243736755327e+02 -3.254630744490e-01 -7.126520383604e+04 -3.826424238920e+04 5.007855859751e-03 -3.740378671074e-08 -4.685931755986e-03 3.449475453200e-03 3.665127330026e+04 6.139764791565e+04  8.396609288315e-03
8.000000000000e+00 2.359998380595e-03 -1.600000000000e-02 -4.082690111209e+02 -7.992280560434e-01 -7.249584773956e+04 -4.083453679607e+04 6.167645412980e-03 -1.429002935551e-07 -5.358697669231e-03 4.723187035482e-03 3.791288451558e+04 6.258330747269e+04  9.990297183313e-03
9.000000000000e+00 2.798391747181e-03 -1.800000000000e-02 -3.910361198085e+02 -1.280052159435e+00 -7.342414548792e+04 -4.285254516242e+04 7.351160050001e-03 -2.735989073965e-07 -6.031959911692e-03 6.032501231285e-03 3.888924225672e+04 6.352730739785e+04  1.160887580292e-02
1.000000000000e+01 3.239967655161e-03 -2.000000000000e-02 -3.746548489912e+02 -1.746870134587e+00 -7.414893901117e+04 -4.443959876664e+04 8.551949376865e-03 -4.259796575314e-07 -6.705524422944e-03 7.367626747685e-03 3.965439754227e+04 6.429233703242e+04  1.324557291648e-02
1.100000000000e+01 3.684381822960e-03 -2.200000000000e-02 -3.600246121302e+02 -2.177172458222e+00 -7.473672224226e+04 -4.569386069975e+04 9.764998543362e-03 -5.949672439332e-07 -7.379104351344e-03 8.721107680783e-03 4.026353585138e+04 6.492510177043e+04  1.489507710232e-02
1.200000000000e+01 4.014724964237e-03 -2.400000000000e-02 -3.815757641811e+02 -3.366229505721e+00 -7.534440356246e+04 -4.677470945315e+04 1.102222961697e-02 -9.593359218106e-07 -8.074562160067e-03 1.012586665026e-02 4.083356292660e+04 6.552852773596e+04  1.660384837174e-02
1.300000000000e+01 6.529546551512e-04 -2.600000000000e-02 -4.322760395671e+01 -4.787132634370e+00 -7.126710953843e+04 -4.500845257945e+04 1.092227600703e-02 -1.158262359821e-06 -7.912789559544e-03 1.012586665026e-02 3.877292990728e+04 6.238681758874e+04  1.638090435131e-02
1.400000000000e+01 -2.612627365933e-03 -2.800000000000e-02 -7.741563190729e+01 -5.117683272254e+00 -6.801773572409e+04 -4.372237826489e+04 1.082985764305e-02 -1.204539449125e-06 -7.775358594559e-03 1.012586665026e-02 3.727250987363e+04 5.962815781440e+04  1.618480920179e-02
1.500000000000e+01 -5.879442994888e-03 -3.000000000000e-02 -1.109888278092e+02 -5.452183599656e+00 -6.476409922008e+04 -4.243435294165e+04 1.073734574671e-02 -1.251369494962e-06 -7.637765811906e-03 1.012586665026e-02 3.576981366318e+04 5.687666296701e+04  1.598860210383e-02
1.600000000000e+01 -9.148013441833e-03 -3.200000000000e-02 -1.439229986673e+02 -5.789347680852e+00 -6.150384983949e+04 -4.114342685775e+04 1.064467552888e-02 -1.298572466329e-06 -7.499913181137e-03 1.012586665026e-02 3.426373323197e+04 5.413200053432e+04  1.579214875204e-02
1.700000000000e+01 -1.246292835695e-02 -3.400000000000e-02 -1.605466318359e+02 -6.221869395298e+00 -5.806652418446e+04 -3.977514604901e+04 1.054773221794e-02 -1.359125506351e-06 -7.355080041897e-03 1.012586665026e-02 3.266740562177e+04 5.126886711091e+04  1.558625284118e-02
1.800000000000e+01 -1.572608288835e-02 -3.600000000000e-02 -1.940496729956e+02 -6.513500631231e+00 -5.482928294157e+04 -3.849365076832e+04 1.045568233541e-02 -1.399953879382e-06 -7.218177824543e-03 1.012586665026e-02 3.117232779430e+04 4.857325031037e+04  1.539137305309e-02
1.900000000000e+01 -1.899238575557e-02 -3.800000000000e-02 -2.261880216134e+02 -6.822691128653e+00 -5.158088197969e+04 -3.720714572301e+04 1.036337729784e-02 -1.443240549021e-06 -7.080845110383e-03 1.012586665026e-02 2.967140524144e+04 4.588845387083e+04  1.519603343672e-02
2.000000000000e+01 -2.230489170335e-02 -4.000000000000e-02 -2.331607325550e+02 -7.083599572107e+00 -4.817333630752e+04 -3.584691653852e+04 1.026767316516e-02 -1.479767731105e-06 -6.937532956245e-03 1.012586665026e-02 2.808447119286e+04 4.311925881872e+04  1.499289175849e-02
