 TITLE = "Profiles along polylines"
 VARIABLES = "DIST" "DISPLACEMENT_X1" "DISPLACEMENT_Y1" "STRESS_XX" "STRESS_XY" "STRESS_YY" "STRESS_ZZ" "STRAIN_XX" "STRAIN_XY" "STRAIN_YY" "STRAIN_PLS"  p_(1st_Invariant)  q_(2nd_Invariant)   Effective_Strain
 ZONE T="TIME=0.000000000000e+00"
0.000000000000e+00 0.000000000000e+00 0.000000000000e+00 0.000000000000e+00 0.000000000000e+00 0.000000000000e+00 0.000000000000e+00 0.000000000000e+00 0.000000000000e+00 0.000000000000e+00 0.000000000000e+00 -0.000000000000e+00 0.000000000000e+00  0.000000000000e+00
2.000000000000e-02 0.000000000000e+00 0.000000000000e+00 0.000000000000e+00 0.000000000000e+00 0.000000000000e+00 0.000000000000e+00 0.000000000000e+00 0.000000000000e+00 0.000000000000e+00 0.000000000000e+00 -0.000000000000e+00 0.000000000000e+00  0.000000000000e+00
4.000000000000e-02 0.000000000000e+00 0.000000000000e+00 0.000000000000e+00 0.000000000000e+00 0.000000000000e+00 0.000000000000e+00 0.000000000000e+00 0.000000000000e+00 0.000000000000e+00 0.000000000000e+00 -0.000000000000e+00 0.000000000000e+00  0.000000000000e+00
6.000000000000e-02 0.000000000000e+00 0.000000000000e+00 0.000000000000e+00 0.000000000000e+00 0.000000000000e+00 0.000000000000e+00 0.000000000000e+00 0.000000000000e+00 0.000000000000e+00 0.000000000000e+00 -0.000000000000e+00 0.000000000000e+00  0.000000000000e+00
8.000000000000e-02 0.000000000000e+00 0.000000000000e+00 0.000000000000e+00 0.000000000000e+00 0.000000000000e+00 0.000000000000e+00 0.000000000000e+00 0.000000000000e+00 0.000000000000e+00 0.000000000000e+00 -0.000000000000e+00 0.000000000000e+00  0.000000000000e+00
1.000000000000e-01 0.000000000000e+00 0.000000000000e+00 0.000000000000e+00 0.000000000000e+00 0.000000000000e+00 0.000000000000e+00 0.000000000000e+00 0.000000000000e+00 0.000000000000e+00 0.000000000000e+00 -0.000000000000e+00 0.000000000000e+00  0.000000000000e+00
1.200000000000e-01 0.000000000000e+00 0.000000000000e+00 0.000000000000e+00 0.000000000000e+00 0.000000000000e+00 0.000000000000e+00 0.000000000000e+00 0.000000000000e+00 0.000000000000e+00 0.000000000000e+00 -0.000000000000e+00 0.000000000000e+00  0.000000000000e+00
1.400000000000e-01 0.000000000000e+00 0.000000000000e+00 0.000000000000e+00 0.000000000000e+00 0.000000000000e+00 0.000000000000e+00 0.000000000000e+00 0.000000000000e+00 0.000000000000e+00 0.000000000000e+00 -0.000000000000e+00 0.000000000000e+00  0.000000000000e+00
1.600000000000e-01 0.000000000000e+00 0.000000000000e+00 0.000000000000e+00 0.000000000000e+00 0.000000000000e+00 0.000000000000e+00 0.000000000000e+00 0.000000000000e+00 0.000000000000e+00 0.000000000000e+00 -0.000000000000e+00 0.000000000000e+00  0.000000000000e+00
1.800000000000e-01 0.000000000000e+00 0.000000000000e+00 0.000000000000e+00 0.000000000000e+00 0.000000000000e+00 0.000000000000e+00 0.000000000000e+00 0.000000000000e+00 0.000000000000e+00 0.000000000000e+00 -0.000000000000e+00 0.000000000000e+00  0.000000000000e+00
2.000000000000e-01 0.000000000000e+00 0.000000000000e+00 0.000000000000e+00 0.000000000000e+00 0.000000000000e+00 0.000000000000e+00 0.000000000000e+00 0.000000000000e+00 0.000000000000e+00 0.000000000000e+00 -0.000000000000e+00 0.000000000000e+00  0.000000000000e+00
2.200000000000e-01 0.000000000000e+00 0.000000000000e+00 0.000000000000e+00 0.000000000000e+00 0.000000000000e+00 0.000000000000e+00 0.000000000000e+00 0.000000000000e+00 0.000000000000e+00 0.000000000000e+00 -0.000000000000e+00 0.000000000000e+00  0.000000000000e+00
2.400000000000e-01 0.000000000000e+00 0.000000000000e+00 0.000000000000e+00 0.000000000000e+00 0.000000000000e+00 0.000000000000e+00 0.000000000000e+00 0.000000000000e+00 0.000000000000e+00 0.000000000000e+00 -0.000000000000e+00 0.000000000000e+00  0.000000000000e+00
2.600000000000e-01 0.000000000000e+00 0.000000000000e+00 0.000000000000e+00 0.000000000000e+00 0.000000000000e+00 0.000000000000e+00 0.000000000000e+00 0.000000000000e+00 0.000000000000e+00 0.000000000000e+00 -0.000000000000e+00 0.000000000000e+00  0.000000000000e+00
2.800000000000e-01 0.000000000000e+00 0.000000000000e+00 0.000000000000e+00 0.000000000000e+00 0.000000000000e+00 0.000000000000e+00 0.000000000000e+00 0.000000000000e+00 0.000000000000e+00 0.000000000000e+00 -0.000000000000e+00 0.000000000000e+00  0.000000000000e+00
3.000000000000e-01 0.000000000000e+00 0.000000000000e+00 0.000000000000e+00 0.000000000000e+00 0.000000000000e+00 0.000000000000e+00 0.000000000000e+00 0.000000000000e+00 0.000000000000e+00 0.000000000000e+00 -0.000000000000e+00 0.000000000000e+00  0.000000000000e+00
3.200000000000e-01 0.000000000000e+00 0.000000000000e+00 0.000000000000e+00 0.000000000000e+00 0.000000000000e+00 0.000000000000e+00 0.000000000000e+00 0.000000000000e+00 0.000000000000e+00 0.000000000000e+00 -0.000000000000e+00 0.000000000000e+00  0.000000000000e+00
3.400000000000e-01 0.000000000000e+00 0.000000000000e+00 0.000000000000e+00 0.000000000000e+00 0.000000000000e+00 0.000000000000e+00 0.000000000000e+00 0.000000000000e+00 0.000000000000e+00 0.000000000000e+00 -0.000000000000e+00 0.000000000000e+00  0.000000000000e+00
 ZONE T="TIME=6.000000000000e+00"
0.000000000000e+00 -5.550045282548e-12 0.000000000000e+00 -9.907650833651e+04 1.235548893533e+01 -2.170737801975e+05 -9.907661024760e+04 -7.957458220148e-13 -2.261428855207e-12 -8.823529299525e-04 5.058020219140e-05 1.384089662605e+05 1.179972228461e+05  8.823529295547e-04
2.000000000000e-02 -5.839479856732e-12 -1.764705861681e-05 -9.907649434798e+04 1.060764335655e+01 -2.170738160363e+05 -9.907659628757e+04 -5.756790815868e-13 -1.134571857719e-10 -8.823529311369e-04 5.057995362824e-05 1.384089688906e+05 1.179972721490e+05  8.823529308490e-04
4.000000000000e-02 -6.418413925663e-12 -3.529411725196e-05 -9.907647158748e+04 7.429873028492e+00 -2.170738747997e+05 -9.907657341851e+04 -1.378832933217e-12 -1.958961990147e-10 -8.823529323732e-04 5.057954569888e-05 1.384089732686e+05 1.179973529985e+05  8.823529316838e-04
6.000000000000e-02 -6.387539579561e-12 -5.294117592164e-05 -9.907646029208e+04 5.202991633670e+00 -2.170739037042e+05 -9.907656226489e+04 -3.105474219646e-13 -2.352080065599e-10 -8.823529345255e-04 5.057934656000e-05 1.384089754204e+05 1.179973927698e+05  8.823529343703e-04
8.000000000000e-02 -4.996624081765e-12 -7.058823464620e-05 -9.907645514243e+04 3.643500478109e+00 -2.170739182755e+05 -9.907655711564e+04 -3.050730228311e-13 -2.340367874004e-10 -8.823529377999e-04 5.057925000822e-05 1.384089768445e+05 1.179974123152e+05  8.823529376474e-04
1.000000000000e-01 -2.157622634469e-12 -8.823529342835e-05 -9.907645235678e+04 2.551505510751e+00 -2.170739253579e+05 -9.907655461956e+04 1.866849535838e-12 -2.112561099267e-10 -8.823529409543e-04 5.057920416151e-05 1.384089774448e+05 1.179974219525e+05  8.823529418878e-04
1.200000000000e-01 1.311192567424e-12 -1.058823522693e-04 -9.907645118059e+04 1.786001305490e+00 -2.170739289997e+05 -9.907655353214e+04 2.532442899472e-12 -1.928241037861e-10 -8.823529433218e-04 5.057918206843e-05 1.384089779041e+05 1.179974266839e+05  8.823529445881e-04
1.400000000000e-01 3.962727505131e-12 -1.235294111397e-04 -9.907645081886e+04 1.248014797422e+00 -2.170739309129e+05 -9.907655305724e+04 1.683964577262e-12 -1.984682689263e-10 -8.823529442454e-04 5.057917072911e-05 1.384089782630e+05 1.179974289947e+05  8.823529450874e-04
1.600000000000e-01 4.385203593947e-12 -1.411764700248e-04 -9.907645040344e+04 8.686473594906e-01 -2.170739317043e+05 -9.907655273309e+04 2.368444963416e-12 -2.345247424426e-10 -8.823529446633e-04 5.057916542384e-05 1.384089782803e+05 1.179974301456e+05  8.823529458476e-04
1.800000000000e-01 1.980782103867e-12 -1.588235289181e-04 -9.907645062525e+04 6.007139353052e-01 -2.170739323471e+05 -9.907655271223e+04 5.496990069182e-13 -2.886001494749e-10 -8.823529446438e-04 5.057916208685e-05 1.384089785615e+05 1.179974306829e+05  8.823529449188e-04
2.000000000000e-01 -2.537629117899e-12 -1.764705878060e-04 -9.907645045105e+04 4.122781466997e-01 -2.170739324877e+05 -9.907655259748e+04 9.960574238529e-13 -3.348658524306e-10 -8.823529446348e-04 5.057916080258e-05 1.384089785121e+05 1.179974309656e+05  8.823529451331e-04
2.200000000000e-01 -7.236402422203e-12 -1.941176467058e-04 -9.907645040315e+04 2.815932145403e-01 -2.170739326171e+05 -9.907655261872e+04 1.514635121450e-12 -3.456249127167e-10 -8.823529453904e-04 5.057916076765e-05 1.384089785463e+05 1.179974311072e+05  8.823529461479e-04
2.400000000000e-01 -9.707199560128e-12 -2.117647056025e-04 -9.907645076793e+04 1.931931381539e-01 -2.170739328585e+05 -9.907655266140e+04 -9.003763319010e-13 -3.047956408616e-10 -8.823529444405e-04 5.057915913482e-05 1.384089787626e+05 1.179974311443e+05  8.823529439905e-04
2.600000000000e-01 -8.187842283433e-12 -2.294117644901e-04 -9.907645046184e+04 1.350426722183e-01 -2.170739327195e+05 -9.907655257903e+04 7.764123384413e-13 -2.189637803280e-10 -8.823529448783e-04 5.057915971217e-05 1.384089785868e+05 1.179974311994e+05  8.823529452666e-04
2.800000000000e-01 -2.572904849633e-12 -2.470588233834e-04 -9.907645074900e+04 9.712485958665e-02 -2.170739328612e+05 -9.907655259230e+04 -1.277020920592e-12 -1.163341282186e-10 -8.823529438096e-04 5.057915835202e-05 1.384089787342e+05 1.179974311907e+05  8.823529431711e-04
3.000000000000e-01 5.279409719197e-12 -2.647058822583e-04 -9.907645095966e+04 7.141293525416e-02 -2.170739329987e+05 -9.907655266782e+04 -2.289688013477e-12 -3.160425353152e-11 -8.823529437984e-04 5.057915803376e-05 1.384089788754e+05 1.179974311850e+05  8.823529426536e-04
3.200000000000e-01 1.219862615922e-11 -2.823529411372e-04 -9.907645097292e+04 5.228792322903e-02 -2.170739329859e+05 -9.907655262924e+04 -2.677453998779e-12 1.112313345121e-11 -8.823529432864e-04 5.057915756135e-05 1.384089788627e+05 1.179974311849e+05  8.823529419477e-04
3.400000000000e-01 1.528029616147e-11 -3.000000000000e-04 -9.907645147287e+04 4.365711986982e-02 -2.170739332471e+05 -9.907655272612e+04 -5.698372633205e-12 1.302267544815e-11 -8.823529422423e-04 5.057915603715e-05 1.384089791487e+05 1.179974311477e+05  8.823529393931e-04
