 TITLE = "Time curves in points"
 VARIABLES = "TIME"  "DISPLACEMENT_X1"  "DISPLACEMENT_Y1"  "STRESS_XX"  "STRESS_XY"  "STRESS_YY"  "STRESS_ZZ"  "STRAIN_XX"  "STRAIN_XY"  "STRAIN_YY"  "STRAIN_PLS"  p_(1st_Invariant)  q_(2nd_Invariant)   Effective_Strain
 ZONE T="POINT=POINT3"
0.000000000000e+00 0.000000000000e+00 0.000000000000e+00 0.000000000000e+00 0.000000000000e+00 0.000000000000e+00 0.000000000000e+00 0.000000000000e+00 0.000000000000e+00 0.000000000000e+00 0.000000000000e+00 -0.000000000000e+00 0.000000000000e+00  0.000000000000e+00
1.000000000000e+00 0.000000000000e+00 -5.000000000000e-05 -1.613178410646e+04 1.486042688200e-04 -3.764057439914e+04 -1.613170755168e+04 -5.234129492777e-10 2.032045497936e-12 -1.470583462714e-04 0.000000000000e+00 2.330135535243e+04 2.150882857017e+04  1.470580845656e-04
2.000000000000e+00 0.000000000000e+00 -1.000000000000e-04 -3.226348664132e+04 1.486496008782e-04 -7.528121349138e+04 -3.226341003981e+04 -5.237324292283e-10 2.032665377873e-12 -2.941171694762e-04 0.000000000000e+00 4.660270339084e+04 4.301776515087e+04  2.941169076104e-04
3.000000000000e+00 0.000000000000e+00 -1.500000000000e-04 -4.839518909609e+04 1.485985520989e-04 -1.129218526572e+05 -4.839511252599e+04 -5.235176987036e-10 2.031967326309e-12 -4.411759931975e-04 0.000000000000e+00 6.990405142642e+04 6.452670184620e+04  4.411757314389e-04
4.000000000000e+00 0.000000000000e+00 -2.000000000000e-04 -6.452689160023e+04 1.486078682938e-04 -1.505624917780e+05 -6.452681501348e+04 -5.236315727876e-10 2.032094717885e-12 -5.882348166021e-04 0.000000000000e+00 9.320539946391e+04 8.603563847119e+04  5.882345547865e-04
5.000000000000e+00 0.000000000000e+00 -2.500000000000e-04 -8.065859404066e+04 1.485753457911e-04 -1.882031309680e+05 -8.065851750260e+04 -5.232986603664e-10 2.031649998459e-12 -7.352936404684e-04 0.000000000000e+00 1.165067475037e+05 1.075445751964e+05  7.352933788192e-04
6.000000000000e+00 0.000000000000e+00 -3.000000000000e-04 -9.907649733524e+04 5.102005115412e-02 -2.170739387021e+05 -9.907652947862e+04 -5.237393073350e-10 2.032541078011e-12 -8.823524635815e-04 5.057869120902e-05 1.384089885053e+05 1.179974252952e+05  8.823522017120e-04
