 TITLE = "Profiles along polylines"
 VARIABLES = "DIST" "DISPLACEMENT_X1" "DISPLACEMENT_Y1" "STRESS_XX" "STRESS_XY" "STRESS_YY" "STRESS_ZZ" "STRAIN_XX" "STRAIN_XY" "STRAIN_YY" "STRAIN_PLS"  p_(1st_Invariant)  q_(2nd_Invariant)   Effective_Strain
 ZONE T="TIME=0.000000000000e+00"
0.000000000000e+00 0.000000000000e+00 0.000000000000e+00 0.000000000000e+00 0.000000000000e+00 0.000000000000e+00 0.000000000000e+00 0.000000000000e+00 0.000000000000e+00 0.000000000000e+00 0.000000000000e+00 -0.000000000000e+00 0.000000000000e+00  0.000000000000e+00
2.000000000000e-02 0.000000000000e+00 0.000000000000e+00 0.000000000000e+00 0.000000000000e+00 0.000000000000e+00 0.000000000000e+00 0.000000000000e+00 0.000000000000e+00 0.000000000000e+00 0.000000000000e+00 -0.000000000000e+00 0.000000000000e+00  0.000000000000e+00
4.000000000000e-02 0.000000000000e+00 0.000000000000e+00 0.000000000000e+00 0.000000000000e+00 0.000000000000e+00 0.000000000000e+00 0.000000000000e+00 0.000000000000e+00 0.000000000000e+00 0.000000000000e+00 -0.000000000000e+00 0.000000000000e+00  0.000000000000e+00
6.000000000000e-02 0.000000000000e+00 0.000000000000e+00 0.000000000000e+00 0.000000000000e+00 0.000000000000e+00 0.000000000000e+00 0.000000000000e+00 0.000000000000e+00 0.000000000000e+00 0.000000000000e+00 -0.000000000000e+00 0.000000000000e+00  0.000000000000e+00
8.000000000000e-02 0.000000000000e+00 0.000000000000e+00 0.000000000000e+00 0.000000000000e+00 0.000000000000e+00 0.000000000000e+00 0.000000000000e+00 0.000000000000e+00 0.000000000000e+00 0.000000000000e+00 -0.000000000000e+00 0.000000000000e+00  0.000000000000e+00
1.000000000000e-01 0.000000000000e+00 0.000000000000e+00 0.000000000000e+00 0.000000000000e+00 0.000000000000e+00 0.000000000000e+00 0.000000000000e+00 0.000000000000e+00 0.000000000000e+00 0.000000000000e+00 -0.000000000000e+00 0.000000000000e+00  0.000000000000e+00
1.200000000000e-01 0.000000000000e+00 0.000000000000e+00 0.000000000000e+00 0.000000000000e+00 0.000000000000e+00 0.000000000000e+00 0.000000000000e+00 0.000000000000e+00 0.000000000000e+00 0.000000000000e+00 -0.000000000000e+00 0.000000000000e+00  0.000000000000e+00
1.400000000000e-01 0.000000000000e+00 0.000000000000e+00 0.000000000000e+00 0.000000000000e+00 0.000000000000e+00 0.000000000000e+00 0.000000000000e+00 0.000000000000e+00 0.000000000000e+00 0.000000000000e+00 -0.000000000000e+00 0.000000000000e+00  0.000000000000e+00
1.600000000000e-01 0.000000000000e+00 0.000000000000e+00 0.000000000000e+00 0.000000000000e+00 0.000000000000e+00 0.000000000000e+00 0.000000000000e+00 0.000000000000e+00 0.000000000000e+00 0.000000000000e+00 -0.000000000000e+00 0.000000000000e+00  0.000000000000e+00
1.800000000000e-01 0.000000000000e+00 0.000000000000e+00 0.000000000000e+00 0.000000000000e+00 0.000000000000e+00 0.000000000000e+00 0.000000000000e+00 0.000000000000e+00 0.000000000000e+00 0.000000000000e+00 -0.000000000000e+00 0.000000000000e+00  0.000000000000e+00
2.000000000000e-01 0.000000000000e+00 0.000000000000e+00 0.000000000000e+00 0.000000000000e+00 0.000000000000e+00 0.000000000000e+00 0.000000000000e+00 0.000000000000e+00 0.000000000000e+00 0.000000000000e+00 -0.000000000000e+00 0.000000000000e+00  0.000000000000e+00
2.200000000000e-01 0.000000000000e+00 0.000000000000e+00 0.000000000000e+00 0.000000000000e+00 0.000000000000e+00 0.000000000000e+00 0.000000000000e+00 0.000000000000e+00 0.000000000000e+00 0.000000000000e+00 -0.000000000000e+00 0.000000000000e+00  0.000000000000e+00
2.400000000000e-01 0.000000000000e+00 0.000000000000e+00 0.000000000000e+00 0.000000000000e+00 0.000000000000e+00 0.000000000000e+00 0.000000000000e+00 0.000000000000e+00 0.000000000000e+00 0.000000000000e+00 -0.000000000000e+00 0.000000000000e+00  0.000000000000e+00
2.600000000000e-01 0.000000000000e+00 0.000000000000e+00 0.000000000000e+00 0.000000000000e+00 0.000000000000e+00 0.000000000000e+00 0.000000000000e+00 0.000000000000e+00 0.000000000000e+00 0.000000000000e+00 -0.000000000000e+00 0.000000000000e+00  0.000000000000e+00
2.800000000000e-01 0.000000000000e+00 0.000000000000e+00 0.000000000000e+00 0.000000000000e+00 0.000000000000e+00 0.000000000000e+00 0.000000000000e+00 0.000000000000e+00 0.000000000000e+00 0.000000000000e+00 -0.000000000000e+00 0.000000000000e+00  0.000000000000e+00
3.000000000000e-01 0.000000000000e+00 0.000000000000e+00 0.000000000000e+00 0.000000000000e+00 0.000000000000e+00 0.000000000000e+00 0.000000000000e+00 0.000000000000e+00 0.000000000000e+00 0.000000000000e+00 -0.000000000000e+00 0.000000000000e+00  0.000000000000e+00
3.200000000000e-01 0.000000000000e+00 0.000000000000e+00 0.000000000000e+00 0.000000000000e+00 0.000000000000e+00 0.000000000000e+00 0.000000000000e+00 0.000000000000e+00 0.000000000000e+00 0.000000000000e+00 -0.000000000000e+00 0.000000000000e+00  0.000000000000e+00
3.400000000000e-01 0.000000000000e+00 0.000000000000e+00 0.000000000000e+00 0.000000000000e+00 0.000000000000e+00 0.000000000000e+00 0.000000000000e+00 0.000000000000e+00 0.000000000000e+00 0.000000000000e+00 -0.000000000000e+00 0.000000000000e+00  0.000000000000e+00
 ZONE T="TIME=6.000000000000e+00"
0.000000000000e+00 -5.374121745246e-12 0.000000000000e+00 -9.907650575635e+04 1.207985539475e+01 -2.170737869676e+05 -9.907660779211e+04 1.421614105352e-13 -2.144272491169e-12 -8.823529317821e-04 5.058015722360e-05 1.384089668387e+05 1.179972320484e+05  8.823529318532e-04
2.000000000000e-02 -5.693392532979e-12 -1.764705864604e-05 -9.907649239885e+04 1.037067370196e+01 -2.170738212093e+05 -9.907659441163e+04 -2.469387540432e-14 -1.158115200659e-10 -8.823529324211e-04 5.057991919368e-05 1.384089693399e+05 1.179972791713e+05  8.823529324088e-04
4.000000000000e-02 -6.342971074490e-12 -3.529411730006e-05 -9.907647072908e+04 7.263531676461e+00 -2.170738774035e+05 -9.907657253062e+04 -1.599510633829e-12 -2.003938181538e-10 -8.823529329771e-04 5.057952861970e-05 1.384089735544e+05 1.179973564444e+05  8.823529321774e-04
6.000000000000e-02 -6.401893768639e-12 -5.294117597471e-05 -9.907645995003e+04 5.086122291939e+00 -2.170739050098e+05 -9.907656181585e+04 -1.113670262911e-12 -2.418974454875e-10 -8.823529343256e-04 5.057933763895e-05 1.384089755919e+05 1.179973944558e+05  8.823529337689e-04
8.000000000000e-02 -5.098788878578e-12 -7.058823469332e-05 -9.907645510327e+04 3.561245766340e+00 -2.170739189711e+05 -9.907655689647e+04 -1.656162632742e-12 -2.433389321840e-10 -8.823529371568e-04 5.057924499585e-05 1.384089769903e+05 1.179974131324e+05  8.823529363288e-04
1.000000000000e-01 -2.311819545540e-12 -8.823529346705e-05 -9.907645234343e+04 2.493546810488e+00 -2.170739257040e+05 -9.907655451491e+04 1.181335682009e-12 -2.219993496606e-10 -8.823529406499e-04 5.057920170003e-05 1.384089775208e+05 1.179974223539e+05  8.823529412406e-04
1.200000000000e-01 1.188563965860e-12 -1.058823523118e-04 -9.907645109134e+04 1.745205332487e+00 -2.170739291575e+05 -9.907655351843e+04 3.098880360350e-12 -2.026717704101e-10 -8.823529439828e-04 5.057918165296e-05 1.384089779224e+05 1.179974268914e+05  8.823529455323e-04
1.400000000000e-01 3.982857981351e-12 -1.235294112016e-04 -9.907645064756e+04 1.219402020741e+00 -2.170739309696e+05 -9.907655310530e+04 3.329556943181e-12 -2.054589938520e-10 -8.823529457798e-04 5.057917171520e-05 1.384089782408e+05 1.179974291121e+05  8.823529474447e-04
1.600000000000e-01 4.627868568286e-12 -1.411764701130e-04 -9.907645016554e+04 8.486364321763e-01 -2.170739316685e+05 -9.907655275533e+04 4.319810153742e-12 -2.386326999580e-10 -8.823529460751e-04 5.057916666198e-05 1.384089781965e+05 1.179974302173e+05  8.823529482351e-04
1.800000000000e-01 2.430655527411e-12 -1.588235290213e-04 -9.907645053570e+04 5.866628651183e-01 -2.170739323242e+05 -9.907655269416e+04 1.085642769889e-12 -2.917640850068e-10 -8.823529448734e-04 5.057916226531e-05 1.384089785180e+05 1.179974307136e+05  8.823529454164e-04
2.000000000000e-01 -2.009902866541e-12 -1.764705878992e-04 -9.907645046241e+04 4.022578150671e-01 -2.170739324444e+05 -9.907655249294e+04 1.259891911309e-13 -3.395864855940e-10 -8.823529433688e-04 5.057915964636e-05 1.384089784666e+05 1.179974309688e+05  8.823529434320e-04
2.200000000000e-01 -6.817251211502e-12 -1.941176467720e-04 -9.907645049322e+04 2.743495301793e-01 -2.170739325952e+05 -9.907655250574e+04 -9.341104834436e-15 -3.521758036311e-10 -8.823529436665e-04 5.057915915465e-05 1.384089785314e+05 1.179974310968e+05  8.823529436620e-04
2.400000000000e-01 -9.525283611873e-12 -2.117647056429e-04 -9.907645081028e+04 1.880552587917e-01 -2.170739328372e+05 -9.907655258877e+04 -1.763472936444e-12 -3.102492542535e-10 -8.823529433988e-04 5.057915817877e-05 1.384089787454e+05 1.179974311381e+05  8.823529425172e-04
2.600000000000e-01 -8.237642636563e-12 -2.294117645238e-04 -9.907645033288e+04 1.316294498035e-01 -2.170739326621e+05 -9.907655256835e+04 1.663346341993e-12 -2.199406183257e-10 -8.823529453204e-04 5.057916024341e-05 1.384089785211e+05 1.179974312117e+05  8.823529461522e-04
2.800000000000e-01 -2.732722353751e-12 -2.470588234287e-04 -9.907645055934e+04 9.507706326997e-02 -2.170739327874e+05 -9.907655259798e+04 1.884810136733e-13 -1.118495330931e-10 -8.823529447091e-04 5.057915935363e-05 1.384089786482e+05 1.179974312089e+05  8.823529448033e-04
3.000000000000e-01 5.150651390832e-12 -2.647058823114e-04 -9.907645085420e+04 7.025940116296e-02 -2.170739329378e+05 -9.907655263643e+04 -1.733237937082e-12 -2.425003167053e-11 -8.823529438853e-04 5.057915824012e-05 1.384089788095e+05 1.179974311926e+05  8.823529430186e-04
3.200000000000e-01 1.216452978117e-11 -2.823529411766e-04 -9.907645100236e+04 5.150992507612e-02 -2.170739329310e+05 -9.907655251209e+04 -3.775718821479e-12 1.672021525988e-11 -8.823529417601e-04 5.057915622610e-05 1.384089788151e+05 1.179974311738e+05  8.823529398723e-04
3.400000000000e-01 1.529655921240e-11 -3.000000000000e-04 -9.907645157594e+04 4.271967312149e-02 -2.170739331802e+05 -9.907655253534e+04 -7.901032584796e-12 1.328757193623e-11 -8.823529395164e-04 5.057915358873e-05 1.384089790971e+05 1.179974311246e+05  8.823529355659e-04
