 TITLE = "Time curves in points"
 VARIABLES = "TIME"  "DISPLACEMENT_X1"  "DISPLACEMENT_Y1"  "STRESS_XX"  "STRESS_XY"  "STRESS_YY"  "STRESS_ZZ"  "STRAIN_XX"  "STRAIN_XY"  "STRAIN_YY"  "STRAIN_PLS"  p_(1st_Invariant)  q_(2nd_Invariant)   Effective_Strain
 ZONE T="POINT=POINT3"
0.000000000000e+00 0.000000000000e+00 0.000000000000e+00 0.000000000000e+00 0.000000000000e+00 0.000000000000e+00 0.000000000000e+00 0.000000000000e+00 0.000000000000e+00 0.000000000000e+00 0.000000000000e+00 -0.000000000000e+00 0.000000000000e+00  0.000000000000e+00
1.000000000000e+00 0.000000000000e+00 -5.000000000000e-05 -1.613178411723e+04 1.459460317964e-04 -3.764057451421e+04 -1.613170758943e+04 -5.232284532237e-10 1.995696215246e-12 -1.470583468000e-04 0.000000000000e+00 2.330135540696e+04 2.150882866098e+04  1.470580851865e-04
2.000000000000e+00 0.000000000000e+00 -1.000000000000e-04 -3.226348646804e+04 1.457801909978e-04 -7.528121377225e+04 -3.226341007209e+04 -5.223270100444e-10 1.993428473876e-12 -2.941171711759e-04 0.000000000000e+00 4.660270343746e+04 4.301776550224e+04  2.941169100127e-04
3.000000000000e+00 0.000000000000e+00 -1.500000000000e-04 -4.839518903060e+04 1.458505864664e-04 -1.129218528407e+05 -4.839511256138e+04 -5.228279751496e-10 1.994391076069e-12 -4.411759942099e-04 0.000000000000e+00 6.990405147755e+04 6.452670204471e+04  4.411757327961e-04
4.000000000000e+00 0.000000000000e+00 -2.000000000000e-04 -6.452689138858e+04 1.457028658576e-04 -1.505624920998e+05 -6.452681504651e+04 -5.219586621195e-10 1.992371113920e-12 -5.882348185761e-04 0.000000000000e+00 9.320539951162e+04 8.603563888226e+04  5.882345575970e-04
5.000000000000e+00 0.000000000000e+00 -2.500000000000e-04 -8.065859382126e+04 1.456288679666e-04 -1.882031312904e+05 -8.065851753349e+04 -5.215873950791e-10 1.991359251459e-12 -7.352936424612e-04 0.000000000000e+00 1.165067475484e+05 1.075445756130e+05  7.352933816677e-04
6.000000000000e+00 0.000000000000e+00 -3.000000000000e-04 -9.907649725691e+04 4.988096458695e-02 -2.170739387394e+05 -9.907652960011e+04 -5.222383733887e-10 1.992977368032e-12 -8.823524653636e-04 5.057869282601e-05 1.384089885322e+05 1.179974253110e+05  8.823522042445e-04
