 TITLE = "Time curves in points"
 VARIABLES = "TIME"  "DISPLACEMENT_X1"  "DISPLACEMENT_Y1"  "STRESS_XX"  "STRESS_XY"  "STRESS_YY"  "STRESS_ZZ"  "STRAIN_XX"  "STRAIN_XY"  "STRAIN_YY"  "STRAIN_ZZ"  p_(1st_Invariant)  q_(2nd_Invariant)   Effective_Strain
 ZONE T="POINT=POINT3"
0.000000000000e+00 0.000000000000e+00 0.000000000000e+00 0.000000000000e+00 0.000000000000e+00 0.000000000000e+00 0.000000000000e+00 0.000000000000e+00 0.000000000000e+00 0.000000000000e+00 0.000000000000e+00 -0.000000000000e+00 0.000000000000e+00  0.000000000000e+00
2.000000000000e+00 0.000000000000e+00 0.000000000000e+00 -4.990699114497e+05 -1.510045721613e-06 -4.990699114466e+05 -3.343768403344e+05 -1.029322430807e-05 -1.891477157848e-16 -1.029322430788e-05 1.572191432702e-14 4.441722210769e+05 1.646930711137e+05  1.029322432370e-05
4.000000000000e+00 0.000000000000e+00 0.000000000000e+00 -9.989648225324e+05 -4.896867972707e+00 -9.989199807639e+05 -6.695278716856e+05 -2.060071933657e-05 -6.284647280903e-10 -2.059791359795e-05 -1.107182276769e-08 8.891375583273e+05 3.294145323608e+05  2.058824481665e-05
6.000000000000e+00 0.000000000000e+00 0.000000000000e+00 -1.498862989243e+06 -9.978192330243e+00 -1.498773067929e+06 -1.004682245004e+06 -3.090832495420e-05 -1.280002214898e-09 -3.090269859392e-05 -2.220174178691e-08 1.334106100725e+06 4.941357900213e+05  3.088331049623e-05
8.000000000000e+00 0.000000000000e+00 0.000000000000e+00 -1.998760431594e+06 -1.496474916724e+01 -1.998625604843e+06 -1.339835758944e+06 -4.121597686818e-05 -1.919594121793e-09 -4.120754079281e-05 -3.331143339043e-08 1.779073931793e+06 6.588572701309e+05  4.117844817943e-05
1.000000000000e+01 0.000000000000e+00 0.000000000000e+00 -2.498657178627e+06 -1.985721795572e+01 -2.498477621339e+06 -1.674988341574e+06 -5.152367711769e-05 -2.547326492713e-09 -5.151244228302e-05 -4.439660749266e-08 2.224041047180e+06 8.235790738079e+05  5.147366420152e-05
1.200000000000e+01 0.000000000000e+00 0.000000000000e+00 -2.998553276299e+06 -2.465940472858e+01 -2.998329160281e+06 -2.010139964394e+06 -6.183142763150e-05 -3.163676947986e-09 -6.181740479928e-05 -5.545453760556e-08 2.669007466991e+06 9.883012738780e+05  6.176896311464e-05
1.400000000000e+01 0.000000000000e+00 0.000000000000e+00 -3.498448758094e+06 -2.937603569463e+01 -3.498180251614e+06 -2.345290610021e+06 -7.213922977038e-05 -3.769237912041e-09 -7.212242948057e-05 -6.648341570746e-08 3.113973206576e+06 1.153023919403e+06  7.206434797423e-05
1.600000000000e+01 0.000000000000e+00 0.000000000000e+00 -3.998343648621e+06 -3.401244402257e+01 -3.998030916169e+06 -2.680440265555e+06 -8.244708454376e-05 -4.364677505520e-09 -8.242751709951e-05 -7.748192551533e-08 3.558938276782e+06 1.317747045989e+06  8.235982098643e-05
1.800000000000e+01 0.000000000000e+00 0.000000000000e+00 -4.498237964158e+06 -3.857432733466e+01 -4.497881166303e+06 -3.015588929511e+06 -9.275499251860e-05 -4.950709288532e-09 -9.273266797715e-05 -8.844954883114e-08 4.003902686658e+06 1.482470669428e+06  9.265538311292e-05
2.000000000000e+01 0.000000000000e+00 0.000000000000e+00 -4.998131717703e+06 -4.306756342215e+01 -4.997731011041e+06 -3.350736600290e+06 -1.030629541583e-04 -5.528069261221e-09 -1.030378823280e-04 -9.938586563037e-08 4.448866443012e+06 1.647194802325e+06  1.029510351124e-04
2.720000000000e+01 0.000000000000e+00 -3.000000000000e-05 -4.998946757511e+06 -4.943720653647e+01 -4.998510521828e+06 -8.522539284412e+06 -1.932610542144e-05 -6.592010006586e-09 -1.929869691766e-05 -2.501145144186e-04 6.173332187917e+06 3.523810666035e+06  2.308021147520e-04
3.440000000000e+01 0.000000000000e+00 -6.000000000000e-05 -5.043962335692e+06 3.251358655374e+04 -5.051263960333e+06 -1.378299916713e+07 6.458935933638e-05 4.098307166406e-06 6.410685902143e-05 -5.029694244474e-04 7.959408487718e+06 8.735569831912e+06  5.673620950765e-04
4.160000000000e+01 0.000000000000e+00 -9.000000000000e-05 -5.091102194046e+06 6.515161393940e+04 -5.106164614935e+06 -1.903396946099e+07 1.484716379162e-04 8.223414338256e-06 1.474763576228e-04 -7.558633846778e-04 9.743745423325e+06 1.393579905723e+07  9.039500154746e-04
4.880000000000e+01 0.000000000000e+00 -1.200000000000e-04 -5.133930415293e+06 9.596392037664e+04 -5.155918245419e+06 -2.427030762863e+07 2.324218032780e-04 1.212517124079e-05 2.309679803560e-04 -1.008749756830e-03 1.152005209645e+07 1.912611502962e+07  1.240623057536e-03
5.600000000000e+01 0.000000000000e+00 -1.500000000000e-04 -5.172254183242e+06 1.249369116763e+05 -5.200322948863e+06 -2.949252746161e+07 3.164368960819e-04 1.580035668501e-05 3.145795258840e-04 -1.261607078286e-03 1.328836819791e+07 2.430721431665e+07  1.577353535777e-03
6.320000000000e+01 0.000000000000e+00 -1.800000000000e-04 -5.206052915917e+06 1.522038741890e+05 -5.239434763851e+06 -3.470068928244e+07 4.004989379021e-04 1.926464917078e-05 3.982880506889e-04 -1.514373763701e-03 1.504872565407e+07 2.947913840893e+07  1.914059080572e-03
7.040000000000e+01 0.000000000000e+00 -2.100000000000e-04 -5.235478733715e+06 1.779868987994e+05 -5.273549293481e+06 -3.989448134589e+07 4.845747679964e-04 2.254523271596e-05 4.820509485420e-04 -1.766949073270e-03 1.680116979103e+07 3.464135479187e+07  2.250601786265e-03
7.760000000000e+01 0.000000000000e+00 -2.400000000000e-04 -5.260844267267e+06 2.026156487602e+05 -5.303199000957e+06 -4.507370813470e+07 5.686232606705e-04 2.568316031621e-05 5.658125496847e-04 -2.019213372013e-03 1.854591713431e+07 3.979325092660e+07  2.586814943299e-03
8.480000000000e+01 0.000000000000e+00 -2.700000000000e-04 -5.282531605483e+06 2.264829269857e+05 -5.329000408167e+06 -5.023805834123e+07 6.525928530787e-04 2.872752610974e-05 6.495057245284e-04 -2.271019513854e-03 2.028319678496e+07 4.493402271648e+07  2.922493635153e-03
9.200000000000e+01 0.000000000000e+00 -3.000000000000e-04 -5.300702093117e+06 2.499676222668e+05 -5.351263513306e+06 -5.538681014305e+07 7.364252935458e-04 3.172543216832e-05 7.330622667088e-04 -2.522192744908e-03 2.201292524982e+07 5.006271869094e+07  3.257401344586e-03
9.920000000000e+01 0.000000000000e+00 -3.300000000000e-04 -5.315263577834e+06 2.732981558277e+05 -5.369947440882e+06 -6.051952288597e+07 8.200717624068e-04 3.470464892516e-05 8.164298649877e-04 -2.772577431230e-03 2.373491130156e+07 5.517896818150e+07  3.591332715038e-03
1.064000000000e+02 0.000000000000e+00 -3.600000000000e-04 -5.325977343023e+06 2.965857835705e+05 -5.384813734827e+06 -6.563578244761e+07 9.034914465402e-04 3.767816869594e-05 8.995676141581e-04 -3.022036162111e-03 2.544885784182e+07 6.028259725271e+07  3.924109863852e-03
1.136000000000e+02 0.000000000000e+00 -3.900000000000e-04 -5.332579948966e+06 3.198173862366e+05 -5.395569883837e+06 -7.073482052743e+07 9.866490030291e-04 4.064363431717e-05 9.824420590809e-04 -3.270448240023e-03 2.715432345341e+07 6.537311532291e+07  4.255577631853e-03
1.208000000000e+02 0.000000000000e+00 -4.200000000000e-04 -5.334899033881e+06 3.427964099799e+05 -5.401986918930e+06 -7.581530729047e+07 1.069516254816e-03 4.357620401879e-05 1.065028806589e-03 -3.517721768247e-03 2.885073108109e+07 7.044939031254e+07  4.585617131964e-03
1.280000000000e+02 0.000000000000e+00 -4.500000000000e-04 -5.332922736731e+06 3.651028861202e+05 -5.403968476573e+06 -8.087535533241e+07 1.152075733572e-03 4.642366233475e-05 1.147316125276e-03 -3.763808487497e-03 3.053741551524e+07 7.550958285085e+07  4.914164030105e-03
1.352000000000e+02 0.000000000000e+00 -4.800000000000e-04 -5.326801802792e+06 3.861294776792e+05 -5.401555863859e+06 -8.591286108619e+07 1.234320888960e-03 4.911058636387e-05 1.229304964475e-03 -4.008704449602e-03 3.221373958428e+07 8.055148472698e+07  5.241209477802e-03
1.424000000000e+02 0.000000000000e+00 -5.100000000000e-04 -5.316856193101e+06 4.051688127405e+05 -5.394928719297e+06 -9.092610354939e+07 1.316247555213e-03 5.154842466792e-05 1.311000781416e-03 -4.252425873988e-03 3.387929615393e+07 8.557311542373e+07  5.566767952784e-03
1.496000000000e+02 0.000000000000e+00 -5.400000000000e-04 -5.303552556479e+06 4.214994622357e+05 -5.384369017343e+06 -9.591471616247e+07 1.397849948070e-03 5.364543388073e-05 1.392410463664e-03 -4.494997226054e-03 3.553421257876e+07 9.057372473938e+07  5.890862148531e-03
1.568000000000e+02 0.000000000000e+00 -5.700000000000e-04 -5.287614000135e+06 4.344665975293e+05 -5.370354245503e+06 -1.008804061136e+08 1.479122521166e-03 5.531656828186e-05 1.473545325075e-03 -4.736465024629e-03 3.717945811973e+07 9.555441205190e+07  6.213539559878e-03
1.640000000000e+02 0.000000000000e+00 -6.000000000000e-04 -5.270082616113e+06 4.435389642696e+05 -5.353631705782e+06 -1.058261985372e+08 1.560062424166e-03 5.649090066976e-05 1.554422672109e-03 -4.976907452176e-03 3.881663761970e+07 1.005173031775e+08  6.534884371377e-03
1.712000000000e+02 0.000000000000e+00 -6.300000000000e-04 -5.251989696137e+06 4.482888946589e+05 -5.334961705330e+06 -1.107546689623e+08 1.640666744405e-03 5.710923786908e-05 1.635058241097e-03 -5.216399149932e-03 4.044720678794e+07 1.054640760460e+08  6.854977071660e-03
1.784000000000e+02 0.000000000000e+00 -6.600000000000e-04 -5.234088409145e+06 4.483698794919e+05 -5.314901546479e+06 -1.156668515612e+08 1.720930849627e-03 5.712135063531e-05 1.715461262199e-03 -5.454985842113e-03 4.207194717226e+07 1.103951103842e+08  7.173865730940e-03
1.856000000000e+02 0.000000000000e+00 -6.900000000000e-04 -5.216949779293e+06 4.435664634793e+05 -5.293901725640e+06 -1.205611481426e+08 1.800852593569e-03 5.649277819215e-05 1.795638570410e-03 -5.692703147227e-03 4.369066654918e+07 1.153083011354e+08  7.491589120823e-03
1.928000000000e+02 0.000000000000e+00 -7.200000000000e-04 -5.201186461947e+06 4.339884639430e+05 -5.272557338242e+06 -1.254293465139e+08 1.880445238906e-03 5.523110192184e-05 1.875605409136e-03 -5.929627074667e-03 4.530103010468e+07 1.201948410378e+08  7.808239556428e-03
2.000000000000e+02 0.000000000000e+00 -7.500000000000e-04 -5.187836287272e+06 4.206985616507e+05 -5.252152239187e+06 -1.302543575331e+08 1.959776254886e-03 5.347092549894e-05 1.955413678226e-03 -6.166003937234e-03 4.689811535319e+07 1.250364989215e+08  8.124127697379e-03
2.072000000000e+02 0.000000000000e+00 -7.800000000000e-04 -5.178640618183e+06 4.063289434115e+05 -5.235124235883e+06 -1.350288005287e+08 2.039004635852e-03 5.156085293322e-05 2.035178126700e-03 -6.402371268258e-03 4.848085512760e+07 1.298238349535e+08  8.439935803024e-03
2.144000000000e+02 0.000000000000e+00 -8.100000000000e-04 -5.174815689198e+06 3.931195017759e+05 -5.223294476410e+06 -1.397556515360e+08 2.118261137151e-03 4.980463604841e-05 2.114991284659e-03 -6.639159525261e-03 5.005125390052e+07 1.345583257942e+08  8.756211131643e-03
2.216000000000e+02 0.000000000000e+00 -8.400000000000e-04 -5.176567069478e+06 3.818829317814e+05 -5.217075563477e+06 -1.444371062427e+08 2.197584396878e-03 4.831787448635e-05 2.194879095812e-03 -6.876488290947e-03 5.161024962523e+07 1.392418603753e+08  9.073106315648e-03
2.288000000000e+02 0.000000000000e+00 -8.700000000000e-04 -5.183721392907e+06 3.728383341459e+05 -5.216329213621e+06 -1.490744068843e+08 2.276974492425e-03 4.713684337014e-05 2.274840061994e-03 -7.114349512217e-03 5.315815249695e+07 1.438758336138e+08  9.390611888169e-03
2.360000000000e+02 0.000000000000e+00 -9.000000000000e-04 -5.196019253278e+06 3.660190215986e+05 -5.220776940629e+06 -1.536683910534e+08 2.356419457029e-03 4.627268075218e-05 2.354864222516e-03 -7.352697051286e-03 5.469506241576e+07 1.484613480947e+08  9.708669801813e-03
2.432000000000e+02 0.000000000000e+00 -9.300000000000e-04 -5.213209184560e+06 3.613964209511e+05 -5.230131471088e+06 -1.582196344684e+08 2.435903277009e-03 4.572800714976e-05 2.434938757705e-03 -7.591474082361e-03 5.622099170802e+07 1.529992453186e+08  1.002720794590e-02
2.504000000000e+02 0.000000000000e+00 -9.600000000000e-04 -5.235080698433e+06 3.589214127855e+05 -5.244142842727e+06 -1.627285120600e+08 2.515408702304e-03 4.550255677947e-05 2.515049966551e-03 -7.830622862995e-03 5.773591186704e+07 1.574901274674e+08  1.034615238799e-02
2.576000000000e+02 0.000000000000e+00 -9.900000000000e-04 -5.261474922785e+06 3.585399010040e+05 -5.262614442909e+06 -1.671952374030e+08 2.594918370929e-03 4.559535550581e-05 2.595184046584e-03 -8.070088583840e-03 5.923977558955e+07 1.619343834956e+08  1.066543218336e-02
2.648000000000e+02 0.000000000000e+00 -1.020000000000e-03 -5.292289389169e+06 3.601990954210e+05 -5.285410216272e+06 -1.716198791060e+08 2.674414918296e-03 4.600564350339e-05 2.675327046344e-03 -8.309820036926e-03 6.073252623714e+07 1.663321994526e+08  1.098498006234e-02
2.720000000000e+02 0.000000000000e+00 -1.050000000000e-03 -5.327476422374e+06 3.638498973001e+05 -5.312454122926e+06 -1.760024017780e+08 2.753881410863e-03 4.673326195502e-05 2.755465226360e-03 -8.549770909366e-03 6.221411077444e+07 1.706836004451e+08  1.130473410471e-02
2.792000000000e+02 0.000000000000e+00 -1.080000000000e-03 -5.367043616235e+06 3.694467130230e+05 -5.343730791799e+06 -1.803426738838e+08 2.833300987446e-03 4.777867400886e-05 2.835584683171e-03 -8.789898935225e-03 6.368448276393e+07 1.749884578473e+08  1.162463650678e-02
2.864000000000e+02 0.000000000000e+00 -1.110000000000e-03 -5.411046833809e+06 3.769463961173e+05 -5.379278365467e+06 -1.846404804563e+08 2.912656827786e-03 4.914285238692e-05 2.915671320456e-03 -9.030165504691e-03 6.514360188521e+07 1.792465090211e+08  1.194463314474e-02
2.936000000000e+02 0.000000000000e+00 -1.140000000000e-03 -5.459579798386e+06 3.863064681094e+05 -5.419177562831e+06 -1.888955391323e+08 2.991932310046e-03 5.082705109190e-05 2.995711032777e-03 -9.270535588146e-03 6.659143216451e+07 1.834573839615e+08  1.226467365511e-02
3.008000000000e+02 0.000000000000e+00 -1.170000000000e-03 -5.512769250626e+06 3.974828346429e+05 -5.463546215173e+06 -1.931075068148e+08 3.071110823281e-03 5.283248502359e-05 3.075689549129e-03 -9.510977029143e-03 6.802794076020e+07 1.876206170572e+08  1.258471054241e-02
3.080000000000e+02 0.000000000000e+00 -1.200000000000e-03 -5.570774596388e+06 4.104270610093e+05 -5.512538156318e+06 -1.972759838618e+08 3.150175384771e-03 5.515992460754e-05 3.155592088823e-03 -9.751459599779e-03 6.945309887151e+07 1.917356519561e+08  1.290469785797e-02
3.152000000000e+02 0.000000000000e+00 -1.230000000000e-03 -5.633788279311e+06 4.250849325439e+05 -5.566343159574e+06 -2.014005353790e+08 3.229108569851e-03 5.780946116214e-05 3.235403305348e-03 -9.991955032720e-03 7.086688893928e+07 1.958018626625e+08  1.322459115839e-02
3.224000000000e+02 0.000000000000e+00 -1.260000000000e-03 -5.702033242904e+06 4.413992812049e+05 -5.625185088109e+06 -2.054807423455e+08 3.307893164347e-03 6.078090280227e-05 3.315107870255e-03 -1.023243891595e-02 7.226932022550e+07 1.998186068450e+08  1.354435001633e-02
3.296000000000e+02 0.000000000000e+00 -1.290000000000e-03 -5.775754066412e+06 4.593154282821e+05 -5.689314398659e+06 -2.095162603580e+08 3.386513265919e-03 6.407457755413e-05 3.394691453195e-03 -1.047289337246e-02 7.366044294104e+07 2.037852927702e+08  1.386394174570e-02
3.368000000000e+02 0.000000000000e+00 -1.320000000000e-03 -5.855209230467e+06 4.787853548190e+05 -5.759001538133e+06 -2.135068396849e+08 3.464954627411e-03 6.769195729134e-05 3.474140957595e-03 -1.071330755261e-02 7.504035015117e+07 2.077014065353e+08  1.418334218847e-02
3.440000000000e+02 0.000000000000e+00 -1.350000000000e-03 -5.940659623733e+06 4.997702215466e+05 -5.834525972636e+06 -2.174523511968e+08 3.543205276179e-03 7.163604432006e-05 3.553445078002e-03 -1.095367864192e-02 7.640917893106e+07 2.115665492354e+08  1.450253731508e-02
3.512000000000e+02 0.000000000000e+00 -1.380000000000e-03 -6.032360637349e+06 5.222397834123e+05 -5.916168020524e+06 -2.213527958258e+08 3.621255688979e-03 7.591128474357e-05 3.632594463565e-03 -1.119401183663e-02 7.776710816123e+07 2.153804544486e+08  1.482152336879e-02
3.584000000000e+02 0.000000000000e+00 -1.410000000000e-03 -6.130554789484e+06 5.461702889182e+05 -6.004200360041e+06 -2.252083138109e+08 3.699098992798e-03 8.052324914519e-05 3.711581969396e-03 -1.143432044672e-02 7.911435632015e+07 2.191430053972e+08  1.514030719169e-02
3.656000000000e+02 0.000000000000e+00 -1.440000000000e-03 -6.235470968959e+06 5.715433036817e+05 -6.098886300505e+06 -2.290191925895e+08 3.776730961596e-03 8.547846005246e-05 3.790402691389e-03 -1.167462588936e-02 8.045118328631e+07 2.228542440710e+08  1.545890623326e-02
3.728000000000e+02 0.000000000000e+00 -1.470000000000e-03 -6.347320239411e+06 5.983446713486e+05 -6.200474618165e+06 -2.327858597678e+08 3.854149934551e-03 9.078423634191e-05 3.869053923892e-03 -1.191495714237e-02 8.177788487513e+07 2.265143688697e+08  1.577734794156e-02
3.800000000000e+02 0.000000000000e+00 -1.500000000000e-03 -6.466293810773e+06 6.265634229076e+05 -6.309196546408e+06 -2.365088608530e+08 3.931356384305e-03 9.644852320653e-05 3.947534769811e-03 -1.215534931173e-02 8.309478373673e+07 2.301237148450e+08  1.609566791936e-02
3.872000000000e+02 0.000000000000e+00 -1.530000000000e-03 -6.592560974435e+06 6.561911600684e+05 -6.425262796203e+06 -2.401888503259e+08 4.008352810710e-03 1.024797996415e-04 4.025846075223e-03 -1.239584313129e-02 8.440222469884e+07 2.336827472913e+08  1.641390933887e-02
3.944000000000e+02 0.000000000000e+00 -1.560000000000e-03 -6.726264349930e+06 6.872216931117e+05 -6.548857947019e+06 -2.438265928536e+08 4.085144022211e-03 1.088870268445e-04 4.103990753831e-03 -1.263648534423e-02 8.570057171684e+07 2.371920681366e+08  1.673212362740e-02
4.016000000000e+02 0.000000000000e+00 -1.590000000000e-03 -6.867506079870e+06 7.196501938149e+05 -6.680125573082e+06 -2.474229607098e+08 4.161737804183e-03 1.156795087921e-04 4.181974526740e-03 -1.287732939298e-02 8.699019745425e+07 2.406524276958e+08  1.705037186094e-02
4.088000000000e+02 0.000000000000e+00 -1.620000000000e-03 -7.016372268595e+06 7.534727211733e+05 -6.819192396363e+06 -2.509789034666e+08 4.238143300744e-03 1.228668034043e-04 4.259804301564e-03 -1.311843266485e-02 8.827148937718e+07 2.440646700622e+08  1.736872039066e-02
4.160000000000e+02 0.000000000000e+00 -1.650000000000e-03 -7.172952650645e+06 7.886906308818e+05 -6.966191024939e+06 -2.544953026687e+08 4.314366944044e-03 1.304594507112e-04 4.337483777387e-03 -1.335984589634e-02 8.954481544811e+07 2.474295666220e+08  1.768722603329e-02
4.232000000000e+02 0.000000000000e+00 -1.680000000000e-03 -7.337315533616e+06 8.253108654153e+05 -7.121233179229e+06 -2.579730372520e+08 4.390415096891e-03 1.384691131120e-04 4.415016208179e-03 -1.360161872370e-02 9.081052865495e+07 2.507479073966e+08  1.800594433314e-02
4.304000000000e+02 0.000000000000e+00 -1.710000000000e-03 -7.509520902899e+06 8.633428141992e+05 -7.284420885699e+06 -2.614130264578e+08 4.466294482238e-03 1.469080625556e-04 4.492404983829e-03 -1.384380220626e-02 9.206898941548e+07 2.540205317864e+08  1.832493258502e-02
4.376000000000e+02 0.000000000000e+00 -1.740000000000e-03 -7.689614763428e+06 9.027981657440e+05 -7.455840542227e+06 -2.648162271591e+08 4.542012491775e-03 1.557891684933e-04 4.569653952487e-03 -1.408644912852e-02 9.332056082158e+07 2.572483316945e+08  1.864425045622e-02
4.448000000000e+02 0.000000000000e+00 -1.770000000000e-03 -7.877625352577e+06 9.436907329217e+05 -7.635558651515e+06 -2.681836373889e+08 4.617577590869e-03 1.651258923344e-04 4.646767864404e-03 -1.432961473362e-02 9.456560713100e+07 2.604322590862e+08  1.896396114901e-02
4.520000000000e+02 0.000000000000e+00 -1.800000000000e-03 -8.073563406145e+06 9.860361268826e+05 -7.823621788969e+06 -2.715162871518e+08 4.692999236680e-03 1.749322464225e-04 4.723752315651e-03 -1.457335637486e-02 9.580449078231e+07 2.635733166834e+08  1.928413098717e-02
4.592000000000e+02 0.000000000000e+00 -1.830000000000e-03 -8.277428809296e+06 1.029852191717e+06 -8.020063439967e+06 -2.748152229400e+08 4.768287313347e-03 1.852228973350e-04 4.800613160621e-03 -1.481773233544e-02 9.703757172975e+07 2.666725357464e+08  1.960482766790e-02
4.664000000000e+02 0.000000000000e+00 -1.860000000000e-03 -8.489215639009e+06 1.075159623352e+06 -8.224909595826e+06 -2.780814659582e+08 4.843450932166e-03 1.960132982188e-04 4.877355245056e-03 -1.506279861536e-02 9.826519706434e+07 2.697309289930e+08  1.992611582580e-02
4.736000000000e+02 0.000000000000e+00 -1.890000000000e-03 -8.708912854216e+06 1.121982369609e+06 -8.438179544349e+06 -2.813159930527e+08 4.918497936079e-03 2.073198011902e-04 4.953981891727e-03 -1.530860741512e-02 9.948769515043e+07 2.727494707993e+08  2.024805502285e-02
4.808000000000e+02 0.000000000000e+00 -1.920000000000e-03 -8.936493891698e+06 1.170347593676e+06 -8.659874984252e+06 -2.845197587772e+08 4.993436011066e-03 2.191596976695e-04 5.030496077244e-03 -1.555520925998e-02 1.007053758844e+08 2.757291299175e+08  2.057070302631e-02
4.880000000000e+02 0.000000000000e+00 -1.950000000000e-03 -9.171911849338e+06 1.220285335339e+06 -8.889975091529e+06 -2.876936877125e+08 5.068272760305e-03 2.315511761757e-04 5.106900542210e-03 -1.580265256044e-02 1.019185248845e+08 2.786708666755e+08  2.089411546926e-02
4.952000000000e+02 0.000000000000e+00 -1.980000000000e-03 -9.415094234475e+06 1.271828934807e+06 -9.128431548996e+06 -2.908386613966e+08 5.143015643281e-03 2.445134301176e-04 5.183197736440e-03 -1.605098266204e-02 1.031273957267e+08 2.815756250313e+08  2.121834485613e-02
5.024000000000e+02 0.000000000000e+00 -2.010000000000e-03 -9.665928542705e+06 1.325016252820e+06 -9.375154490369e+06 -2.939555149235e+08 5.217672643047e-03 2.580669434381e-04 5.259390516745e-03 -1.630024200532e-02 1.043321993189e+08 2.844443434372e+08  2.154344142617e-02
5.096000000000e+02 0.000000000000e+00 -2.040000000000e-03 -9.924240301366e+06 1.379891357646e+06 -9.629991376681e+06 -2.970450155308e+08 5.292252836720e-03 2.722338696307e-04 5.335482735019e-03 -1.655046904425e-02 1.055330824030e+08 2.872779550029e+08  2.186945267899e-02
5.168000000000e+02 0.000000000000e+00 -2.070000000000e-03 -1.018976441000e+07 1.436506810684e+06 -9.892699507427e+06 -3.001078370005e+08 5.366767182932e-03 2.870385490168e-04 5.411480047153e-03 -1.680169687261e-02 1.067301003060e+08 2.900773900214e+08  2.219642283638e-02
5.240000000000e+02 0.000000000000e+00 -2.100000000000e-03 -1.046212438485e+07 1.494924173590e+06 -1.016292625489e+07 -3.031445329080e+08 5.441228800949e-03 3.025076303785e-04 5.487390218736e-03 -1.705395102844e-02 1.079231945159e+08 2.928435695087e+08  2.252439096684e-02
5.312000000000e+02 0.000000000000e+00 -2.130000000000e-03 -1.074083590877e+07 1.555210676726e+06 -1.044021254897e+07 -3.061555346613e+08 5.515652618685e-03 3.186693214230e-04 5.563222808589e-03 -1.730724805835e-02 1.091121943730e+08 2.955773997001e+08  2.285338920960e-02
5.384000000000e+02 0.000000000000e+00 -2.160000000000e-03 -1.102529742090e+07 1.617437544881e+06 -1.072398374577e+07 -3.091411262022e+08 5.590055132777e-03 3.355529639732e-04 5.638989001367e-03 -1.756159297380e-02 1.102968024563e+08 2.982797560152e+08  2.318344003066e-02
5.456000000000e+02 0.000000000000e+00 -2.190000000000e-03 -1.131470451381e+07 1.681687337631e+06 -1.101346755908e+07 -3.121013443673e+08 5.664456347882e-03 3.531906409415e-04 5.714703576409e-03 -1.781697396794e-02 1.114765054801e+08 3.009514673937e+08  2.351455298623e-02
5.528000000000e+02 0.000000000000e+00 -2.220000000000e-03 -1.160811289221e+07 1.748041463385e+06 -1.130775476913e+07 -3.150360343383e+08 5.738877540621e-03 3.716142364941e-04 5.790382738752e-03 -1.807336203347e-02 1.126506339999e+08 3.035933097352e+08  2.384672203593e-02
5.600000000000e+02 0.000000000000e+00 -2.250000000000e-03 -1.190470453560e+07 1.816545912573e+06 -1.160605359821e+07 -3.179451376948e+08 5.813334472156e-03 3.908473240816e-04 5.866037554121e-03 -1.833072258873e-02 1.138186319429e+08 3.062060330889e+08  2.417993010918e-02
5.672000000000e+02 0.000000000000e+00 -2.280000000000e-03 -1.220388252364e+07 1.887204581030e+06 -1.190777906419e+07 -3.208287960714e+08 5.887835944264e-03 4.109033975455e-04 5.941672729046e-03 -1.858902390263e-02 1.149801525531e+08 3.087903730163e+08  2.451415604515e-02
5.744000000000e+02 0.000000000000e+00 -2.310000000000e-03 -1.250520126587e+07 1.959994219257e+06 -1.221248649530e+07 -3.236872711232e+08 5.962386575742e-03 4.317892855570e-04 6.017289354350e-03 -1.884823796289e-02 1.161349862948e+08 3.113470388534e+08  2.484937831213e-02
5.816000000000e+02 0.000000000000e+00 -2.340000000000e-03 -1.280830278795e+07 2.034876487331e+06 -1.251981189318e+07 -3.265208699885e+08 6.036988859661e-03 4.535079765254e-04 6.092886831297e-03 -1.910833936167e-02 1.172829948899e+08 3.138767010033e+08  2.518557597594e-02
5.888000000000e+02 0.000000000000e+00 -2.370000000000e-03 -1.311288278572e+07 2.111804466624e+06 -1.282944055127e+07 -3.293299085752e+08 6.111644227376e-03 4.760601532204e-04 6.168463827848e-03 -1.936930456132e-02 1.184240773041e+08 3.163799869671e+08  2.552272902292e-02
5.960000000000e+02 0.000000000000e+00 -2.400000000000e-03 -1.341867436447e+07 2.190725710449e+06 -1.314109206268e+07 -3.321146937689e+08 6.186353437552e-03 4.994448952714e-04 6.244018623088e-03 -1.963111124373e-02 1.195581533987e+08 3.188574792101e+08  2.586081809116e-02
6.032000000000e+02 0.000000000000e+00 -2.430000000000e-03 -1.372543863072e+07 2.271584027818e+06 -1.345451173734e+07 -3.348755143318e+08 6.261116746525e-03 5.236600757815e-04 6.319549238900e-03 -1.989373778320e-02 1.206851548999e+08 3.213097150702e+08  2.619982409846e-02
6.104000000000e+02 0.000000000000e+00 -2.460000000000e-03 -1.403296032031e+07 2.354320424723e+06 -1.376946667879e+07 -3.376126378507e+08 6.335933917058e-03 5.487025542239e-04 6.395053435152e-03 -2.015716286415e-02 1.218050216166e+08 3.237371878563e+08  2.653972785786e-02
6.176000000000e+02 0.000000000000e+00 -2.490000000000e-03 -1.434104431798e+07 2.438873932487e+06 -1.408574266331e+07 -3.403263139863e+08 6.410804384652e-03 5.745683537975e-04 6.470528862734e-03 -2.042136564142e-02 1.229177003225e+08 3.261403534011e+08  2.688051039418e-02
6.248000000000e+02 0.000000000000e+00 -2.520000000000e-03 -1.464951172175e+07 2.525182214764e+06 -1.440314049693e+07 -3.430167777086e+08 6.485727469067e-03 6.012527835594e-04 6.545973268519e-03 -2.068632595378e-02 1.240231433091e+08 3.285196370867e+08  2.722215336046e-02
6.320000000000e+02 0.000000000000e+00 -2.550000000000e-03 -1.495819903459e+07 2.613182032238e+06 -1.472147542985e+07 -3.456842538595e+08 6.560702437144e-03 6.287505355651e-04 6.621384550175e-03 -2.095202450655e-02 1.251213094413e+08 3.308754391051e+08  2.756463927410e-02
6.392000000000e+02 0.000000000000e+00 -2.580000000000e-03 -1.526695502700e+07 2.702809549291e+06 -1.504057423332e+07 -3.483289568480e+08 6.635728574529e-03 6.570557357610e-04 6.696760818750e-03 -2.121844274148e-02 1.262121620361e+08 3.332081371815e+08  2.790795144654e-02
6.464000000000e+02 0.000000000000e+00 -2.610000000000e-03 -1.557564066850e+07 2.794000537139e+06 -1.536027527125e+07 -3.509510914591e+08 6.710805089560e-03 6.861619761266e-04 6.772100295548e-03 -2.148556263504e-02 1.272956691330e+08 3.355180873805e+08  2.825207367439e-02
6.536000000000e+02 0.000000000000e+00 -2.640000000000e-03 -1.588412625042e+07 2.886690691167e+06 -1.568042579471e+07 -3.535508551932e+08 6.785931289556e-03 7.160623796417e-04 6.847401482211e-03 -2.175336688765e-02 1.283718024128e+08 3.378056292379e+08  2.859699059663e-02
6.608000000000e+02 0.000000000000e+00 -2.670000000000e-03 -1.619229148137e+07 2.980815771956e+06 -1.600088216192e+07 -3.561284378625e+08 6.861106454333e-03 7.467496207076e-04 6.922663023371e-03 -2.202183863416e-02 1.294405371686e+08 3.400710851990e+08  2.894268726618e-02
6.680000000000e+02 0.000000000000e+00 -2.700000000000e-03 -1.650002382856e+07 3.076311742456e+06 -1.632150826837e+07 -3.586840239325e+08 6.936329946560e-03 7.782159455371e-04 6.997883818362e-03 -2.229096160457e-02 1.305018520098e+08 3.423147645738e+08  2.928914941450e-02
6.752000000000e+02 0.000000000000e+00 -2.730000000000e-03 -1.680721771205e+07 3.173115008430e+06 -1.664217488619e+07 -3.612177920292e+08 7.011601171272e-03 8.104532284044e-04 7.073062963954e-03 -2.256071993400e-02 1.315557282092e+08 3.445369637813e+08  2.963636320941e-02
6.824000000000e+02 0.000000000000e+00 -2.760000000000e-03 -1.711377385184e+07 3.271162458361e+06 -1.696275907124e+07 -3.637299153164e+08 7.086919557780e-03 8.434529689850e-04 7.148199735163e-03 -2.283109807508e-02 1.326021494131e+08 3.467379673489e+08  2.998431514143e-02
6.896000000000e+02 0.000000000000e+00 -2.790000000000e-03 -1.741959904112e+07 3.370391584685e+06 -1.728314401817e+07 -3.662205628851e+08 7.162284559221e-03 8.772063174531e-04 7.223293577032e-03 -2.310208081378e-02 1.336411019815e+08 3.489180494906e+08  3.033299203025e-02
6.968000000000e+02 0.000000000000e+00 -2.820000000000e-03 -1.772460504636e+07 3.470740499348e+06 -1.760321804701e+07 -3.686898973140e+08 7.237695577776e-03 9.117040667844e-04 7.298344017244e-03 -2.337365291937e-02 1.346725734691e+08 3.510774727234e+08  3.068238058691e-02
7.040000000000e+02 0.000000000000e+00 -2.850000000000e-03 -1.802870958060e+07 3.572148196441e+06 -1.792287561208e+07 -3.711380786474e+08 7.313151978890e-03 9.469367303084e-04 7.373350680928e-03 -2.364579939640e-02 1.356965546133e+08 3.532164908631e+08  3.103246768054e-02
7.112000000000e+02 0.000000000000e+00 -2.880000000000e-03 -1.833183487661e+07 3.674554434910e+06 -1.824201596710e+07 -3.735652608135e+08 7.388653009001e-03 9.828944943296e-04 7.448313190120e-03 -2.391850504492e-02 1.367130372191e+08 3.553353468206e+08  3.138323979820e-02
7.184000000000e+02 0.000000000000e+00 -2.910000000000e-03 -1.863390859286e+07 3.777899951945e+06 -1.856054410494e+07 -3.759715949216e+08 7.464197799479e-03 1.019567285719e-03 7.523231164796e-03 -2.419175466472e-02 1.377220158731e+08 3.574342749845e+08  3.173468325209e-02
7.256000000000e+02 0.000000000000e+00 -2.940000000000e-03 -1.893486245617e+07 3.882126468803e+06 -1.887836945946e+07 -3.783572278765e+08 7.539785374068e-03 1.056944767676e-03 7.598104219856e-03 -2.446553289296e-02 1.387234865974e+08 3.595135011652e+08  3.208678401473e-02