 TITLE = "Time curves in points"
 VARIABLES = "TIME"  "DISPLACEMENT_X1"  "DISPLACEMENT_Y1"  "STRESS_XX"  "STRESS_XY"  "STRESS_YY"  "STRESS_ZZ"  "STRAIN_XX"  "STRAIN_XY"  "STRAIN_YY"  "STRAIN_ZZ"  p_(1st_Invariant)  q_(2nd_Invariant)   Effective_Strain
 ZONE T="POINT=POINT2"
0.000000000000e+00 0.000000000000e+00 0.000000000000e+00 0.000000000000e+00 0.000000000000e+00 0.000000000000e+00 0.000000000000e+00 0.000000000000e+00 0.000000000000e+00 0.000000000000e+00 0.000000000000e+00 -0.000000000000e+00 0.000000000000e+00  0.000000000000e+00
2.000000000000e+00 -3.087967289884e-07 0.000000000000e+00 -4.989190468840e+05 2.534332251263e-06 -4.989190469104e+05 -3.342757614567e+05 -1.029322429797e-05 3.164303332705e-16 -1.029322429962e-05 -1.666463770670e-15 4.440379517503e+05 1.646432854405e+05  1.029322429713e-05
4.000000000000e+00 -6.180500755392e-07 0.000000000000e+00 -9.986646591769e+05 -2.388952292901e+02 -9.986950504486e+05 -6.693458204836e+05 -2.059928816821e-05 -2.981460758984e-08 -2.060114819045e-05 -1.077454386111e-08 8.889018433697e+05 3.293342953186e+05  2.058950845808e-05
6.000000000000e+00 -9.273071465850e-07 0.000000000000e+00 -1.498416961891e+06 -4.791479502769e+02 -1.498476313914e+06 -1.004421767133e+06 -3.090556272811e-05 -5.979911494934e-08 -3.090919348309e-05 -2.163729559689e-08 1.333771680979e+06 4.940255705219e+05  3.088591463875e-05
8.000000000000e+00 -1.236564372701e-06 0.000000000000e+00 -1.998169881952e+06 -7.186828307543e+02 -1.998256239495e+06 -1.339497415592e+06 -4.121196481554e-05 -8.969442645029e-08 -4.121724447483e-05 -3.249744865434e-08 1.778641179013e+06 6.587168255398e+05  4.118240048034e-05
1.000000000000e+01 -1.545821752540e-06 0.000000000000e+00 -2.497923376850e+06 -9.574903912595e+02 -2.498034783282e+06 -1.674572709612e+06 -5.151849445812e-05 -1.194993545723e-07 -5.152530110197e-05 -4.335372586820e-08 2.223510289915e+06 8.234080462179e+05  5.147896048847e-05
1.200000000000e+01 -1.855079309197e-06 0.000000000000e+00 -2.997677452839e+06 -1.195578841029e+03 -2.997811955076e+06 -2.009647652861e+06 -6.182515217933e-05 -1.492149203815e-07 -6.183336410342e-05 -5.420604733939e-08 2.668379020259e+06 9.880992279018e+05  6.177559313414e-05
1.400000000000e+01 -2.164337063833e-06 0.000000000000e+00 -3.497432113147e+06 -1.432956497039e+03 -3.497587763614e+06 -2.344722252277e+06 -7.213193832420e-05 -1.788421585710e-07 -7.214143416206e-05 -6.505455036405e-08 3.113247376346e+06 1.152790365806e+06  7.207229784071e-05
1.600000000000e+01 -2.473595039640e-06 0.000000000000e+00 -3.997187358390e+06 -1.669631727107e+03 -3.997362218207e+06 -2.679796514265e+06 -8.243885311340e-05 -2.083821103440e-07 -8.244951203557e-05 -7.589937914843e-08 3.558115363621e+06 1.317481456603e+06  8.236907448228e-05
1.800000000000e+01 -2.782853255499e-06 0.000000000000e+00 -4.496943187332e+06 -1.905612816481e+03 -4.497135326234e+06 -3.014870450146e+06 -9.274589663280e-05 -2.378358067121e-07 -9.275759834187e-05 -8.674096748785e-08 4.002982987904e+06 1.482172491020e+06  9.266592272045e-05
2.000000000000e+01 -3.092111732382e-06 0.000000000000e+00 -4.996699597489e+06 -2.140908058417e+03 -4.996907095608e+06 -3.349944069368e+06 -1.030530689305e-04 -2.672042798104e-07 -1.030656937723e-04 -9.757967256759e-08 4.447850254155e+06 1.646863461732e+06  1.029628424184e-04
2.720000000000e+01 -5.800365598023e-07 -3.000000000000e-05 -4.997456402928e+06 -2.355850862463e+03 -4.997836881757e+06 -8.492884970683e+06 -1.930637200182e-05 -2.940266141701e-07 -1.932949801932e-05 -2.501268301385e-04 6.162726085123e+06 3.495240725697e+06  2.308094578353e-04
3.440000000000e+01 1.937411615124e-06 -6.000000000000e-05 -5.020246168100e+06 -2.893254558989e+03 -5.033046767371e+06 -1.372339426841e+07 6.542052182532e-05 -3.033673227115e-07 6.449954460539e-05 -5.035244402704e-04 7.925562401294e+06 8.696756309845e+06  5.684852758329e-04
4.160000000000e+01 4.453867427728e-06 -9.000000000000e-05 -5.042793241893e+06 -3.820454137997e+03 -5.071505910488e+06 -1.894637244716e+07 1.503405794309e-04 -3.666056547907e-07 1.482932180077e-04 -7.572572517814e-04 9.686890533180e+06 1.388924670600e+07  9.065761067455e-04
4.880000000000e+01 6.969984248309e-06 -1.200000000000e-04 -5.065104233581e+06 -4.456788021330e+03 -5.113217788402e+06 -2.416233040346e+07 2.354724070918e-04 -3.968287395578e-07 2.320728544280e-04 -1.011387114859e-03 1.144688414181e+07 1.907321646834e+07  1.245163415881e-03
5.600000000000e+01 9.485818770098e-06 -1.500000000000e-04 -5.087272020447e+06 -4.736096089278e+03 -5.158560676278e+06 -2.937142399178e+07 3.208375413821e-04 -3.849402214009e-07 3.158400337424e-04 -1.265964319998e-03 1.320575222950e+07 2.424858762442e+07  1.584309159373e-03
6.320000000000e+01 1.200132167178e-05 -1.800000000000e-04 -5.109358109518e+06 -4.675824317752e+03 -5.207802632025e+06 -3.457313472386e+07 4.064497485380e-04 -3.326635554145e-07 3.995931655367e-04 -1.521018353155e-03 1.496343182180e+07 2.941467902041e+07  1.924049059340e-03
7.040000000000e+01 1.451641984227e-05 -2.100000000000e-04 -5.131459644006e+06 -4.321640685826e+03 -5.261136981495e+06 -3.976654989165e+07 4.923153912909e-04 -2.453527908518e-07 4.833301459743e-04 -1.776565751981e-03 1.671971550572e+07 3.457043480226e+07  2.264401930721e-03
7.760000000000e+01 1.703106171734e-05 -2.400000000000e-04 -5.153668687304e+06 -3.734562397035e+03 -5.318709469789e+06 -4.495062778869e+07 5.784391770904e-04 -1.304055886940e-07 5.670497266552e-04 -2.032620341789e-03 1.847433531526e+07 3.971469643277e+07  2.605383474415e-03
8.480000000000e+01 1.954522981446e-05 -2.700000000000e-04 -5.176077494053e+06 -2.992692642542e+03 -5.380603516015e+06 -5.012421618945e+07 6.648232467099e-04 2.490250016107e-09 6.507519351474e-04 -2.289192175713e-03 2.022696573317e+07 4.484622577141e+07  2.947004962054e-03
9.200000000000e+01 2.205892084521e-05 -3.000000000000e-04 -5.198787773601e+06 -2.184014619708e+03 -5.446864949100e+06 -5.528610413503e+07 7.514674242574e-04 1.422746079444e-07 7.344373591693e-04 -2.546287918868e-03 2.197725228591e+07 4.996373982113e+07  3.289273384627e-03
9.920000000000e+01 2.457212563023e-05 -3.300000000000e-04 -5.221913154759e+06 -1.391221451820e+03 -5.517530318558e+06 -6.043507405045e+07 8.383700828070e-04 2.784867850112e-07 8.181063692778e-04 -2.803911979027e-03 2.372483917459e+07 5.506594749370e+07  3.632192630963e-03
1.064000000000e+02 2.708481879723e-05 -3.600000000000e-04 -5.245573783987e+06 -6.775578443996e+02 -5.592648765791e+06 -6.556994651660e+07 9.255294847372e-04 4.031055567649e-07 9.017586853135e-04 -3.062068411682e-03 2.546938968879e+07 6.015158624206e+07  3.975765854793e-03
1.136000000000e+02 2.959695866466e-05 -3.900000000000e-04 -5.269888992309e+06 -8.040555814680e+01 -5.672290850584e+06 -7.068960188186e+07 1.012944828945e-03 5.113977544534e-07 9.853933423353e-04 -3.320762504728e-03 2.721059390825e+07 6.521944301963e+07  4.319997574462e-03
1.208000000000e+02 3.210849578383e-05 -4.200000000000e-04 -5.294971729931e+06 3.859804462017e+02 -5.756543903241e+06 -7.579297816737e+07 1.100616650578e-03 6.015862790013e-07 1.069009000593e-03 -3.580001523825e-03 2.894816460018e+07 7.026835733761e+07  4.664894777252e-03
1.280000000000e+02 3.461938100274e-05 -4.500000000000e-04 -5.320924479864e+06 7.231473004872e+02 -5.845504207861e+06 -8.087906125014e+07 1.188546898939e-03 6.739171234258e-07 1.152604244251e-03 -3.839794899224e-03 3.068182997929e+07 7.529721741751e+07  5.010467295889e-03
1.352000000000e+02 3.712956813703e-05 -4.800000000000e-04 -5.347835434132e+06 9.412873774179e+02 -5.939272724140e+06 -8.594687807469e+07 1.276739037188e-03 7.297536574158e-07 1.236177683797e-03 -4.100154283489e-03 3.241132874432e+07 8.030495748049e+07  5.356727968903e-03
1.424000000000e+02 3.963900694306e-05 -5.100000000000e-04 -5.375775065407e+06 1.054286547210e+03 -6.037953199624e+06 -9.099547982725e+07 1.365197953184e-03 7.709626241500e-07 1.319727729030e-03 -4.361092933320e-03 3.413640269743e+07 8.529054361633e+07  5.703691866775e-03
1.496000000000e+02 4.214764625601e-05 -5.400000000000e-04 -5.404795801286e+06 1.076985077005e+03 -6.141644086639e+06 -9.602392330715e+07 1.453929574846e-03 7.995667293192e-07 1.403252705554e-03 -4.622625037277e-03 3.585678773169e+07 9.025295934248e+07  6.051375484408e-03
1.568000000000e+02 4.465544251882e-05 -5.700000000000e-04 -5.434934780566e+06 1.023937455758e+03 -6.250424217922e+06 -1.010312419911e+08 1.542940011080e-03 8.175676587264e-07 1.486751161192e-03 -4.884764479894e-03 3.757220032986e+07 9.519118236307e+07  6.399795222710e-03
1.640000000000e+02 4.716236545577e-05 -6.000000000000e-04 -5.466217022688e+06 9.094390083284e+02 -6.364336060548e+06 -1.060164075457e+08 1.632234363052e-03 8.269346810813e-07 1.570222082749e-03 -5.147522889987e-03 3.928232020965e+07 1.001041527317e+08  6.748964941185e-03
1.712000000000e+02 4.966840011096e-05 -6.300000000000e-04 -5.498656818601e+06 7.484843581600e+02 -6.483370295768e+06 -1.109782940746e+08 1.721815563596e-03 8.297266672883e-07 1.653664980804e-03 -5.410907500371e-03 4.098677372964e+07 1.049907439615e+08  7.098893268730e-03
1.784000000000e+02 5.217353539179e-05 -6.600000000000e-04 -5.532258082511e+06 5.583213610014e+02 -6.607461953201e+06 -1.159156554167e+08 1.811683612178e-03 8.282996788459e-07 1.737079515878e-03 -5.674919265449e-03 4.268512515080e+07 1.098497419899e+08  7.449581144916e-03
1.856000000000e+02 5.467775337204e-05 -6.900000000000e-04 -5.567014993488e+06 3.600120727282e+02 -6.736500599526e+06 -1.208271466423e+08 1.901835813917e-03 8.255319362426e-07 1.820465144569e-03 -5.939553013231e-03 4.437688741178e+07 1.146798612650e+08  7.801021914556e-03
1.928000000000e+02 5.718102301709e-05 -7.200000000000e-04 -5.602913454902e+06 1.775626923486e+02 -6.870374789832e+06 -1.257114505539e+08 1.992269570117e-03 8.247724633252e-07 1.903820861920e-03 -6.204802827593e-03 4.606157959954e+07 1.194798485755e+08  8.153207997069e-03
2.000000000000e+02 5.968329917597e-05 -7.500000000000e-04 -5.639932539687e+06 3.594774711435e+01 -7.009000748909e+06 -1.305673617578e+08 2.082984324057e-03 8.296187612494e-07 1.987145131621e-03 -6.470665934075e-03 4.773876501548e+07 1.242485522935e+08  8.506135727869e-03
2.072000000000e+02 6.218452422884e-05 -7.800000000000e-04 -5.678044644324e+06 -4.069580121918e+01 -7.152315802079e+06 -1.353937721850e+08 2.173981224905e-03 8.436652551833e-07 2.070435955106e-03 -6.737142092610e-03 4.940804421048e+07 1.289849110983e+08  8.859804618051e-03
2.144000000000e+02 6.468462406000e-05 -8.100000000000e-04 -5.717215749410e+06 -3.041542328758e+01 -7.300274661102e+06 -1.401896570604e+08 2.265262798285e-03 8.703137477125e-07 2.153690751752e-03 -7.004232826466e-03 5.106904915697e+07 1.336879416816e+08  9.214216360277e-03
2.216000000000e+02 6.718350186939e-05 -8.400000000000e-04 -5.757406885802e+06 8.744068511219e+01 -7.452852215236e+06 -1.449540755936e+08 2.356832907821e-03 9.129071720067e-07 2.236906146590e-03 -7.271941225659e-03 5.272144489820e+07 1.383567373582e+08  9.569374511710e-03
2.288000000000e+02 6.968103725531e-05 -8.700000000000e-04 -5.798577571762e+06 3.380280890692e+02 -7.610029659016e+06 -1.496861274003e+08 2.448695404447e-03 9.755784697716e-07 2.320077903178e-03 -7.540269437536e-03 5.436491154371e+07 1.429904295826e+08  9.925281267200e-03
2.360000000000e+02 7.217708724887e-05 -9.000000000000e-04 -5.840686428507e+06 7.524849049290e+02 -7.771785895003e+06 -1.543849277627e+08 2.540853466249e-03 1.063479471674e-06 2.403200957498e-03 -7.809217427202e-03 5.599913336207e+07 1.475881671246e+08  1.028193590144e-02
2.432000000000e+02 7.467149712885e-05 -9.300000000000e-04 -5.883689008599e+06 1.363811851389e+03 -7.938090730983e+06 -1.590496088712e+08 2.633309659496e-03 1.182195203378e-06 2.486269816215e-03 -8.078783330843e-03 5.762379620359e+07 1.521491217516e+08  1.063933534895e-02
2.504000000000e+02 7.716410383853e-05 -9.600000000000e-04 -5.927537854244e+06 2.205899655681e+03 -8.108899953005e+06 -1.636793125148e+08 2.726065634045e-03 1.337653116454e-06 2.569278665694e-03 -8.348962964364e-03 5.923858344067e+07 1.566724832939e+08  1.099747361073e-02
2.576000000000e+02 7.965473401221e-05 -9.900000000000e-04 -5.972183821352e+06 3.315070962541e+03 -8.284158564539e+06 -1.682731921864e+08 2.819122113981e-03 1.536438814858e-06 2.652221270997e-03 -8.619749811040e-03 6.084317819078e+07 1.611574594748e+08  1.135634168750e-02
2.648000000000e+02 8.214319615310e-05 -1.020000000000e-03 -6.017576846439e+06 4.731600703732e+03 -8.463811649716e+06 -1.728304223744e+08 2.912479349317e-03 1.786133030993e-06 2.735090674328e-03 -8.891135689366e-03 6.243727029019e+07 1.656032794864e+08  1.171592833123e-02
2.720000000000e+02 8.462928897924e-05 -1.050000000000e-03 -6.063667907080e+06 6.501102814647e+03 -8.647817779919e+06 -1.773502338314e+08 3.006138281891e-03 2.095642385055e-06 2.817879440432e-03 -9.163113476675e-03 6.402057317280e+07 1.700092217086e+08  1.207622348635e-02
2.792000000000e+02 8.711280313993e-05 -1.080000000000e-03 -6.110412689388e+06 8.673969751634e+03 -8.836161330697e+06 -1.818319293207e+08 3.100101388015e-03 2.475196908719e-06 2.900579715833e-03 -9.435679121837e-03 6.559283444693e+07 1.743746215863e+08  1.243722076588e-02
2.864000000000e+02 8.959352120772e-05 -1.110000000000e-03 -6.157776914284e+06 1.130263617297e+04 -9.028853420474e+06 -1.862748639314e+08 3.194372541859e-03 2.935912526673e-06 2.983183287584e-03 -9.708831818821e-03 6.715383142204e+07 1.786988487993e+08  1.279891758809e-02
2.936000000000e+02 9.207121766310e-05 -1.140000000000e-03 -6.205740427152e+06 1.443740772067e+04 -9.225923928731e+06 -1.906784094837e+08 3.288956265368e-03 3.489047144329e-06 3.065681667159e-03 -9.982572889827e-03 6.870335794653e+07 1.829812734981e+08  1.316131372029e-02
3.008000000000e+02 9.454565937871e-05 -1.170000000000e-03 -6.254298220413e+06 1.812426533401e+04 -9.427415664871e+06 -1.950419384436e+08 3.383857316067e-03 4.145570738340e-06 3.148066156894e-03 -1.025690511326e-02 7.024121744297e+07 1.872212525499e+08  1.352441043063e-02
3.080000000000e+02 9.701661122007e-05 -1.200000000000e-03 -6.303457844860e+06 2.240386128998e+04 -9.633382378893e+06 -1.993648347818e+08 3.479080966973e-03 4.915966083362e-06 3.230328046988e-03 -1.053183330081e-02 7.176722500185e+07 1.914181426938e+08  1.388821130667e-02
3.152000000000e+02 9.948384507526e-05 -1.230000000000e-03 -6.353235031683e+06 2.731121715835e+04 -9.843888021752e+06 -2.036465150398e+08 3.574633640469e-03 5.810146599518e-06 3.312458915009e-03 -1.080736554088e-02 7.328121269775e+07 1.955713242134e+08  1.425272397212e-02
3.224000000000e+02 1.019471396080e-04 -1.260000000000e-03 -6.403648271570e+06 3.287541640734e+04 -1.005900492839e+07 -2.078864327240e+08 3.670523262834e-03 6.837352957658e-06 3.394450622387e-03 -1.108351348985e-02 7.478302864133e+07 1.996802090043e+08  1.461796056113e-02
3.296000000000e+02 1.044062798288e-04 -1.290000000000e-03 -6.454713788087e+06 3.911962794772e+04 -1.027881020888e+07 -2.120840774033e+08 3.766759440213e-03 8.006109920833e-06 3.476295304370e-03 -1.136029232582e-02 7.627253380010e+07 2.037442440214e+08  1.498393776084e-02
3.368000000000e+02 1.068610565486e-04 -1.320000000000e-03 -6.506442206610e+06 4.606175458823e+04 -1.050338049475e+07 -2.162389677816e+08 3.863353328927e-03 9.324323103872e-06 3.557985347764e-03 -1.163772021754e-02 7.774959682766e+07 2.077629086316e+08  1.535067620631e-02
3.440000000000e+02 1.093112674607e-04 -1.350000000000e-03 -6.558837265702e+06 5.371550066128e+04 -1.073278619710e+07 -2.203506434811e+08 3.960317319260e-03 1.079946464645e-05 3.639513418915e-03 -1.191581763199e-02 7.921408898130e+07 2.117357098590e+08  1.571819964256e-02
3.512000000000e+02 1.117567138556e-04 -1.380000000000e-03 -6.611895330905e+06 6.209132137934e+04 -1.096708816009e+07 -2.244186564656e+08 4.057664700176e-03 1.243874925252e-05 3.720872344125e-03 -1.219460651489e-02 8.066587998552e+07 2.156621756876e+08  1.608653387753e-02
3.584000000000e+02 1.141972018005e-04 -1.410000000000e-03 -6.665605081869e+06 7.119663640435e+04 -1.120633858603e+07 -2.284425802178e+08 4.155409823773e-03 1.424920312848e-05 3.802055132318e-03 -1.247411061747e-02 8.210484129522e+07 2.195418639499e+08  1.645570720749e-02
3.656000000000e+02 1.166325477321e-04 -1.440000000000e-03 -6.719947479224e+06 8.103588525342e+04 -1.145058047733e+07 -2.324220189718e+08 4.253568272781e-03 1.623769853626e-05 3.883055151824e-03 -1.275435599706e-02 8.353084897612e+07 2.233743718467e+08  1.682575109253e-02
3.728000000000e+02 1.190625818614e-04 -1.470000000000e-03 -6.774896061958e+06 9.161070778514e+04 -1.169984310928e+07 -2.363566010271e+08 4.352156547347e-03 1.841099305860e-05 3.963866240937e-03 -1.303537051746e-02 8.494378006613e+07 2.271593312979e+08  1.719669955176e-02
3.800000000000e+02 1.214871454830e-04 -1.500000000000e-03 -6.830417370708e+06 1.029201417431e+05 -1.195413958778e+07 -2.402459696266e+08 4.451191712786e-03 2.077576649949e-05 4.044482615367e-03 -1.331718307694e-02 8.634350886170e+07 2.308964007754e+08  1.756858816701e-02
3.872000000000e+02 1.239060900220e-04 -1.530000000000e-03 -6.886471356561e+06 1.149607314828e+05 -1.221346482805e+07 -2.440897774000e+08 4.550691123393e-03 2.333864225206e-05 4.124898834063e-03 -1.359982304407e-02 8.772990452822e+07 2.345852604973e+08  1.794145336124e-02
3.944000000000e+02 1.263192803937e-04 -1.560000000000e-03 -6.943011837676e+06 1.277266068401e+05 -1.247779221222e+07 -2.478876821498e+08 4.650672120294e-03 2.610620104402e-05 4.205109909187e-03 -1.388331978997e-02 8.910282873322e+07 2.382256095705e+08  1.831533182879e-02
4.016000000000e+02 1.287266087293e-04 -1.590000000000e-03 -6.999987398013e+06 1.412102301330e+05 -1.274707029607e+07 -2.516393538877e+08 4.751151968522e-03 2.908509128222e-05 4.285111754119e-03 -1.416770306599e-02 9.046213719392e+07 2.418171741212e+08  1.869026109687e-02
4.088000000000e+02 1.311279893183e-04 -1.620000000000e-03 -7.057342889407e+06 1.554032715102e+05 -1.302125175999e+07 -2.553445507716e+08 4.852150524010e-03 3.228216652579e-05 4.364900993204e-03 -1.445300819388e-02 9.180771514033e+07 2.453597684543e+08  1.906628600739e-02
4.160000000000e+02 1.335233045653e-04 -1.650000000000e-03 -7.115016942144e+06 1.702909978044e+05 -1.330028423635e+07 -2.590030326595e+08 4.953687955110e-03 3.570367144202e-05 4.444473209741e-03 -1.473926961339e-02 9.313944461267e+07 2.488532143356e+08  1.944345024254e-02
4.232000000000e+02 1.359124307399e-04 -1.680000000000e-03 -7.172943334299e+06 1.858551679735e+05 -1.358409856844e+07 -2.626145592856e+08 5.055784161082e-03 3.935564032803e-05 4.523823786515e-03 -1.502652064573e-02 9.445720039611e+07 2.522973441092e+08  1.982179619525e-02
4.304000000000e+02 1.382952575023e-04 -1.710000000000e-03 -7.231053586498e+06 2.020772361250e+05 -1.387263691754e+07 -2.661789927807e+08 5.158462197600e-03 4.324436663764e-05 4.602948517662e-03 -1.531480106142e-02 9.576089442825e+07 2.556920883233e+08  2.020137461496e-02
4.376000000000e+02 1.406716906492e-04 -1.740000000000e-03 -7.289277002283e+06 2.189372288998e+05 -1.416584367487e+07 -2.696962729983e+08 5.261747510626e-03 4.737623554610e-05 4.681843711817e-03 -1.560415566206e-02 9.705046455848e+07 2.590374554269e+08  2.058224284755e-02
4.448000000000e+02 1.430416550099e-04 -1.770000000000e-03 -7.347540697085e+06 2.364136217912e+05 -1.446365901600e+07 -2.731664004454e+08 5.365667400895e-03 5.175769725811e-05 4.760506296719e-03 -1.589463330951e-02 9.832586671950e+07 2.623335177873e+08  2.096446364168e-02
4.520000000000e+02 1.454050903158e-04 -1.800000000000e-03 -7.405769229571e+06 2.544831642643e+05 -1.476601167421e+07 -2.765894101056e+08 5.470250162070e-03 5.639521742730e-05 4.838933694583e-03 -1.618628503377e-02 9.958706366978e+07 2.655803891671e+08  2.134810275258e-02
4.592000000000e+02 1.477619434779e-04 -1.830000000000e-03 -7.463884001873e+06 2.731202041318e+05 -1.507281228872e+07 -2.799653449095e+08 5.575524138667e-03 6.129513982385e-05 4.917123584267e-03 -1.647916184774e-02 1.008340137334e+08 2.687782016762e+08  2.173322615377e-02
4.664000000000e+02 1.501121604893e-04 -1.860000000000e-03 -7.521802739530e+06 2.922961310722e+05 -1.538394575275e+07 -2.832942276558e+08 5.681516574984e-03 6.646355489980e-05 4.995073654950e-03 -1.677331213883e-02 1.020666587160e+08 2.719270815940e+08  2.211989671021e-02
4.736000000000e+02 1.524556886319e-04 -1.890000000000e-03 -7.579439624128e+06 3.119799413041e+05 -1.569926834276e+07 -2.865760577684e+08 5.788253179444e-03 7.190633785771e-05 5.072781688560e-03 -1.706878085100e-02 1.032849219118e+08 2.750271473807e+08  2.250817317048e-02
4.808000000000e+02 1.547924791193e-04 -1.920000000000e-03 -7.636705617890e+06 3.321387002652e+05 -1.601861581758e+07 -2.898108396284e+08 5.895758960321e-03 7.762919077004e-05 5.150245636229e-03 -1.736561119957e-02 1.044887203546e+08 2.780785339065e+08  2.289811235265e-02
4.880000000000e+02 1.571224913673e-04 -1.950000000000e-03 -7.693509260209e+06 3.527383927241e+05 -1.634180829885e+07 -2.929986010795e+08 6.004058732167e-03 8.363774186826e-05 5.227463753871e-03 -1.766384583294e-02 1.056779728795e+08 2.810814081652e+08  2.328977063534e-02
4.952000000000e+02 1.594456939094e-04 -1.980000000000e-03 -7.749757343385e+06 3.737445765827e+05 -1.666865387330e+07 -2.961394039283e+08 6.113177395347e-03 8.993762424067e-05 5.304434628293e-03 -1.796352742979e-02 1.068526050483e+08 2.840359776675e+08  2.368320471445e-02
5.024000000000e+02 1.617620674132e-04 -2.010000000000e-03 -7.805355191864e+06 3.951225601916e+05 -1.699894997759e+07 -2.992333494300e+08 6.223140050788e-03 9.653448486009e-05 5.381157274284e-03 -1.826469900676e-02 1.080125515331e+08 2.869424950892e+08  2.407847201764e-02
5.096000000000e+02 1.640716029417e-04 -2.040000000000e-03 -7.860206916147e+06 4.168374850521e+05 -1.733248341368e+07 -3.022805744851e+08 6.333971781544e-03 1.034339679601e-04 5.457631075923e-03 -1.856740340459e-02 1.091577549383e+08 2.898012542999e+08  2.447563004804e-02
5.168000000000e+02 1.663743055822e-04 -2.070000000000e-03 -7.914215817092e+06 4.388544551015e+05 -1.766903024888e+07 -3.052812516781e+08 6.445697553017e-03 1.106417051827e-04 5.533855907696e-03 -1.887168320462e-02 1.102881659147e+08 2.926125902078e+08  2.487473630511e-02
5.240000000000e+02 1.686701953760e-04 -2.100000000000e-03 -7.967284788278e+06 4.611387120333e+05 -1.800835590964e+07 -3.082355867649e+08 6.558342037478e-03 1.181633139160e-04 5.609832166931e-03 -1.917758040507e-02 1.114037424876e+08 2.953768759606e+08  2.527584788261e-02
5.312000000000e+02 1.709593065909e-04 -2.130000000000e-03 -8.019316727698e+06 4.836557398953e+05 -1.835021550522e+07 -3.111438149531e+08 6.671929392278e-03 1.260043723326e-04 5.685560750372e-03 -1.948513595053e-02 1.125044490620e+08 2.980945188265e+08  2.567902086787e-02
5.384000000000e+02 1.732416834709e-04 -2.160000000000e-03 -8.070214903224e+06 5.063713750798e+05 -1.869435491885e+07 -3.140061964466e+08 6.786483037732e-03 1.341703985032e-04 5.761042914242e-03 -1.979438914012e-02 1.135902554229e+08 3.007659549985e+08  2.608430956382e-02
5.456000000000e+02 1.755173841039e-04 -2.190000000000e-03 -8.119883413187e+06 5.292519609307e+05 -1.904051144606e+07 -3.168230171531e+08 6.902025592249e-03 1.426668413331e-04 5.836280404066e-03 -2.010537763146e-02 1.146611373375e+08 3.033916497273e+08  2.649176651614e-02
5.528000000000e+02 1.777864803026e-04 -2.220000000000e-03 -8.168227653761e+06 5.522644946445e+05 -1.938841599496e+07 -3.195945902708e+08 7.018578915149e-03 1.514990746980e-04 5.911275450303e-03 -2.041813752749e-02 1.157170779732e+08 3.059720975915e+08  2.690144261643e-02
5.600000000000e+02 1.800490526128e-04 -2.250000000000e-03 -8.215154798330e+06 5.753767392626e+05 -1.973779609457e+07 -3.223212563368e+08 7.136164141443e-03 1.606723808227e-04 5.986030600220e-03 -2.073270328672e-02 1.167580690766e+08 3.085078208479e+08  2.731338694757e-02
5.672000000000e+02 1.823051854682e-04 -2.280000000000e-03 -8.260574161767e+06 5.985573230679e+05 -2.008837760287e+07 -3.250033800002e+08 7.254801561207e-03 1.701919324419e-04 6.060548556528e-03 -2.104910732285e-02 1.177841105883e+08 3.109993651897e+08  2.772764623996e-02
5.744000000000e+02 1.845549687977e-04 -2.310000000000e-03 -8.304397574871e+06 6.217758046237e+05 -2.043988566425e+07 -3.276413495918e+08 7.374510583720e-03 1.800627725416e-04 6.134832231950e-03 -2.136737999703e-02 1.187952109436e+08 3.134472986523e+08  2.814426486579e-02
5.816000000000e+02 1.867985006899e-04 -2.340000000000e-03 -8.346539769910e+06 6.450027861274e+05 -2.079204600330e+07 -3.302355782086e+08 7.495309788433e-03 1.902898126360e-04 6.208884838216e-03 -2.168754982364e-02 1.197913879939e+08 3.158522118710e+08  2.856328510878e-02
5.888000000000e+02 1.890358891299e-04 -2.370000000000e-03 -8.386918716492e+06 6.682099689866e+05 -2.114458581836e+07 -3.327865027716e+08 7.617216893801e-03 2.008778149609e-04 6.282709944600e-03 -2.200964348228e-02 1.207726691021e+08 3.182147165317e+08  2.898474718151e-02
5.960000000000e+02 1.912672506805e-04 -2.400000000000e-03 -8.425455896087e+06 6.913702059434e+05 -2.149723467135e+07 -3.352945810151e+08 7.740248645677e-03 2.118313729678e-04 6.356311434547e-03 -2.233368556319e-02 1.217390905275e+08 3.205354417887e+08  2.940868888541e-02
6.032000000000e+02 1.934927094317e-04 -2.430000000000e-03 -8.462076527122e+06 7.144575456620e+05 -2.184972598701e+07 -3.377602907354e+08 7.864420842196e-03 2.231549001349e-04 6.429693470113e-03 -2.265969859214e-02 1.226906977499e+08 3.228150326859e+08  2.983514562627e-02
6.104000000000e+02 1.957123966689e-04 -2.460000000000e-03 -8.496709829598e+06 7.374472682213e+05 -2.220179891365e+07 -3.401841307173e+08 7.989748464955e-03 2.348526213275e-04 6.502860479235e-03 -2.298770329989e-02 1.236275464868e+08 3.250541500673e+08  3.026415074191e-02
6.176000000000e+02 1.979264510205e-04 -2.490000000000e-03 -8.529289212093e+06 7.603159054002e+05 -2.255319933154e+07 -3.425666196508e+08 8.116245705037e-03 2.469285597801e-04 6.575817159674e-03 -2.331771869564e-02 1.245497027315e+08 3.272534689256e+08  3.069573558543e-02
6.248000000000e+02 2.001350177627e-04 -2.520000000000e-03 -8.559752384203e+06 7.830412570875e+05 -2.290367976045e+07 -3.449082915412e+08 8.243925777892e-03 2.593865185738e-04 6.648568456678e-03 -2.364976168845e-02 1.254572412286e+08 3.294136738019e+08  3.112992903110e-02
6.320000000000e+02 2.023382477134e-04 -2.550000000000e-03 -8.588041453766e+06 8.056023740079e+05 -2.325300008382e+07 -3.472096936178e+08 8.372800891394e-03 2.722300572324e-04 6.721119525589e-03 -2.398384700166e-02 1.263502450518e+08 3.315354563109e+08  3.156675734751e-02
6.392000000000e+02 2.045362959424e-04 -2.580000000000e-03 -8.614103058060e+06 8.279796180358e+05 -2.360092830355e+07 -3.494713845119e+08 8.502882225153e-03 2.854624956701e-04 6.793475687761e-03 -2.431998711096e-02 1.272288052912e+08 3.336195129050e+08  3.200624409792e-02
6.464000000000e+02 2.067293191707e-04 -2.610000000000e-03 -8.637888407082e+06 8.501546009702e+05 -2.394724159535e+07 -3.516939330277e+08 8.634179971849e-03 2.990868832036e-04 6.865642342126e-03 -2.465819225562e-02 1.280930210100e+08 3.356665431404e+08  3.244841012599e-02
6.536000000000e+02 2.089174763099e-04 -2.640000000000e-03 -8.659353344771e+06 8.721102513036e+05 -2.429172693092e+07 -3.538779176975e+08 8.766703405088e-03 3.131060129326e-04 6.937624981440e-03 -2.499847061193e-02 1.289429993244e+08 3.376772489223e+08  3.289327376745e-02
6.608000000000e+02 2.111009248181e-04 -2.670000000000e-03 -8.678458413270e+06 8.938307823691e+05 -2.463418215140e+07 -3.560239256776e+08 8.900460943038e-03 3.275224040993e-04 7.009429067938e-03 -2.534082832690e-02 1.297788554141e+08 3.396523328819e+08  3.334085085510e-02
6.680000000000e+02 2.132798202529e-04 -2.700000000000e-03 -8.695168826476e+06 9.153017138639e+05 -2.497441614304e+07 -3.581325511796e+08 9.035460160809e-03 3.423383070566e-04 7.081060017228e-03 -2.568526954457e-02 1.306007120497e+08 3.415924967585e+08  3.379115473941e-02
6.752000000000e+02 2.154543142349e-04 -2.730000000000e-03 -8.709454501538e+06 9.365098588565e+05 -2.531224959734e+07 -3.602043950326e+08 9.171707891416e-03 3.575556951726e-04 7.152523127235e-03 -2.603179657158e-02 1.314086997105e+08 3.434984406096e+08  3.424419647117e-02
6.824000000000e+02 2.176245532082e-04 -2.760000000000e-03 -8.721289995352e+06 9.574433208087e+05 -2.564751520311e+07 -3.622400634053e+08 9.309210272239e-03 3.731762707828e-04 7.223823535234e-03 -2.638040994778e-02 1.322029562013e+08 3.453708614986e+08  3.469998487354e-02
6.896000000000e+02 2.197906782927e-04 -2.790000000000e-03 -8.730654497408e+06 9.780914786546e+05 -2.598005815821e+07 -3.642401681860e+08 9.447972900806e-03 3.892014706132e-04 7.294966209696e-03 -2.673110878827e-02 1.329836269472e+08 3.472104536614e+08  3.515852696113e-02
6.968000000000e+02 2.219528229803e-04 -2.820000000000e-03 -8.737531710717e+06 9.984449430357e+05 -2.630973574416e+07 -3.662053239406e+08 9.588000755883e-03 4.056324545797e-04 7.365955873022e-03 -2.708389056841e-02 1.337508637985e+08 3.490179057481e+08  3.561982764367e-02
7.040000000000e+02 2.241111154497e-04 -2.850000000000e-03 -8.741909795877e+06 1.018495519095e+06 -2.663641782475e+07 -3.681361499058e+08 9.729298468199e-03 4.224701211826e-04 7.436797075172e-03 -2.743875177862e-02 1.345048258421e+08 3.507939026351e+08  3.608389055839e-02
7.112000000000e+02 2.262656758658e-04 -2.880000000000e-03 -8.743781224163e+06 1.038236138388e+06 -2.695998608722e+07 -3.700332662200e+08 9.871870176004e-03 4.397150898911e-04 7.507494103846e-03 -2.779568756881e-02 1.352456778438e+08 3.525391221091e+08  3.655071759244e-02
7.184000000000e+02 2.284166182929e-04 -2.910000000000e-03 -8.743142657411e+06 1.057660805705e+06 -2.728033414826e+07 -3.718972949591e+08 1.001571972699e-02 4.573677163223e-04 7.578051045840e-03 -2.815469224828e-02 1.359735905882e+08 3.542542359373e+08  3.702030951824e-02
7.256000000000e+02 2.305640496405e-04 -2.940000000000e-03 -8.739994769657e+06 1.076764475637e+06 -2.759736670972e+07 -3.737288572232e+08 1.016085056831e-02 4.754280554951e-04 7.648471752063e-03 -2.851575905435e-02 1.366887395675e+08 3.559399074613e+08  3.749266568314e-02