 TITLE = "Time curves in points"
 VARIABLES = "TIME"  "DISPLACEMENT_X1"  "DISPLACEMENT_Y1"  "STRESS_XX"  "STRESS_XY"  "STRESS_YY"  "STRESS_ZZ"  "STRAIN_XX"  "STRAIN_XY"  "STRAIN_YY"  "STRAIN_ZZ"  p_(1st_Invariant)  q_(2nd_Invariant)   Effective_Strain
 ZONE T="POINT=POINT0"
0.000000000000e+00 0.000000000000e+00 0.000000000000e+00 0.000000000000e+00 0.000000000000e+00 0.000000000000e+00 0.000000000000e+00 0.000000000000e+00 0.000000000000e+00 0.000000000000e+00 0.000000000000e+00 -0.000000000000e+00 0.000000000000e+00  0.000000000000e+00
2.000000000000e+00 0.000000000000e+00 0.000000000000e+00 -4.989190468397e+05 -2.333495182984e-07 -4.989190468401e+05 -3.342757615669e+05 -1.029322429526e-05 -2.933109219056e-17 -1.029322429529e-05 -8.625871976493e-15 4.440379517489e+05 1.646432852730e+05  1.029322428665e-05
4.000000000000e+00 0.000000000000e+00 0.000000000000e+00 -9.986583268175e+05 4.070719503095e-01 -9.986036987997e+05 -6.692723679075e+05 -2.060156516505e-05 7.396124007414e-11 -2.059814801190e-05 -8.883682469517e-09 8.888447978416e+05 3.293586482997e+05  2.059097311907e-05
6.000000000000e+00 0.000000000000e+00 0.000000000000e+00 -1.498400926598e+06 9.419722103207e-01 -1.498291611606e+06 -1.004272750872e+06 -3.091000559508e-05 1.638382470046e-10 -3.090316758081e-05 -1.784090595533e-08 1.333655096359e+06 4.940735273018e+05  3.088874625096e-05
8.000000000000e+00 0.000000000000e+00 0.000000000000e+00 -1.998142910588e+06 1.450625640073e+00 -1.997979175444e+06 -1.339272872754e+06 -4.121848100965e-05 2.502194589318e-10 -4.120823885391e-05 -2.680097283874e-08 1.778464986262e+06 6.587881855269e+05  4.118655991634e-05
1.000000000000e+01 0.000000000000e+00 0.000000000000e+00 -2.497884290793e+06 1.934042655515e+00 -2.497666412280e+06 -1.674272689964e+06 -5.152699207862e-05 3.332318573955e-10 -5.151336312243e-05 -3.576130983408e-08 2.223274464346e+06 8.235026831964e+05  5.148441764687e-05
1.200000000000e+01 0.000000000000e+00 0.000000000000e+00 -2.997625102033e+06 2.395689526348e+00 -2.997353360054e+06 -2.009272186528e+06 -6.183553984461e-05 4.133110349219e-10 -6.181854162236e-05 -4.472002848686e-08 2.668083549538e+06 9.882170725458e+05  6.178232246292e-05
1.400000000000e+01 0.000000000000e+00 0.000000000000e+00 -3.497365368953e+06 2.840321158345e+00 -3.497040044272e+06 -2.344271357022e+06 -7.214412489377e-05 4.910536648784e-10 -7.212377499216e-05 -5.367608879732e-08 3.112892256749e+06 1.152931384025e+06  7.208027601365e-05
1.600000000000e+01 0.000000000000e+00 0.000000000000e+00 -3.997105111027e+06 3.273672279248e+00 -3.996726483788e+06 -2.679270196503e+06 -8.245274766060e-05 5.671788679373e-10 -8.242906362602e-05 -6.262865854366e-08 3.557700597106e+06 1.317645641716e+06  8.237827954409e-05
1.800000000000e+01 0.000000000000e+00 0.000000000000e+00 -4.496844342703e+06 3.702106801917e+00 -4.496412691469e+06 -3.014268705984e+06 -9.276140834025e-05 6.424843827148e-10 -9.273440761906e-05 -7.157735709810e-08 4.002508580052e+06 1.482359858251e+06  9.267633357918e-05
2.000000000000e+01 0.000000000000e+00 0.000000000000e+00 -4.996583074566e+06 4.132375644353e+00 -4.996098675705e+06 -3.349266886872e+06 -1.030701070086e-04 7.178162981502e-10 -1.030398069083e-04 -8.052195298885e-08 4.447316212381e+06 1.647074041702e+06  1.029744383564e-04
2.720000000000e+01 0.000000000000e+00 0.000000000000e+00 -4.997425458583e+06 -5.758485922062e-01 -4.996891009809e+06 -8.491991133311e+06 -1.933390480677e-05 4.925393340073e-10 -1.930035036424e-05 -2.500967063461e-04 6.162102533901e+06 3.494832929765e+06  2.307795805917e-04
3.440000000000e+01 0.000000000000e+00 0.000000000000e+00 -5.061239890763e+06 -4.201711322831e+04 -5.069899529427e+06 -1.373478445926e+07 6.416965530197e-05 -5.321076982212e-06 6.359034611843e-05 -5.027858202971e-04 7.955307959817e+06 8.669523454180e+06  5.667409866755e-04
4.160000000000e+01 0.000000000000e+00 0.000000000000e+00 -5.124266201008e+06 -8.357398824400e+04 -5.142266842022e+06 -1.896538611829e+07 1.477266001386e-04 -1.060107542691e-05 1.465239779296e-04 -7.555799116486e-04 9.743973053773e+06 1.383288579405e+07  9.028925254233e-04
4.880000000000e+01 0.000000000000e+00 0.000000000000e+00 -5.181919177021e+06 -1.219538169777e+05 -5.208532529974e+06 -2.417967987584e+07 2.314103251872e-04 -1.549097315597e-05 2.296326830154e-04 -1.008470346586e-03 1.152337719428e+07 1.898564310024e+07  1.239283295630e-03
5.600000000000e+01 0.000000000000e+00 0.000000000000e+00 -5.234219719991e+06 -1.571516738941e+05 -5.268646329521e+06 -2.937852057466e+07 3.152306935117e-04 -1.998727851425e-05 3.129310398817e-04 -1.261490946223e-03 1.329379554139e+07 2.412864133101e+07  1.575953355236e-03
6.320000000000e+01 0.000000000000e+00 0.000000000000e+00 -5.281411220028e+06 -1.892611127839e+05 -5.322859445952e+06 -3.456242697554e+07 3.991887420756e-04 -2.409964197791e-05 3.964195831772e-04 -1.514657568557e-03 1.505556588051e+07 2.926214986599e+07  1.912918713028e-03
7.040000000000e+01 0.000000000000e+00 0.000000000000e+00 -5.323976787489e+06 -2.183870574234e+05 -5.371702797055e+06 -3.973143935552e+07 4.832717628498e-04 -2.783950936445e-05 4.800824874703e-04 -1.767957645011e-03 1.680903964669e+07 3.438570496551e+07  2.250153182034e-03
7.760000000000e+01 0.000000000000e+00 0.000000000000e+00 -5.362456969123e+06 -2.446398099187e+05 -5.415777273191e+06 -4.488538950972e+07 5.674618860656e-04 -3.121927998651e-05 5.638979268573e-04 -2.021366160074e-03 1.855454125068e+07 3.949857226271e+07  2.587612955420e-03
8.480000000000e+01 0.000000000000e+00 0.000000000000e+00 -5.397441704540e+06 -2.681351997063e+05 -5.455739680844e+06 -5.002422963781e+07 6.517408518888e-04 -3.425232298414e-05 6.478432245555e-04 -2.274859860231e-03 2.029247034107e+07 4.460008562689e+07  2.925255507753e-03
9.200000000000e+01 0.000000000000e+00 0.000000000000e+00 -5.429506133085e+06 -2.889970470616e+05 -5.492230943054e+06 -5.514800813050e+07 7.360907858192e-04 -3.695318102161e-05 7.318961371095e-04 -2.528416028010e-03 2.202324840221e+07 4.968969057620e+07  3.263039301952e-03
9.920000000000e+01 0.000000000000e+00 0.000000000000e+00 -5.459154870909e+06 -3.073566233126e+05 -5.525817849014e+06 -6.025681367539e+07 8.204950021649e-04 -3.933745663653e-05 8.160358318503e-04 -2.782011448169e-03 2.374726213177e+07 5.476694517278e+07  3.600923593407e-03
1.064000000000e+02 0.000000000000e+00 0.000000000000e+00 -5.486806747868e+06 -3.233514143767e+05 -5.556978707112e+06 -6.535076237993e+07 9.049385813980e-04 -4.142168398834e-05 9.002434065890e-04 -3.035623055437e-03 2.546484927830e+07 5.983152183739e+07  3.938869596768e-03
1.136000000000e+02 0.000000000000e+00 0.000000000000e+00 -5.512782342915e+06 -3.371209359319e+05 -5.586090119613e+06 -7.043000704727e+07 9.894091652492e-04 -4.322280975439e-05 9.845027413021e-04 -3.289229549330e-03 2.717629316993e+07 6.488322935482e+07  4.276842894156e-03
1.208000000000e+02 0.000000000000e+00 0.000000000000e+00 -5.537316942156e+06 -3.487996595576e+05 -5.613437886478e+06 -7.549472416028e+07 1.073896524841e-03 -4.475727625819e-05 1.068800208142e-03 -3.542811079088e-03 2.888182632964e+07 6.992198780633e+07  4.614812727500e-03
1.280000000000e+02 0.000000000000e+00 0.000000000000e+00 -5.560582597377e+06 -3.585114151895e+05 -5.639238046128e+06 -8.054509291194e+07 1.158391714878e-03 -4.604029093321e-05 1.153123894418e-03 -3.796348178849e-03 3.058163785181e+07 7.494778598991e+07  4.952750105689e-03
1.352000000000e+02 0.000000000000e+00 0.000000000000e+00 -5.582710725423e+06 -3.663677286493e+05 -5.663660103149e+06 -8.558127181293e+07 1.242886153778e-03 -4.708561004038e-05 1.237462639201e-03 -4.049820390680e-03 3.227588088050e+07 7.996063513425e+07  5.290625489787e-03
1.424000000000e+02 0.000000000000e+00 0.000000000000e+00 -5.603793454472e+06 -3.724666236412e+05 -5.686827638948e+06 -9.060340536907e+07 1.327371887745e-03 -4.790533127500e-05 1.321806351641e-03 -4.303207158582e-03 3.396467548750e+07 8.496057462734e+07  5.628409983597e-03
1.496000000000e+02 0.000000000000e+00 0.000000000000e+00 -5.623885338600e+06 -3.768924783398e+05 -5.708819003936e+06 -9.561162230664e+07 1.411841665872e-03 -4.850979943032e-05 1.406146161508e-03 -4.556488228712e-03 3.564810888306e+07 8.994766908509e+07  5.966075856233e-03
1.568000000000e+02 0.000000000000e+00 0.000000000000e+00 -5.643009954572e+06 -3.797188666212e+05 -5.729675523111e+06 -1.006060168945e+08 1.496288563198e-03 -4.890796232383e-05 1.490473933841e-03 -4.809642809896e-03 3.732623412405e+07 9.492198235527e+07  6.303595291953e-03
1.640000000000e+02 0.000000000000e+00 0.000000000000e+00 -5.661163332123e+06 -3.810125589702e+05 -5.749406872892e+06 -1.055866516521e+08 1.580706058145e-03 -4.910789676854e-05 1.574782215202e-03 -5.062649861003e-03 3.899907395237e+07 9.988357590573e+07  6.640940710464e-03
1.712000000000e+02 0.000000000000e+00 0.000000000000e+00 -5.678310039367e+06 -3.808368962174e+05 -5.767988586523e+06 -1.105535742811e+08 1.665088600860e-03 -4.911725017993e-05 1.659064707684e-03 -5.315489400225e-03 4.066662430234e+07 1.048325290209e+08  6.978086612613e-03
1.784000000000e+02 0.000000000000e+00 0.000000000000e+00 -5.694391961944e+06 -3.792530153669e+05 -5.785371716391e+06 -1.155067929698e+08 1.749431009941e-03 -4.894340078274e-05 1.743315606719e-03 -5.568141206385e-03 4.232885221605e+07 1.097689049125e+08  7.315007655775e-03
1.856000000000e+02 0.000000000000e+00 0.000000000000e+00 -5.709325611275e+06 -3.763191738844e+05 -5.801480581588e+06 -1.204462807467e+08 1.833728778267e-03 -4.859336823834e-05 1.827529877666e-03 -5.820585497650e-03 4.398569564651e+07 1.146927575479e+08  7.651679624358e-03
1.928000000000e+02 0.000000000000e+00 0.000000000000e+00 -5.723006946151e+06 -3.720911778487e+05 -5.816218076736e+06 -1.253719727234e+08 1.917978007364e-03 -4.807386829484e-05 1.911703157958e-03 -6.072803005759e-03 4.563706591541e+07 1.196041238421e+08  7.988079426018e-03
2.000000000000e+02 0.000000000000e+00 0.000000000000e+00 -5.735310991208e+06 -3.666232076333e+05 -5.829465760565e+06 -1.302837542413e+08 2.002175375962e-03 -4.739141953795e-05 1.995831695083e-03 -6.324774807822e-03 4.728284366434e+07 1.245030119672e+08  8.324184880863e-03
2.072000000000e+02 0.000000000000e+00 0.000000000000e+00 -5.746090870782e+06 -3.599684462251e+05 -5.841083148900e+06 -1.351814698418e+08 2.086318516060e-03 -4.655242360236e-05 2.079912706531e-03 -6.576483352340e-03 4.892288128718e+07 1.293894111713e+08  8.659976118398e-03
2.144000000000e+02 0.000000000000e+00 0.000000000000e+00 -5.755178552625e+06 -3.521798617693e+05 -5.850908622245e+06 -1.400649227419e+08 2.170406180714e-03 -4.556326597334e-05 2.163944537794e-03 -6.827912987244e-03 5.055700330560e+07 1.342632904380e+08  8.995436271218e-03
2.216000000000e+02 0.000000000000e+00 0.000000000000e+00 -5.762383409041e+06 -3.433107261064e+05 -5.858758032581e+06 -1.449338831019e+08 2.254438670039e-03 -4.443038151538e-05 2.247927086340e-03 -7.079051118253e-03 5.218500818117e+07 1.391246081781e+08  9.330553059992e-03
2.288000000000e+02 0.000000000000e+00 0.000000000000e+00 -5.767496636981e+06 -3.334156128816e+05 -5.864429232253e+06 -1.497880679634e+08 2.338417568249e-03 -4.316038246592e-05 2.331861532096e-03 -7.329887703817e-03 5.380666461088e+07 1.439732877005e+08  9.665318024381e-03
2.360000000000e+02 0.000000000000e+00 0.000000000000e+00 -5.770296992866e+06 -3.225511473414e+05 -5.867707832283e+06 -1.546271240316e+08 2.422345496114e-03 -4.176015150104e-05 2.415750088954e-03 -7.580414892790e-03 5.542170961893e+07 1.488091942528e+08  9.999725913769e-03
2.432000000000e+02 0.000000000000e+00 0.000000000000e+00 -5.770567091772e+06 -3.107766541360e+05 -5.868383366114e+06 -1.594506342935e+08 2.506225918478e-03 -4.023691889056e-05 2.499595821770e-03 -7.830627559934e-03 5.702986158378e+07 1.536321254097e+08  1.033377503544e-02
2.504000000000e+02 0.000000000000e+00 0.000000000000e+00 -5.768100989297e+06 -2.981551140604e+05 -5.866256669462e+06 -1.642581399193e+08 2.590063524081e-03 -3.859837899012e-05 2.583403039737e-03 -8.080524964005e-03 5.863083252602e+07 1.584418254957e+08  1.066746929975e-02
2.576000000000e+02 0.000000000000e+00 0.000000000000e+00 -5.762714597222e+06 -2.847547452948e+05 -5.861150097625e+06 -1.690491440668e+08 2.673864169453e-03 -3.685288852570e-05 2.667177252926e-03 -8.330111300603e-03 6.022433625389e+07 1.632379790762e+08  1.100081872413e-02
2.648000000000e+02 0.000000000000e+00 0.000000000000e+00 -5.754240414961e+06 -2.706507814677e+05 -5.852901982728e+06 -1.738230924646e+08 2.757634930131e-03 -3.500969033973e-05 2.750925240807e-03 -8.579395511105e-03 6.181007828744e+07 1.680201969482e+08  1.133383930222e-02
2.720000000000e+02 0.000000000000e+00 0.000000000000e+00 -5.742512012565e+06 -2.559277762095e+05 -5.841350773592e+06 -1.785793297982e+08 2.841384038996e-03 -3.307920733466e-05 2.834655012335e-03 -8.828390055114e-03 6.338773086146e+07 1.727879882154e+08  1.166655172569e-02
2.792000000000e+02 0.000000000000e+00 0.000000000000e+00 -5.727346043106e+06 -2.406833594333e+05 -5.826316884713e+06 -1.833170999088e+08 2.925121664578e-03 -3.107353231363e-05 2.918376594408e-03 -9.077111999583e-03 6.495692094555e+07 1.775407785591e+08  1.199898325735e-02
2.864000000000e+02 0.000000000000e+00 0.000000000000e+00 -5.708538205987e+06 -2.250337861725e+05 -5.807598653814e+06 -1.880355678940e+08 3.008860548938e-03 -2.900716385045e-05 3.002102669853e-03 -9.325584629320e-03 6.651723491795e+07 1.822779363808e+08  1.233116998026e-02
2.936000000000e+02 0.000000000000e+00 0.000000000000e+00 -5.685871383069e+06 -2.091189919321e+05 -5.784980238595e+06 -1.927338077917e+08 3.092615525281e-03 -2.689769008947e-05 3.085848110723e-03 -9.573836566159e-03 6.806821980447e+07 1.869987524628e+08  1.266315544039e-02
3.008000000000e+02 0.000000000000e+00 0.000000000000e+00 -5.659119265574e+06 -1.931067634947e+05 -5.758234867707e+06 -1.974107663295e+08 3.176402691206e-03 -2.476637418381e-05 3.169629176506e-03 -9.821899554092e-03 6.960937348759e+07 1.917024002623e+08  1.299498761327e-02
3.080000000000e+02 0.000000000000e+00 0.000000000000e+00 -5.628038657277e+06 -1.771968142391e+05 -5.727117066775e+06 -2.020652815594e+08 3.260239945357e-03 -2.263875398008e-05 3.253464056530e-03 -1.006980948634e-02 7.114014576115e+07 1.963879622636e+08  1.332672046569e-02
3.152000000000e+02 0.000000000000e+00 0.000000000000e+00 -5.592371298231e+06 -1.616235465390e+05 -5.691364491664e+06 -2.066960720318e+08 3.344146630244e-03 -2.054509989934e-05 3.337372513016e-03 -1.031760538271e-02 7.265993594055e+07 2.010544173037e+08  1.365841257050e-02
3.224000000000e+02 0.000000000000e+00 0.000000000000e+00 -5.551849056326e+06 -1.466557505192e+05 -5.650703105008e+06 -2.113016866152e+08 3.428142343084e-03 -1.852049642379e-05 3.421374693773e-03 -1.056532606297e-02 7.416807959217e+07 2.057005851885e+08  1.399012258602e-02
3.296000000000e+02 0.000000000000e+00 0.000000000000e+00 -5.506198728803e+06 -1.325928608049e+05 -5.604852174028e+06 -2.158804299807e+08 3.512245330887e-03 -1.660448825243e-05 3.505489514124e-03 -1.081300543598e-02 7.566382696119e+07 2.103250472655e+08  1.432190292987e-02
3.368000000000e+02 0.000000000000e+00 0.000000000000e+00 -5.455175763330e+06 -1.197567318564e+05 -5.553558555736e+06 -2.204302121290e+08 3.596468385958e-03 -1.484012630268e-05 3.589730511592e-03 -1.106066217101e-02 7.714631548268e+07 2.149259619502e+08  1.465378532485e-02
3.440000000000e+02 0.000000000000e+00 0.000000000000e+00 -5.398628289374e+06 -1.084781493764e+05 -5.496662822723e+06 -2.249482439551e+08 3.680810437729e-03 -1.327229999508e-05 3.674097287687e-03 -1.130827833254e-02 7.861451168908e+07 2.195006952339e+08  1.498575095514e-02
3.512000000000e+02 0.000000000000e+00 0.000000000000e+00 -5.336589327984e+06 -9.908742052084e+04 -5.434201453941e+06 -2.294307680852e+08 3.765246577176e-03 -1.194701110598e-05 3.758564815671e-03 -1.155577481351e-02 8.006718628903e+07 2.240454543764e+08  1.531769558002e-02
3.584000000000e+02 0.000000000000e+00 0.000000000000e+00 -5.269268377955e+06 -9.193986570692e+04 -5.366431313739e+06 -2.338736487611e+08 3.849735714313e-03 -1.091708940451e-05 3.843088651166e-03 -1.180303147160e-02 8.150311615094e+07 2.285558698811e+08  1.564945613677e-02
3.656000000000e+02 0.000000000000e+00 0.000000000000e+00 -5.197019801647e+06 -8.744281006315e+04 -5.293837257343e+06 -2.382732645255e+08 3.934234431969e-03 -1.024911838855e-05 3.927615613874e-03 -1.204992389430e-02 8.292137386150e+07 2.330279002994e+08  1.598085980493e-02
3.728000000000e+02 0.000000000000e+00 0.000000000000e+00 -5.120184594076e+06 -8.589682012196e+04 -5.216884610177e+06 -2.426267566445e+08 4.018703128623e-03 -9.997271479669e-06 4.012096435808e-03 -1.229633836717e-02 8.432127528293e+07 2.374582834173e+08  1.631174834365e-02
3.800000000000e+02 0.000000000000e+00 0.000000000000e+00 -5.039117056221e+06 -8.741148144075e+04 -5.135963968305e+06 -2.469310911905e+08 4.103088038592e-03 -1.018482505556e-05 4.096474413018e-03 -1.254212666243e-02 8.570205740502e+07 2.418436126125e+08  1.664191822350e-02
3.872000000000e+02 0.000000000000e+00 0.000000000000e+00 -4.954404884595e+06 -9.206431122135e+04 -5.051711103053e+06 -2.511825004952e+08 4.187304456418e-03 -1.083048448133e-05 4.180661200080e-03 -1.278706374301e-02 8.706287216095e+07 2.461795085688e+08  1.697105791404e-02
3.944000000000e+02 0.000000000000e+00 0.000000000000e+00 -4.866239269711e+06 -9.975578915981e+04 -4.964318874129e+06 -2.553788208861e+08 4.271297818922e-03 -1.192752953337e-05 4.264601909020e-03 -1.303099235254e-02 8.840312634332e+07 2.504636158137e+08  1.729895552438e-02
4.016000000000e+02 0.000000000000e+00 0.000000000000e+00 -4.774516930125e+06 -1.102685447788e+05 -4.873652007432e+06 -2.595189638191e+08 4.355036179116e-03 -1.345107121371e-05 4.348266711794e-03 -1.327380583109e-02 8.972237758554e+07 2.546949654303e+08  1.762547364954e-02
4.088000000000e+02 0.000000000000e+00 0.000000000000e+00 -4.679075850751e+06 -1.233562784456e+05 -4.779514381525e+06 -2.636021684767e+08 4.438492250064e-03 -1.537087803044e-05 4.431630609096e-03 -1.351540790116e-02 9.102025290301e+07 2.588729761451e+08  1.795049005730e-02
4.160000000000e+02 0.000000000000e+00 0.000000000000e+00 -4.579735247175e+06 -1.387915204011e+05 -4.681707040300e+06 -2.676278788218e+08 4.521640974267e-03 -1.765858192130e-05 4.514669676118e-03 -1.375570663151e-02 9.229644036975e+07 2.629972823713e+08  1.827388855002e-02
4.232000000000e+02 0.000000000000e+00 0.000000000000e+00 -4.476307864150e+06 -1.563890728612e+05 -4.580050486347e+06 -2.715957354343e+08 4.604459692001e-03 -2.029139455445e-05 4.597360467406e-03 -1.399461497832e-02 9.355069792828e+07 2.670677087383e+08  1.859555928724e-02
4.304000000000e+02 0.000000000000e+00 0.000000000000e+00 -4.368675553536e+06 -1.759949382297e+05 -4.474454518608e+06 -2.755055908493e+08 4.686926138111e-03 -2.325061117784e-05 4.679678389766e-03 -1.423205081633e-02 9.478290697383e+07 2.710842126825e+08  1.891539699085e-02
4.376000000000e+02 0.000000000000e+00 0.000000000000e+00 -4.256852212478e+06 -1.974579321407e+05 -4.364963239496e+06 -2.793574566753e+08 4.769014841425e-03 -2.651731805997e-05 4.761595414137e-03 -1.446793244009e-02 9.599309070910e+07 2.750467775195e+08  1.923329348116e-02
4.448000000000e+02 0.000000000000e+00 0.000000000000e+00 -4.140957308139e+06 -2.206059818598e+05 -4.251710816168e+06 -2.831514237110e+08 4.850695870146e-03 -3.006863513234e-05 4.843080175067e-03 -1.470217444763e-02 9.718136394509e+07 2.789553678310e+08  1.954913295604e-02
4.520000000000e+02 0.000000000000e+00 0.000000000000e+00 -4.021158455341e+06 -2.452439069623e+05 -4.134861488985e+06 -2.868876193439e+08 4.931935541769e-03 -3.387722469519e-05 4.924098917506e-03 -1.493468599110e-02 9.834787976273e+07 2.828099455164e+08  1.986279104994e-02
4.592000000000e+02 0.000000000000e+00 0.000000000000e+00 -3.897654941277e+06 -2.711683755402e+05 -4.014603477115e+06 -2.905662077080e+08 5.012696663961e-03 -3.791351252118e-05 5.004614982615e-03 -1.516536979152e-02 9.949282204212e+07 2.866104812313e+08  2.017413370620e-02
4.664000000000e+02 0.000000000000e+00 0.000000000000e+00 -3.770726815368e+06 -2.981863852033e+05 -3.891210930693e+06 -2.941874293972e+08 5.092937210916e-03 -4.214850499346e-05 5.084586506762e-03 -1.539412140605e-02 1.006164557144e+08 2.903569386132e+08  2.048301463733e-02
4.736000000000e+02 0.000000000000e+00 0.000000000000e+00 -3.640704940950e+06 -3.261181323018e+05 -3.765014269967e+06 -2.977516336465e+08 5.172611875533e-03 -4.655435626756e-05 5.163967948973e-03 -1.562083171621e-02 1.017191176191e+08 2.940493362750e+08  2.078927935369e-02
4.808000000000e+02 0.000000000000e+00 0.000000000000e+00 -3.507767844876e+06 -3.547805411039e+05 -3.636182013257e+06 -3.012592533163e+08 5.251679447834e-03 -5.110212079447e-05 5.242718656154e-03 -1.584539390038e-02 1.028010677248e+08 2.976879333949e+08  2.109278009074e-02
4.880000000000e+02 0.000000000000e+00 0.000000000000e+00 -3.371932077626e+06 -3.839893865508e+05 -3.504712623553e+06 -3.047107967079e+08 5.330103687896e-03 -5.576213615705e-05 5.320803642295e-03 -1.606770493667e-02 1.038624804697e+08 3.012732304270e+08  2.139337813614e-02
4.952000000000e+02 0.000000000000e+00 0.000000000000e+00 -3.233126574007e+06 -4.135641539134e+05 -3.370514483653e+06 -3.081068505932e+08 5.407851131991e-03 -6.050475403152e-05 5.398190959777e-03 -1.628766442754e-02 1.049034972170e+08 3.048058949808e+08  2.169094024638e-02
5.024000000000e+02 0.000000000000e+00 0.000000000000e+00 -3.091229130744e+06 -4.433282446421e+05 -3.233444224853e+06 -3.114480715928e+08 5.484889873335e-03 -6.530039807132e-05 5.474850332460e-03 -1.650517369112e-02 1.059242483161e+08 3.082867158032e+08  2.198533644603e-02
5.096000000000e+02 0.000000000000e+00 0.000000000000e+00 -2.946083733847e+06 -4.731083865759e+05 -3.093324803521e+06 -3.147351791625e+08 5.561188980125e-03 -7.011952242220e-05 5.550752510212e-03 -1.672013536775e-02 1.069248625666e+08 3.117165780687e+08  2.227643902167e-02
5.168000000000e+02 0.000000000000e+00 0.000000000000e+00 -2.797506951997e+06 -5.027342426635e+05 -2.949952286028e+06 -3.179689525981e+08 5.636718353504e-03 -7.493261331145e-05 5.625869092198e-03 -1.693245352100e-02 1.079054706120e+08 3.150964538027e+08  2.256412246585e-02
5.240000000000e+02 0.000000000000e+00 0.000000000000e+00 -2.645291663361e+06 -5.320383146023e+05 -2.803099771603e+06 -3.211502312205e+08 5.711448703533e-03 -7.971024509102e-05 5.700172483898e-03 -1.714203391725e-02 1.088662075518e+08 3.184273982528e+08  2.284826372685e-02
5.312000000000e+02 0.000000000000e+00 0.000000000000e+00 -2.489209664577e+06 -5.608558840507e+05 -2.652520102530e+06 -3.242799102175e+08 5.785351432133e-03 -8.442314915386e-05 5.773635769070e-03 -1.734878396806e-02 1.098072133282e+08 3.217105430824e+08  2.312874203323e-02
5.384000000000e+02 0.000000000000e+00 0.000000000000e+00 -2.329011029976e+06 -5.890249555860e+05 -2.497945292239e+06 -3.273589394041e+08 5.858398688149e-03 -8.904228988537e-05 5.846232756386e-03 -1.755261293438e-02 1.107286319088e+08 3.249470957520e+08  2.340543915457e-02
5.456000000000e+02 0.000000000000e+00 0.000000000000e+00 -2.164424961055e+06 -6.163862053318e+05 -2.339087429318e+06 -3.303883198223e+08 5.930563280244e-03 -9.353894641560e-05 5.917937885125e-03 -1.775343185047e-02 1.116306107375e+08 3.281383352568e+08  2.367823924111e-02
5.528000000000e+02 0.000000000000e+00 0.000000000000e+00 -1.995159268255e+06 -6.427829742072e+05 -2.175638230747e+06 -3.333691075703e+08 6.001818781242e-03 -9.788480628969e-05 5.988726320949e-03 -1.795115391850e-02 1.125133016898e+08 3.312856164542e+08  2.394702932576e-02
5.600000000000e+02 0.000000000000e+00 0.000000000000e+00 -1.820899193419e+06 -6.680613846508e+05 -2.007267956846e+06 -3.363024138590e+08 6.072139545338e-03 -1.020520820070e-04 6.058573963484e-03 -1.814569460662e-02 1.133768603364e+08 3.343903712699e+08  2.421169944279e-02
5.672000000000e+02 0.000000000000e+00 0.000000000000e+00 -1.641306400710e+06 -6.920705022578e+05 -1.833624519533e+06 -3.391894025970e+08 6.141500631111e-03 -1.060136367051e-04 6.127457357864e-03 -1.833697149974e-02 1.142214445057e+08 3.374541072529e+08  2.447214240468e-02
5.744000000000e+02 0.000000000000e+00 0.000000000000e+00 -1.456020868015e+06 -7.146626369279e+05 -1.654335557984e+06 -3.420312904255e+08 6.209877621010e-03 -1.097431324644e-04 6.195353497276e-03 -1.852490410025e-02 1.150472156172e+08 3.404784056470e+08  2.472825342364e-02
5.816000000000e+02 0.000000000000e+00 0.000000000000e+00 -1.264659326957e+06 -7.356939375148e+05 -1.469007140547e+06 -3.448293509538e+08 6.277246643766e-03 -1.132152240813e-04 6.262239823116e-03 -1.870941396322e-02 1.158543391404e+08 3.434649270796e+08  2.497993026852e-02
5.888000000000e+02 0.000000000000e+00 0.000000000000e+00 -1.066816805003e+06 -7.550253411218e+05 -1.277225643500e+06 -3.475849160586e+08 6.343584159420e-03 -1.164058038515e-04 6.328093982167e-03 -1.889042440050e-02 1.166429861690e+08 3.464154111774e+08  2.522707275162e-02
5.960000000000e+02 0.000000000000e+00 0.000000000000e+00 -8.620619738976e+05 -7.725240751236e+05 -1.078553582530e+06 -3.502993841730e+08 6.408867116143e-03 -1.192923249762e-04 6.392893945519e-03 -1.906786079961e-02 1.174133332431e+08 3.493316892963e+08  2.546958319819e-02
6.032000000000e+02 0.000000000000e+00 0.000000000000e+00 -6.499369044994e+05 -7.880656739155e+05 -8.725299196739e+05 -3.529742240740e+08 6.473072771818e-03 -1.218541896355e-04 6.456617787552e-03 -1.924165033472e-02 1.181655636327e+08 3.522156883137e+08  2.570736597123e-02
6.104000000000e+02 0.000000000000e+00 0.000000000000e+00 -4.299542102944e+05 -8.015368725723e+05 -6.586679924581e+05 -3.556109848740e+08 6.536178712354e-03 -1.240732508896e-04 6.519243645310e-03 -1.941172206888e-02 1.188998690256e+08 3.550694431242e+08  2.594032757743e-02
6.176000000000e+02 0.000000000000e+00 0.000000000000e+00 -2.015957408857e+05 -8.128394698838e+05 -4.364551473708e+05 -3.582113073726e+08 6.598162784179e-03 -1.259344280365e-04 6.580749582484e-03 -1.957800695084e-02 1.196164527536e+08 3.578951088758e+08  2.616837657810e-02
6.248000000000e+02 0.000000000000e+00 0.000000000000e+00 3.569101207362e+04 -8.218956214987e+05 -2.053503688589e+05 -3.607769396603e+08 6.659003170824e-03 -1.274264890336e-04 6.641113579900e-03 -1.974043807422e-02 1.203155330057e+08 3.606949796104e+08  2.639142389895e-02
6.320000000000e+02 0.000000000000e+00 0.000000000000e+00 2.824945803505e+05 -8.286548981841e+05 3.521586531998e+04 -3.633097540747e+08 6.718678402584e-03 -1.285430255289e-04 6.700313442401e-03 -1.989895089813e-02 1.209973478763e+08 3.634715061894e+08  2.660938302720e-02
6.392000000000e+02 0.000000000000e+00 0.000000000000e+00 5.394414311743e+05 -8.331037095848e+05 2.858415511317e+05 -3.658117704684e+08 6.777167549602e-03 -1.292836773549e-04 6.758326867017e-03 -2.005348396842e-02 1.216621624954e+08 3.662273205745e+08  2.682217088290e-02
6.464000000000e+02 0.000000000000e+00 0.000000000000e+00 8.071953522209e+05 -8.352779137893e+05 5.471500721931e+05 -3.682851816125e+08 6.834450519186e-03 -1.296556837582e-04 6.815131591621e-03 -2.020398005714e-02 1.223102787294e+08 3.689652594677e+08  2.702970920226e-02
6.536000000000e+02 0.000000000000e+00 0.000000000000e+00 1.086455243025e+06 -8.352799651425e+05 8.197847287755e+05 -3.707323744791e+08 6.890508615124e-03 -1.296759024719e-04 6.870705771546e-03 -2.035038798829e-02 1.229420448358e+08 3.716883818583e+08  2.723192685462e-02
6.608000000000e+02 0.000000000000e+00 0.000000000000e+00 1.377946776000e+06 -8.333023207135e+05 1.104396081470e+06 -3.731559432903e+08 6.945325579645e-03 -1.293734753057e-04 6.925028796887e-03 -2.049266590557e-02 1.235578668109e+08 3.743999717023e+08  2.742876406691e-02
6.680000000000e+02 0.000000000000e+00 0.000000000000e+00 1.682405526172e+06 -8.296603097078e+05 1.401619284498e+06 -3.755586709944e+08 6.998889483308e-03 -1.287935191850e-04 6.978082894954e-03 -2.063078678221e-02 1.241582153946e+08 3.771034997980e+08  2.762017971453e-02
6.752000000000e+02 0.000000000000e+00 0.000000000000e+00 2.000539938119e+06 -8.248392720654e+05 1.712029317379e+06 -3.779434506503e+08 7.051196206396e-03 -1.280024375366e-04 7.029856221395e-03 -2.076474835076e-02 1.247436271316e+08 3.798025045014e+08  2.780616458691e-02
6.824000000000e+02 0.000000000000e+00 0.000000000000e+00 2.332955070183e+06 -8.195610862656e+05 2.036055193274e+06 -3.803130766781e+08 7.102255708091e-03 -1.270955085119e-04 7.080348585489e-03 -2.089459073063e-02 1.253146888049e+08 3.825003022791e+08  2.798676508446e-02
6.896000000000e+02 0.000000000000e+00 0.000000000000e+00 2.679992229388e+06 -8.148582394936e+05 2.373812483088e+06 -3.826697335032e+08 7.152102073441e-03 -1.262052373322e-04 7.129580903511e-03 -2.102042499329e-02 1.258719762636e+08 3.851993127834e+08  2.816212160944e-02
6.968000000000e+02 0.000000000000e+00 0.000000000000e+00 3.041395332699e+06 -8.120568302823e+05 2.724785446728e+06 -3.850137625232e+08 7.200805431900e-03 -1.254980904099e-04 7.177607450608e-03 -2.114246920668e-02 1.264158605813e+08 3.878994998579e+08  2.833251661858e-02
7.040000000000e+02 0.000000000000e+00 0.000000000000e+00 3.415656823374e+06 -8.123746999712e+05 3.087262921379e+06 -3.873412631448e+08 7.248480181130e-03 -1.251245101716e-04 7.224528223326e-03 -2.126108263262e-02 1.269461144667e+08 3.905953609733e+08  2.849841844930e-02
7.112000000000e+02 0.000000000000e+00 0.000000000000e+00 3.798883598192e+06 -8.157429536645e+05 3.457418603268e+06 -3.896416319868e+08 7.295303253160e-03 -1.250810696552e-04 7.270518574062e-03 -2.137684945636e-02 1.274617765951e+08 3.932724323521e+08  2.866058724096e-02
7.184000000000e+02 0.000000000000e+00 0.000000000000e+00 4.183641381951e+06 -8.191750937687e+05 3.828407348271e+06 -3.918977234377e+08 7.341557015449e-03 -1.250260846977e-04 7.315887479137e-03 -2.149074587908e-02 1.279618915692e+08 3.959064097880e+08  2.882029028040e-02