 TITLE = "Time curves in points"
 VARIABLES = "TIME"  "DISPLACEMENT_X1"  "DISPLACEMENT_Y1"  "STRESS_XX"  "STRESS_XY"  "STRESS_YY"  "STRESS_ZZ"  "STRAIN_XX"  "STRAIN_XY"  "STRAIN_YY"  "STRAIN_ZZ"  p_(1st_Invariant)  q_(2nd_Invariant)   Effective_Strain
 ZONE T="POINT=POINT1"
0.000000000000e+00 0.000000000000e+00 0.000000000000e+00 0.000000000000e+00 0.000000000000e+00 0.000000000000e+00 0.000000000000e+00 0.000000000000e+00 0.000000000000e+00 0.000000000000e+00 0.000000000000e+00 -0.000000000000e+00 0.000000000000e+00  0.000000000000e+00
2.000000000000e+00 -3.087967289298e-07 0.000000000000e+00 -4.989190468873e+05 -2.848603047458e-06 -4.989190469213e+05 -3.342757616099e+05 -1.029322429555e-05 -3.562730690435e-16 -1.029322429767e-05 -8.617920925448e-15 4.440379518062e+05 1.646432852944e+05  1.029322428799e-05
4.000000000000e+00 -6.179943783921e-07 0.000000000000e+00 -9.988557666623e+05 -6.427026016208e+01 -9.986436131301e+05 -6.690938411175e+05 -2.061300566693e-05 -8.065048189187e-09 -2.059971875075e-05 3.205725067141e-09 8.888644069700e+05 3.296559187742e+05  2.060957588025e-05
6.000000000000e+00 -9.271954178245e-07 0.000000000000e+00 -1.498796203753e+06 -1.292147179402e+02 -1.498370283569e+06 -1.003913065087e+06 -3.093300065891e-05 -1.621433774127e-08 -3.090632599097e-05 6.449218098239e-09 1.333693184136e+06 4.946703667249e+05  3.092613392250e-05
8.000000000000e+00 -1.236397007527e-06 0.000000000000e+00 -1.998736093302e+06 -1.941864681102e+02 -1.998095370634e+06 -1.338732749172e+06 -4.125307765119e-05 -2.436688521782e-08 -4.121295067606e-05 9.637735822444e-09 1.778521404369e+06 6.596833019030e+05  4.124268813456e-05
1.000000000000e+01 -1.545599151398e-06 0.000000000000e+00 -2.498675463149e+06 -2.591821348011e+02 -2.497818883210e+06 -1.673552874951e+06 -5.157323789845e-05 -3.252227230449e-08 -5.151959287582e-05 1.277271355464e-08 2.223349073770e+06 8.246947540477e+05  5.155923980276e-05
1.200000000000e+01 -1.854801870848e-06 0.000000000000e+00 -2.998614364602e+06 -3.242023283587e+02 -2.997540849259e+06 -2.008373421064e+06 -6.189348352719e-05 -4.068057919521e-08 -6.182625325542e-05 1.585639219618e-08 2.668176211641e+06 9.897047818257e+05  6.187579229508e-05
1.400000000000e+01 -2.164005186812e-06 0.000000000000e+00 -3.498552841798e+06 -3.892464035215e+02 -3.497261295354e+06 -2.343194370999e+06 -7.221381629547e-05 -4.884172871549e-08 -7.213293247292e-05 1.889065195122e-08 3.113002836050e+06 1.154713436119e+06  7.219234858513e-05
1.600000000000e+01 -2.473209118335e-06 0.000000000000e+00 -3.998490929337e+06 -4.543119127165e+02 -3.996980244190e+06 -2.678015710990e+06 -8.253423755396e-05 -5.700541786406e-08 -8.243963113237e-05 2.187703439914e-08 3.557828961506e+06 1.319720758849e+06  8.250891113433e-05
1.800000000000e+01 -2.782413682318e-06 0.000000000000e+00 -4.498428654093e+06 -5.193950200182e+02 -4.496697715367e+06 -3.012837431185e+06 -9.285474830092e-05 -6.517116965490e-08 -9.274634977435e-05 2.481672866402e-08 4.002654600215e+06 1.484726782834e+06  9.282548186878e-05
2.000000000000e+01 -3.091618894953e-06 0.000000000000e+00 -4.998366037512e+06 -5.844909124311e+02 -4.996413726157e+06 -3.347659522785e+06 -1.031753493224e-04 -7.333838465957e-08 -1.030530889211e-04 2.771075314770e-08 4.447479762151e+06 1.649731536069e+06  1.031420624409e-04
2.720000000000e+01 -5.795106573878e-07 0.000000000000e+00 -4.999278681498e+06 -5.987478859015e+02 -4.997119556980e+06 -8.490081335773e+06 -1.945209539240e-05 -7.574952894703e-08 -1.931599261844e-05 -2.499655625137e-04 6.162159858084e+06 3.491882871175e+06  2.305815859616e-04
3.440000000000e+01 1.922828599370e-06 0.000000000000e+00 -5.025300030046e+06 -1.767003353515e+04 -5.002285897258e+06 -1.360608484817e+07 6.269458403273e-05 -2.321656517346e-06 6.411444851849e-05 -4.981055202849e-04 7.877890258492e+06 8.592369507694e+06  5.615257816312e-04
4.160000000000e+01 4.424631077056e-06 0.000000000000e+00 -5.051333875117e+06 -3.490458087988e+04 -5.006542070081e+06 -1.871830235544e+07 1.447584701418e-04 -4.586752712027e-06 1.475255825497e-04 -7.460642459706e-04 9.592059433545e+06 1.368955283875e+07  8.922448598593e-04
4.880000000000e+01 6.926552389588e-06 0.000000000000e+00 -5.077850658550e+06 -5.171336803868e+04 -5.012248809763e+06 -2.383496114024e+07 2.268805726346e-04 -6.793344373623e-06 2.309379202212e-04 -9.941709021635e-04 1.130835353619e+07 1.879021078029e+07  1.223141792685e-03
5.600000000000e+01 9.428599099972e-06 0.000000000000e+00 -5.104844889175e+06 -6.809500270055e+04 -5.019343175874e+06 -2.895625828705e+07 3.090579151967e-04 -8.941444624734e-06 3.143518261486e-04 -1.242419493361e-03 1.302681545070e+07 2.389457007602e+07  1.554208289226e-03
6.320000000000e+01 1.193072657017e-05 0.000000000000e+00 -5.132245388360e+06 -8.407642915165e+04 -5.027525937801e+06 -3.408156543425e+07 3.912751960850e-04 -1.103462387959e-05 3.977661274541e-04 -1.490773810506e-03 1.474711225347e+07 2.900218717114e+07  1.885399728203e-03
7.040000000000e+01 1.443287418264e-05 0.000000000000e+00 -5.160035064061e+06 -9.967727076556e+04 -5.036530136939e+06 -3.921022305370e+07 4.735150294349e-04 -1.307548008185e-05 4.811791282613e-04 -1.739196456786e-03 1.646892941823e+07 3.411254502757e+07  2.216669168755e-03
7.760000000000e+01 1.693500649109e-05 0.000000000000e+00 -5.188250985648e+06 -1.149107275701e+05 -5.046067483979e+06 -4.434148624698e+07 5.557559072084e-04 -1.506574520139e-05 5.645899993380e-04 -1.987646178002e-03 1.819193490554e+07 3.922502524020e+07  2.547964243590e-03
8.480000000000e+01 1.943712702116e-05 0.000000000000e+00 -5.216969051504e+06 -1.297845006783e+05 -5.055777836804e+06 -4.947441819502e+07 6.379704714992e-04 -1.700641684668e-05 6.479992776423e-04 -2.236073949267e-03 1.991572169444e+07 4.433883434796e+07  2.879222603148e-03
9.200000000000e+01 2.193928134446e-05 0.000000000000e+00 -5.246282149228e+06 -1.443061731623e+05 -5.065273659111e+06 -5.460801908691e+07 7.201298165173e-04 -1.889850854915e-05 7.314088855626e-04 -2.484430167195e-03 2.163985829842e+07 4.945312127526e+07  3.210381257857e-03
9.920000000000e+01 2.444152880368e-05 0.000000000000e+00 -5.276275532884e+06 -1.584882009607e+05 -5.074227295792e+06 -5.974142946930e+07 8.022096537406e-04 -2.074370764776e-05 8.148210579825e-04 -2.732674252442e-03 2.336397743266e+07 5.456714909791e+07  3.541388715154e-03
1.064000000000e+02 2.694388986047e-05 0.000000000000e+00 -5.307014198057e+06 -1.723493044990e+05 -5.082420722705e+06 -6.487398899118e+07 8.841925641911e-04 -2.254450552610e-05 8.982365232573e-04 -2.980776460417e-03 2.508780797065e+07 5.968033507754e+07  3.872206996653e-03
1.136000000000e+02 2.944634118317e-05 0.000000000000e+00 -5.338539593601e+06 -1.859098464764e+05 -5.089723755716e+06 -7.000517433628e+07 9.660667181769e-04 -2.430358832772e-05 9.816543875812e-04 -3.228715000049e-03 2.681114589520e+07 6.479220114014e+07  4.202808049729e-03
1.208000000000e+02 3.194883572892e-05 0.000000000000e+00 -5.370867540850e+06 -1.991849358640e+05 -5.096052414603e+06 -7.513452318158e+07 1.047824075845e-03 -2.602297827891e-05 1.065072886992e-03 -3.476473102985e-03 2.853381437901e+07 6.990231972875e+07  4.533170283329e-03
1.280000000000e+02 3.445131995724e-05 0.000000000000e+00 -5.403983485693e+06 -2.121794701846e+05 -5.101336737672e+06 -8.026158556685e+07 1.129459231733e-03 -2.770342197426e-05 1.148490011836e-03 -3.724037081787e-03 3.025563526341e+07 7.501028365906e+07  4.863276354041e-03
1.352000000000e+02 3.695374197223e-05 0.000000000000e+00 -5.437831566724e+06 -2.248831049687e+05 -5.105487214813e+06 -8.538586512517e+07 1.210968240010e-03 -2.934376091496e-05 1.231903803133e-03 -3.971393629731e-03 3.197639463557e+07 8.011566961128e+07  5.193110019989e-03
1.424000000000e+02 3.945605418088e-05 0.000000000000e+00 -5.472295845765e+06 -2.372633154973e+05 -5.108358252665e+06 -9.050675297732e+07 1.292347558716e-03 -3.094005557984e-05 1.315312451967e-03 -4.218526663069e-03 3.369580235858e+07 8.521799966869e+07  5.522652494409e-03
1.496000000000e+02 4.195820877467e-05 0.000000000000e+00 -5.507178561672e+06 -2.492579159073e+05 -5.109717661933e+06 -9.562346703368e+07 1.373593333110e-03 -3.248463994213e-05 1.398714153429e-03 -4.465414394391e-03 3.541345441909e+07 9.031670672007e+07  5.851879075723e-03
1.568000000000e+02 4.446014802921e-05 0.000000000000e+00 -5.542187432627e+06 -2.607716575820e+05 -5.109228933268e+06 -1.007349967668e+08 1.454700739747e-03 -3.396569393011e-05 1.482106779117e-03 -4.712026895609e-03 3.712880437757e+07 9.541109444633e+07  6.180756216282e-03
1.640000000000e+02 4.696179628439e-05 0.000000000000e+00 -5.576949511170e+06 -2.716818489590e+05 -5.106465891518e+06 -1.058400976599e+08 1.535663760580e-03 -3.536796286415e-05 1.565487610864e-03 -4.958326227734e-03 3.884117102086e+07 1.005003175789e+08  6.509241422310e-03
1.712000000000e+02 4.946305865650e-05 0.000000000000e+00 -5.611057331898e+06 -2.818545832752e+05 -5.100961009196e+06 -1.109373453389e+08 1.616475266018e-03 -3.667482505999e-05 1.648853311524e-03 -5.204269450594e-03 4.054978789333e+07 1.055833889483e+08  6.837286328524e-03
1.784000000000e+02 5.196381491141e-05 0.000000000000e+00 -5.644126525455e+06 -2.911653249678e+05 -5.092282812060e+06 -1.160252394818e+08 1.697128064040e-03 -3.787090827930e-05 1.732199743341e-03 -5.449814135069e-03 4.225388293976e+07 1.106592159920e+08  7.164842685081e-03
1.856000000000e+02 5.446393690672e-05 0.000000000000e+00 -5.675838404546e+06 -2.995161676353e+05 -5.080068862792e+06 -1.211022252897e+08 1.777614807082e-03 -3.894427241815e-05 1.815522556163e-03 -5.694921450820e-03 4.395271085234e+07 1.157265846127e+08  7.491865730352e-03
1.928000000000e+02 5.696329608648e-05 0.000000000000e+00 -5.705955559162e+06 -3.068444361460e+05 -5.064042670930e+06 -1.261666606665e+08 1.857928254086e-03 -3.988747505335e-05 1.898817439818e-03 -5.939557932921e-03 4.564555296555e+07 1.207841101585e+08  7.818316228896e-03
2.000000000000e+02 5.946176104289e-05 0.000000000000e+00 -5.734322038274e+06 -3.131261180337e+05 -5.044026359233e+06 -1.312167646174e+08 1.938061913170e-03 -4.069796479303e-05 1.982080044746e-03 -6.183696702160e-03 4.733170433829e+07 1.258301793512e+08  8.144161971251e-03
2.072000000000e+02 6.195920262977e-05 0.000000000000e+00 -5.760858688209e+06 -3.183772424246e+05 -5.019942196612e+06 -1.362505716153e+08 2.018010533898e-03 -4.137820460059e-05 2.065306153628e-03 -6.427318328499e-03 4.901045750003e+07 1.308629061634e+08  8.469378961854e-03
2.144000000000e+02 6.445549334746e-05 0.000000000000e+00 -5.785556323382e+06 -3.226532831557e+05 -4.991810605974e+06 -1.412659073258e+08 2.097770347200e-03 -4.193554575568e-05 2.148491662961e-03 -6.670410860237e-03 5.068109141839e+07 1.358801118775e+08  8.793951546147e-03
2.216000000000e+02 6.695051495706e-05 0.000000000000e+00 -5.808465923929e+06 -3.260452909891e+05 -4.959740894805e+06 -1.462604194851e+08 2.177339347886e-03 -4.238170373172e-05 2.231632837656e-03 -6.912970016227e-03 5.234287543461e+07 1.408793654099e+08  9.117872852986e-03
2.288000000000e+02 6.944415109623e-05 0.000000000000e+00 -5.829685064539e+06 -3.286723067279e+05 -4.923928063688e+06 -1.512316559552e+08 2.256717772122e-03 -4.273179280043e-05 2.314726060878e-03 -7.154999017218e-03 5.399508969448e+07 1.458580695888e+08  9.441144712791e-03
2.360000000000e+02 7.193628327788e-05 0.000000000000e+00 -5.849342666900e+06 -3.306716612283e+05 -4.884632679457e+06 -1.561771343601e+08 2.335907754173e-03 -4.300312869075e-05 2.397767691669e-03 -7.396506787348e-03 5.563703656884e+07 1.508135483768e+08  9.763775592584e-03
2.432000000000e+02 7.442679639110e-05 0.000000000000e+00 -5.867587596265e+06 -3.321912243737e+05 -4.842121016505e+06 -1.610943029375e+08 2.414910493011e-03 -4.321431001681e-05 2.480754242594e-03 -7.637501775544e-03 5.726800385009e+07 1.557430435019e+08  1.008577308699e-02
2.504000000000e+02 7.691559544124e-05 0.000000000000e+00 -5.884586333440e+06 -3.333862561328e+05 -4.796579000364e+06 -1.659803933369e+08 2.493721442641e-03 -4.338489891186e-05 2.563682940252e-03 -7.877982815965e-03 5.888718622358e+07 1.606436118595e+08  1.040713267669e-02
2.576000000000e+02 7.940261756443e-05 0.000000000000e+00 -5.900530248446e+06 -3.344177105902e+05 -4.748049481761e+06 -1.708322675349e+08 2.572326112235e-03 -4.353528071591e-05 2.646552136684e-03 -8.117931676647e-03 6.049361575503e+07 1.655120005827e+08  1.072782840996e-02
2.648000000000e+02 8.188783671820e-05 0.000000000000e+00 -5.915628954535e+06 -3.354344549091e+05 -4.696436893956e+06 -1.756464284601e+08 2.650700772836e-03 -4.368441698552e-05 2.729361448072e-03 -8.357314217117e-03 6.208616476952e+07 1.703446586250e+08  1.104781446250e-02
2.720000000000e+02 8.437124649625e-05 0.000000000000e+00 -5.930076617997e+06 -3.365461591678e+05 -4.641633798580e+06 -1.804193908262e+08 2.728822179555e-03 -4.384632801271e-05 2.812111116108e-03 -8.596096951889e-03 6.366370041426e+07 1.751380602601e+08  1.136704615778e-02
2.792000000000e+02 8.685283966468e-05 0.000000000000e+00 -5.944046082119e+06 -3.378337520482e+05 -4.583626621539e+06 -1.851479996921e+08 2.806674217994e-03 -4.403142794867e-05 2.894801284839e-03 -8.834259192641e-03 6.522522413192e+07 1.798889731790e+08  1.168549505445e-02
2.864000000000e+02 8.933259596289e-05 0.000000000000e+00 -5.957704141008e+06 -3.393743003021e+05 -4.522489635012e+06 -1.898294225661e+08 2.884246190241e-03 -4.424977568881e-05 2.977431590839e-03 -9.071790254229e-03 6.676987211403e+07 1.845944461774e+08  1.200314513592e-02
2.936000000000e+02 9.181048674392e-05 0.000000000000e+00 -5.971214490986e+06 -3.412495693066e+05 -4.458349800133e+06 -1.944610849871e+08 2.961530513083e-03 -4.451222849738e-05 3.060001318491e-03 -9.308685262959e-03 6.829688309275e+07 1.892517610557e+08  1.231998757043e-02
3.008000000000e+02 9.428647335311e-05 0.000000000000e+00 -5.984735864937e+06 -3.435478667248e+05 -4.391360383208e+06 -1.990406112099e+08 3.038521057514e-03 -4.483073242662e-05 3.142509342043e-03 -9.544941713409e-03 6.980556915267e+07 1.938583875524e+08  1.263601641979e-02
3.080000000000e+02 9.676050863849e-05 0.000000000000e+00 -5.998419982626e+06 -3.463655509139e+05 -4.321683933782e+06 -2.035657931709e+08 3.115212190695e-03 -4.521858535023e-05 3.224954166910e-03 -9.780557503795e-03 7.129529902911e+07 1.984119619284e+08  1.295122622485e-02
3.152000000000e+02 9.923253677441e-05 0.000000000000e+00 -6.012409028245e+06 -3.498082137214e+05 -4.249485742136e+06 -2.080345866296e+08 3.191598493387e-03 -4.569067642587e-05 3.307333916712e-03 -1.001553021713e-02 7.276549379999e+07 2.029102876640e+08  1.326561114349e-02
3.224000000000e+02 1.017024927950e-04 0.000000000000e+00 -6.026831710858e+06 -3.539895861448e+05 -4.174926460814e+06 -2.124451052908e+08 3.267674536788e-03 -4.626343104364e-05 3.389646327698e-03 -1.024985640966e-02 7.421562115417e+07 2.073513352530e+08  1.357916412668e-02
3.296000000000e+02 1.041703000840e-04 0.000000000000e+00 -6.041798286861e+06 -3.590265236191e+05 -4.098148581388e+06 -2.167955895296e+08 3.343434298974e-03 -4.695420755392e-05 3.471888709712e-03 -1.048353003779e-02 7.564517879929e+07 2.117332202130e+08  1.389187503380e-02
3.368000000000e+02 1.066358723561e-04 0.000000000000e+00 -6.057397692175e+06 -3.650327029237e+05 -4.019266960129e+06 -2.210843821715e+08 3.418870899413e-03 -4.778047439150e-05 3.554058076930e-03 -1.071654179187e-02 7.705368227460e+07 2.160541850626e+08  1.420372989717e-02
3.440000000000e+02 1.090991166983e-04 0.000000000000e+00 -6.073699880339e+06 -3.721164493948e+05 -3.938368500800e+06 -2.253099126876e+08 3.493976562381e-03 -4.875952532476e-05 3.636151275658e-03 -1.094887924608e-02 7.844066035625e+07 2.203125825342e+08  1.451471112046e-02
3.512000000000e+02 1.115599354137e-04 0.000000000000e+00 -6.090761308627e+06 -3.803827404222e+05 -3.855520236051e+06 -2.294706975382e+08 3.568742819719e-03 -4.990878031491e-05 3.718165029194e-03 -1.118052765112e-02 7.980565969429e+07 2.245068691464e+08  1.482479840199e-02
3.584000000000e+02 1.140182293481e-04 0.000000000000e+00 -6.108629099631e+06 -3.899348754643e+05 -3.770775991514e+06 -2.335653489407e+08 3.643160756320e-03 -5.124605309819e-05 3.800096030377e-03 -1.141147077791e-02 8.114825134395e+07 2.286356085676e+08  1.513396975388e-02
3.656000000000e+02 1.164738931768e-04 0.000000000000e+00 -6.127343802130e+06 -4.008750392927e+05 -3.684188920667e+06 -2.375925971282e+08 3.717221581235e-03 -5.278966930974e-05 3.881940783077e-03 -1.164169206213e-02 8.246804328368e+07 2.326974861683e+08  1.544220285335e-02
3.728000000000e+02 1.189268073651e-04 0.000000000000e+00 -6.146940787815e+06 -4.133045537488e+05 -3.595823264737e+06 -2.415513102682e+08 3.790917198012e-03 -5.455854114485e-05 3.963695341666e-03 -1.187117555167e-02 8.376469144027e+07 2.366913222851e+08  1.574947614369e-02
3.800000000000e+02 1.213768472061e-04 0.000000000000e+00 -6.167452066956e+06 -4.273255091256e+05 -3.505746965827e+06 -2.454404855254e+08 3.864239846707e-03 -5.657244476315e-05 4.045355603129e-03 -1.209990560713e-02 8.503789485273e+07 2.406160661499e+08  1.605576851454e-02
3.872000000000e+02 1.238238882254e-04 0.000000000000e+00 -6.188907405253e+06 -4.430425720475e+05 -3.414020598530e+06 -2.492592223539e+08 3.937181324896e-03 -5.885233629012e-05 4.126917472024e-03 -1.232786559645e-02 8.628738345257e+07 2.444707742784e+08  1.636105770686e-02
3.944000000000e+02 1.262678033539e-04 0.000000000000e+00 -6.211334448607e+06 -4.605640421660e+05 -3.320707408679e+06 -2.530067492710e+08 4.009733662567e-03 -6.142057561439e-05 4.208376766883e-03 -1.255503914227e-02 8.751293037609e+07 2.482546321001e+08  1.666532185445e-02
4.016000000000e+02 1.287084494936e-04 0.000000000000e+00 -6.234758495341e+06 -4.800020339174e+05 -3.225884483150e+06 -2.566824374977e+08 4.081889630226e-03 -6.430103194785e-05 4.289728779185e-03 -1.278141066441e-02 8.871436015872e+07 2.519669620389e+08  1.696854006062e-02
4.088000000000e+02 1.311456762334e-04 0.000000000000e+00 -6.259202359397e+06 -5.014729152677e+05 -3.129643710196e+06 -2.602858201632e+08 4.153643195977e-03 -6.751923281431e-05 4.370968563317e-03 -1.300696655695e-02 8.989155541094e+07 2.556072422963e+08  1.727069395729e-02
4.160000000000e+02 1.335793388797e-04 0.000000000000e+00 -6.284686463131e+06 -5.250978412002e+05 -3.032084099416e+06 -2.638165892697e+08 4.224989377158e-03 -7.110253259877e-05 4.452091362634e-03 -1.323169531618e-02 9.104445327742e+07 2.591751076866e+08  1.757176798898e-02
4.232000000000e+02 1.360092969766e-04 0.000000000000e+00 -6.311228658644e+06 -5.510030506742e+05 -2.933301854996e+06 -2.672745604785e+08 4.295923378122e-03 -7.508025206198e-05 4.533092549061e-03 -1.345558574183e-02 9.217303033070e+07 2.626703195841e+08  1.787174717494e-02
4.304000000000e+02 1.384354209015e-04 0.000000000000e+00 -6.338843836819e+06 -5.793199331462e+05 -2.833387367963e+06 -2.706596728793e+08 4.366440560348e-03 -7.948379226413e-05 4.613967838180e-03 -1.367862704540e-02 9.327730136135e+07 2.660927674431e+08  1.817061732941e-02
4.376000000000e+02 1.408575826374e-04 0.000000000000e+00 -6.367543512652e+06 -6.101845752957e+05 -2.732437038779e+06 -2.739720096234e+08 4.436537207888e-03 -8.434667580929e-05 4.694712992777e-03 -1.390081002009e-02 9.435733005828e+07 2.694424836293e+08  1.846836647335e-02
4.448000000000e+02 1.432756532919e-04 0.000000000000e+00 -6.397336311728e+06 -6.437375489019e+05 -2.630555963924e+06 -2.772117987734e+08 4.506210688216e-03 -8.970462577852e-05 4.775323743631e-03 -1.412212730006e-02 9.541323034970e+07 2.727196426769e+08  1.876498515201e-02
4.520000000000e+02 1.456895089272e-04 0.000000000000e+00 -6.428228642379e+06 -6.801237042397e+05 -2.527852121606e+06 -2.803793987719e+08 4.575459088389e-03 -9.559564597065e-05 4.855795978449e-03 -1.434257286553e-02 9.644515984530e+07 2.759245494133e+08  1.906046588119e-02
4.592000000000e+02 1.480990371574e-04 0.000000000000e+00 -6.460225170639e+06 -7.194915953728e+05 -2.424433042262e+06 -2.834752917960e+08 4.644281077260e-03 -1.020600471193e-04 4.936125959804e-03 -1.456214201336e-02 9.745331666962e+07 2.790576338059e+08  1.935480318737e-02
4.664000000000e+02 1.505041501863e-04 0.000000000000e+00 -6.493329187364e+06 -7.619925437833e+05 -2.320401593719e+06 -2.865000823312e+08 4.712675870528e-03 -1.091404160724e-04 5.016310759079e-03 -1.478083174773e-02 9.843793770410e+07 2.821194515367e+08  1.964799423129e-02
4.736000000000e+02 1.529047901277e-04 0.000000000000e+00 -6.527543126840e+06 -8.077796195144e+05 -2.215856863292e+06 -2.894544979512e+08 4.780643368576e-03 -1.168815662654e-04 5.096348434695e-03 -1.499864127440e-02 9.939929931378e+07 2.851106841089e+08  1.994003949204e-02
4.808000000000e+02 1.553009104938e-04 0.000000000000e+00 -6.562869172326e+06 -8.570064821525e+05 -2.110904529913e+06 -2.923393854125e+08 4.848184420175e-03 -1.253304548219e-04 5.176237418903e-03 -1.521557196186e-02 1.003377197049e+08 2.880321293707e+08  2.023094257673e-02
4.880000000000e+02 1.576924764929e-04 0.000000000000e+00 -6.599309286432e+06 -9.098255364738e+05 -2.005657965317e+06 -2.951557071960e+08 4.915300916405e-03 -1.345359795382e-04 5.255976530646e-03 -1.543162755839e-02 1.012535581492e+08 2.908846974885e+08  2.052071052323e-02
4.952000000000e+02 1.600794730349e-04 0.000000000000e+00 -6.636864943041e+06 -9.663855536124e+05 -1.900235688687e+06 -2.979045373054e+08 4.981995799713e-03 -1.445486689821e-04 5.335565245539e-03 -1.564681448418e-02 1.021472126457e+08 2.936694081803e+08  2.080935426810e-02
5.024000000000e+02 1.624619036929e-04 0.000000000000e+00 -6.675536755738e+06 -1.026828800361e+06 -1.794760768360e+06 -3.005870502700e+08 5.048272953747e-03 -1.554202585249e-04 5.415003665679e-03 -1.586114158500e-02 1.030191159314e+08 2.963873801973e+08  2.109688836341e-02
5.096000000000e+02 1.648397912891e-04 0.000000000000e+00 -6.715323997111e+06 -1.091287866197e+06 -1.689361670687e+06 -3.032045172870e+08 5.114137310354e-03 -1.672031762741e-04 5.494292545219e-03 -1.607462036976e-02 1.038697343183e+08 2.990398272443e+08  2.138333130941e-02
5.168000000000e+02 1.672131797119e-04 0.000000000000e+00 -6.756224072509e+06 -1.159882138200e+06 -1.584172809521e+06 -3.057583034687e+08 5.179594988405e-03 -1.799499179610e-04 5.573433358696e-03 -1.628726535671e-02 1.046995667836e+08 3.016280551600e+08  2.166870602853e-02
5.240000000000e+02 1.695821342359e-04 0.000000000000e+00 -6.798231909965e+06 -1.232713896963e+06 -1.479334465160e+06 -3.082498616314e+08 5.244653339515e-03 -1.937122953363e-04 5.652428320802e-03 -1.649909418599e-02 1.055091426688e+08 3.041534559814e+08  2.195304002841e-02
5.312000000000e+02 1.719467372898e-04 0.000000000000e+00 -6.841339361681e+06 -1.309864213440e+06 -1.374994036389e+06 -3.106807252188e+08 5.309321008250e-03 -2.085405809364e-04 5.731280256172e-03 -1.671012762354e-02 1.062990195390e+08 3.066175004277e+08  2.223636537658e-02
5.384000000000e+02 1.743070891622e-04 0.000000000000e+00 -6.885534470213e+06 -1.391388809647e+06 -1.271305162149e+06 -3.130525017755e+08 5.373607974088e-03 -2.244825636662e-04 5.809992634878e-03 -1.692038967931e-02 1.070697804693e+08 3.090217320660e+08  2.251871885365e-02
5.456000000000e+02 1.766633053343e-04 0.000000000000e+00 -6.930800955938e+06 -1.477314226283e+06 -1.168428059997e+06 -3.153668663628e+08 5.437525623188e-03 -2.415825801403e-04 5.888569496207e-03 -1.712990770274e-02 1.078220317929e+08 3.113677606633e+08  2.280014202710e-02
5.528000000000e+02 1.790155193390e-04 0.000000000000e+00 -6.977117758707e+06 -1.567634653862e+06 -1.066528489343e+06 -3.176255576211e+08 5.501086884205e-03 -2.598805858727e-04 5.967015556447e-03 -1.733871278977e-02 1.085564012897e+08 3.136572588429e+08  2.308068174834e-02
5.600000000000e+02 1.813638816881e-04 0.000000000000e+00 -7.024458741864e+06 -1.662309552556e+06 -9.657765102893e+05 -3.198303683746e+08 5.564306219377e-03 -2.794112985089e-04 6.045336184511e-03 -1.754683978095e-02 1.092735345423e+08 3.158919532962e+08  2.336039008775e-02
5.672000000000e+02 1.837085560430e-04 0.000000000000e+00 -7.072792491280e+06 -1.761262315582e+06 -8.663448556432e+05 -3.219831319407e+08 5.627199490205e-03 -3.002034748791e-04 6.123537283261e-03 -1.775432691332e-02 1.099740897626e+08 3.180736118432e+08  2.363932380073e-02
5.744000000000e+02 1.860497167524e-04 0.000000000000e+00 -7.122082434393e+06 -1.864380526783e+06 -7.684080790114e+05 -3.240857121255e+08 5.689783955941e-03 -3.222794556651e-04 6.201625213620e-03 -1.796121579429e-02 1.106587342130e+08 3.202040336326e+08  2.391754419373e-02
5.816000000000e+02 1.883875509196e-04 0.000000000000e+00 -7.172287132722e+06 -1.971517764614e+06 -6.721399505320e+05 -3.261399921305e+08 5.752078201908e-03 -3.456549930772e-04 6.279606865270e-03 -1.816755136998e-02 1.113281397379e+08 3.222850390891e+08  2.419511702154e-02
5.888000000000e+02 1.907222547618e-04 0.000000000000e+00 -7.223360929473e+06 -2.082496816937e+06 -5.777123025079e+05 -3.281478608193e+08 5.814102007386e-03 -3.703393749684e-04 6.357489532441e-03 -1.837338159944e-02 1.119829780171e+08 3.243184563299e+08  2.447211196128e-02
5.960000000000e+02 1.930540353270e-04 0.000000000000e+00 -7.275254538660e+06 -2.197113995104e+06 -4.852916021427e+05 -3.301111973026e+08 5.875876087369e-03 -3.963358006120e-04 6.435280963025e-03 -1.857875700933e-02 1.126239144811e+08 3.263061071335e+08  2.474860199882e-02
6.032000000000e+02 1.953831050529e-04 0.000000000000e+00 -7.327915914927e+06 -2.315144219887e+06 -3.950378715441e+05 -3.320318549505e+08 5.937421829146e-03 -4.236419761087e-04 6.512989165693e-03 -1.878373001508e-02 1.132516029123e+08 3.282497910296e+08  2.502466246244e-02
6.104000000000e+02 1.977096815448e-04 0.000000000000e+00 -7.381291055659e+06 -2.436346524563e+06 -3.071024940597e+05 -3.339116477362e+08 5.998761035730e-03 -4.522508651088e-04 6.590622388633e-03 -1.898835439277e-02 1.138666804287e+08 3.301512723664e+08  2.530037030907e-02
6.176000000000e+02 2.000339853505e-04 0.000000000000e+00 -7.435324883227e+06 -2.560469536430e+06 -2.216271256406e+05 -3.357523383748e+08 6.059915699313e-03 -4.821515177236e-04 6.668189030353e-03 -1.919268474567e-02 1.144697634612e+08 3.320122685987e+08  2.557580339554e-02
6.248000000000e+02 2.023562392791e-04 0.000000000000e+00 -7.489962044642e+06 -2.687256531489e+06 -1.387423630005e+05 -3.375556280880e+08 6.120907761406e-03 -5.133298881673e-04 6.745697601311e-03 -1.939677598082e-02 1.150614441652e+08 3.338344403966e+08  2.585103978904e-02
6.320000000000e+02 2.046766648662e-04 0.000000000000e+00 -7.545147584076e+06 -2.816449742041e+06 -5.856718490950e+04 -3.393231472906e+08 6.181758865532e-03 -5.457695642506e-04 6.823156591624e-03 -1.960068266772e-02 1.156422873532e+08 3.356193823548e+08  2.612615691377e-02
6.392000000000e+02 2.069954819656e-04 0.000000000000e+00 -7.600827530937e+06 -2.947794032321e+06 1.879153967992e+04 -3.410564507061e+08 6.242490208782e-03 -5.794524264949e-04 6.900574444532e-03 -1.980445869424e-02 1.162128288991e+08 3.373686181559e+08  2.640123110432e-02
6.464000000000e+02 2.093129077262e-04 0.000000000000e+00 -7.656949357745e+06 -3.081039747743e+06 9.323934912906e+04 -3.427570137346e+08 6.303122393131e-03 -6.143591800134e-04 6.977959511558e-03 -2.000815689895e-02 1.167735745811e+08 3.390835969533e+08  2.667633712915e-02
6.536000000000e+02 2.116291552358e-04 0.000000000000e+00 -7.713462300761e+06 -3.215944788947e+06 1.646942726191e+05 -3.444262303097e+08 6.363675292615e-03 -6.504697540525e-04 7.055319997812e-03 -2.021182871963e-02 1.173249994460e+08 3.407656912022e+08  2.695154773374e-02
6.608000000000e+02 2.139444332044e-04 0.000000000000e+00 -7.770317631292e+06 -3.352276175288e+06 2.330865323511e+05 -3.460654137932e+08 6.424168011128e-03 -6.877636275801e-04 7.132663944565e-03 -2.041552406466e-02 1.178675482974e+08 3.424161973582e+08  2.722693347264e-02
6.680000000000e+02 2.162589449656e-04 0.000000000000e+00 -7.827468806195e+06 -3.489810990675e+06 2.983583060850e+05 -3.476757978407e+08 6.484618809761e-03 -7.262200347860e-04 7.209999189648e-03 -2.061929109701e-02 1.184016361136e+08 3.440363366306e+08  2.750256242628e-02
6.752000000000e+02 2.185728883072e-04 0.000000000000e+00 -7.884871533408e+06 -3.628336985873e+06 3.604633075231e+05 -3.492585391549e+08 6.545045100682e-03 -7.658181141466e-04 7.287333357488e-03 -2.082317617498e-02 1.189276491269e+08 3.456272575699e+08  2.777850012265e-02
6.824000000000e+02 2.208864551625e-04 0.000000000000e+00 -7.942483838264e+06 -3.767652880809e+06 4.193662627088e+05 -3.508147207249e+08 6.605463444995e-03 -8.065370039419e-04 7.364673844879e-03 -2.102722380764e-02 1.194459461001e+08 3.471900390824e+08  2.805480947339e-02
6.896000000000e+02 2.231998304393e-04 0.000000000000e+00 -8.000266038901e+06 -3.907568397609e+06 4.750422529141e+05 -3.523453551219e+08 6.665889557612e-03 -8.483558843360e-04 7.442027779102e-03 -2.123147658917e-02 1.199568596360e+08 3.487256934717e+08  2.833155067643e-02
6.968000000000e+02 2.255131940086e-04 0.000000000000e+00 -8.058180727010e+06 -4.047904263451e+06 5.274763194448e+05 -3.538513895205e+08 6.726338371611e-03 -8.912540276438e-04 7.519402081808e-03 -2.143597535975e-02 1.204606979760e+08 3.502351713365e+08  2.860878143146e-02
7.040000000000e+02 2.278267178243e-04 0.000000000000e+00 -8.116192718219e+06 -4.188491930302e+06 5.766625045201e+05 -3.553337087017e+08 6.786824038762e-03 -9.352107821324e-04 7.596803370841e-03 -2.164075908420e-02 1.209577463051e+08 3.517193641654e+08  2.888655675471e-02
7.112000000000e+02 2.301405679228e-04 0.000000000000e+00 -8.174268983940e+06 -4.329173391570e+06 6.226034385596e+05 -3.567931401128e+08 6.847360005765e-03 -9.802055933823e-04 7.674238025334e-03 -2.184586503768e-02 1.214482685527e+08 3.531791092799e+08  2.916492922618e-02
7.184000000000e+02 2.324549034245e-04 0.000000000000e+00 -8.232378575190e+06 -4.469800814043e+06 6.653096815417e+05 -3.582304572730e+08 6.907959030200e-03 -1.026217980827e-03 7.751712150592e-03 -2.205132877911e-02 1.219325087222e+08 3.546151929925e+08  2.944394894094e-02