# vtk DataFile Version 3.0
Unstructured Grid from OpenGeoSys
ASCII
DATASET UNSTRUCTURED_GRID
FIELD TimesAndCycles 2
TIME 1 1 double
2.100000000000e+04
CYLCE 1 1 long
210
POINTS 101 double
0.000000000000e+00 0.000000000000e+00 0.000000000000e+00
5.000000000000e-03 0.000000000000e+00 0.000000000000e+00
1.000000000000e-02 0.000000000000e+00 0.000000000000e+00
1.500000000000e-02 0.000000000000e+00 0.000000000000e+00
2.000000000000e-02 0.000000000000e+00 0.000000000000e+00
2.500000000000e-02 0.000000000000e+00 0.000000000000e+00
3.000000000000e-02 0.000000000000e+00 0.000000000000e+00
3.500000000000e-02 0.000000000000e+00 0.000000000000e+00
4.000000000000e-02 0.000000000000e+00 0.000000000000e+00
4.500000000000e-02 0.000000000000e+00 0.000000000000e+00
5.000000000000e-02 0.000000000000e+00 0.000000000000e+00
5.500000000000e-02 0.000000000000e+00 0.000000000000e+00
6.000000000000e-02 0.000000000000e+00 0.000000000000e+00
6.500000000000e-02 0.000000000000e+00 0.000000000000e+00
7.000000000000e-02 0.000000000000e+00 0.000000000000e+00
7.500000000000e-02 0.000000000000e+00 0.000000000000e+00
8.000000000000e-02 0.000000000000e+00 0.000000000000e+00
8.500000000000e-02 0.000000000000e+00 0.000000000000e+00
9.000000000000e-02 0.000000000000e+00 0.000000000000e+00
9.500000000000e-02 0.000000000000e+00 0.000000000000e+00
1.000000000000e-01 0.000000000000e+00 0.000000000000e+00
1.050000000000e-01 0.000000000000e+00 0.000000000000e+00
1.100000000000e-01 0.000000000000e+00 0.000000000000e+00
1.150000000000e-01 0.000000000000e+00 0.000000000000e+00
1.200000000000e-01 0.000000000000e+00 0.000000000000e+00
1.250000000000e-01 0.000000000000e+00 0.000000000000e+00
1.300000000000e-01 0.000000000000e+00 0.000000000000e+00
1.350000000000e-01 0.000000000000e+00 0.000000000000e+00
1.400000000000e-01 0.000000000000e+00 0.000000000000e+00
1.450000000000e-01 0.000000000000e+00 0.000000000000e+00
1.500000000000e-01 0.000000000000e+00 0.000000000000e+00
1.550000000000e-01 0.000000000000e+00 0.000000000000e+00
1.600000000000e-01 0.000000000000e+00 0.000000000000e+00
1.650000000000e-01 0.000000000000e+00 0.000000000000e+00
1.700000000000e-01 0.000000000000e+00 0.000000000000e+00
1.750000000000e-01 0.000000000000e+00 0.000000000000e+00
1.800000000000e-01 0.000000000000e+00 0.000000000000e+00
1.850000000000e-01 0.000000000000e+00 0.000000000000e+00
1.900000000000e-01 0.000000000000e+00 0.000000000000e+00
1.950000000000e-01 0.000000000000e+00 0.000000000000e+00
2.000000000000e-01 0.000000000000e+00 0.000000000000e+00
2.050000000000e-01 0.000000000000e+00 0.000000000000e+00
2.100000000000e-01 0.000000000000e+00 0.000000000000e+00
2.150000000000e-01 0.000000000000e+00 0.000000000000e+00
2.200000000000e-01 0.000000000000e+00 0.000000000000e+00
2.250000000000e-01 0.000000000000e+00 0.000000000000e+00
2.300000000000e-01 0.000000000000e+00 0.000000000000e+00
2.350000000000e-01 0.000000000000e+00 0.000000000000e+00
2.400000000000e-01 0.000000000000e+00 0.000000000000e+00
2.450000000000e-01 0.000000000000e+00 0.000000000000e+00
2.500000000000e-01 0.000000000000e+00 0.000000000000e+00
2.550000000000e-01 0.000000000000e+00 0.000000000000e+00
2.600000000000e-01 0.000000000000e+00 0.000000000000e+00
2.650000000000e-01 0.000000000000e+00 0.000000000000e+00
2.700000000000e-01 0.000000000000e+00 0.000000000000e+00
2.750000000000e-01 0.000000000000e+00 0.000000000000e+00
2.800000000000e-01 0.000000000000e+00 0.000000000000e+00
2.850000000000e-01 0.000000000000e+00 0.000000000000e+00
2.900000000000e-01 0.000000000000e+00 0.000000000000e+00
2.950000000000e-01 0.000000000000e+00 0.000000000000e+00
3.000000000000e-01 0.000000000000e+00 0.000000000000e+00
3.050000000000e-01 0.000000000000e+00 0.000000000000e+00
3.100000000000e-01 0.000000000000e+00 0.000000000000e+00
3.150000000000e-01 0.000000000000e+00 0.000000000000e+00
3.200000000000e-01 0.000000000000e+00 0.000000000000e+00
3.250000000000e-01 0.000000000000e+00 0.000000000000e+00
3.300000000000e-01 0.000000000000e+00 0.000000000000e+00
3.350000000000e-01 0.000000000000e+00 0.000000000000e+00
3.400000000000e-01 0.000000000000e+00 0.000000000000e+00
3.450000000000e-01 0.000000000000e+00 0.000000000000e+00
3.500000000000e-01 0.000000000000e+00 0.000000000000e+00
3.550000000000e-01 0.000000000000e+00 0.000000000000e+00
3.600000000000e-01 0.000000000000e+00 0.000000000000e+00
3.650000000000e-01 0.000000000000e+00 0.000000000000e+00
3.700000000000e-01 0.000000000000e+00 0.000000000000e+00
3.750000000000e-01 0.000000000000e+00 0.000000000000e+00
3.800000000000e-01 0.000000000000e+00 0.000000000000e+00
3.850000000000e-01 0.000000000000e+00 0.000000000000e+00
3.900000000000e-01 0.000000000000e+00 0.000000000000e+00
3.950000000000e-01 0.000000000000e+00 0.000000000000e+00
4.000000000000e-01 0.000000000000e+00 0.000000000000e+00
4.050000000000e-01 0.000000000000e+00 0.000000000000e+00
4.100000000000e-01 0.000000000000e+00 0.000000000000e+00
4.150000000000e-01 0.000000000000e+00 0.000000000000e+00
4.200000000000e-01 0.000000000000e+00 0.000000000000e+00
4.250000000000e-01 0.000000000000e+00 0.000000000000e+00
4.300000000000e-01 0.000000000000e+00 0.000000000000e+00
4.350000000000e-01 0.000000000000e+00 0.000000000000e+00
4.400000000000e-01 0.000000000000e+00 0.000000000000e+00
4.450000000000e-01 0.000000000000e+00 0.000000000000e+00
4.500000000000e-01 0.000000000000e+00 0.000000000000e+00
4.550000000000e-01 0.000000000000e+00 0.000000000000e+00
4.600000000000e-01 0.000000000000e+00 0.000000000000e+00
4.650000000000e-01 0.000000000000e+00 0.000000000000e+00
4.700000000000e-01 0.000000000000e+00 0.000000000000e+00
4.750000000000e-01 0.000000000000e+00 0.000000000000e+00
4.800000000000e-01 0.000000000000e+00 0.000000000000e+00
4.850000000000e-01 0.000000000000e+00 0.000000000000e+00
4.900000000000e-01 0.000000000000e+00 0.000000000000e+00
4.950000000000e-01 0.000000000000e+00 0.000000000000e+00
5.000000000000e-01 0.000000000000e+00 0.000000000000e+00
CELLS 100 300
2 0 1
2 2 3
2 4 5
2 6 7
2 8 9
2 10 11
2 12 13
2 14 15
2 16 17
2 18 19
2 20 21
2 22 23
2 24 25
2 26 27
2 28 29
2 30 31
2 32 33
2 34 35
2 36 37
2 38 39
2 40 41
2 42 43
2 44 45
2 46 47
2 48 49
2 50 51
2 52 53
2 54 55
2 56 57
2 58 59
2 60 61
2 62 63
2 64 65
2 66 67
2 68 69
2 70 71
2 72 73
2 74 75
2 76 77
2 78 79
2 80 81
2 82 83
2 84 85
2 86 87
2 88 89
2 90 91
2 92 93
2 94 95
2 96 97
2 98 99
2 1 2
2 3 4
2 5 6
2 7 8
2 9 10
2 11 12
2 13 14
2 15 16
2 17 18
2 19 20
2 21 22
2 23 24
2 25 26
2 27 28
2 29 30
2 31 32
2 33 34
2 35 36
2 37 38
2 39 40
2 41 42
2 43 44
2 45 46
2 47 48
2 49 50
2 51 52
2 53 54
2 55 56
2 57 58
2 59 60
2 61 62
2 63 64
2 65 66
2 67 68
2 69 70
2 71 72
2 73 74
2 75 76
2 77 78
2 79 80
2 81 82
2 83 84
2 85 86
2 87 88
2 89 90
2 91 92
2 93 94
2 95 96
2 97 98
2 99 100

CELL_TYPES 100
3
3
3
3
3
3
3
3
3
3
3
3
3
3
3
3
3
3
3
3
3
3
3
3
3
3
3
3
3
3
3
3
3
3
3
3
3
3
3
3
3
3
3
3
3
3
3
3
3
3
3
3
3
3
3
3
3
3
3
3
3
3
3
3
3
3
3
3
3
3
3
3
3
3
3
3
3
3
3
3
3
3
3
3
3
3
3
3
3
3
3
3
3
3
3
3
3
3
3
3

POINT_DATA 101
SCALARS 1-C double 1
LOOKUP_TABLE default
9.970358361137e-06
2.733727047017e-05
6.092320432934e-05
1.222067503772e-04
2.299798481653e-04
4.147971149339e-04
7.261042884260e-04
1.243651370797e-03
2.095562498978e-03
3.486278163724e-03
5.739582638044e-03
9.372230803257e-03
1.525105145867e-02
2.490926991622e-02
4.069636968633e-02
6.447502110339e-02
9.623941038747e-02
1.432180359201e-01
1.426666421082e-01
1.419785426416e-01
1.411000280118e-01
1.400194856315e-01
1.386979678112e-01
1.371018236313e-01
1.352222524264e-01
1.330283342234e-01
1.305227576693e-01
1.277055183485e-01
1.246026180834e-01
1.212516262031e-01
1.177067049752e-01
1.140375871080e-01
1.103182307107e-01
1.066329613375e-01
1.030621326968e-01
9.966828145372e-02
9.663428242175e-02
9.425398937086e-02
9.200679855809e-02
9.395523070121e-02
9.569644377098e-02
9.723145763884e-02
9.881445341362e-02
1.004577950802e-01
1.021335137334e-01
1.038283613518e-01
1.055242510937e-01
1.072011023164e-01
1.088395077919e-01
1.104175582906e-01
1.119192609020e-01
1.133266203079e-01
1.146307909983e-01
1.158146639310e-01
1.168743698083e-01
1.178110344525e-01
1.186354960825e-01
1.193373414146e-01
1.199312641730e-01
1.204399231305e-01
1.208420265886e-01
1.211865779443e-01
1.214507531562e-01
1.216730043664e-01
1.218405294055e-01
1.219764740758e-01
1.220786738490e-01
1.221674693142e-01
1.222224601712e-01
1.222684586031e-01
1.223120975745e-01
1.223289680269e-01
1.223377943608e-01
1.223592376762e-01
1.223687070220e-01
1.223842736583e-01
1.223831550057e-01
1.223867988765e-01
1.223782892706e-01
1.223848181189e-01
1.223889688670e-01
1.223921965257e-01
1.223840259708e-01
1.223938946035e-01
1.223883175556e-01
1.223996350857e-01
1.223876133303e-01
1.223923840037e-01
1.223939906424e-01
1.223979163228e-01
1.223847052774e-01
1.223944835160e-01
1.223942484842e-01
1.223979197358e-01
1.223956873911e-01
1.224011518804e-01
1.223938831892e-01
1.223913260111e-01
1.223875980361e-01
1.223890596673e-01
1.224015861884e-01
SCALARS 2-Ca double 1
LOOKUP_TABLE default
9.970358361137e-06
2.006475596197e-05
3.951982485027e-05
7.483192854304e-05
1.365173634804e-04
2.414783340106e-04
4.167515990555e-04
7.054517044541e-04
1.176104606582e-03
1.936989628280e-03
3.158106198112e-03
5.108531833253e-03
8.235618004427e-03
1.332390145977e-02
2.157089455227e-02
3.393651913871e-02
5.045334815282e-02
7.477918242468e-02
7.559478849882e-02
7.666040961362e-02
7.802488886834e-02
7.977170396657e-02
8.198577181416e-02
8.477132632019e-02
8.826330003088e-02
9.260549769428e-02
9.798019274690e-02
1.045918142040e-01
1.126832695222e-01
1.225308840900e-01
1.344495984599e-01
1.487960773844e-01
1.659635556860e-01
1.863810338005e-01
2.105812631109e-01
2.393094167702e-01
2.723860618319e-01
3.072341440312e-01
3.536814466110e-01
3.334827631696e-01
3.151333933460e-01
2.986463083038e-01
2.825812129701e-01
2.670923736042e-01
2.523087399590e-01
2.383302972213e-01
2.252289474489e-01
2.130553207495e-01
2.018404488755e-01
1.915922385487e-01
1.823046806975e-01
1.739515070051e-01
1.664994188876e-01
1.598930597224e-01
1.540790631027e-01
1.490003899214e-01
1.446035613740e-01
1.408100596164e-01
1.375648325713e-01
1.348210309165e-01
1.324896733994e-01
1.305551623351e-01
1.289341232830e-01
1.276091797890e-01
1.265168296095e-01
1.256348232357e-01
1.249208890457e-01
1.243603783317e-01
1.239027328503e-01
1.235470707544e-01
1.232783774250e-01
1.230542015005e-01
1.228783868188e-01
1.227594461886e-01
1.226629691462e-01
1.225991665819e-01
1.225390233887e-01
1.224990914412e-01
1.224586437913e-01
1.224419325203e-01
1.224292931769e-01
1.224204768625e-01
1.224037279178e-01
1.224075294903e-01
1.223976915112e-01
1.224060373647e-01
1.223919574145e-01
1.223953123714e-01
1.223959518732e-01
1.223992213502e-01
1.223855680787e-01
1.223950502961e-01
1.223946184346e-01
1.223981596803e-01
1.223958420343e-01
1.224012509242e-01
1.223939462385e-01
1.223913659438e-01
1.223876233539e-01
1.223890763310e-01
1.224015998047e-01
SCALARS 3-Cl double 1
LOOKUP_TABLE default
3.988143344455e+00
3.988124564206e+00
3.988089213258e+00
3.988027427393e+00
3.987924766700e+00
3.987760549007e+00
3.987505742089e+00
3.987120356462e+00
3.986550293522e+00
3.985723624511e+00
3.984546309515e+00
3.982897408208e+00
3.980623896004e+00
3.977535252888e+00
3.973398033657e+00
3.967930703726e+00
3.960799524019e+00
3.951615811971e+00
3.939930667834e+00
3.925242746423e+00
3.906995921390e+00
3.884587182532e+00
3.857376294695e+00
3.824699031917e+00
3.785883917670e+00
3.740272211366e+00
3.687240648059e+00
3.626226176110e+00
3.556751727330e+00
3.478451839263e+00
3.391096836552e+00
3.294614203063e+00
3.189105820071e+00
3.074859860795e+00
2.952356340109e+00
2.822265654582e+00
2.685439767886e+00
2.542895974978e+00
2.395793947309e+00
2.245407581707e+00
2.093090192468e+00
1.940238283260e+00
1.788253216022e+00
1.638503035764e+00
1.492286258136e+00
1.350799135146e+00
1.215107724432e+00
1.086125782651e+00
9.645991444322e-01
8.510968711899e-01
7.460090904704e-01
6.495511061784e-01
5.617730783155e-01
4.825743540015e-01
4.117213860926e-01
3.488681144055e-01
2.935776885592e-01
2.453444780306e-01
2.036154413814e-01
1.678100814427e-01
1.373383895962e-01
1.116163690507e-01
9.007890540384e-02
7.218991655133e-02
5.744985060975e-02
4.540071382090e-02
3.562888966737e-02
2.776606239286e-02
2.148858351157e-02
1.651562169693e-02
1.260641972399e-02
9.556953191730e-03
7.196246967762e-03
5.382562445925e-03
3.999624869081e-03
2.953017889673e-03
2.166834302040e-03
1.580638654970e-03
1.146769932318e-03
8.279907162382e-04
5.954729091056e-04
4.270987001314e-04
3.060482199258e-04
2.196415176373e-04
1.584013193878e-04
1.153038105700e-04
8.518677243254e-05
6.428732231697e-05
4.988482253605e-05
4.002795031260e-05
3.332823520600e-05
2.880543786653e-05
2.577288072581e-05
2.375321741647e-05
2.241713909357e-05
2.153918940956e-05
2.096624141533e-05
2.059537675599e-05
2.035915485886e-05
2.021840414547e-05
2.016867162898e-05
SCALARS 4-H double 1
LOOKUP_TABLE default
2.701109245634e-04
2.915472002804e-04
3.274455345698e-04
4.067175269409e-04
5.743770320640e-04
9.016695677172e-04
1.490628562950e-03
2.493366704757e-03
4.147130334072e-03
6.817708551211e-03
1.105085594937e-02
1.763954506305e-02
2.775684109541e-02
4.316345159924e-02
6.583685762618e-02
9.582852108599e-02
1.305902171247e-01
1.746962819446e-01
1.742128868568e-01
1.736083903316e-01
1.728339259216e-01
1.718777719422e-01
1.707029214196e-01
1.692759934241e-01
1.675846410082e-01
1.655950676746e-01
1.633022653736e-01
1.606973729864e-01
1.577951989256e-01
1.546145575455e-01
1.511957602993e-01
1.476180235446e-01
1.439123272270e-01
1.401550497217e-01
1.364363144514e-01
1.327990968826e-01
1.294385745681e-01
1.267143363348e-01
1.239403795813e-01
1.263215667075e-01
1.284927300754e-01
1.304473261696e-01
1.325019399336e-01
1.346369176914e-01
1.368277658585e-01
1.390455161562e-01
1.412866233917e-01
1.435187821559e-01
1.457263807734e-01
1.478612827769e-01
1.499519121708e-01
1.519157966381e-01
1.537570218461e-01
1.554614640517e-01
1.570071553561e-01
1.584060825528e-01
1.596582177470e-01
1.607508375689e-01
1.616971253346e-01
1.625105903420e-01
1.631987408392e-01
1.637928325148e-01
1.642497519893e-01
1.646554730143e-01
1.649640382893e-01
1.652233686189e-01
1.654119022899e-01
1.655882474501e-01
1.657043392234e-01
1.658013059565e-01
1.658809908086e-01
1.659274867105e-01
1.659753847058e-01
1.660182764621e-01
1.660237319866e-01
1.660599066537e-01
1.660595297872e-01
1.660805146722e-01
1.660823522998e-01
1.660910153104e-01
1.660908908688e-01
1.661008186037e-01
1.661025687341e-01
1.661069160303e-01
1.660954040756e-01
1.661051006634e-01
1.661091315609e-01
1.661057341066e-01
1.660921254945e-01
1.660984193111e-01
1.660981335249e-01
1.661151632854e-01
1.660994221856e-01
1.661158667868e-01
1.661114054778e-01
1.661102385734e-01
1.661084564004e-01
1.661042101345e-01
1.660967696421e-01
1.661050625816e-01
1.661021041452e-01
SCALARS 5-Mg double 1
LOOKUP_TABLE default
1.994071672227e+00
1.994069554617e+00
1.994066010008e+00
1.994061088518e+00
1.994055845835e+00
1.994053593284e+00
1.994062223734e+00
1.994098377897e+00
1.994194604653e+00
1.994411100791e+00
1.994854631198e+00
1.995712403074e+00
1.997327381456e+00
2.000352994900e+00
2.005824491962e+00
2.014503853828e+00
2.026185824244e+00
2.044246759481e+00
2.037037187526e+00
2.027939506239e+00
2.016573099838e+00
2.002541372931e+00
1.985400343344e+00
1.964680013270e+00
1.939900911230e+00
1.910558942212e+00
1.876162888952e+00
1.836226792199e+00
1.790295212226e+00
1.737946661745e+00
1.678805524791e+00
1.612548611255e+00
1.538907585060e+00
1.457681857934e+00
1.368659039640e+00
1.271491691975e+00
1.166968104533e+00
1.058467832829e+00
9.362223256014e-01
8.831762583853e-01
8.271081466592e-01
7.687042909648e-01
7.103598484545e-01
6.526169393582e-01
5.959679028422e-01
5.408976317034e-01
4.878491658610e-01
4.372086728922e-01
3.892986311325e-01
3.443737553368e-01
3.026191254397e-01
2.641506663920e-01
2.290179112683e-01
1.972087812093e-01
1.686559997518e-01
1.432447017338e-01
1.208207789879e-01
1.011995208134e-01
8.417415229236e-02
6.952393293528e-02
5.702154798725e-02
4.643960013454e-02
3.755608257496e-02
3.015878285302e-02
2.404862510070e-02
1.904200775047e-02
1.497222963685e-02
1.169012217880e-02
9.064019076607e-03
6.979198697114e-03
5.336930011433e-03
4.053243122181e-03
3.057531025760e-03
2.291072710412e-03
1.705550310335e-03
1.261616021165e-03
9.275487680479e-04
6.780267627422e-04
4.930304454105e-04
3.568809567424e-04
2.574121446425e-04
1.852690132090e-04
1.333221629592e-04
9.618587197514e-05
6.982670403054e-05
5.124962628807e-05
3.824930200772e-05
2.921529344925e-05
2.298118049925e-05
1.870894768811e-05
1.580131632125e-05
1.383593889926e-05
1.251648991248e-05
1.163666420614e-05
1.105392636613e-05
1.067055095015e-05
1.042007138758e-05
1.025775568786e-05
1.015425966239e-05
1.009253841685e-05
1.007071956999e-05
SCALARS 6-O double 1
LOOKUP_TABLE default
2.010568337471e-02
2.016934730360e-02
2.028964496979e-02
2.051591171148e-02
2.092768029449e-02
2.165316780130e-02
2.289303473248e-02
2.496438698585e-02
2.837265450413e-02
3.391729017517e-02
4.284675589270e-02
5.711324483413e-02
7.991066245147e-02
1.167276124222e-01
1.756117910098e-01
2.621896041665e-01
3.751845183125e-01
5.385867195461e-01
5.372166031064e-01
5.355109266140e-01
5.333091523841e-01
5.305977169416e-01
5.272700832793e-01
5.232384974927e-01
5.185006001093e-01
5.129763765987e-01
5.066994369276e-01
4.996906766181e-01
4.920569763868e-01
4.839369010919e-01
4.755234334436e-01
4.670686484922e-01
4.588053319823e-01
4.510116883612e-01
4.439522458432e-01
4.378059404243e-01
4.331806545871e-01
4.310919672842e-01
4.295828747760e-01
4.433860946306e-01
4.565496129558e-01
4.690103745089e-01
4.816261545328e-01
4.943626544538e-01
5.070652835883e-01
5.196259771440e-01
5.319407222995e-01
5.438919974241e-01
5.553802032948e-01
5.662899268155e-01
5.765698357886e-01
5.861150099701e-01
5.948986893468e-01
6.028670060226e-01
6.100078703849e-01
6.163462198368e-01
6.219342082226e-01
6.267569836334e-01
6.308901030153e-01
6.344344183950e-01
6.373563585281e-01
6.398448419279e-01
6.418352709479e-01
6.435101144807e-01
6.448304695005e-01
6.459103459708e-01
6.467510849469e-01
6.474595892638e-01
6.479651923154e-01
6.483755351487e-01
6.487222745831e-01
6.489334132510e-01
6.490901158317e-01
6.492575415418e-01
6.493509363672e-01
6.494628419188e-01
6.494946920303e-01
6.495425073383e-01
6.495374309322e-01
6.495757012796e-01
6.495985600404e-01
6.496207877339e-01
6.496026013383e-01
6.496382713458e-01
6.496185416542e-01
6.496592831244e-01
6.496265893070e-01
6.496401436852e-01
6.496388078293e-01
6.496541756689e-01
6.496147012888e-01
6.496527545502e-01
6.496443155160e-01
6.496636424910e-01
6.496547749941e-01
6.496706245394e-01
6.496479531449e-01
6.496381751939e-01
6.496232816079e-01
6.496318193097e-01
6.496679219691e-01
SCALARS 7-Sn double 1
LOOKUP_TABLE default
0.000000000000e+00
0.000000000000e+00
0.000000000000e+00
0.000000000000e+00
0.000000000000e+00
0.000000000000e+00
0.000000000000e+00
0.000000000000e+00
0.000000000000e+00
0.000000000000e+00
0.000000000000e+00
0.000000000000e+00
0.000000000000e+00
0.000000000000e+00
0.000000000000e+00
0.000000000000e+00
0.000000000000e+00
0.000000000000e+00
0.000000000000e+00
0.000000000000e+00
0.000000000000e+00
0.000000000000e+00
0.000000000000e+00
0.000000000000e+00
0.000000000000e+00
0.000000000000e+00
0.000000000000e+00
0.000000000000e+00
0.000000000000e+00
0.000000000000e+00
0.000000000000e+00
0.000000000000e+00
0.000000000000e+00
0.000000000000e+00
0.000000000000e+00
0.000000000000e+00
0.000000000000e+00
0.000000000000e+00
0.000000000000e+00
0.000000000000e+00
0.000000000000e+00
0.000000000000e+00
0.000000000000e+00
0.000000000000e+00
0.000000000000e+00
0.000000000000e+00
0.000000000000e+00
0.000000000000e+00
0.000000000000e+00
0.000000000000e+00
0.000000000000e+00
0.000000000000e+00
0.000000000000e+00
0.000000000000e+00
0.000000000000e+00
0.000000000000e+00
0.000000000000e+00
0.000000000000e+00
0.000000000000e+00
0.000000000000e+00
0.000000000000e+00
0.000000000000e+00
0.000000000000e+00
0.000000000000e+00
0.000000000000e+00
0.000000000000e+00
0.000000000000e+00
0.000000000000e+00
0.000000000000e+00
0.000000000000e+00
0.000000000000e+00
0.000000000000e+00
0.000000000000e+00
0.000000000000e+00
0.000000000000e+00
0.000000000000e+00
0.000000000000e+00
0.000000000000e+00
0.000000000000e+00
0.000000000000e+00
0.000000000000e+00
0.000000000000e+00
0.000000000000e+00
0.000000000000e+00
0.000000000000e+00
0.000000000000e+00
0.000000000000e+00
0.000000000000e+00
0.000000000000e+00
0.000000000000e+00
0.000000000000e+00
0.000000000000e+00
0.000000000000e+00
0.000000000000e+00
0.000000000000e+00
0.000000000000e+00
0.000000000000e+00
0.000000000000e+00
0.000000000000e+00
0.000000000000e+00
0.000000000000e+00
SCALARS 8-Zz double 1
LOOKUP_TABLE default
1.035722930241e-15
9.808233883117e-15
3.968938069620e-15
-7.739162408377e-16
-3.900361436240e-15
-5.986683061731e-16
-1.584451706658e-16
1.810359112908e-17
-2.411760570650e-15
-1.120953147069e-16
3.839582316039e-16
4.016792614590e-16
-6.110846773625e-17
6.945362146345e-16
3.274287256098e-16
6.482984597324e-16
8.326987710834e-16
5.301684868477e-16
1.123974120535e-16
4.427411478887e-16
4.333335041602e-16
-4.539774290650e-16
-2.631015426798e-16
-3.972310092154e-16
-8.050722456012e-16
1.667388361626e-15
-5.187139677158e-16
-1.491878668490e-16
-2.944584470137e-16
9.757885885530e-16
-6.140486581117e-17
-7.269482546100e-18
-1.507087219573e-16
-4.466353246192e-16
-3.687566073289e-16
9.392874507992e-17
7.886155774358e-16
1.195889378758e-16
1.122391834584e-16
3.883608627774e-16
-2.536313901484e-16
-1.214052699255e-16
-2.473941141956e-17
-1.761869274991e-16
5.432311805916e-16
-6.398827872387e-17
2.348262108441e-16
-1.390738976459e-16
1.202864085219e-16
5.324489168060e-17
-3.216846331861e-17
-1.841762238988e-17
-4.541278335066e-17
1.123364753373e-16
1.569940800858e-17
-2.709932893476e-18
1.050975873813e-16
-1.091594326276e-18
-2.185176688903e-17
-5.247790175062e-17
-5.428523791139e-17
-3.032703245733e-17
3.491300268638e-17
-4.441589826561e-17
-3.327956559628e-17
4.784227692150e-18
2.608768009552e-17
-3.072034073485e-17
3.570451140254e-18
1.918470421602e-17
-2.381849910637e-17
4.534896405657e-18
-4.418569435238e-18
-3.373205700432e-18
1.574222941634e-20
2.476592988675e-17
-2.918770282474e-17
3.680944030432e-17
1.191625459248e-17
-3.004300982910e-17
1.474245226505e-17
-5.180836675291e-17
1.117336543813e-17
-1.488069868320e-17
1.304218420021e-17
-6.908853617680e-17
1.030505957755e-17
1.046910371790e-17
-6.411317980244e-18
2.766196348210e-17
1.287527359506e-17
-1.882870265921e-17
1.558871588456e-17
2.606218788115e-17
9.010625281916e-19
-3.536759318626e-17
-4.915143999008e-17
-1.961112378099e-17
-1.747099292960e-17
1.274823203478e-17
-2.412911288800e-17
SCALARS C double 1
LOOKUP_TABLE default
 3.190559220784e-06
 8.747973986418e-06
 1.949553110007e-05
 3.910637217533e-05
 7.359395047672e-05
 1.327357965398e-04
 2.323546322412e-04
 3.979705966541e-04
 6.705836359184e-04
 1.115615061824e-03
 1.836676403567e-03
 2.999130119850e-03
 4.880362930584e-03
 7.971009596058e-03
 1.302290891646e-02
 2.063211863092e-02
 3.079677831978e-02
 9.696748118442e-02
 1.185889113952e-01
 1.216381923067e-01
 1.218101268142e-01
 1.214493192310e-01
 1.209706008992e-01
 1.203895403138e-01
 1.196739485279e-01
 1.188757485080e-01
 1.179255371299e-01
 1.168198781320e-01
 1.156597070364e-01
 1.143547363304e-01
 1.129582127490e-01
 1.114506418216e-01
 1.099506862607e-01
 1.083679188092e-01
 1.067764014702e-01
 1.053464087882e-01
 1.039030344815e-01
 1.025821438919e-01
 1.007133859180e-01
 1.001538317627e-01
 1.006721786933e-01
 1.011565058785e-01
 1.016221019535e-01
 1.020928203005e-01
 1.024908066418e-01
 1.031204508638e-01
 1.035347248234e-01
 1.039868591159e-01
 1.044767899771e-01
 1.049650301301e-01
 1.053861226523e-01
 1.058443702226e-01
 1.061538365947e-01
 1.065496155033e-01
 1.070303592886e-01
 1.071422177960e-01
 1.073436812183e-01
 1.076721008761e-01
 1.079888231492e-01
 1.079114949077e-01
 1.081665822162e-01
 1.082423328510e-01
 1.083207071432e-01
 1.083644230480e-01
 1.085710673324e-01
 1.084306691163e-01
 1.085468441034e-01
 1.085836167121e-01
 1.086153818200e-01
 1.085836898160e-01
 1.085712464325e-01
 1.086183117947e-01
 1.086088425603e-01
 1.086554514108e-01
 1.086096926999e-01
 1.086651606472e-01
 1.086319165382e-01
 1.086183821119e-01
 1.086909894017e-01
 1.085356197522e-01
 1.086733650185e-01
 1.086450591976e-01
 1.086950425385e-01
 1.086182770348e-01
 1.086902542448e-01
 1.085495821858e-01
 1.086551841490e-01
 1.086469480044e-01
 1.086242912869e-01
 1.086531365894e-01
 1.086513080595e-01
 1.086222290654e-01
 1.086730424311e-01
 1.085500861475e-01
 1.086810880432e-01
 1.086557172253e-01
 1.086135495177e-01
 1.086883248327e-01
 1.086640433631e-01
 1.085902521961e-01
 1.086487328860e-01
SCALARS Ca double 1
LOOKUP_TABLE default
 3.190559220784e-06
 6.420756724439e-06
 1.264641252736e-05
 2.394634698304e-05
 4.368579320031e-05
 7.727348589951e-05
 1.333612348502e-04
 2.257457695336e-04
 3.763555148972e-04
 6.198400421374e-04
 1.010599463380e-03
 1.634739051027e-03
 2.635412051961e-03
 4.263671586922e-03
 6.902723686804e-03
 1.085974501144e-02
 1.614515895616e-02
 4.949819350251e-02
 6.065812266785e-02
 6.263385633395e-02
 6.329701788552e-02
 6.384848003491e-02
 6.452906334896e-02
 6.538529098577e-02
 6.644565492146e-02
 6.778708121591e-02
 6.943276556710e-02
 7.144640774538e-02
 7.395204536531e-02
 7.698694771764e-02
 8.066985301354e-02
 8.509398950391e-02
 9.043269000655e-02
 9.676452923352e-02
 1.042841618006e-01
 1.133051734352e-01
 1.236534341753e-01
 1.345252046140e-01
 1.640728640508e-01
 1.752988355299e-01
 1.708918155987e-01
 1.656090865385e-01
 1.604273087683e-01
 1.554157440906e-01
 1.505467524239e-01
 1.461609565121e-01
 1.418401269179e-01
 1.378601202615e-01
 1.342370132656e-01
 1.309408599054e-01
 1.279093982600e-01
 1.252442833649e-01
 1.227517544336e-01
 1.206546655144e-01
 1.189358300201e-01
 1.171227856717e-01
 1.156534406287e-01
 1.145433528543e-01
 1.136315502986e-01
 1.125134375070e-01
 1.118938195095e-01
 1.112402720771e-01
 1.107153793719e-01
 1.102639942616e-01
 1.100674794942e-01
 1.096013378186e-01
 1.094563506043e-01
 1.092853457746e-01
 1.091530676796e-01
 1.089928446430e-01
 1.088804551835e-01
 1.088503859037e-01
 1.087818316980e-01
 1.087835178019e-01
 1.087038563354e-01
 1.087339262041e-01
 1.086817942913e-01
 1.086543156394e-01
 1.087167027814e-01
 1.085538963134e-01
 1.086862687641e-01
 1.086541088819e-01
 1.087013471451e-01
 1.086226401872e-01
 1.086932539028e-01
 1.085516309097e-01
 1.086565742523e-01
 1.086478850797e-01
 1.086249188791e-01
 1.086535541971e-01
 1.086515841552e-01
 1.086224104345e-01
 1.086731608150e-01
 1.085501629296e-01
 1.086811375289e-01
 1.086557489193e-01
 1.086135696934e-01
 1.086883376111e-01
 1.086640514647e-01
 1.085902575285e-01
 1.086487372431e-01
SCALARS Cl double 1
LOOKUP_TABLE default
 1.276223688314e+00
 1.276206780788e+00
 1.276195468423e+00
 1.276175696839e+00
 1.276142845239e+00
 1.276090295292e+00
 1.276008756637e+00
 1.275885432567e+00
 1.275703011437e+00
 1.275438475919e+00
 1.275061733078e+00
 1.274534081798e+00
 1.273806553948e+00
 1.272818182791e+00
 1.271494265458e+00
 1.269744710394e+00
 1.267462720513e+00
 1.264517410868e+00
 1.260775398719e+00
 1.256074859694e+00
 1.250235831801e+00
 1.243065053667e+00
 1.234357596420e+00
 1.223900904859e+00
 1.211480110478e+00
 1.196884409088e+00
 1.179914364711e+00
 1.160389801250e+00
 1.138158046128e+00
 1.113102163184e+00
 1.085148651846e+00
 1.054274310958e+00
 1.020511731749e+00
 9.839531410524e-01
 9.447521373516e-01
 9.031232325816e-01
 8.593390758348e-01
 8.137251954618e-01
 7.666523765111e-01
 7.185285418551e-01
 6.697870782931e-01
 6.208745980677e-01
 5.722395087085e-01
 5.243195816850e-01
 4.775303444826e-01
 4.322545800560e-01
 3.888334492272e-01
 3.475593397916e-01
 3.086709186791e-01
 2.723502867890e-01
 2.387222865089e-01
 2.078558118269e-01
 1.797669184132e-01
 1.544233921187e-01
 1.317504991337e-01
 1.116375071931e-01
 9.394461746673e-02
 7.851002905930e-02
 6.515677106078e-02
 5.369908729453e-02
 4.394817046035e-02
 3.571714541845e-02
 2.882517495503e-02
 2.310071344488e-02
 1.838390423962e-02
 1.452819083341e-02
 1.140121508497e-02
 8.885116882780e-03
 6.876328848220e-03
 5.284985232652e-03
 4.034043858811e-03
 3.058217082307e-03
 2.302793054965e-03
 1.722415505896e-03
 1.279876638734e-03
 9.449632684174e-04
 6.933851769430e-04
 5.058030576162e-04
 3.669654233001e-04
 2.649563444523e-04
 1.905508354606e-04
 1.366712291446e-04
 9.793517547108e-05
 7.028510335459e-05
 5.068829030893e-05
 3.689712398749e-05
 2.725969635603e-05
 2.057188971757e-05
 1.596310179909e-05
 1.280891082959e-05
 1.066500756120e-05
 9.217716206491e-06
 8.247300390285e-06
 7.601009920473e-06
 7.173465853527e-06
 6.892522706882e-06
 6.709179855834e-06
 6.590503415075e-06
 6.514912622022e-06
 6.469872566256e-06
 6.453958161626e-06
SCALARS H double 1
LOOKUP_TABLE default
 3.542055048137e+04
 3.542024802643e+04
 3.542024803432e+04
 3.542024805255e+04
 3.542024809247e+04
 3.542024817102e+04
 3.542024831111e+04
 3.542024854635e+04
 3.542024892992e+04
 3.542024954837e+04
 3.542025054127e+04
 3.542025214388e+04
 3.542025478069e+04
 3.542025924250e+04
 3.542026688464e+04
 3.542027911400e+04
 3.542029651484e+04
 3.542014125555e+04
 3.542006554348e+04
 3.542005636335e+04
 3.542005779920e+04
 3.542006158949e+04
 3.542006630902e+04
 3.542007196729e+04
 3.542007878540e+04
 3.542008664195e+04
 3.542009589497e+04
 3.542010664736e+04
 3.542011865311e+04
 3.542013234244e+04
 3.542014762886e+04
 3.542016467344e+04
 3.542018311970e+04
 3.542020332860e+04
 3.542022501694e+04
 3.542024746845e+04
 3.542027148282e+04
 3.542029719917e+04
 3.542030871658e+04
 3.542032830950e+04
 3.542036154347e+04
 3.542039603463e+04
 3.542043052539e+04
 3.542046464820e+04
 3.542049838479e+04
 3.542053020644e+04
 3.542056167447e+04
 3.542059151488e+04
 3.542061952513e+04
 3.542064569659e+04
 3.542067017421e+04
 3.542069244452e+04
 3.542071323215e+04