 TITLE = "Profiles along polylines"
 VARIABLES = "DIST" "PRESSURE1" "DENSITY1" 
 ZONE T="TIME=0.000000000000e+00"
0.000000000000e+00 1.013250000000e+05  1.000000000000e+03 
1.000000000000e-01 1.013250000000e+05  1.000000000000e+03 
2.000000000000e-01 1.013250000000e+05  1.000000000000e+03 
3.000000000000e-01 1.013250000000e+05  1.000000000000e+03 
4.000000000000e-01 1.013250000000e+05  1.000000000000e+03 
5.000000000000e-01 1.013250000000e+05  1.000000000000e+03 
6.000000000000e-01 1.013250000000e+05  1.000000000000e+03 
7.000000000000e-01 1.013250000000e+05  1.000000000000e+03 
8.000000000000e-01 1.013250000000e+05  1.000000000000e+03 
9.000000000000e-01 1.013250000000e+05  1.000000000000e+03 
1.000000000000e+00 1.013250000000e+05  1.000000000000e+03 
1.100000000000e+00 1.013250000000e+05  1.000000000000e+03 
1.200000000000e+00 1.013250000000e+05  1.000000000000e+03 
1.300000000000e+00 1.013250000000e+05  1.000000000000e+03 
1.400000000000e+00 1.013250000000e+05  1.000000000000e+03 
1.500000000000e+00 1.013250000000e+05  1.000000000000e+03 
1.600000000000e+00 1.013250000000e+05  1.000000000000e+03 
1.700000000000e+00 1.013250000000e+05  1.000000000000e+03 
1.800000000000e+00 1.013250000000e+05  1.000000000000e+03 
1.900000000000e+00 1.013250000000e+05  1.000000000000e+03 
2.000000000000e+00 1.013250000000e+05  1.000000000000e+03 
2.100000000000e+00 1.013250000000e+05  1.000000000000e+03 
2.200000000000e+00 1.013250000000e+05  1.000000000000e+03 
2.300000000000e+00 1.013250000000e+05  1.000000000000e+03 
2.400000000000e+00 1.013250000000e+05  1.000000000000e+03 
2.500000000000e+00 1.013250000000e+05  1.000000000000e+03 
2.600000000000e+00 1.013250000000e+05  1.000000000000e+03 
2.700000000000e+00 1.013250000000e+05  1.000000000000e+03 
2.800000000000e+00 1.013250000000e+05  1.000000000000e+03 
2.900000000000e+00 1.013250000000e+05  1.000000000000e+03 
3.000000000000e+00 1.013250000000e+05  1.000000000000e+03 
3.100000000000e+00 1.013250000000e+05  1.000000000000e+03 
3.200000000000e+00 1.013250000000e+05  1.000000000000e+03 
3.300000000000e+00 1.013250000000e+05  1.000000000000e+03 
3.400000000000e+00 1.013250000000e+05  1.000000000000e+03 
3.500000000000e+00 1.013250000000e+05  1.000000000000e+03 
3.600000000000e+00 1.013250000000e+05  1.000000000000e+03 
3.700000000000e+00 1.013250000000e+05  1.000000000000e+03 
3.800000000000e+00 1.013250000000e+05  1.000000000000e+03 
3.900000000000e+00 1.013250000000e+05  1.000000000000e+03 
4.000000000000e+00 1.013250000000e+05  1.000000000000e+03 
4.100000000000e+00 1.013250000000e+05  1.000000000000e+03 
4.200000000000e+00 1.013250000000e+05  1.000000000000e+03 
4.300000000000e+00 1.013250000000e+05  1.000000000000e+03 
4.400000000000e+00 1.013250000000e+05  1.000000000000e+03 
4.500000000000e+00 1.013250000000e+05  1.000000000000e+03 
4.600000000000e+00 1.013250000000e+05  1.000000000000e+03 
4.700000000000e+00 1.013250000000e+05  1.000000000000e+03 
4.800000000000e+00 1.013250000000e+05  1.000000000000e+03 
4.900000000000e+00 1.013250000000e+05  1.000000000000e+03 
5.000000000000e+00 1.013250000000e+05  1.000000000000e+03 
5.100000000000e+00 1.013250000000e+05  1.000000000000e+03 
5.200000000000e+00 1.013250000000e+05  1.000000000000e+03 
5.300000000000e+00 1.013250000000e+05  1.000000000000e+03 
5.400000000000e+00 1.013250000000e+05  1.000000000000e+03 
5.500000000000e+00 1.013250000000e+05  1.000000000000e+03 
5.600000000000e+00 1.013250000000e+05  1.000000000000e+03 
5.700000000000e+00 1.013250000000e+05  1.000000000000e+03 
5.800000000000e+00 1.013250000000e+05  1.000000000000e+03 
5.900000000000e+00 1.013250000000e+05  1.000000000000e+03 
6.000000000000e+00 1.013250000000e+05  1.000000000000e+03 
6.100000000000e+00 1.013250000000e+05  1.000000000000e+03 
6.200000000000e+00 1.013250000000e+05  1.000000000000e+03 
6.300000000000e+00 1.013250000000e+05  1.000000000000e+03 
6.400000000000e+00 1.013250000000e+05  1.000000000000e+03 
6.500000000000e+00 1.013250000000e+05  1.000000000000e+03 
6.600000000000e+00 1.013250000000e+05  1.000000000000e+03 
6.700000000000e+00 1.013250000000e+05  1.000000000000e+03 
6.800000000000e+00 1.013250000000e+05  1.000000000000e+03 
6.900000000000e+00 1.013250000000e+05  1.000000000000e+03 
7.000000000000e+00 1.013250000000e+05  1.000000000000e+03 
7.100000000000e+00 1.013250000000e+05  1.000000000000e+03 
7.200000000000e+00 1.013250000000e+05  1.000000000000e+03 
7.300000000000e+00 1.013250000000e+05  1.000000000000e+03 
7.400000000000e+00 1.013250000000e+05  1.000000000000e+03 
7.500000000000e+00 1.013250000000e+05  1.000000000000e+03 
7.600000000000e+00 1.013250000000e+05  1.000000000000e+03 
7.700000000000e+00 1.013250000000e+05  1.000000000000e+03 
7.800000000000e+00 1.013250000000e+05  1.000000000000e+03 
7.900000000000e+00 1.013250000000e+05  1.000000000000e+03 
8.000000000000e+00 1.013250000000e+05  1.000000000000e+03 
8.100000000000e+00 1.013250000000e+05  1.000000000000e+03 
8.200000000000e+00 1.013250000000e+05  1.000000000000e+03 
8.300000000000e+00 1.013250000000e+05  1.000000000000e+03 
8.400000000000e+00 1.013250000000e+05  1.000000000000e+03 
8.500000000000e+00 1.013250000000e+05  1.000000000000e+03 
8.600000000000e+00 1.013250000000e+05  1.000000000000e+03 
8.700000000000e+00 1.013250000000e+05  1.000000000000e+03 
8.800000000000e+00 1.013250000000e+05  1.000000000000e+03 
8.900000000000e+00 1.013250000000e+05  1.000000000000e+03 
9.000000000000e+00 1.013250000000e+05  1.000000000000e+03 
9.100000000000e+00 1.013250000000e+05  1.000000000000e+03 
9.200000000000e+00 1.013250000000e+05  1.000000000000e+03 
9.300000000000e+00 1.013250000000e+05  1.000000000000e+03 
9.400000000000e+00 1.013250000000e+05  1.000000000000e+03 
9.500000000000e+00 1.013250000000e+05  1.000000000000e+03 
9.600000000000e+00 1.013250000000e+05  1.000000000000e+03 
9.700000000000e+00 1.013250000000e+05  1.000000000000e+03 
9.800000000000e+00 1.013250000000e+05  1.000000000000e+03 
9.900000000000e+00 1.013250000000e+05  1.000000000000e+03 
1.000000000000e+01 1.013250000000e+05  1.000000000000e+03 
 TITLE = "Profiles along polylines"
 VARIABLES = "DIST" "PRESSURE1" "DENSITY1" 
 ZONE T="TIME=1.000000000000e+00"
0.000000000000e+00 1.013250000000e+05  1.000000000000e+03 
1.000000000000e-01 1.022505694200e+05  1.004080809367e+03 
2.000000000000e-01 1.031804052183e+05  1.008197197504e+03 
3.000000000000e-01 1.041145541738e+05  1.012349673506e+03 
4.000000000000e-01 1.050530633690e+05  1.016538754534e+03 
5.000000000000e-01 1.059959802015e+05  1.020764966008e+03 
6.000000000000e-01 1.069433523951e+05  1.025028841802e+03 
7.000000000000e-01 1.078952280116e+05  1.029330924446e+03 
8.000000000000e-01 1.088516554624e+05  1.033671765327e+03 
9.000000000000e-01 1.098126835203e+05  1.038051924909e+03 
1.000000000000e+00 1.107783613311e+05  1.042471972937e+03 
1.100000000000e+00 1.117487384258e+05  1.046932488670e+03 
1.200000000000e+00 1.127238647328e+05  1.051434061097e+03 
1.300000000000e+00 1.137037905899e+05  1.055977289181e+03 
1.400000000000e+00 1.146885667568e+05  1.060562782088e+03 
1.500000000000e+00 1.156782444281e+05  1.065191159437e+03 
1.600000000000e+00 1.166728752452e+05  1.069863051552e+03 
1.700000000000e+00 1.176725113099e+05  1.074579099718e+03 
1.800000000000e+00 1.186772051974e+05  1.079339956447e+03 
1.900000000000e+00 1.196870099694e+05  1.084146285749e+03 
2.000000000000e+00 1.207019791876e+05  1.088998763413e+03 
2.100000000000e+00 1.217221669276e+05  1.093898077295e+03 
2.200000000000e+00 1.227476277930e+05  1.098844927609e+03 
2.300000000000e+00 1.237784169291e+05  1.103840027234e+03 
2.400000000000e+00 1.248145900376e+05  1.108884102024e+03 
2.500000000000e+00 1.258562033914e+05  1.113977891126e+03 
2.600000000000e+00 1.269033138493e+05  1.119122147314e+03 
2.700000000000e+00 1.279559788712e+05  1.124317637325e+03 
2.800000000000e+00 1.290142565341e+05  1.129565142204e+03 
2.900000000000e+00 1.300782055470e+05  1.134865457667e+03 
3.000000000000e+00 1.311478852679e+05  1.140219394469e+03 
3.100000000000e+00 1.322233557199e+05  1.145627778780e+03 
3.200000000000e+00 1.333046776075e+05  1.151091452578e+03 
3.300000000000e+00 1.343919123345e+05  1.156611274048e+03 
3.400000000000e+00 1.354851220209e+05  1.162188117999e+03 
3.500000000000e+00 1.365843695210e+05  1.167822876287e+03 
3.600000000000e+00 1.376897184413e+05  1.173516458257e+03 
3.700000000000e+00 1.388012331596e+05  1.179269791189e+03 
3.800000000000e+00 1.399189788437e+05  1.185083820769e+03 
3.900000000000e+00 1.410430214705e+05  1.190959511568e+03 
4.000000000000e+00 1.421734278469e+05  1.196897847532e+03 
4.100000000000e+00 1.433102656290e+05  1.202899832496e+03 
4.200000000000e+00 1.444536033437e+05  1.208966490708e+03 
4.300000000000e+00 1.456035104097e+05  1.215098867370e+03 
4.400000000000e+00 1.467600571593e+05  1.221298029197e+03 
4.500000000000e+00 1.479233148608e+05  1.227565064995e+03 
4.600000000000e+00 1.490933557414e+05  1.233901086252e+03 
4.700000000000e+00 1.502702530106e+05  1.240307227754e+03 
4.800000000000e+00 1.514540808842e+05  1.246784648220e+03 
4.900000000000e+00 1.526449146089e+05  1.253334530951e+03 
5.000000000000e+00 1.538428304879e+05  1.259958084508e+03 
5.100000000000e+00 1.550479059060e+05  1.266656543408e+03 
5.200000000000e+00 1.562602193570e+05  1.273431168846e+03 
5.300000000000e+00 1.574798504704e+05  1.280283249432e+03 
5.400000000000e+00 1.587068800397e+05  1.287214101970e+03 
5.500000000000e+00 1.599413900509e+05  1.294225072240e+03 
5.600000000000e+00 1.611834637119e+05  1.301317535828e+03 
5.700000000000e+00 1.624331854829e+05  1.308492898969e+03 
5.800000000000e+00 1.636906411076e+05  1.315752599427e+03 
5.900000000000e+00 1.649559176448e+05  1.323098107401e+03 
6.000000000000e+00 1.662291035016e+05  1.330530926463e+03 
6.100000000000e+00 1.675102884666e+05  1.338052594532e+03 
6.200000000000e+00 1.687995637452e+05  1.345664684873e+03 
6.300000000000e+00 1.700970219948e+05  1.353368807144e+03 
6.400000000000e+00 1.714027573616e+05  1.361166608467e+03 
6.500000000000e+00 1.727168655183e+05  1.369059774548e+03 
6.600000000000e+00 1.740394437030e+05  1.377050030826e+03 
6.700000000000e+00 1.753705907591e+05  1.385139143674e+03 
6.800000000000e+00 1.767104071761e+05  1.393328921638e+03 
6.900000000000e+00 1.780589951326e+05  1.401621216717e+03 
7.000000000000e+00 1.794164585391e+05  1.410017925700e+03 
7.100000000000e+00 1.807829030836e+05  1.418520991545e+03 
7.200000000000e+00 1.821584362774e+05  1.427132404809e+03 
7.300000000000e+00 1.835431675029e+05  1.435854205133e+03 
7.400000000000e+00 1.849372080628e+05  1.444688482786e+03 
7.500000000000e+00 1.863406712305e+05  1.453637380262e+03 
7.600000000000e+00 1.877536723028e+05  1.462703093938e+03 
7.700000000000e+00 1.891763286533e+05  1.471887875801e+03 
7.800000000000e+00 1.906087597881e+05  1.481194035235e+03 
7.900000000000e+00 1.920510874032e+05  1.490623940881e+03 
8.000000000000e+00 1.935034354436e+05  1.500180022567e+03 
8.100000000000e+00 1.949659301646e+05  1.509864773320e+03 
8.200000000000e+00 1.964387001945e+05  1.519680751447e+03 
8.300000000000e+00 1.979218766000e+05  1.529630582707e+03 
8.400000000000e+00 1.994155929534e+05  1.539716962570e+03 
8.500000000000e+00 2.009199854021e+05  1.549942658560e+03 
8.600000000000e+00 2.024351927407e+05  1.560310512704e+03 
8.700000000000e+00 2.039613564849e+05  1.570823444070e+03 
8.800000000000e+00 2.054986209485e+05  1.581484451417e+03 
8.900000000000e+00 2.070471333228e+05  1.592296615952e+03 
9.000000000000e+00 2.086070437589e+05  1.603263104205e+03 
9.100000000000e+00 2.101785054524e+05  1.614387171017e+03 
9.200000000000e+00 2.117616747319e+05  1.625672162665e+03 
9.300000000000e+00 2.133567111495e+05  1.637121520115e+03 
9.400000000000e+00 2.149637775759e+05  1.648738782412e+03 
9.500000000000e+00 2.165830402973e+05  1.660527590223e+03 
9.600000000000e+00 2.182146691173e+05  1.672491689529e+03 
9.700000000000e+00 2.198588374615e+05  1.684634935482e+03 
9.800000000000e+00 2.215157224863e+05  1.696961296432e+03 
9.900000000000e+00 2.231855051917e+05  1.709474858135e+03 
1.000000000000e+01 2.248683705385e+05  1.722179828144e+03 
 ZONE T="TIME=2.000000000000e+00"
0.000000000000e+00 1.013250000000e+05  1.000000000000e+03 
1.000000000000e-01 1.023055160136e+05  1.004323590323e+03 
2.000000000000e-01 1.032903038569e+05  1.008684833192e+03 
3.000000000000e-01 1.042794013893e+05  1.013084225179e+03 
4.000000000000e-01 1.052728469454e+05  1.017522271513e+03 
5.000000000000e-01 1.062706793442e+05  1.021999486274e+03 
6.000000000000e-01 1.072729378977e+05  1.026516392590e+03 
7.000000000000e-01 1.082796624204e+05  1.031073522834e+03 
8.000000000000e-01 1.092908932384e+05  1.035671418840e+03 
9.000000000000e-01 1.103066711991e+05  1.040310632109e+03 
1.000000000000e+00 1.113270376810e+05  1.044991724029e+03 
1.100000000000e+00 1.123520346038e+05  1.049715266105e+03 
1.200000000000e+00 1.133817044382e+05  1.054481840181e+03 
1.300000000000e+00 1.144160902171e+05  1.059292038686e+03 
1.400000000000e+00 1.154552355454e+05  1.064146464871e+03 
1.500000000000e+00 1.164991846116e+05  1.069045733063e+03 
1.600000000000e+00 1.175479821987e+05  1.073990468923e+03 
1.700000000000e+00 1.186016736956e+05  1.078981309707e+03 
1.800000000000e+00 1.196603051089e+05  1.084018904541e+03 
1.900000000000e+00 1.207239230748e+05  1.089103914700e+03 
2.000000000000e+00 1.217925748712e+05  1.094237013895e+03 
2.100000000000e+00 1.228663084304e+05  1.099418888568e+03 
2.200000000000e+00 1.239451723520e+05  1.104650238200e+03 
2.300000000000e+00 1.250292159155e+05  1.109931775618e+03 
2.400000000000e+00 1.261184890944e+05  1.115264227323e+03 
2.500000000000e+00 1.272130425693e+05  1.120648333816e+03 
2.600000000000e+00 1.283129277426e+05  1.126084849943e+03 
2.700000000000e+00 1.294181967523e+05  1.131574545244e+03 
2.800000000000e+00 1.305289024870e+05  1.137118204314e+03 
2.900000000000e+00 1.316450986010e+05  1.142716627176e+03 
3.000000000000e+00 1.327668395301e+05  1.148370629664e+03 
3.100000000000e+00 1.338941805066e+05  1.154081043815e+03 
3.200000000000e+00 1.350271775765e+05  1.159848718279e+03 
3.300000000000e+00 1.361658876155e+05  1.165674518735e+03 
3.400000000000e+00 1.373103683464e+05  1.171559328322e+03 
3.500000000000e+00 1.384606783563e+05  1.177504048086e+03 
3.600000000000e+00 1.396168771150e+05  1.183509597436e+03 
3.700000000000e+00 1.407790249928e+05  1.189576914614e+03 
3.800000000000e+00 1.419471832797e+05  1.195706957185e+03 
3.900000000000e+00 1.431214142047e+05  1.201900702540e+03 
4.000000000000e+00 1.443017809557e+05  1.208159148407e+03 
4.100000000000e+00 1.454883476996e+05  1.214483313393e+03 
4.200000000000e+00 1.466811796035e+05  1.220874237527e+03 
4.300000000000e+00 1.478803428558e+05  1.227332982835e+03 
4.400000000000e+00 1.490859046884e+05  1.233860633920e+03 
4.500000000000e+00 1.502979333993e+05  1.240458298573e+03 
4.600000000000e+00 1.515164983756e+05  1.247127108392e+03 
4.700000000000e+00 1.527416701175e+05  1.253868219433e+03 
4.800000000000e+00 1.539735202626e+05  1.260682812868e+03 
4.900000000000e+00 1.552121216110e+05  1.267572095682e+03 
5.000000000000e+00 1.564575481512e+05  1.274537301377e+03 
5.100000000000e+00 1.577098750865e+05  1.281579690708e+03 
5.200000000000e+00 1.589691788622e+05  1.288700552442e+03 
5.300000000000e+00 1.602355371936e+05  1.295901204141e+03 
5.400000000000e+00 1.615090290950e+05  1.303182992976e+03 
5.500000000000e+00 1.627897349088e+05  1.310547296559e+03 
5.600000000000e+00 1.640777363363e+05  1.317995523815e+03 
5.700000000000e+00 1.653731164687e+05  1.325529115876e+03 
5.800000000000e+00 1.666759598196e+05  1.333149547007e+03 
5.900000000000e+00 1.679863523576e+05  1.340858325569e+03 
6.000000000000e+00 1.693043815408e+05  1.348656995011e+03 
6.100000000000e+00 1.706301363516e+05  1.356547134894e+03 
6.200000000000e+00 1.719637073327e+05  1.364530361960e+03 
6.300000000000e+00 1.733051866245e+05  1.372608331234e+03 
6.400000000000e+00 1.746546680029e+05  1.380782737161e+03 
6.500000000000e+00 1.760122469190e+05  1.389055314792e+03 
6.600000000000e+00 1.773780205397e+05  1.397427841011e+03 
6.700000000000e+00 1.787520877889e+05  1.405902135799e+03 
6.800000000000e+00 1.801345493911e+05  1.414480063557e+03 
6.900000000000e+00 1.815255079157e+05  1.423163534467e+03 
7.000000000000e+00 1.829250678222e+05  1.431954505910e+03 
7.100000000000e+00 1.843333355080e+05  1.440854983930e+03 
7.200000000000e+00 1.857504193564e+05  1.449867024764e+03 
7.300000000000e+00 1.871764297871e+05  1.458992736419e+03 
7.400000000000e+00 1.886114793076e+05  1.468234280314e+03 
7.500000000000e+00 1.900556825668e+05  1.477593872983e+03 
7.600000000000e+00 1.915091564098e+05  1.487073787849e+03 
7.700000000000e+00 1.929720199349e+05  1.496676357057e+03 
7.800000000000e+00 1.944443945518e+05  1.506403973387e+03 
7.900000000000e+00 1.959264040429e+05  1.516259092239e+03 
8.000000000000e+00 1.974181746250e+05  1.526244233697e+03 
8.100000000000e+00 1.989198350145e+05  1.536361984671e+03 
8.200000000000e+00 2.004315164938e+05  1.546615001134e+03 
8.300000000000e+00 2.019533529805e+05  1.557006010440e+03 
8.400000000000e+00 2.034854810986e+05  1.567537813743e+03 
8.500000000000e+00 2.050280402519e+05  1.578213288505e+03 
8.600000000000e+00 2.065811727008e+05  1.589035391125e+03 
8.700000000000e+00 2.081450236408e+05  1.600007159654e+03 
8.800000000000e+00 2.097197412842e+05  1.611131716645e+03 
8.900000000000e+00 2.113054769442e+05  1.622412272107e+03 
9.000000000000e+00 2.129023851229e+05  1.633852126591e+03 
9.100000000000e+00 2.145106236011e+05  1.645454674411e+03 
9.200000000000e+00 2.161303535325e+05  1.657223406992e+03 
9.300000000000e+00 2.177617395406e+05  1.669161916374e+03 
9.400000000000e+00 2.194049498192e+05  1.681273898864e+03 
9.500000000000e+00 2.210601562366e+05  1.693563158847e+03 
9.600000000000e+00 2.227275344437e+05  1.706033612767e+03 
9.700000000000e+00 2.244072639863e+05  1.718689293287e+03 
9.800000000000e+00 2.260995284208e+05  1.731534353632e+03 
9.900000000000e+00 2.278045154351e+05  1.744573072128e+03 
1.000000000000e+01 2.295224169737e+05  1.757809856954e+03 
 ZONE T="TIME=3.000000000000e+00"
0.000000000000e+00 1.013250000000e+05  1.000000000000e+03 
1.000000000000e-01 1.023080104473e+05  1.004334613345e+03 
2.000000000000e-01 1.032952921832e+05  1.008706972691e+03 
3.000000000000e-01 1.042868825102e+05  1.013117573352e+03 
4.000000000000e-01 1.052828192200e+05  1.017566919343e+03 
5.000000000000e-01 1.062831406026e+05  1.022055523569e+03 
6.000000000000e-01 1.072878854547e+05  1.026583908024e+03 
7.000000000000e-01 1.082970930890e+05  1.031152603991e+03 
8.000000000000e-01 1.093108033433e+05  1.035762152252e+03 
9.000000000000e-01 1.103290565901e+05  1.040413103300e+03 
1.000000000000e+00 1.113518937459e+05  1.045106017561e+03 
1.100000000000e+00 1.123793562814e+05  1.049841465611e+03 
1.200000000000e+00 1.134114862314e+05  1.054620028419e+03 
1.300000000000e+00 1.144483262053e+05  1.059442297575e+03 
1.400000000000e+00 1.154899193973e+05  1.064308875536e+03 
1.500000000000e+00 1.165363095976e+05  1.069220375882e+03 
1.600000000000e+00 1.175875412032e+05  1.074177423566e+03 
1.700000000000e+00 1.186436592291e+05  1.079180655186e+03 
1.800000000000e+00 1.197047093202e+05  1.084230719252e+03 
1.900000000000e+00 1.207707377629e+05  1.089328276471e+03 
2.000000000000e+00 1.218417914972e+05  1.094474000031e+03 
2.100000000000e+00 1.229179181293e+05  1.099668575899e+03 
2.200000000000e+00 1.239991659440e+05  1.104912703127e+03 
2.300000000000e+00 1.250855839179e+05  1.110207094162e+03 
2.400000000000e+00 1.261772217327e+05  1.115552475172e+03 
2.500000000000e+00 1.272741297887e+05  1.120949586378e+03 
2.600000000000e+00 1.283763592188e+05  1.126399182393e+03 
2.700000000000e+00 1.294839619031e+05  1.131902032574e+03 
2.800000000000e+00 1.305969904830e+05  1.137458921388e+03 
2.900000000000e+00 1.317154983766e+05  1.143070648778e+03 
3.000000000000e+00 1.328395397942e+05  1.148738030555e+03 
3.100000000000e+00 1.339691697535e+05  1.154461898784e+03 
3.200000000000e+00 1.351044440963e+05  1.160243102201e+03 
3.300000000000e+00 1.362454195049e+05  1.166082506623e+03 
3.400000000000e+00 1.373921535189e+05  1.171980995387e+03 
3.500000000000e+00 1.385447045530e+05  1.177939469794e+03 
3.600000000000e+00 1.397031319142e+05  1.183958849565e+03 
3.700000000000e+00 1.408674958210e+05  1.190040073317e+03 
3.800000000000e+00 1.420378574214e+05  1.196184099050e+03 
3.900000000000e+00 1.432142788126e+05  1.202391904651e+03 
4.000000000000e+00 1.443968230605e+05  1.208664488411e+03 
4.100000000000e+00 1.455855542203e+05  1.215002869562e+03 
4.200000000000e+00 1.467805373571e+05  1.221408088827e+03 
4.300000000000e+00 1.479818385673e+05  1.227881208991e+03 
4.400000000000e+00 1.491895250006e+05  1.234423315488e+03 
4.500000000000e+00 1.504036648823e+05  1.241035517009e+03 
4.600000000000e+00 1.516243275368e+05  1.247718946128e+03 
4.700000000000e+00 1.528515834111e+05  1.254474759945e+03 
4.800000000000e+00 1.540855040993e+05  1.261304140761e+03 
4.900000000000e+00 1.553261623675e+05  1.268208296761e+03 
5.000000000000e+00 1.565736321798e+05  1.275188462728e+03 
5.100000000000e+00 1.578279887245e+05  1.282245900782e+03 
5.200000000000e+00 1.590893084416e+05  1.289381901140e+03 
5.300000000000e+00 1.603576690503e+05  1.296597782897e+03 
5.400000000000e+00 1.616331495783e+05  1.303894894847e+03 
5.500000000000e+00 1.629158303910e+05  1.311274616317e+03 
5.600000000000e+00 1.642057932217e+05  1.318738358038e+03 
5.700000000000e+00 1.655031212034e+05  1.326287563047e+03 
5.800000000000e+00 1.668078989006e+05  1.333923707612e+03 
5.900000000000e+00 1.681202123422e+05  1.341648302198e+03 
6.000000000000e+00 1.694401490562e+05  1.349462892460e+03 
6.100000000000e+00 1.707677981039e+05  1.357369060279e+03 
6.200000000000e+00 1.721032501165e+05  1.365368424822e+03 
6.300000000000e+00 1.734465973322e+05  1.373462643655e+03 
6.400000000000e+00 1.747979336343e+05  1.381653413883e+03 
6.500000000000e+00 1.761573545905e+05  1.389942473338e+03 
6.600000000000e+00 1.775249574936e+05  1.398331601807e+03 
6.700000000000e+00 1.789008414034e+05  1.406822622310e+03 
6.800000000000e+00 1.802851071894e+05  1.415417402413e+03 
6.900000000000e+00 1.816778575755e+05  1.424117855604e+03 
7.000000000000e+00 1.830791971857e+05  1.432925942713e+03 
7.100000000000e+00 1.844892325911e+05  1.441843673378e+03 
7.200000000000e+00 1.859080723588e+05  1.450873107585e+03 
7.300000000000e+00 1.873358271017e+05  1.460016357242e+03 
7.400000000000e+00 1.887726095307e+05  1.469275587835e+03 
7.500000000000e+00 1.902185345077e+05  1.478653020135e+03 
7.600000000000e+00 1.916737191009e+05  1.488150931972e+03 
7.700000000000e+00 1.931382826417e+05  1.497771660081e+03 
7.800000000000e+00 1.946123467835e+05  1.507517602017e+03 
7.900000000000e+00 1.960960355621e+05  1.517391218151e+03 
8.000000000000e+00 1.975894754584e+05  1.527395033735e+03 
8.100000000000e+00 1.990927954633e+05  1.537531641061e+03 
8.200000000000e+00 2.006061271445e+05  1.547803701694e+03 
8.300000000000e+00 2.021296047155e+05  1.558213948809e+03 
8.400000000000e+00 2.036633651070e+05  1.568765189610e+03 
8.500000000000e+00 2.052075480410e+05  1.579460307854e+03 
8.600000000000e+00 2.067622961070e+05  1.590302266483e+03 
8.700000000000e+00 2.083277548410e+05  1.601294110356e+03 
8.800000000000e+00 2.099040728075e+05  1.612438969103e+03 
8.900000000000e+00 2.114914016837e+05  1.623740060091e+03 
9.000000000000e+00 2.130898963475e+05  1.635200691529e+03 
9.100000000000e+00 2.146997149681e+05  1.646824265688e+03 
9.200000000000e+00 2.163210190998e+05  1.658614282273e+03 
9.300000000000e+00 2.179539737792e+05  1.670574341934e+03 
9.400000000000e+00 2.195987476265e+05  1.682708149936e+03 
9.500000000000e+00 2.212555129496e+05  1.695019519980e+03 
9.600000000000e+00 2.229244458525e+05  1.707512378204e+03 
9.700000000000e+00 2.246057263476e+05  1.720190767357e+03 
9.800000000000e+00 2.262995384725e+05  1.733058851159e+03 
9.900000000000e+00 2.280060704107e+05  1.746120918859e+03 
1.000000000000e+01 2.297255146171e+05  1.759381390007e+03 
 ZONE T="TIME=4.000000000000e+00"
0.000000000000e+00 1.013250000000e+05  1.000000000000e+03 
1.000000000000e-01 1.023081205417e+05  1.004335099860e+03 
2.000000000000e-01 1.032955123461e+05  1.008707949842e+03 
3.000000000000e-01 1.042872126900e+05  1.013119045201e+03 
4.000000000000e-01 1.052832593407e+05  1.017568889895e+03 
5.000000000000e-01 1.062836905637e+05  1.022057996772e+03 
6.000000000000e-01 1.072885451325e+05  1.026586887772e+03 
7.000000000000e-01 1.082978623368e+05  1.031156094129e+03 
8.000000000000e-01 1.093116819922e+05  1.035766156573e+03 
9.000000000000e-01 1.103300444496e+05  1.040417625551e+03 
1.000000000000e+00 1.113529906045e+05  1.045111061440e+03 
1.100000000000e+00 1.123805619072e+05  1.049847034777e+03 
1.200000000000e+00 1.134128003728e+05  1.054626126484e+03 
1.300000000000e+00 1.144497485913e+05  1.059448928114e+03 
1.400000000000e+00 1.154914497386e+05  1.064316042086e+03 
1.500000000000e+00 1.165379475866e+05  1.069228081943e+03 
1.600000000000e+00 1.175892865149e+05  1.074185672605e+03 
1.700000000000e+00 1.186455115219e+05  1.079189450639e+03 
1.800000000000e+00 1.197066682360e+05  1.084240064526e+03 
1.900000000000e+00 1.207728029279e+05  1.089338174944e+03 
2.000000000000e+00 1.218439625225e+05  1.094484455056e+03 
2.100000000000e+00 1.229201946113e+05  1.099679590808e+03 
2.200000000000e+00 1.240015474650e+05  1.104924281228e+03 
2.300000000000e+00 1.250880700468e+05  1.110219238747e+03 
2.400000000000e+00 1.261798120253e+05  1.115565189517e+03 
2.500000000000e+00 1.272768237884e+05  1.120962873744e+03 
2.600000000000e+00 1.283791564570e+05  1.126413046028e+03 
2.700000000000e+00 1.294868618999e+05  1.131916475720e+03 
2.800000000000e+00 1.305999927475e+05  1.137473947278e+03 
2.900000000000e+00 1.317186024076e+05  1.143086260642e+03 
3.000000000000e+00 1.328427450805e+05  1.148754231620e+03 
3.100000000000e+00 1.339724757747e+05  1.154478692278e+03 
3.200000000000e+00 1.351078503230e+05  1.160260491355e+03 
3.300000000000e+00 1.362489253992e+05  1.166100494674e+03 
3.400000000000e+00 1.373957585353e+05  1.171999585581e+03 
3.500000000000e+00 1.385484081382e+05  1.177958665387e+03 
3.600000000000e+00 1.397069335084e+05  1.183978653827e+03 
3.700000000000e+00 1.408713948577e+05  1.190060489535e+03 
3.800000000000e+00 1.420418533281e+05  1.196205130531e+03 
3.900000000000e+00 1.432183710113e+05  1.202413554723e+03 
4.000000000000e+00 1.444010109683e+05  1.208686760429e+03 
4.100000000000e+00 1.455898372495e+05  1.215025766906e+03 
4.200000000000e+00 1.467849149160e+05  1.221431614911e+03 
4.300000000000e+00 1.479863100604e+05  1.227905367263e+03 
4.400000000000e+00 1.491940898292e+05  1.234448109433e+03 
4.500000000000e+00 1.504083224451e+05  1.241060950154e+03 
4.600000000000e+00 1.516290772299e+05  1.247745022042e+03 
4.700000000000e+00 1.528564246289e+05  1.254501482246e+03 
4.800000000000e+00 1.540904362345e+05  1.261331513118e+03 
4.900000000000e+00 1.553311848120e+05  1.268236322896e+03 
5.000000000000e+00 1.565787443248e+05  1.275217146423e+03 
5.100000000000e+00 1.578331899611e+05  1.282275245881e+03 
5.200000000000e+00 1.590945981610e+05  1.289411911550e+03 
5.300000000000e+00 1.603630466446e+05  1.296628462598e+03 
5.400000000000e+00 1.616386144406e+05  1.303926247890e+03 
5.500000000000e+00 1.629213819158e+05  1.311306646831e+03 
5.600000000000e+00 1.642114308056e+05  1.318771070236e+03 
5.700000000000e+00 1.655088442454e+05  1.326320961225e+03 
5.800000000000e+00 1.668137068024e+05  1.333957796159e+03 
5.900000000000e+00 1.681261045089e+05  1.341683085596e+03 
6.000000000000e+00 1.694461248961e+05  1.349498375293e+03 
6.100000000000e+00 1.707738570297e+05  1.357405247234e+03 
6.200000000000e+00 1.721093915452e+05  1.365405320697e+03 
6.300000000000e+00 1.734528206857e+05  1.373500253361e+03 
6.400000000000e+00 1.748042383396e+05  1.381691742452e+03 
6.500000000000e+00 1.761637400805e+05  1.389981525927e+03 
6.600000000000e+00 1.775314232072e+05  1.398371383704e+03 
6.700000000000e+00 1.789073867860e+05  1.406863138939e+03 
6.800000000000e+00 1.802917316932e+05  1.415458659342e+03 
6.900000000000e+00 1.816845606603e+05  1.424159858548e+03 
7.000000000000e+00 1.830859783189e+05  1.432968697542e+03 
7.100000000000e+00 1.844960912482e+05  1.441887186124e+03 
7.200000000000e+00 1.859150080238e+05  1.450917384448e+03 
7.300000000000e+00 1.873428392679e+05  1.460061404597e+03 
7.400000000000e+00 1.887796977005e+05  1.469321412239e+03 
7.500000000000e+00 1.902256981936e+05  1.478699628335e+03 
7.600000000000e+00 1.916809578255e+05  1.488198330912e+03 
7.700000000000e+00 1.931455959385e+05  1.497819856910e+03 
7.800000000000e+00 1.946197341969e+05  1.507566604098e+03 
7.900000000000e+00 1.961034966481e+05  1.517441033069e+03 
8.000000000000e+00 1.975970097852e+05  1.527445669305e+03 
8.100000000000e+00 1.991004026114e+05  1.537583105338e+03 
8.200000000000e+00 2.006138067074e+05  1.547856002984e+03 
8.300000000000e+00 2.021373563000e+05  1.558267095675e+03 
8.400000000000e+00 2.036711883338e+05  1.568819190885e+03 
8.500000000000e+00 2.052154425451e+05  1.579515172653e+03 
8.600000000000e+00 2.067702615381e+05  1.590358004209e+03 
8.700000000000e+00 2.083357908641e+05  1.601350730717e+03 
8.800000000000e+00 2.099121791032e+05  1.612496482119e+03 
8.900000000000e+00 2.114995779490e+05  1.623798476112e+03 
9.000000000000e+00 2.130981422961e+05  1.635260021241e+03 
9.100000000000e+00 2.147080303310e+05  1.646884520132e+03 
9.200000000000e+00 2.163294036256e+05  1.658675472857e+03 
9.300000000000e+00 2.179624272351e+05  1.670636480446e+03 
9.400000000000e+00 2.196072697983e+05  1.682771248562e+03 
9.500000000000e+00 2.212641036426e+05  1.695083591317e+03 
9.600000000000e+00 2.229331048919e+05  1.707577435278e+03 
9.700000000000e+00 2.246144535793e+05  1.720256823641e+03 