 TITLE = "Profiles along polylines"
 VARIABLES = "DIST" "PRESSURE1" "DENSITY1" 
 ZONE T="TIME=0.000000000000e+00"
0.000000000000e+00 1.013250000000e+05  1.000000000000e+03 
1.000000000000e-01 1.013250000000e+05  1.000000000000e+03 
2.000000000000e-01 1.013250000000e+05  1.000000000000e+03 
3.000000000000e-01 1.013250000000e+05  1.000000000000e+03 
4.000000000000e-01 1.013250000000e+05  1.000000000000e+03 
5.000000000000e-01 1.013250000000e+05  1.000000000000e+03 
6.000000000000e-01 1.013250000000e+05  1.000000000000e+03 
7.000000000000e-01 1.013250000000e+05  1.000000000000e+03 
8.000000000000e-01 1.013250000000e+05  1.000000000000e+03 
9.000000000000e-01 1.013250000000e+05  1.000000000000e+03 
1.000000000000e+00 1.013250000000e+05  1.000000000000e+03 
1.100000000000e+00 1.013250000000e+05  1.000000000000e+03 
1.200000000000e+00 1.013250000000e+05  1.000000000000e+03 
1.300000000000e+00 1.013250000000e+05  1.000000000000e+03 
1.400000000000e+00 1.013250000000e+05  1.000000000000e+03 
1.500000000000e+00 1.013250000000e+05  1.000000000000e+03 
1.600000000000e+00 1.013250000000e+05  1.000000000000e+03 
1.700000000000e+00 1.013250000000e+05  1.000000000000e+03 
1.800000000000e+00 1.013250000000e+05  1.000000000000e+03 
1.900000000000e+00 1.013250000000e+05  1.000000000000e+03 
2.000000000000e+00 1.013250000000e+05  1.000000000000e+03 
2.100000000000e+00 1.013250000000e+05  1.000000000000e+03 
2.200000000000e+00 1.013250000000e+05  1.000000000000e+03 
2.300000000000e+00 1.013250000000e+05  1.000000000000e+03 
2.400000000000e+00 1.013250000000e+05  1.000000000000e+03 
2.500000000000e+00 1.013250000000e+05  1.000000000000e+03 
2.600000000000e+00 1.013250000000e+05  1.000000000000e+03 
2.700000000000e+00 1.013250000000e+05  1.000000000000e+03 
2.800000000000e+00 1.013250000000e+05  1.000000000000e+03 
2.900000000000e+00 1.013250000000e+05  1.000000000000e+03 
3.000000000000e+00 1.013250000000e+05  1.000000000000e+03 
3.100000000000e+00 1.013250000000e+05  1.000000000000e+03 
3.200000000000e+00 1.013250000000e+05  1.000000000000e+03 
3.300000000000e+00 1.013250000000e+05  1.000000000000e+03 
3.400000000000e+00 1.013250000000e+05  1.000000000000e+03 
3.500000000000e+00 1.013250000000e+05  1.000000000000e+03 
3.600000000000e+00 1.013250000000e+05  1.000000000000e+03 
3.700000000000e+00 1.013250000000e+05  1.000000000000e+03 
3.800000000000e+00 1.013250000000e+05  1.000000000000e+03 
3.900000000000e+00 1.013250000000e+05  1.000000000000e+03 
4.000000000000e+00 1.013250000000e+05  1.000000000000e+03 
4.100000000000e+00 1.013250000000e+05  1.000000000000e+03 
4.200000000000e+00 1.013250000000e+05  1.000000000000e+03 
4.300000000000e+00 1.013250000000e+05  1.000000000000e+03 
4.400000000000e+00 1.013250000000e+05  1.000000000000e+03 
4.500000000000e+00 1.013250000000e+05  1.000000000000e+03 
4.600000000000e+00 1.013250000000e+05  1.000000000000e+03 
4.700000000000e+00 1.013250000000e+05  1.000000000000e+03 
4.800000000000e+00 1.013250000000e+05  1.000000000000e+03 
4.900000000000e+00 1.013250000000e+05  1.000000000000e+03 
5.000000000000e+00 1.013250000000e+05  1.000000000000e+03 
5.100000000000e+00 1.013250000000e+05  1.000000000000e+03 
5.200000000000e+00 1.013250000000e+05  1.000000000000e+03 
5.300000000000e+00 1.013250000000e+05  1.000000000000e+03 
5.400000000000e+00 1.013250000000e+05  1.000000000000e+03 
5.500000000000e+00 1.013250000000e+05  1.000000000000e+03 
5.600000000000e+00 1.013250000000e+05  1.000000000000e+03 
5.700000000000e+00 1.013250000000e+05  1.000000000000e+03 
5.800000000000e+00 1.013250000000e+05  1.000000000000e+03 
5.900000000000e+00 1.013250000000e+05  1.000000000000e+03 
6.000000000000e+00 1.013250000000e+05  1.000000000000e+03 
6.100000000000e+00 1.013250000000e+05  1.000000000000e+03 
6.200000000000e+00 1.013250000000e+05  1.000000000000e+03 
6.300000000000e+00 1.013250000000e+05  1.000000000000e+03 
6.400000000000e+00 1.013250000000e+05  1.000000000000e+03 
6.500000000000e+00 1.013250000000e+05  1.000000000000e+03 
6.600000000000e+00 1.013250000000e+05  1.000000000000e+03 
6.700000000000e+00 1.013250000000e+05  1.000000000000e+03 
6.800000000000e+00 1.013250000000e+05  1.000000000000e+03 
6.900000000000e+00 1.013250000000e+05  1.000000000000e+03 
7.000000000000e+00 1.013250000000e+05  1.000000000000e+03 
7.100000000000e+00 1.013250000000e+05  1.000000000000e+03 
7.200000000000e+00 1.013250000000e+05  1.000000000000e+03 
7.300000000000e+00 1.013250000000e+05  1.000000000000e+03 
7.400000000000e+00 1.013250000000e+05  1.000000000000e+03 
7.500000000000e+00 1.013250000000e+05  1.000000000000e+03 
7.600000000000e+00 1.013250000000e+05  1.000000000000e+03 
7.700000000000e+00 1.013250000000e+05  1.000000000000e+03 
7.800000000000e+00 1.013250000000e+05  1.000000000000e+03 
7.900000000000e+00 1.013250000000e+05  1.000000000000e+03 
8.000000000000e+00 1.013250000000e+05  1.000000000000e+03 
8.100000000000e+00 1.013250000000e+05  1.000000000000e+03 
8.200000000000e+00 1.013250000000e+05  1.000000000000e+03 
8.300000000000e+00 1.013250000000e+05  1.000000000000e+03 
8.400000000000e+00 1.013250000000e+05  1.000000000000e+03 
8.500000000000e+00 1.013250000000e+05  1.000000000000e+03 
8.600000000000e+00 1.013250000000e+05  1.000000000000e+03 
8.700000000000e+00 1.013250000000e+05  1.000000000000e+03 
8.800000000000e+00 1.013250000000e+05  1.000000000000e+03 
8.900000000000e+00 1.013250000000e+05  1.000000000000e+03 
9.000000000000e+00 1.013250000000e+05  1.000000000000e+03 
9.100000000000e+00 1.013250000000e+05  1.000000000000e+03 
9.200000000000e+00 1.013250000000e+05  1.000000000000e+03 
9.300000000000e+00 1.013250000000e+05  1.000000000000e+03 
9.400000000000e+00 1.013250000000e+05  1.000000000000e+03 
9.500000000000e+00 1.013250000000e+05  1.000000000000e+03 
9.600000000000e+00 1.013250000000e+05  1.000000000000e+03 
9.700000000000e+00 1.013250000000e+05  1.000000000000e+03 
9.800000000000e+00 1.013250000000e+05  1.000000000000e+03 
9.900000000000e+00 1.013250000000e+05  1.000000000000e+03 
1.000000000000e+01 1.013250000000e+05  1.000000000000e+03 
 TITLE = "Profiles along polylines"
 VARIABLES = "DIST" "PRESSURE1" "DENSITY1" 
 ZONE T="TIME=1.000000000000e+00"
0.000000000000e+00 1.013250000000e+05  1.000000000000e+03 
1.000000000000e-01 1.022505694200e+05  1.004080809367e+03 
2.000000000000e-01 1.031804052183e+05  1.008197197504e+03 
3.000000000000e-01 1.041145541738e+05  1.012349673506e+03 
4.000000000000e-01 1.050530633690e+05  1.016538754534e+03 
5.000000000000e-01 1.059959802015e+05  1.020764966008e+03 
6.000000000000e-01 1.069433523951e+05  1.025028841802e+03 
7.000000000000e-01 1.078952280116e+05  1.029330924446e+03 
8.000000000000e-01 1.088516554624e+05  1.033671765327e+03 
9.000000000000e-01 1.098126835203e+05  1.038051924909e+03 
1.000000000000e+00 1.107783613311e+05  1.042471972937e+03 
1.100000000000e+00 1.117487384258e+05  1.046932488670e+03 
1.200000000000e+00 1.127238647328e+05  1.051434061097e+03 
1.300000000000e+00 1.137037905899e+05  1.055977289181e+03 
1.400000000000e+00 1.146885667568e+05  1.060562782088e+03 
1.500000000000e+00 1.156782444281e+05  1.065191159437e+03 
1.600000000000e+00 1.166728752452e+05  1.069863051552e+03 
1.700000000000e+00 1.176725113099e+05  1.074579099718e+03 
1.800000000000e+00 1.186772051974e+05  1.079339956447e+03 
1.900000000000e+00 1.196870099694e+05  1.084146285749e+03 
2.000000000000e+00 1.207019791876e+05  1.088998763413e+03 
2.100000000000e+00 1.217221669276e+05  1.093898077295e+03 
2.200000000000e+00 1.227476277930e+05  1.098844927609e+03 
2.300000000000e+00 1.237784169291e+05  1.103840027234e+03 
2.400000000000e+00 1.248145900376e+05  1.108884102024e+03 
2.500000000000e+00 1.258562033914e+05  1.113977891126e+03 
2.600000000000e+00 1.269033138493e+05  1.119122147314e+03 
2.700000000000e+00 1.279559788712e+05  1.124317637325e+03 
2.800000000000e+00 1.290142565341e+05  1.129565142204e+03 
2.900000000000e+00 1.300782055470e+05  1.134865457667e+03 
3.000000000000e+00 1.311478852679e+05  1.140219394469e+03 
3.100000000000e+00 1.322233557199e+05  1.145627778780e+03 
3.200000000000e+00 1.333046776075e+05  1.151091452578e+03 
3.300000000000e+00 1.343919123345e+05  1.156611274048e+03 
3.400000000000e+00 1.354851220209e+05  1.162188117999e+03 
3.500000000000e+00 1.365843695210e+05  1.167822876287e+03 
3.600000000000e+00 1.376897184413e+05  1.173516458257e+03 
3.700000000000e+00 1.388012331596e+05  1.179269791189e+03 
3.800000000000e+00 1.399189788437e+05  1.185083820769e+03 
3.900000000000e+00 1.410430214705e+05  1.190959511568e+03 
4.000000000000e+00 1.421734278469e+05  1.196897847532e+03 
4.100000000000e+00 1.433102656290e+05  1.202899832496e+03 
4.200000000000e+00 1.444536033437e+05  1.208966490708e+03 
4.300000000000e+00 1.456035104097e+05  1.215098867370e+03 
4.400000000000e+00 1.467600571593e+05  1.221298029197e+03 
4.500000000000e+00 1.479233148608e+05  1.227565064995e+03 
4.600000000000e+00 1.490933557414e+05  1.233901086252e+03 
4.700000000000e+00 1.502702530106e+05  1.240307227754e+03 
4.800000000000e+00 1.514540808842e+05  1.246784648220e+03 
4.900000000000e+00 1.526449146089e+05  1.253334530951e+03 
5.000000000000e+00 1.538428304879e+05  1.259958084508e+03 
5.100000000000e+00 1.550479059060e+05  1.266656543408e+03 
5.200000000000e+00 1.562602193570e+05  1.273431168846e+03 
5.300000000000e+00 1.574798504704e+05  1.280283249432e+03 
5.400000000000e+00 1.587068800397e+05  1.287214101970e+03 
5.500000000000e+00 1.599413900509e+05  1.294225072240e+03 
5.600000000000e+00 1.611834637119e+05  1.301317535828e+03 
5.700000000000e+00 1.624331854829e+05  1.308492898969e+03 
5.800000000000e+00 1.636906411076e+05  1.315752599427e+03 
5.900000000000e+00 1.649559176448e+05  1.323098107401e+03 
6.000000000000e+00 1.662291035016e+05  1.330530926463e+03 
6.100000000000e+00 1.675102884666e+05  1.338052594532e+03 
6.200000000000e+00 1.687995637452e+05  1.345664684873e+03 
6.300000000000e+00 1.700970219948e+05  1.353368807144e+03 
6.400000000000e+00 1.714027573616e+05  1.361166608467e+03 
6.500000000000e+00 1.727168655183e+05  1.369059774548e+03 
6.600000000000e+00 1.740394437030e+05  1.377050030826e+03 
6.700000000000e+00 1.753705907591e+05  1.385139143674e+03 
6.800000000000e+00 1.767104071761e+05  1.393328921638e+03 
6.900000000000e+00 1.780589951326e+05  1.401621216717e+03 
7.000000000000e+00 1.794164585391e+05  1.410017925700e+03 
7.100000000000e+00 1.807829030836e+05  1.418520991545e+03 
7.200000000000e+00 1.821584362774e+05  1.427132404809e+03 
7.300000000000e+00 1.835431675029e+05  1.435854205133e+03 
7.400000000000e+00 1.849372080628e+05  1.444688482786e+03 
7.500000000000e+00 1.863406712305e+05  1.453637380262e+03 
7.600000000000e+00 1.877536723028e+05  1.462703093938e+03 
7.700000000000e+00 1.891763286533e+05  1.471887875801e+03 
7.800000000000e+00 1.906087597881e+05  1.481194035235e+03 
7.900000000000e+00 1.920510874032e+05  1.490623940881e+03 
8.000000000000e+00 1.935034354436e+05  1.500180022567e+03 
8.100000000000e+00 1.949659301646e+05  1.509864773320e+03 
8.200000000000e+00 1.964387001945e+05  1.519680751447e+03 
8.300000000000e+00 1.979218766000e+05  1.529630582707e+03 
8.400000000000e+00 1.994155929534e+05  1.539716962570e+03 
8.500000000000e+00 2.009199854021e+05  1.549942658560e+03 
8.600000000000e+00 2.024351927407e+05  1.560310512704e+03 
8.700000000000e+00 2.039613564849e+05  1.570823444070e+03 
8.800000000000e+00 2.054986209485e+05  1.581484451417e+03 
8.900000000000e+00 2.070471333228e+05  1.592296615952e+03 
9.000000000000e+00 2.086070437589e+05  1.603263104205e+03 
9.100000000000e+00 2.101785054524e+05  1.614387171017e+03 
9.200000000000e+00 2.117616747319e+05  1.625672162665e+03 
9.300000000000e+00 2.133567111495e+05  1.637121520115e+03 
9.400000000000e+00 2.149637775759e+05  1.648738782412e+03 
9.500000000000e+00 2.165830402973e+05  1.660527590223e+03 
9.600000000000e+00 2.182146691173e+05  1.672491689529e+03 
9.700000000000e+00 2.198588374615e+05  1.684634935482e+03 
9.800000000000e+00 2.215157224863e+05  1.696961296432e+03 
9.900000000000e+00 2.231855051917e+05  1.709474858135e+03 
1.000000000000e+01 2.248683705385e+05  1.722179828144e+03 
 ZONE T="TIME=2.000000000000e+00"
0.000000000000e+00 1.013250000000e+05  1.000000000000e+03 
1.000000000000e-01 1.023055160136e+05  1.004323590323e+03 
2.000000000000e-01 1.032903038569e+05  1.008684833192e+03 
3.000000000000e-01 1.042794013893e+05  1.013084225179e+03 
4.000000000000e-01 1.052728469455e+05  1.017522271513e+03 
5.000000000000e-01 1.062706793442e+05  1.021999486275e+03 
6.000000000000e-01 1.072729378978e+05  1.026516392590e+03 
7.000000000000e-01 1.082796624205e+05  1.031073522835e+03 
8.000000000000e-01 1.092908932384e+05  1.035671418841e+03 
9.000000000000e-01 1.103066711992e+05  1.040310632109e+03 
1.000000000000e+00 1.113270376811e+05  1.044991724030e+03 
1.100000000000e+00 1.123520346038e+05  1.049715266105e+03 
1.200000000000e+00 1.133817044383e+05  1.054481840182e+03 
1.300000000000e+00 1.144160902172e+05  1.059292038686e+03 
1.400000000000e+00 1.154552355455e+05  1.064146464871e+03 
1.500000000000e+00 1.164991846117e+05  1.069045733064e+03 
1.600000000000e+00 1.175479821988e+05  1.073990468924e+03 
1.700000000000e+00 1.186016736957e+05  1.078981309708e+03 
1.800000000000e+00 1.196603051091e+05  1.084018904542e+03 
1.900000000000e+00 1.207239230749e+05  1.089103914701e+03 
2.000000000000e+00 1.217925748713e+05  1.094237013895e+03 
2.100000000000e+00 1.228663084305e+05  1.099418888569e+03 
2.200000000000e+00 1.239451723521e+05  1.104650238200e+03 
2.300000000000e+00 1.250292159156e+05  1.109931775619e+03 
2.400000000000e+00 1.261184890945e+05  1.115264227323e+03 
2.500000000000e+00 1.272130425694e+05  1.120648333816e+03 
2.600000000000e+00 1.283129277427e+05  1.126084849943e+03 
2.700000000000e+00 1.294181967524e+05  1.131574545244e+03 
2.800000000000e+00 1.305289024870e+05  1.137118204314e+03 
2.900000000000e+00 1.316450986011e+05  1.142716627176e+03 
3.000000000000e+00 1.327668395301e+05  1.148370629664e+03 
3.100000000000e+00 1.338941805066e+05  1.154081043815e+03 
3.200000000000e+00 1.350271775764e+05  1.159848718278e+03 
3.300000000000e+00 1.361658876154e+05  1.165674518734e+03 
3.400000000000e+00 1.373103683462e+05  1.171559328321e+03 
3.500000000000e+00 1.384606783561e+05  1.177504048085e+03 
3.600000000000e+00 1.396168771147e+05  1.183509597435e+03 
3.700000000000e+00 1.407790249924e+05  1.189576914612e+03 
3.800000000000e+00 1.419471832793e+05  1.195706957183e+03 
3.900000000000e+00 1.431214142042e+05  1.201900702537e+03 
4.000000000000e+00 1.443017809551e+05  1.208159148404e+03 
4.100000000000e+00 1.454883476990e+05  1.214483313389e+03 
4.200000000000e+00 1.466811796027e+05  1.220874237523e+03 
4.300000000000e+00 1.478803428549e+05  1.227332982830e+03 
4.400000000000e+00 1.490859046873e+05  1.233860633915e+03 
4.500000000000e+00 1.502979333981e+05  1.240458298567e+03 
4.600000000000e+00 1.515164983742e+05  1.247127108385e+03 
4.700000000000e+00 1.527416701159e+05  1.253868219424e+03 
4.800000000000e+00 1.539735202608e+05  1.260682812859e+03 
4.900000000000e+00 1.552121216090e+05  1.267572095671e+03 
5.000000000000e+00 1.564575481490e+05  1.274537301365e+03 
5.100000000000e+00 1.577098750840e+05  1.281579690694e+03 
5.200000000000e+00 1.589691788594e+05  1.288700552426e+03 
5.300000000000e+00 1.602355371906e+05  1.295901204124e+03 
5.400000000000e+00 1.615090290916e+05  1.303182992957e+03 
5.500000000000e+00 1.627897349051e+05  1.310547296538e+03 
5.600000000000e+00 1.640777363322e+05  1.317995523791e+03 
5.700000000000e+00 1.653731164642e+05  1.325529115849e+03 
5.800000000000e+00 1.666759598146e+05  1.333149546978e+03 
5.900000000000e+00 1.679863523521e+05  1.340858325537e+03 
6.000000000000e+00 1.693043815348e+05  1.348656994975e+03 
6.100000000000e+00 1.706301363451e+05  1.356547134855e+03 
6.200000000000e+00 1.719637073256e+05  1.364530361918e+03 
6.300000000000e+00 1.733051866167e+05  1.372608331187e+03 
6.400000000000e+00 1.746546679945e+05  1.380782737110e+03 
6.500000000000e+00 1.760122469099e+05  1.389055314737e+03 
6.600000000000e+00 1.773780205298e+05  1.397427840950e+03 
6.700000000000e+00 1.787520877782e+05  1.405902135733e+03 
6.800000000000e+00 1.801345493796e+05  1.414480063486e+03 
6.900000000000e+00 1.815255079033e+05  1.423163534390e+03 
7.000000000000e+00 1.829250678089e+05  1.431954505826e+03 
7.100000000000e+00 1.843333354937e+05  1.440854983840e+03 
7.200000000000e+00 1.857504193411e+05  1.449867024667e+03 
7.300000000000e+00 1.871764297707e+05  1.458992736314e+03 
7.400000000000e+00 1.886114792901e+05  1.468234280201e+03 
7.500000000000e+00 1.900556825482e+05  1.477593872862e+03 
7.600000000000e+00 1.915091563900e+05  1.487073787719e+03 
7.700000000000e+00 1.929720199138e+05  1.496676356918e+03 
7.800000000000e+00 1.944443945296e+05  1.506403973240e+03 
7.900000000000e+00 1.959264040194e+05  1.516259092082e+03 
8.000000000000e+00 1.974181746002e+05  1.526244233530e+03 
8.100000000000e+00 1.989198349884e+05  1.536361984495e+03 
8.200000000000e+00 2.004315164666e+05  1.546615000948e+03 
8.300000000000e+00 2.019533529521e+05  1.557006010245e+03 
8.400000000000e+00 2.034854810690e+05  1.567537813538e+03 
8.500000000000e+00 2.050280402212e+05  1.578213288293e+03 
8.600000000000e+00 2.065811726692e+05  1.589035390904e+03 
8.700000000000e+00 2.081450236084e+05  1.600007159426e+03 
8.800000000000e+00 2.097197412510e+05  1.611131716410e+03 
8.900000000000e+00 2.113054769106e+05  1.622412271867e+03 
9.000000000000e+00 2.129023850890e+05  1.633852126348e+03 
9.100000000000e+00 2.145106235673e+05  1.645454674166e+03 
9.200000000000e+00 2.161303534991e+05  1.657223406748e+03 
9.300000000000e+00 2.177617395081e+05  1.669161916135e+03 
9.400000000000e+00 2.194049497880e+05  1.681273898633e+03 
9.500000000000e+00 2.210601562073e+05  1.693563158628e+03 
9.600000000000e+00 2.227275344170e+05  1.706033612567e+03 
9.700000000000e+00 2.244072639630e+05  1.718689293111e+03 
9.800000000000e+00 2.260995284018e+05  1.731534353487e+03 
9.900000000000e+00 2.278045154214e+05  1.744573072023e+03 
1.000000000000e+01 2.295224169665e+05  1.757809856898e+03 
 ZONE T="TIME=3.000000000000e+00"
0.000000000000e+00 1.013250000000e+05  1.000000000000e+03 
1.000000000000e-01 1.023080104473e+05  1.004334613345e+03 
2.000000000000e-01 1.032952921832e+05  1.008706972690e+03 
3.000000000000e-01 1.042868825101e+05  1.013117573352e+03 
4.000000000000e-01 1.052828192200e+05  1.017566919343e+03 
5.000000000000e-01 1.062831406025e+05  1.022055523569e+03 
6.000000000000e-01 1.072878854546e+05  1.026583908024e+03 
7.000000000000e-01 1.082970930889e+05  1.031152603990e+03 
8.000000000000e-01 1.093108033432e+05  1.035762152251e+03 
9.000000000000e-01 1.103290565900e+05  1.040413103300e+03 
1.000000000000e+00 1.113518937458e+05  1.045106017560e+03 
1.100000000000e+00 1.123793562813e+05  1.049841465611e+03 
1.200000000000e+00 1.134114862313e+05  1.054620028419e+03 
1.300000000000e+00 1.144483262052e+05  1.059442297574e+03 
1.400000000000e+00 1.154899193972e+05  1.064308875536e+03 
1.500000000000e+00 1.165363095975e+05  1.069220375881e+03 
1.600000000000e+00 1.175875412030e+05  1.074177423565e+03 
1.700000000000e+00 1.186436592289e+05  1.079180655185e+03 
1.800000000000e+00 1.197047093200e+05  1.084230719252e+03 
1.900000000000e+00 1.207707377627e+05  1.089328276471e+03 
2.000000000000e+00 1.218417914971e+05  1.094474000030e+03 
2.100000000000e+00 1.229179181292e+05  1.099668575899e+03 
2.200000000000e+00 1.239991659439e+05  1.104912703126e+03 
2.300000000000e+00 1.250855839177e+05  1.110207094161e+03 
2.400000000000e+00 1.261772217325e+05  1.115552475171e+03 
2.500000000000e+00 1.272741297885e+05  1.120949586377e+03 
2.600000000000e+00 1.283763592186e+05  1.126399182392e+03 
2.700000000000e+00 1.294839619028e+05  1.131902032573e+03 
2.800000000000e+00 1.305969904827e+05  1.137458921386e+03 
2.900000000000e+00 1.317154983764e+05  1.143070648777e+03 
3.000000000000e+00 1.328395397939e+05  1.148738030553e+03 
3.100000000000e+00 1.339691697532e+05  1.154461898783e+03 
3.200000000000e+00 1.351044440961e+05  1.160243102199e+03 
3.300000000000e+00 1.362454195046e+05  1.166082506621e+03 
3.400000000000e+00 1.373921535187e+05  1.171980995386e+03 
3.500000000000e+00 1.385447045527e+05  1.177939469792e+03 
3.600000000000e+00 1.397031319139e+05  1.183958849563e+03 
3.700000000000e+00 1.408674958207e+05  1.190040073315e+03 
3.800000000000e+00 1.420378574211e+05  1.196184099048e+03 
3.900000000000e+00 1.432142788122e+05  1.202391904649e+03 
4.000000000000e+00 1.443968230601e+05  1.208664488410e+03 
4.100000000000e+00 1.455855542200e+05  1.215002869560e+03 
4.200000000000e+00 1.467805373568e+05  1.221408088825e+03 
4.300000000000e+00 1.479818385670e+05  1.227881208989e+03 
4.400000000000e+00 1.491895250002e+05  1.234423315486e+03 
4.500000000000e+00 1.504036648819e+05  1.241035517007e+03 
4.600000000000e+00 1.516243275364e+05  1.247718946126e+03 
4.700000000000e+00 1.528515834107e+05  1.254474759943e+03 
4.800000000000e+00 1.540855040989e+05  1.261304140759e+03 
4.900000000000e+00 1.553261623671e+05  1.268208296758e+03 
5.000000000000e+00 1.565736321794e+05  1.275188462725e+03 
5.100000000000e+00 1.578279887241e+05  1.282245900780e+03 
5.200000000000e+00 1.590893084411e+05  1.289381901137e+03 
5.300000000000e+00 1.603576690499e+05  1.296597782895e+03 
5.400000000000e+00 1.616331495779e+05  1.303894894844e+03 
5.500000000000e+00 1.629158303905e+05  1.311274616314e+03 
5.600000000000e+00 1.642057932212e+05  1.318738358035e+03 
5.700000000000e+00 1.655031212029e+05  1.326287563044e+03 
5.800000000000e+00 1.668078989001e+05  1.333923707609e+03 
5.900000000000e+00 1.681202123417e+05  1.341648302195e+03 
6.000000000000e+00 1.694401490557e+05  1.349462892457e+03 
6.100000000000e+00 1.707677981033e+05  1.357369060275e+03 
6.200000000000e+00 1.721032501160e+05  1.365368424819e+03 
6.300000000000e+00 1.734465973317e+05  1.373462643651e+03 
6.400000000000e+00 1.747979336337e+05  1.381653413879e+03 
6.500000000000e+00 1.761573545899e+05  1.389942473334e+03 
6.600000000000e+00 1.775249574930e+05  1.398331601804e+03 
6.700000000000e+00 1.789008414028e+05  1.406822622306e+03 
6.800000000000e+00 1.802851071888e+05  1.415417402409e+03 
6.900000000000e+00 1.816778575749e+05  1.424117855601e+03 
7.000000000000e+00 1.830791971851e+05  1.432925942709e+03 
7.100000000000e+00 1.844892325905e+05  1.441843673375e+03 
7.200000000000e+00 1.859080723582e+05  1.450873107581e+03 
7.300000000000e+00 1.873358271011e+05  1.460016357238e+03 
7.400000000000e+00 1.887726095301e+05  1.469275587831e+03 
7.500000000000e+00 1.902185345070e+05  1.478653020131e+03 
7.600000000000e+00 1.916737191002e+05  1.488150931968e+03 
7.700000000000e+00 1.931382826411e+05  1.497771660076e+03 
7.800000000000e+00 1.946123467828e+05  1.507517602012e+03 
7.900000000000e+00 1.960960355614e+05  1.517391218146e+03 
8.000000000000e+00 1.975894754577e+05  1.527395033730e+03 
8.100000000000e+00 1.990927954626e+05  1.537531641056e+03 
8.200000000000e+00 2.006061271438e+05  1.547803701690e+03 
8.300000000000e+00 2.021296047148e+05  1.558213948804e+03 
8.400000000000e+00 2.036633651063e+05  1.568765189605e+03 
8.500000000000e+00 2.052075480403e+05  1.579460307849e+03 
8.600000000000e+00 2.067622961063e+05  1.590302266478e+03 
8.700000000000e+00 2.083277548403e+05  1.601294110351e+03 
8.800000000000e+00 2.099040728067e+05  1.612438969097e+03 
8.900000000000e+00 2.114914016829e+05  1.623740060086e+03 
9.000000000000e+00 2.130898963467e+05  1.635200691524e+03 
9.100000000000e+00 2.146997149673e+05  1.646824265682e+03 
9.200000000000e+00 2.163210190990e+05  1.658614282267e+03 
9.300000000000e+00 2.179539737784e+05  1.670574341928e+03 
9.400000000000e+00 2.195987476257e+05  1.682708149930e+03 
9.500000000000e+00 2.212555129488e+05  1.695019519974e+03 
9.600000000000e+00 2.229244458517e+05  1.707512378198e+03 
9.700000000000e+00 2.246057263468e+05  1.720190767351e+03 
9.800000000000e+00 2.262995384717e+05  1.733058851153e+03 
9.900000000000e+00 2.280060704099e+05  1.746120918853e+03 
1.000000000000e+01 2.297255146162e+05  1.759381390001e+03 
 ZONE T="TIME=4.000000000000e+00"
0.000000000000e+00 1.013250000000e+05  1.000000000000e+03 
1.000000000000e-01 1.023081205417e+05  1.004335099860e+03 
2.000000000000e-01 1.032955123461e+05  1.008707949842e+03 
3.000000000000e-01 1.042872126900e+05  1.013119045201e+03 
4.000000000000e-01 1.052832593406e+05  1.017568889895e+03 
5.000000000000e-01 1.062836905637e+05  1.022057996772e+03 
6.000000000000e-01 1.072885451324e+05  1.026586887772e+03 
7.000000000000e-01 1.082978623367e+05  1.031156094129e+03 
8.000000000000e-01 1.093116819922e+05  1.035766156573e+03 
9.000000000000e-01 1.103300444496e+05  1.040417625551e+03 
1.000000000000e+00 1.113529906044e+05  1.045111061440e+03 
1.100000000000e+00 1.123805619072e+05  1.049847034776e+03 
1.200000000000e+00 1.134128003727e+05  1.054626126484e+03 
1.300000000000e+00 1.144497485913e+05  1.059448928113e+03 
1.400000000000e+00 1.154914497385e+05  1.064316042085e+03 
1.500000000000e+00 1.165379475865e+05  1.069228081942e+03 
1.600000000000e+00 1.175892865148e+05  1.074185672605e+03 
1.700000000000e+00 1.186455115218e+05  1.079189450639e+03 
1.800000000000e+00 1.197066682359e+05  1.084240064525e+03 
1.900000000000e+00 1.207728029278e+05  1.089338174943e+03 
2.000000000000e+00 1.218439625224e+05  1.094484455056e+03 
2.100000000000e+00 1.229201946111e+05  1.099679590807e+03 
2.200000000000e+00 1.240015474649e+05  1.104924281227e+03 
2.300000000000e+00 1.250880700466e+05  1.110219238746e+03 
2.400000000000e+00 1.261798120251e+05  1.115565189516e+03 
2.500000000000e+00 1.272768237881e+05  1.120962873742e+03 
2.600000000000e+00 1.283791564568e+05  1.126413046027e+03 
2.700000000000e+00 1.294868618996e+05  1.131916475719e+03 
2.800000000000e+00 1.305999927472e+05  1.137473947277e+03 
2.900000000000e+00 1.317186024073e+05  1.143086260641e+03 
3.000000000000e+00 1.328427450802e+05  1.148754231618e+03 
3.100000000000e+00 1.339724757743e+05  1.154478692276e+03 
3.200000000000e+00 1.351078503225e+05  1.160260491353e+03 
3.300000000000e+00 1.362489253988e+05  1.166100494672e+03 
3.400000000000e+00 1.373957585348e+05  1.171999585579e+03 
3.500000000000e+00 1.385484081377e+05  1.177958665384e+03 
3.600000000000e+00 1.397069335079e+05  1.183978653824e+03 
3.700000000000e+00 1.408713948571e+05  1.190060489532e+03 
3.800000000000e+00 1.420418533275e+05  1.196205130528e+03 
3.900000000000e+00 1.432183710106e+05  1.202413554720e+03 
4.000000000000e+00 1.444010109675e+05  1.208686760425e+03 
4.100000000000e+00 1.455898372487e+05  1.215025766902e+03 
4.200000000000e+00 1.467849149152e+05  1.221431614907e+03 
4.300000000000e+00 1.479863100596e+05  1.227905367258e+03 
4.400000000000e+00 1.491940898283e+05  1.234448109428e+03 
4.500000000000e+00 1.504083224441e+05  1.241060950148e+03 
4.600000000000e+00 1.516290772289e+05  1.247745022036e+03 
4.700000000000e+00 1.528564246277e+05  1.254501482240e+03 
4.800000000000e+00 1.540904362333e+05  1.261331513111e+03 
4.900000000000e+00 1.553311848108e+05  1.268236322889e+03 
5.000000000000e+00 1.565787443235e+05  1.275217146416e+03 
5.100000000000e+00 1.578331899597e+05  1.282275245873e+03 
5.200000000000e+00 1.590945981595e+05  1.289411911542e+03 
5.300000000000e+00 1.603630466431e+05  1.296628462589e+03 
5.400000000000e+00 1.616386144389e+05  1.303926247881e+03 
5.500000000000e+00 1.629213819141e+05  1.311306646822e+03 
5.600000000000e+00 1.642114308039e+05  1.318771070226e+03 
5.700000000000e+00 1.655088442436e+05  1.326320961215e+03 
5.800000000000e+00 1.668137068005e+05  1.333957796148e+03 
5.900000000000e+00 1.681261045069e+05  1.341683085585e+03 
6.000000000000e+00 1.694461248941e+05  1.349498375281e+03 
6.100000000000e+00 1.707738570276e+05  1.357405247221e+03 
6.200000000000e+00 1.721093915430e+05  1.365405320684e+03 
6.300000000000e+00 1.734528206835e+05  1.373500253348e+03 
6.400000000000e+00 1.748042383374e+05  1.381691742438e+03 
6.500000000000e+00 1.761637400782e+05  1.389981525913e+03 
6.600000000000e+00 1.775314232049e+05  1.398371383691e+03 
6.700000000000e+00 1.789073867837e+05  1.406863138925e+03 
6.800000000000e+00 1.802917316910e+05  1.415458659328e+03 
6.900000000000e+00 1.816845606581e+05  1.424159858534e+03 
7.000000000000e+00 1.830859783167e+05  1.432968697528e+03 
7.100000000000e+00 1.844960912461e+05  1.441887186111e+03 
7.200000000000e+00 1.859150080219e+05  1.450917384435e+03 
7.300000000000e+00 1.873428392661e+05  1.460061404585e+03 
7.400000000000e+00 1.887796976989e+05  1.469321412229e+03 
7.500000000000e+00 1.902256981922e+05  1.478699628326e+03 
7.600000000000e+00 1.916809578244e+05  1.488198330905e+03 
7.700000000000e+00 1.931455959376e+05  1.497819856904e+03 
7.800000000000e+00 1.946197341964e+05  1.507566604095e+03 
7.900000000000e+00 1.961034966480e+05  1.517441033068e+03 
8.000000000000e+00 1.975970097856e+05  1.527445669308e+03 
8.100000000000e+00 1.991004026124e+05  1.537583105345e+03 
8.200000000000e+00 2.006138067091e+05  1.547856002996e+03 
8.300000000000e+00 2.021373563025e+05  1.558267095692e+03 
8.400000000000e+00 2.036711883372e+05  1.568819190908e+03 
8.500000000000e+00 2.052154425494e+05  1.579515172683e+03 
8.600000000000e+00 2.067702615435e+05  1.590358004247e+03 
8.700000000000e+00 2.083357908708e+05  1.601350730764e+03 
8.800000000000e+00 2.099121791113e+05  1.612496482177e+03 
8.900000000000e+00 2.114995779587e+05  1.623798476182e+03 
9.000000000000e+00 2.130981423077e+05  1.635260021324e+03 
9.100000000000e+00 2.147080303445e+05  1.646884520230e+03 
9.200000000000e+00 2.163294036414e+05  1.658675472972e+03 
9.300000000000e+00 2.179624272533e+05  1.670636480580e+03 
9.400000000000e+00 2.196072698193e+05  1.682771248717e+03 
9.500000000000e+00 2.212641036666e+05  1.695083591496e+03 
9.600000000000e+00 2.229331049193e+05  1.707577435485e+03 
9.700000000000e+00 2.246144536105e+05  1.720256823877e+03 