 TITLE = "Profiles along polylines"
 VARIABLES = "DIST" "PRESSURE1" "PRESSURE2" "PRESSURE_W" "SATURATION1" SATURATION2 "VELOCITY_X1" "VELOCITY_Y1" "VELOCITY_X2" "VELOCITY_Y2" 
 ZONE T="TIME=0.000000000000e+00"
0.000000000000e+00 3.000000000000e+00 2.000030000000e+05 2.000000000000e+05 2.000000000000e-01 8.000000000000e-01 0.000000000000e+00 0.000000000000e+00 0.000000000000e+00 0.000000000000e+00 
3.050000000000e+00 3.000000000000e+00 2.000030000000e+05 2.000000000000e+05 2.000000000000e-01 8.000000000000e-01 0.000000000000e+00 0.000000000000e+00 0.000000000000e+00 0.000000000000e+00 
6.100000000000e+00 3.000000000000e+00 2.000030000000e+05 2.000000000000e+05 2.000000000000e-01 8.000000000000e-01 0.000000000000e+00 0.000000000000e+00 0.000000000000e+00 0.000000000000e+00 
9.150000000000e+00 3.000000000000e+00 2.000030000000e+05 2.000000000000e+05 2.000000000000e-01 8.000000000000e-01 0.000000000000e+00 0.000000000000e+00 0.000000000000e+00 0.000000000000e+00 
1.220000000000e+01 3.000000000000e+00 2.000030000000e+05 2.000000000000e+05 2.000000000000e-01 8.000000000000e-01 0.000000000000e+00 0.000000000000e+00 0.000000000000e+00 0.000000000000e+00 
1.525000000000e+01 3.000000000000e+00 2.000030000000e+05 2.000000000000e+05 2.000000000000e-01 8.000000000000e-01 0.000000000000e+00 0.000000000000e+00 0.000000000000e+00 0.000000000000e+00 
1.830000000000e+01 3.000000000000e+00 2.000030000000e+05 2.000000000000e+05 2.000000000000e-01 8.000000000000e-01 0.000000000000e+00 0.000000000000e+00 0.000000000000e+00 0.000000000000e+00 
2.135000000000e+01 3.000000000000e+00 2.000030000000e+05 2.000000000000e+05 2.000000000000e-01 8.000000000000e-01 0.000000000000e+00 0.000000000000e+00 0.000000000000e+00 0.000000000000e+00 
2.440000000000e+01 3.000000000000e+00 2.000030000000e+05 2.000000000000e+05 2.000000000000e-01 8.000000000000e-01 0.000000000000e+00 0.000000000000e+00 0.000000000000e+00 0.000000000000e+00 
2.745000000000e+01 3.000000000000e+00 2.000030000000e+05 2.000000000000e+05 2.000000000000e-01 8.000000000000e-01 0.000000000000e+00 0.000000000000e+00 0.000000000000e+00 0.000000000000e+00 
3.050000000000e+01 3.000000000000e+00 2.000030000000e+05 2.000000000000e+05 2.000000000000e-01 8.000000000000e-01 0.000000000000e+00 0.000000000000e+00 0.000000000000e+00 0.000000000000e+00 
3.355000000000e+01 3.000000000000e+00 2.000030000000e+05 2.000000000000e+05 2.000000000000e-01 8.000000000000e-01 0.000000000000e+00 0.000000000000e+00 0.000000000000e+00 0.000000000000e+00 
3.660000000000e+01 3.000000000000e+00 2.000030000000e+05 2.000000000000e+05 2.000000000000e-01 8.000000000000e-01 0.000000000000e+00 0.000000000000e+00 0.000000000000e+00 0.000000000000e+00 
3.965000000000e+01 3.000000000000e+00 2.000030000000e+05 2.000000000000e+05 2.000000000000e-01 8.000000000000e-01 0.000000000000e+00 0.000000000000e+00 0.000000000000e+00 0.000000000000e+00 
4.270000000000e+01 3.000000000000e+00 2.000030000000e+05 2.000000000000e+05 2.000000000000e-01 8.000000000000e-01 0.000000000000e+00 0.000000000000e+00 0.000000000000e+00 0.000000000000e+00 
4.575000000000e+01 3.000000000000e+00 2.000030000000e+05 2.000000000000e+05 2.000000000000e-01 8.000000000000e-01 0.000000000000e+00 0.000000000000e+00 0.000000000000e+00 0.000000000000e+00 
4.880000000000e+01 3.000000000000e+00 2.000030000000e+05 2.000000000000e+05 2.000000000000e-01 8.000000000000e-01 0.000000000000e+00 0.000000000000e+00 0.000000000000e+00 0.000000000000e+00 
5.185000000000e+01 3.000000000000e+00 2.000030000000e+05 2.000000000000e+05 2.000000000000e-01 8.000000000000e-01 0.000000000000e+00 0.000000000000e+00 0.000000000000e+00 0.000000000000e+00 
5.490000000000e+01 3.000000000000e+00 2.000030000000e+05 2.000000000000e+05 2.000000000000e-01 8.000000000000e-01 0.000000000000e+00 0.000000000000e+00 0.000000000000e+00 0.000000000000e+00 
5.795000000000e+01 3.000000000000e+00 2.000030000000e+05 2.000000000000e+05 2.000000000000e-01 8.000000000000e-01 0.000000000000e+00 0.000000000000e+00 0.000000000000e+00 0.000000000000e+00 
6.100000000000e+01 3.000000000000e+00 2.000030000000e+05 2.000000000000e+05 2.000000000000e-01 8.000000000000e-01 0.000000000000e+00 0.000000000000e+00 0.000000000000e+00 0.000000000000e+00 
6.405000000000e+01 3.000000000000e+00 2.000030000000e+05 2.000000000000e+05 2.000000000000e-01 8.000000000000e-01 0.000000000000e+00 0.000000000000e+00 0.000000000000e+00 0.000000000000e+00 
6.710000000000e+01 3.000000000000e+00 2.000030000000e+05 2.000000000000e+05 2.000000000000e-01 8.000000000000e-01 0.000000000000e+00 0.000000000000e+00 0.000000000000e+00 0.000000000000e+00 
7.015000000000e+01 3.000000000000e+00 2.000030000000e+05 2.000000000000e+05 2.000000000000e-01 8.000000000000e-01 0.000000000000e+00 0.000000000000e+00 0.000000000000e+00 0.000000000000e+00 
7.320000000000e+01 3.000000000000e+00 2.000030000000e+05 2.000000000000e+05 2.000000000000e-01 8.000000000000e-01 0.000000000000e+00 0.000000000000e+00 0.000000000000e+00 0.000000000000e+00 
7.625000000000e+01 3.000000000000e+00 2.000030000000e+05 2.000000000000e+05 2.000000000000e-01 8.000000000000e-01 0.000000000000e+00 0.000000000000e+00 0.000000000000e+00 0.000000000000e+00 
7.930000000000e+01 3.000000000000e+00 2.000030000000e+05 2.000000000000e+05 2.000000000000e-01 8.000000000000e-01 0.000000000000e+00 0.000000000000e+00 0.000000000000e+00 0.000000000000e+00 
8.235000000000e+01 3.000000000000e+00 2.000030000000e+05 2.000000000000e+05 2.000000000000e-01 8.000000000000e-01 0.000000000000e+00 0.000000000000e+00 0.000000000000e+00 0.000000000000e+00 
8.540000000000e+01 3.000000000000e+00 2.000030000000e+05 2.000000000000e+05 2.000000000000e-01 8.000000000000e-01 0.000000000000e+00 0.000000000000e+00 0.000000000000e+00 0.000000000000e+00 
8.845000000000e+01 3.000000000000e+00 2.000030000000e+05 2.000000000000e+05 2.000000000000e-01 8.000000000000e-01 0.000000000000e+00 0.000000000000e+00 0.000000000000e+00 0.000000000000e+00 
9.150000000000e+01 3.000000000000e+00 2.000030000000e+05 2.000000000000e+05 2.000000000000e-01 8.000000000000e-01 0.000000000000e+00 0.000000000000e+00 0.000000000000e+00 0.000000000000e+00 
9.455000000000e+01 3.000000000000e+00 2.000030000000e+05 2.000000000000e+05 2.000000000000e-01 8.000000000000e-01 0.000000000000e+00 0.000000000000e+00 0.000000000000e+00 0.000000000000e+00 
9.765000000000e+01 3.000000000000e+00 2.000030000000e+05 2.000000000000e+05 2.000000000000e-01 8.000000000000e-01 0.000000000000e+00 0.000000000000e+00 0.000000000000e+00 0.000000000000e+00 
1.006500000000e+02 3.000000000000e+00 2.000030000000e+05 2.000000000000e+05 2.000000000000e-01 8.000000000000e-01 0.000000000000e+00 0.000000000000e+00 0.000000000000e+00 0.000000000000e+00 
1.037500000000e+02 3.000000000000e+00 2.000030000000e+05 2.000000000000e+05 2.000000000000e-01 8.000000000000e-01 0.000000000000e+00 0.000000000000e+00 0.000000000000e+00 0.000000000000e+00 
1.067500000000e+02 3.000000000000e+00 2.000030000000e+05 2.000000000000e+05 2.000000000000e-01 8.000000000000e-01 0.000000000000e+00 0.000000000000e+00 0.000000000000e+00 0.000000000000e+00 
1.097500000000e+02 3.000000000000e+00 2.000030000000e+05 2.000000000000e+05 2.000000000000e-01 8.000000000000e-01 0.000000000000e+00 0.000000000000e+00 0.000000000000e+00 0.000000000000e+00 
1.128500000000e+02 3.000000000000e+00 2.000030000000e+05 2.000000000000e+05 2.000000000000e-01 8.000000000000e-01 0.000000000000e+00 0.000000000000e+00 0.000000000000e+00 0.000000000000e+00 
1.158500000000e+02 3.000000000000e+00 2.000030000000e+05 2.000000000000e+05 2.000000000000e-01 8.000000000000e-01 0.000000000000e+00 0.000000000000e+00 0.000000000000e+00 0.000000000000e+00 
1.189500000000e+02 3.000000000000e+00 2.000030000000e+05 2.000000000000e+05 2.000000000000e-01 8.000000000000e-01 0.000000000000e+00 0.000000000000e+00 0.000000000000e+00 0.000000000000e+00 
1.219500000000e+02 3.000000000000e+00 2.000030000000e+05 2.000000000000e+05 2.000000000000e-01 8.000000000000e-01 0.000000000000e+00 0.000000000000e+00 0.000000000000e+00 0.000000000000e+00 
1.250500000000e+02 3.000000000000e+00 2.000030000000e+05 2.000000000000e+05 2.000000000000e-01 8.000000000000e-01 0.000000000000e+00 0.000000000000e+00 0.000000000000e+00 0.000000000000e+00 
1.280500000000e+02 3.000000000000e+00 2.000030000000e+05 2.000000000000e+05 2.000000000000e-01 8.000000000000e-01 0.000000000000e+00 0.000000000000e+00 0.000000000000e+00 0.000000000000e+00 
1.311500000000e+02 3.000000000000e+00 2.000030000000e+05 2.000000000000e+05 2.000000000000e-01 8.000000000000e-01 0.000000000000e+00 0.000000000000e+00 0.000000000000e+00 0.000000000000e+00 
1.342500000000e+02 3.000000000000e+00 2.000030000000e+05 2.000000000000e+05 2.000000000000e-01 8.000000000000e-01 0.000000000000e+00 0.000000000000e+00 0.000000000000e+00 0.000000000000e+00 
1.372500000000e+02 3.000000000000e+00 2.000030000000e+05 2.000000000000e+05 2.000000000000e-01 8.000000000000e-01 0.000000000000e+00 0.000000000000e+00 0.000000000000e+00 0.000000000000e+00 
1.402500000000e+02 3.000000000000e+00 2.000030000000e+05 2.000000000000e+05 2.000000000000e-01 8.000000000000e-01 0.000000000000e+00 0.000000000000e+00 0.000000000000e+00 0.000000000000e+00 
1.433500000000e+02 3.000000000000e+00 2.000030000000e+05 2.000000000000e+05 2.000000000000e-01 8.000000000000e-01 0.000000000000e+00 0.000000000000e+00 0.000000000000e+00 0.000000000000e+00 
1.463500000000e+02 3.000000000000e+00 2.000030000000e+05 2.000000000000e+05 2.000000000000e-01 8.000000000000e-01 0.000000000000e+00 0.000000000000e+00 0.000000000000e+00 0.000000000000e+00 
1.494500000000e+02 3.000000000000e+00 2.000030000000e+05 2.000000000000e+05 2.000000000000e-01 8.000000000000e-01 0.000000000000e+00 0.000000000000e+00 0.000000000000e+00 0.000000000000e+00 
1.525500000000e+02 3.000000000000e+00 2.000030000000e+05 2.000000000000e+05 2.000000000000e-01 8.000000000000e-01 0.000000000000e+00 0.000000000000e+00 0.000000000000e+00 0.000000000000e+00 
1.555500000000e+02 3.000000000000e+00 2.000030000000e+05 2.000000000000e+05 2.000000000000e-01 8.000000000000e-01 0.000000000000e+00 0.000000000000e+00 0.000000000000e+00 0.000000000000e+00 
1.585500000000e+02 3.000000000000e+00 2.000030000000e+05 2.000000000000e+05 2.000000000000e-01 8.000000000000e-01 0.000000000000e+00 0.000000000000e+00 0.000000000000e+00 0.000000000000e+00 
1.616500000000e+02 3.000000000000e+00 2.000030000000e+05 2.000000000000e+05 2.000000000000e-01 8.000000000000e-01 0.000000000000e+00 0.000000000000e+00 0.000000000000e+00 0.000000000000e+00 
1.647500000000e+02 3.000000000000e+00 2.000030000000e+05 2.000000000000e+05 2.000000000000e-01 8.000000000000e-01 0.000000000000e+00 0.000000000000e+00 0.000000000000e+00 0.000000000000e+00 
1.677500000000e+02 3.000000000000e+00 2.000030000000e+05 2.000000000000e+05 2.000000000000e-01 8.000000000000e-01 0.000000000000e+00 0.000000000000e+00 0.000000000000e+00 0.000000000000e+00 
1.707500000000e+02 3.000000000000e+00 2.000030000000e+05 2.000000000000e+05 2.000000000000e-01 8.000000000000e-01 0.000000000000e+00 0.000000000000e+00 0.000000000000e+00 0.000000000000e+00 
1.738500000000e+02 3.000000000000e+00 2.000030000000e+05 2.000000000000e+05 2.000000000000e-01 8.000000000000e-01 0.000000000000e+00 0.000000000000e+00 0.000000000000e+00 0.000000000000e+00 
1.768500000000e+02 3.000000000000e+00 2.000030000000e+05 2.000000000000e+05 2.000000000000e-01 8.000000000000e-01 0.000000000000e+00 0.000000000000e+00 0.000000000000e+00 0.000000000000e+00 
1.799500000000e+02 3.000000000000e+00 2.000030000000e+05 2.000000000000e+05 2.000000000000e-01 8.000000000000e-01 0.000000000000e+00 0.000000000000e+00 0.000000000000e+00 0.000000000000e+00 
1.830500000000e+02 3.000000000000e+00 2.000030000000e+05 2.000000000000e+05 2.000000000000e-01 8.000000000000e-01 0.000000000000e+00 0.000000000000e+00 0.000000000000e+00 0.000000000000e+00 
1.860500000000e+02 3.000000000000e+00 2.000030000000e+05 2.000000000000e+05 2.000000000000e-01 8.000000000000e-01 0.000000000000e+00 0.000000000000e+00 0.000000000000e+00 0.000000000000e+00 
1.890500000000e+02 3.000000000000e+00 2.000030000000e+05 2.000000000000e+05 2.000000000000e-01 8.000000000000e-01 0.000000000000e+00 0.000000000000e+00 0.000000000000e+00 0.000000000000e+00 
1.921500000000e+02 3.000000000000e+00 2.000030000000e+05 2.000000000000e+05 2.000000000000e-01 8.000000000000e-01 0.000000000000e+00 0.000000000000e+00 0.000000000000e+00 0.000000000000e+00 
1.952500000000e+02 3.000000000000e+00 2.000030000000e+05 2.000000000000e+05 2.000000000000e-01 8.000000000000e-01 0.000000000000e+00 0.000000000000e+00 0.000000000000e+00 0.000000000000e+00 
1.982500000000e+02 3.000000000000e+00 2.000030000000e+05 2.000000000000e+05 2.000000000000e-01 8.000000000000e-01 0.000000000000e+00 0.000000000000e+00 0.000000000000e+00 0.000000000000e+00 
2.012500000000e+02 3.000000000000e+00 2.000030000000e+05 2.000000000000e+05 2.000000000000e-01 8.000000000000e-01 0.000000000000e+00 0.000000000000e+00 0.000000000000e+00 0.000000000000e+00 
2.043500000000e+02 3.000000000000e+00 2.000030000000e+05 2.000000000000e+05 2.000000000000e-01 8.000000000000e-01 0.000000000000e+00 0.000000000000e+00 0.000000000000e+00 0.000000000000e+00 
2.073500000000e+02 3.000000000000e+00 2.000030000000e+05 2.000000000000e+05 2.000000000000e-01 8.000000000000e-01 0.000000000000e+00 0.000000000000e+00 0.000000000000e+00 0.000000000000e+00 
2.104500000000e+02 3.000000000000e+00 2.000030000000e+05 2.000000000000e+05 2.000000000000e-01 8.000000000000e-01 0.000000000000e+00 0.000000000000e+00 0.000000000000e+00 0.000000000000e+00 
2.135500000000e+02 3.000000000000e+00 2.000030000000e+05 2.000000000000e+05 2.000000000000e-01 8.000000000000e-01 0.000000000000e+00 0.000000000000e+00 0.000000000000e+00 0.000000000000e+00 
2.165500000000e+02 3.000000000000e+00 2.000030000000e+05 2.000000000000e+05 2.000000000000e-01 8.000000000000e-01 0.000000000000e+00 0.000000000000e+00 0.000000000000e+00 0.000000000000e+00 
2.195500000000e+02 3.000000000000e+00 2.000030000000e+05 2.000000000000e+05 2.000000000000e-01 8.000000000000e-01 0.000000000000e+00 0.000000000000e+00 0.000000000000e+00 0.000000000000e+00 
2.226500000000e+02 3.000000000000e+00 2.000030000000e+05 2.000000000000e+05 2.000000000000e-01 8.000000000000e-01 0.000000000000e+00 0.000000000000e+00 0.000000000000e+00 0.000000000000e+00 
2.257500000000e+02 3.000000000000e+00 2.000030000000e+05 2.000000000000e+05 2.000000000000e-01 8.000000000000e-01 0.000000000000e+00 0.000000000000e+00 0.000000000000e+00 0.000000000000e+00 
2.287500000000e+02 3.000000000000e+00 2.000030000000e+05 2.000000000000e+05 2.000000000000e-01 8.000000000000e-01 0.000000000000e+00 0.000000000000e+00 0.000000000000e+00 0.000000000000e+00 
2.317500000000e+02 3.000000000000e+00 2.000030000000e+05 2.000000000000e+05 2.000000000000e-01 8.000000000000e-01 0.000000000000e+00 0.000000000000e+00 0.000000000000e+00 0.000000000000e+00 
2.348500000000e+02 3.000000000000e+00 2.000030000000e+05 2.000000000000e+05 2.000000000000e-01 8.000000000000e-01 0.000000000000e+00 0.000000000000e+00 0.000000000000e+00 0.000000000000e+00 
2.378500000000e+02 3.000000000000e+00 2.000030000000e+05 2.000000000000e+05 2.000000000000e-01 8.000000000000e-01 0.000000000000e+00 0.000000000000e+00 0.000000000000e+00 0.000000000000e+00 
2.409500000000e+02 3.000000000000e+00 2.000030000000e+05 2.000000000000e+05 2.000000000000e-01 8.000000000000e-01 0.000000000000e+00 0.000000000000e+00 0.000000000000e+00 0.000000000000e+00 
2.440500000000e+02 3.000000000000e+00 2.000030000000e+05 2.000000000000e+05 2.000000000000e-01 8.000000000000e-01 0.000000000000e+00 0.000000000000e+00 0.000000000000e+00 0.000000000000e+00 
2.470500000000e+02 3.000000000000e+00 2.000030000000e+05 2.000000000000e+05 2.000000000000e-01 8.000000000000e-01 0.000000000000e+00 0.000000000000e+00 0.000000000000e+00 0.000000000000e+00 
2.500500000000e+02 3.000000000000e+00 2.000030000000e+05 2.000000000000e+05 2.000000000000e-01 8.000000000000e-01 0.000000000000e+00 0.000000000000e+00 0.000000000000e+00 0.000000000000e+00 
2.531500000000e+02 3.000000000000e+00 2.000030000000e+05 2.000000000000e+05 2.000000000000e-01 8.000000000000e-01 0.000000000000e+00 0.000000000000e+00 0.000000000000e+00 0.000000000000e+00 
2.562500000000e+02 3.000000000000e+00 2.000030000000e+05 2.000000000000e+05 2.000000000000e-01 8.000000000000e-01 0.000000000000e+00 0.000000000000e+00 0.000000000000e+00 0.000000000000e+00 
2.592500000000e+02 3.000000000000e+00 2.000030000000e+05 2.000000000000e+05 2.000000000000e-01 8.000000000000e-01 0.000000000000e+00 0.000000000000e+00 0.000000000000e+00 0.000000000000e+00 
2.623500000000e+02 3.000000000000e+00 2.000030000000e+05 2.000000000000e+05 2.000000000000e-01 8.000000000000e-01 0.000000000000e+00 0.000000000000e+00 0.000000000000e+00 0.000000000000e+00 
2.653500000000e+02 3.000000000000e+00 2.000030000000e+05 2.000000000000e+05 2.000000000000e-01 8.000000000000e-01 0.000000000000e+00 0.000000000000e+00 0.000000000000e+00 0.000000000000e+00 
2.683500000000e+02 3.000000000000e+00 2.000030000000e+05 2.000000000000e+05 2.000000000000e-01 8.000000000000e-01 0.000000000000e+00 0.000000000000e+00 0.000000000000e+00 0.000000000000e+00 
2.714500000000e+02 3.000000000000e+00 2.000030000000e+05 2.000000000000e+05 2.000000000000e-01 8.000000000000e-01 0.000000000000e+00 0.000000000000e+00 0.000000000000e+00 0.000000000000e+00 
2.744500000000e+02 3.000000000000e+00 2.000030000000e+05 2.000000000000e+05 2.000000000000e-01 8.000000000000e-01 0.000000000000e+00 0.000000000000e+00 0.000000000000e+00 0.000000000000e+00 
2.775500000000e+02 3.000000000000e+00 2.000030000000e+05 2.000000000000e+05 2.000000000000e-01 8.000000000000e-01 0.000000000000e+00 0.000000000000e+00 0.000000000000e+00 0.000000000000e+00 
2.805500000000e+02 3.000000000000e+00 2.000030000000e+05 2.000000000000e+05 2.000000000000e-01 8.000000000000e-01 0.000000000000e+00 0.000000000000e+00 0.000000000000e+00 0.000000000000e+00 
2.836500000000e+02 3.000000000000e+00 2.000030000000e+05 2.000000000000e+05 2.000000000000e-01 8.000000000000e-01 0.000000000000e+00 0.000000000000e+00 0.000000000000e+00 0.000000000000e+00 
2.867500000000e+02 3.000000000000e+00 2.000030000000e+05 2.000000000000e+05 2.000000000000e-01 8.000000000000e-01 0.000000000000e+00 0.000000000000e+00 0.000000000000e+00 0.000000000000e+00 
2.897500000000e+02 3.000000000000e+00 2.000030000000e+05 2.000000000000e+05 2.000000000000e-01 8.000000000000e-01 0.000000000000e+00 0.000000000000e+00 0.000000000000e+00 0.000000000000e+00 
2.928500000000e+02 3.000000000000e+00 2.000030000000e+05 2.000000000000e+05 2.000000000000e-01 8.000000000000e-01 0.000000000000e+00 0.000000000000e+00 0.000000000000e+00 0.000000000000e+00 
2.958500000000e+02 3.000000000000e+00 2.000030000000e+05 2.000000000000e+05 2.000000000000e-01 8.000000000000e-01 0.000000000000e+00 0.000000000000e+00 0.000000000000e+00 0.000000000000e+00 
2.988500000000e+02 3.000000000000e+00 2.000030000000e+05 2.000000000000e+05 2.000000000000e-01 8.000000000000e-01 0.000000000000e+00 0.000000000000e+00 0.000000000000e+00 0.000000000000e+00 
3.019500000000e+02 3.000000000000e+00 2.000030000000e+05 2.000000000000e+05 2.000000000000e-01 8.000000000000e-01 0.000000000000e+00 0.000000000000e+00 0.000000000000e+00 0.000000000000e+00 
 TITLE = "Profiles along polylines"
 VARIABLES = "DIST" "PRESSURE1" "PRESSURE2" "PRESSURE_W" "SATURATION1" SATURATION2 "VELOCITY_X1" "VELOCITY_Y1" "VELOCITY_X2" "VELOCITY_Y2" 
 ZONE T="TIME=1.000000000000e+00"
0.000000000000e+00 2.307692310000e-01 2.000002307692e+05 2.000000000000e+05 5.566363422848e-01 4.433636577152e-01 2.803302133249e-02 0.000000000000e+00 -3.069159057158e-01 0.000000000000e+00 
3.050000000000e+00 1.393805190294e+00 2.000013066129e+05 1.999999128078e+05 4.259135746352e-01 5.740864253648e-01 1.246427499342e-02 0.000000000000e+00 -2.330664918983e-01 0.000000000000e+00 
6.100000000000e+00 2.623062781086e+00 2.000013886635e+05 1.999987656007e+05 2.498663000252e-01 7.501336999748e-01 -1.553770605967e-03 0.000000000000e+00 -7.964763828731e-02 0.000000000000e+00 
9.150000000000e+00 2.999948149338e+00 2.000013886915e+05 1.999983887434e+05 2.022712081941e-01 7.977287918059e-01 -1.534933068063e-06 0.000000000000e+00 -3.909710948431e-05 0.000000000000e+00 
1.220000000000e+01 3.000000000000e+00 2.000013886915e+05 1.999983886915e+05 2.000003116617e-01 7.999996883383e-01 7.344527402893e-14 0.000000000000e+00 4.337630450331e-09 0.000000000000e+00 
1.525000000000e+01 3.000000000000e+00 2.000013886915e+05 1.999983886915e+05 2.000000000000e-01 8.000000000000e-01 4.337634891272e-18 0.000000000000e+00 4.337634891272e-09 0.000000000000e+00 
1.830000000000e+01 3.000000000000e+00 2.000013886915e+05 1.999983886915e+05 2.000000000000e-01 8.000000000000e-01 4.149042069912e-18 0.000000000000e+00 4.149042069912e-09 0.000000000000e+00 
2.135000000000e+01 3.000000000000e+00 2.000013886915e+05 1.999983886915e+05 2.000000000000e-01 8.000000000000e-01 3.960449248552e-18 0.000000000000e+00 3.960449248552e-09 0.000000000000e+00 
2.440000000000e+01 3.000000000000e+00 2.000013886915e+05 1.999983886915e+05 2.000000000000e-01 8.000000000000e-01 3.897584974766e-18 0.000000000000e+00 3.897584974766e-09 0.000000000000e+00 
2.745000000000e+01 3.000000000000e+00 2.000013886915e+05 1.999983886915e+05 2.000000000000e-01 8.000000000000e-01 3.834720700979e-18 0.000000000000e+00 3.834720700979e-09 0.000000000000e+00 
3.050000000000e+01 3.000000000000e+00 2.000013886915e+05 1.999983886915e+05 2.000000000000e-01 8.000000000000e-01 3.583263605833e-18 0.000000000000e+00 3.583263605833e-09 0.000000000000e+00 
3.355000000000e+01 3.000000000000e+00 2.000013886915e+05 1.999983886915e+05 2.000000000000e-01 8.000000000000e-01 3.394670784473e-18 0.000000000000e+00 3.394670784473e-09 0.000000000000e+00 
3.660000000000e+01 3.000000000000e+00 2.000013886915e+05 1.999983886915e+05 2.000000000000e-01 8.000000000000e-01 3.331806510687e-18 0.000000000000e+00 3.331806510687e-09 0.000000000000e+00 
3.965000000000e+01 3.000000000000e+00 2.000013886915e+05 1.999983886915e+05 2.000000000000e-01 8.000000000000e-01 3.143213689327e-18 0.000000000000e+00 3.143213689327e-09 0.000000000000e+00 
4.270000000000e+01 3.000000000000e+00 2.000013886915e+05 1.999983886915e+05 2.000000000000e-01 8.000000000000e-01 2.954620867968e-18 0.000000000000e+00 2.954620867968e-09 0.000000000000e+00 
4.575000000000e+01 3.000000000000e+00 2.000013886915e+05 1.999983886915e+05 2.000000000000e-01 8.000000000000e-01 2.891756594181e-18 0.000000000000e+00 2.891756594181e-09 0.000000000000e+00 
4.880000000000e+01 3.000000000000e+00 2.000013886915e+05 1.999983886915e+05 2.000000000000e-01 8.000000000000e-01 2.891756594181e-18 0.000000000000e+00 2.891756594181e-09 0.000000000000e+00 
5.185000000000e+01 3.000000000000e+00 2.000013886915e+05 1.999983886915e+05 2.000000000000e-01 8.000000000000e-01 2.828892320395e-18 0.000000000000e+00 2.828892320395e-09 0.000000000000e+00 
5.490000000000e+01 3.000000000000e+00 2.000013886915e+05 1.999983886915e+05 2.000000000000e-01 8.000000000000e-01 2.703163772821e-18 0.000000000000e+00 2.703163772821e-09 0.000000000000e+00 
5.795000000000e+01 3.000000000000e+00 2.000013886915e+05 1.999983886915e+05 2.000000000000e-01 8.000000000000e-01 2.703163772821e-18 0.000000000000e+00 2.703163772821e-09 0.000000000000e+00 
6.100000000000e+01 3.000000000000e+00 2.000013886915e+05 1.999983886915e+05 2.000000000000e-01 8.000000000000e-01 2.766028046608e-18 0.000000000000e+00 2.766028046608e-09 0.000000000000e+00 
6.405000000000e+01 3.000000000000e+00 2.000013886915e+05 1.999983886915e+05 2.000000000000e-01 8.000000000000e-01 2.640299499035e-18 0.000000000000e+00 2.640299499035e-09 0.000000000000e+00 
6.710000000000e+01 3.000000000000e+00 2.000013886915e+05 1.999983886915e+05 2.000000000000e-01 8.000000000000e-01 2.514570951462e-18 0.000000000000e+00 2.514570951462e-09 0.000000000000e+00 
7.015000000000e+01 3.000000000000e+00 2.000013886915e+05 1.999983886915e+05 2.000000000000e-01 8.000000000000e-01 2.514570951462e-18 0.000000000000e+00 2.514570951462e-09 0.000000000000e+00 
7.320000000000e+01 3.000000000000e+00 2.000013886915e+05 1.999983886915e+05 2.000000000000e-01 8.000000000000e-01 2.514570951462e-18 0.000000000000e+00 2.514570951462e-09 0.000000000000e+00 
7.625000000000e+01 3.000000000000e+00 2.000013886915e+05 1.999983886915e+05 2.000000000000e-01 8.000000000000e-01 2.388842403889e-18 0.000000000000e+00 2.388842403889e-09 0.000000000000e+00 
7.930000000000e+01 3.000000000000e+00 2.000013886915e+05 1.999983886915e+05 2.000000000000e-01 8.000000000000e-01 2.200249582529e-18 0.000000000000e+00 2.200249582529e-09 0.000000000000e+00 
8.235000000000e+01 3.000000000000e+00 2.000013886915e+05 1.999983886915e+05 2.000000000000e-01 8.000000000000e-01 2.137385308743e-18 0.000000000000e+00 2.137385308743e-09 0.000000000000e+00 
8.540000000000e+01 3.000000000000e+00 2.000013886915e+05 1.999983886915e+05 2.000000000000e-01 8.000000000000e-01 2.200249582529e-18 0.000000000000e+00 2.200249582529e-09 0.000000000000e+00 
8.845000000000e+01 3.000000000000e+00 2.000013886915e+05 1.999983886915e+05 2.000000000000e-01 8.000000000000e-01 2.200249582529e-18 0.000000000000e+00 2.200249582529e-09 0.000000000000e+00 
9.150000000000e+01 3.000000000000e+00 2.000013886915e+05 1.999983886915e+05 2.000000000000e-01 8.000000000000e-01 2.074521034956e-18 0.000000000000e+00 2.074521034956e-09 0.000000000000e+00 
9.455000000000e+01 3.000000000000e+00 2.000013886915e+05 1.999983886915e+05 2.000000000000e-01 8.000000000000e-01 1.980224624276e-18 0.000000000000e+00 1.980224624276e-09 0.000000000000e+00 
9.765000000000e+01 3.000000000000e+00 2.000013886915e+05 1.999983886915e+05 2.000000000000e-01 8.000000000000e-01 1.791631802917e-18 0.000000000000e+00 1.791631802917e-09 0.000000000000e+00 
1.006500000000e+02 3.000000000000e+00 2.000013886915e+05 1.999983886915e+05 2.000000000000e-01 8.000000000000e-01 1.634471118450e-18 0.000000000000e+00 1.634471118450e-09 0.000000000000e+00 
1.037500000000e+02 3.000000000000e+00 2.000013886915e+05 1.999983886915e+05 2.000000000000e-01 8.000000000000e-01 1.508742570877e-18 0.000000000000e+00 1.508742570877e-09 0.000000000000e+00 
1.067500000000e+02 3.000000000000e+00 2.000013886915e+05 1.999983886915e+05 2.000000000000e-01 8.000000000000e-01 1.508742570877e-18 0.000000000000e+00 1.508742570877e-09 0.000000000000e+00 
1.097500000000e+02 3.000000000000e+00 2.000013886915e+05 1.999983886915e+05 2.000000000000e-01 8.000000000000e-01 1.540174707770e-18 0.000000000000e+00 1.540174707770e-09 0.000000000000e+00 
1.128500000000e+02 3.000000000000e+00 2.000013886915e+05 1.999983886915e+05 2.000000000000e-01 8.000000000000e-01 1.414446160197e-18 0.000000000000e+00 1.414446160197e-09 0.000000000000e+00 
1.158500000000e+02 3.000000000000e+00 2.000013886915e+05 1.999983886915e+05 2.000000000000e-01 8.000000000000e-01 1.414446160197e-18 0.000000000000e+00 1.414446160197e-09 0.000000000000e+00 
1.189500000000e+02 3.000000000000e+00 2.000013886915e+05 1.999983886915e+05 2.000000000000e-01 8.000000000000e-01 1.414446160197e-18 0.000000000000e+00 1.414446160197e-09 0.000000000000e+00 
1.219500000000e+02 3.000000000000e+00 2.000013886915e+05 1.999983886915e+05 2.000000000000e-01 8.000000000000e-01 1.288717612624e-18 0.000000000000e+00 1.288717612624e-09 0.000000000000e+00 
1.250500000000e+02 3.000000000000e+00 2.000013886915e+05 1.999983886915e+05 2.000000000000e-01 8.000000000000e-01 1.162989065051e-18 0.000000000000e+00 1.162989065051e-09 0.000000000000e+00 
1.280500000000e+02 3.000000000000e+00 2.000013886915e+05 1.999983886915e+05 2.000000000000e-01 8.000000000000e-01 1.068692654371e-18 0.000000000000e+00 1.068692654371e-09 0.000000000000e+00 
1.311500000000e+02 3.000000000000e+00 2.000013886915e+05 1.999983886915e+05 2.000000000000e-01 8.000000000000e-01 1.131556928158e-18 0.000000000000e+00 1.100124791265e-09 0.000000000000e+00 
1.342500000000e+02 3.000000000000e+00 2.000013886915e+05 1.999983886915e+05 2.000000000000e-01 8.000000000000e-01 1.257285475731e-18 0.000000000000e+00 1.225853338838e-09 0.000000000000e+00 
1.372500000000e+02 3.000000000000e+00 2.000013886915e+05 1.999983886915e+05 2.000000000000e-01 8.000000000000e-01 1.320149749517e-18 0.000000000000e+00 1.320149749517e-09 0.000000000000e+00 
1.402500000000e+02 3.000000000000e+00 2.000013886915e+05 1.999983886915e+05 2.000000000000e-01 8.000000000000e-01 1.225853338838e-18 0.000000000000e+00 1.225853338838e-09 0.000000000000e+00 
1.433500000000e+02 3.000000000000e+00 2.000013886915e+05 1.999983886915e+05 2.000000000000e-01 8.000000000000e-01 1.037260517478e-18 0.000000000000e+00 1.037260517478e-09 0.000000000000e+00 
1.463500000000e+02 3.000000000000e+00 2.000013886915e+05 1.999983886915e+05 2.000000000000e-01 8.000000000000e-01 9.743962436914e-19 0.000000000000e+00 9.743962436914e-10 0.000000000000e+00 
1.494500000000e+02 3.000000000000e+00 2.000013886915e+05 1.999983886915e+05 2.000000000000e-01 8.000000000000e-01 1.005828380585e-18 0.000000000000e+00 1.005828380585e-09 0.000000000000e+00 
1.525500000000e+02 3.000000000000e+00 2.000013886915e+05 1.999983886915e+05 2.000000000000e-01 8.000000000000e-01 1.037260517478e-18 0.000000000000e+00 1.037260517478e-09 0.000000000000e+00 
1.555500000000e+02 3.000000000000e+00 2.000013886915e+05 1.999983886915e+05 2.000000000000e-01 8.000000000000e-01 1.131556928158e-18 0.000000000000e+00 1.131556928158e-09 0.000000000000e+00 
1.585500000000e+02 3.000000000000e+00 2.000013886915e+05 1.999983886915e+05 2.000000000000e-01 8.000000000000e-01 1.225853338838e-18 0.000000000000e+00 1.225853338838e-09 0.000000000000e+00 
1.616500000000e+02 3.000000000000e+00 2.000013886915e+05 1.999983886915e+05 2.000000000000e-01 8.000000000000e-01 1.320149749517e-18 0.000000000000e+00 1.351581886411e-09 0.000000000000e+00 