 TITLE = "Profiles along polylines"
 VARIABLES = "DIST" "HEAD" "TRACER" "TEMPERATURE1" 
 ZONE T="TIME=0.000000000000e+00"
0.000000000000e+00 1.000000000000e+00 1.000000000000e-10 2.831500000000e+02 
5.000000000000e-04 1.000000000000e+00 1.000000000000e-10 2.831500000000e+02 
1.000000000000e-03 1.000000000000e+00 1.000000000000e-10 2.831500000000e+02 
1.500000000000e-03 1.000000000000e+00 1.000000000000e-10 2.831500000000e+02 
2.000000000000e-03 1.000000000000e+00 1.000000000000e-10 2.831500000000e+02 
2.500000000000e-03 1.000000000000e+00 1.000000000000e-10 2.831500000000e+02 
3.000000000000e-03 1.000000000000e+00 1.000000000000e-10 2.831500000000e+02 
3.500000000000e-03 1.000000000000e+00 1.000000000000e-10 2.831500000000e+02 
4.000000000000e-03 1.000000000000e+00 1.000000000000e-10 2.831500000000e+02 
4.500000000000e-03 1.000000000000e+00 1.000000000000e-10 2.831500000000e+02 
5.000000000000e-03 1.000000000000e+00 1.000000000000e-10 2.831500000000e+02 
5.500000000000e-03 1.000000000000e+00 1.000000000000e-10 2.831500000000e+02 
6.000000000000e-03 1.000000000000e+00 1.000000000000e-10 2.831500000000e+02 
6.500000000000e-03 1.000000000000e+00 1.000000000000e-10 2.831500000000e+02 
7.000000000000e-03 1.000000000000e+00 1.000000000000e-10 2.831500000000e+02 
7.500000000000e-03 1.000000000000e+00 1.000000000000e-10 2.831500000000e+02 
8.000000000000e-03 1.000000000000e+00 1.000000000000e-10 2.831500000000e+02 
8.500000000000e-03 1.000000000000e+00 1.000000000000e-10 2.831500000000e+02 
9.000000000000e-03 1.000000000000e+00 1.000000000000e-10 2.831500000000e+02 
9.500000000000e-03 1.000000000000e+00 1.000000000000e-10 2.831500000000e+02 
1.000000000000e-02 1.000000000000e+00 1.000000000000e-10 2.831500000000e+02 
1.050000000000e-02 1.000000000000e+00 1.000000000000e-10 2.831500000000e+02 
1.100000000000e-02 1.000000000000e+00 1.000000000000e-10 2.831500000000e+02 
1.150000000000e-02 1.000000000000e+00 1.000000000000e-10 2.831500000000e+02 
1.200000000000e-02 1.000000000000e+00 1.000000000000e-10 2.831500000000e+02 
1.250000000000e-02 1.000000000000e+00 1.000000000000e-10 2.831500000000e+02 
1.300000000000e-02 1.000000000000e+00 1.000000000000e-10 2.831500000000e+02 
1.350000000000e-02 1.000000000000e+00 1.000000000000e-10 2.831500000000e+02 
1.400000000000e-02 1.000000000000e+00 1.000000000000e-10 2.831500000000e+02 
1.450000000000e-02 1.000000000000e+00 1.000000000000e-10 2.831500000000e+02 
1.500000000000e-02 1.000000000000e+00 1.000000000000e-10 2.831500000000e+02 
1.550000000000e-02 1.000000000000e+00 1.000000000000e-10 2.831500000000e+02 
1.600000000000e-02 1.000000000000e+00 1.000000000000e-10 2.831500000000e+02 
1.650000000000e-02 1.000000000000e+00 1.000000000000e-10 2.831500000000e+02 
1.700000000000e-02 1.000000000000e+00 1.000000000000e-10 2.831500000000e+02 
1.750000000000e-02 1.000000000000e+00 1.000000000000e-10 2.831500000000e+02 
1.800000000000e-02 1.000000000000e+00 1.000000000000e-10 2.831500000000e+02 
1.850000000000e-02 1.000000000000e+00 1.000000000000e-10 2.831500000000e+02 
1.900000000000e-02 1.000000000000e+00 1.000000000000e-10 2.831500000000e+02 
1.950000000000e-02 1.000000000000e+00 1.000000000000e-10 2.831500000000e+02 
2.000000000000e-02 1.000000000000e+00 1.000000000000e-10 2.831500000000e+02 
2.050000000000e-02 1.000000000000e+00 1.000000000000e-10 2.831500000000e+02 
2.100000000000e-02 1.000000000000e+00 1.000000000000e-10 2.831500000000e+02 
2.150000000000e-02 1.000000000000e+00 1.000000000000e-10 2.831500000000e+02 
2.200000000000e-02 1.000000000000e+00 1.000000000000e-10 2.831500000000e+02 
2.250000000000e-02 1.000000000000e+00 1.000000000000e-10 2.831500000000e+02 
2.300000000000e-02 1.000000000000e+00 1.000000000000e-10 2.831500000000e+02 
2.350000000000e-02 1.000000000000e+00 1.000000000000e-10 2.831500000000e+02 
2.400000000000e-02 1.000000000000e+00 1.000000000000e-10 2.831500000000e+02 
2.450000000000e-02 1.000000000000e+00 1.000000000000e-10 2.831500000000e+02 
2.500000000000e-02 1.000000000000e+00 1.000000000000e-10 2.831500000000e+02 
 ZONE T="TIME=8.640000000000e+03"
0.000000000000e+00 9.984987745000e-01 9.942222311650e-01 2.831500000000e+02 
5.000000000000e-04 9.984987745000e-01 9.942203419492e-01 2.831500000000e+02 
1.000000000000e-03 9.984987745000e-01 9.942134892628e-01 2.831500000000e+02 
1.500000000000e-03 9.984987745000e-01 9.941975975266e-01 2.831500000000e+02 
2.000000000000e-03 9.984987745000e-01 9.941640168753e-01 2.831500000000e+02 
2.500000000000e-03 9.984987745000e-01 9.940963135357e-01 2.831500000000e+02 
3.000000000000e-03 9.984987745000e-01 9.939649588806e-01 2.831500000000e+02 
3.500000000000e-03 9.984987745000e-01 9.937191979293e-01 2.831500000000e+02 
4.000000000000e-03 9.984987745000e-01 9.932753782124e-01 2.831500000000e+02 
4.500000000000e-03 9.984987745000e-01 9.925012657407e-01 2.831500000000e+02 
5.000000000000e-03 9.984987745000e-01 9.911964730370e-01 2.831500000000e+02 
5.500000000000e-03 9.984987745000e-01 9.890701493927e-01 2.831500000000e+02 
6.000000000000e-03 9.984987745000e-01 9.857185146142e-01 2.831500000000e+02 
6.500000000000e-03 9.984987745000e-01 9.806064851921e-01 2.831500000000e+02 
7.000000000000e-03 9.984987745000e-01 9.730591714770e-01 2.831500000000e+02 
7.500000000000e-03 9.984987745000e-01 9.622699279451e-01 2.831500000000e+02 
8.000000000000e-03 9.984987745000e-01 9.473312733736e-01 2.831500000000e+02 
8.500000000000e-03 9.984987745000e-01 9.272928850951e-01 2.831500000000e+02 
9.000000000000e-03 9.984987745000e-01 9.012468713969e-01 2.831500000000e+02 
9.500000000000e-03 9.984987745000e-01 8.684349694893e-01 2.831500000000e+02 
1.000000000000e-02 9.984987745000e-01 8.283661867177e-01 2.831500000000e+02 
1.050000000000e-02 9.984987745000e-01 7.809280366889e-01 2.831500000000e+02 
1.100000000000e-02 9.984987745000e-01 7.264716951749e-01 2.831500000000e+02 
1.150000000000e-02 9.984987745000e-01 6.658524702224e-01 2.831500000000e+02 
1.200000000000e-02 9.984987745000e-01 6.004120831253e-01 2.831500000000e+02 
1.250000000000e-02 9.984987745000e-01 5.318983023290e-01 2.831500000000e+02 
1.300000000000e-02 9.984987745000e-01 4.623285607862e-01 2.831500000000e+02 
1.350000000000e-02 9.984987745000e-01 3.938147754295e-01 2.831500000000e+02 
1.400000000000e-02 9.984987745000e-01 3.283743866420e-01 2.831500000000e+02 
1.450000000000e-02 9.984987745000e-01 2.677551684478e-01 2.831500000000e+02 
1.500000000000e-02 9.984987745000e-01 2.132988260539e-01 2.831500000000e+02 
1.550000000000e-02 9.984987745000e-01 1.658606705962e-01 2.831500000000e+02 
1.600000000000e-02 9.984987745000e-01 1.257918886632e-01 2.831500000000e+02 
1.650000000000e-02 9.984987745000e-01 9.297999152841e-02 2.831500000000e+02 
1.700000000000e-02 9.984987745000e-01 6.693397545969e-02 2.831500000000e+02 
1.750000000000e-02 9.984987745000e-01 4.689558461736e-02 2.831500000000e+02 
1.800000000000e-02 9.984987745000e-01 3.195693226798e-02 2.831500000000e+02 
1.850000000000e-02 9.984987745000e-01 2.116768930294e-02 2.831500000000e+02 
1.900000000000e-02 9.984987745000e-01 1.362037471787e-02 2.831500000000e+02 
1.950000000000e-02 9.984987745000e-01 8.508345164623e-03 2.831500000000e+02 
2.000000000000e-02 9.984987745000e-01 5.156710897589e-03 2.831500000000e+02 
2.050000000000e-02 9.984987745000e-01 3.030387546032e-03 2.831500000000e+02 
2.100000000000e-02 9.984987745000e-01 1.725595637005e-03 2.831500000000e+02 
2.150000000000e-02 9.984987745000e-01 9.514860914130e-04 2.831500000000e+02 
2.200000000000e-02 9.984987745000e-01 5.076754127810e-04 2.831500000000e+02 
2.250000000000e-02 9.984987745000e-01 2.619406763424e-04 2.831500000000e+02 
2.300000000000e-02 9.984987745000e-01 1.306588580608e-04 2.831500000000e+02 
2.350000000000e-02 9.984987745000e-01 6.314814629584e-05 2.831500000000e+02 
2.400000000000e-02 9.984987745000e-01 3.005389113097e-05 2.831500000000e+02 
2.450000000000e-02 9.984987745000e-01 1.533675910668e-05 2.831500000000e+02 
2.500000000000e-02 9.984987745000e-01 1.120075591077e-05 2.831500000000e+02 
 ZONE T="TIME=1.728000000000e+04"
0.000000000000e+00 9.984987745000e-01 9.996875937668e-01 2.831500000000e+02 
5.000000000000e-04 9.984987745000e-01 9.996856917692e-01 2.831500000000e+02 
1.000000000000e-03 9.984987745000e-01 9.996787923684e-01 2.831500000000e+02 
1.500000000000e-03 9.984987745000e-01 9.996627914657e-01 2.831500000000e+02 
2.000000000000e-03 9.984987745000e-01 9.996289791344e-01 2.831500000000e+02 
2.500000000000e-03 9.984987745000e-01 9.995608088440e-01 2.831500000000e+02 
3.000000000000e-03 9.984987745000e-01 9.994285524982e-01 2.831500000000e+02 
3.500000000000e-03 9.984987745000e-01 9.991811186766e-01 2.831500000000e+02 
4.000000000000e-03 9.984987745000e-01 9.987343123973e-01 2.831500000000e+02 
4.500000000000e-03 9.984987745000e-01 9.979550623907e-01 2.831500000000e+02 
5.000000000000e-03 9.984987745000e-01 9.966417446461e-01 2.831500000000e+02 
5.500000000000e-03 9.984987745000e-01 9.945017618812e-01 2.831500000000e+02 
6.000000000000e-03 9.984987745000e-01 9.911289769813e-01 2.831500000000e+02 
6.500000000000e-03 9.984987745000e-01 9.859852731034e-01 2.831500000000e+02 
7.000000000000e-03 9.984987745000e-01 9.783920477103e-01 2.831500000000e+02 
7.500000000000e-03 9.984987745000e-01 9.675383526577e-01 2.831500000000e+02 
8.000000000000e-03 9.984987745000e-01 9.525120196062e-01 2.831500000000e+02 
8.500000000000e-03 9.984987745000e-01 9.323579849656e-01 2.831500000000e+02 
9.000000000000e-03 9.984987745000e-01 9.061640070384e-01 2.831500000000e+02 
9.500000000000e-03 9.984987745000e-01 8.731683870304e-01 2.831500000000e+02 
1.000000000000e-02 9.984987745000e-01 8.328781517705e-01 2.831500000000e+02 
1.050000000000e-02 9.984987745000e-01 7.851807720810e-01 2.831500000000e+02 
1.100000000000e-02 9.984987745000e-01 7.304296591054e-01 2.831500000000e+02 
1.150000000000e-02 9.984987745000e-01 6.694847608992e-01 2.831500000000e+02 
1.200000000000e-02 9.984987745000e-01 6.036947086088e-01 2.831500000000e+02 
1.250000000000e-02 9.984987745000e-01 5.348160460651e-01 2.831500000000e+02 
1.300000000000e-02 9.984987745000e-01 4.648762080499e-01 2.831500000000e+02 
1.350000000000e-02 9.984987745000e-01 3.959975409045e-01 2.831500000000e+02 
1.400000000000e-02 9.984987745000e-01 3.302074869242e-01 2.831500000000e+02 
1.450000000000e-02 9.984987745000e-01 2.692625955136e-01 2.831500000000e+02 
1.500000000000e-02 9.984987745000e-01 2.145114816644e-01 2.831500000000e+02 
1.550000000000e-02 9.984987745000e-01 1.668140964981e-01 2.831500000000e+02 
1.600000000000e-02 9.984987745000e-01 1.265238620805e-01 2.831500000000e+02 
1.650000000000e-02 9.984987745000e-01 9.352824689278e-02 2.831500000000e+02 
1.700000000000e-02 9.984987745000e-01 6.733426657422e-02 2.831500000000e+02 
1.750000000000e-02 9.984987745000e-01 4.718022934340e-02 2.831500000000e+02 
1.800000000000e-02 9.984987745000e-01 3.215389853128e-02 2.831500000000e+02 
1.850000000000e-02 9.984987745000e-01 2.130020405814e-02 2.831500000000e+02 
1.900000000000e-02 9.984987745000e-01 1.370697779640e-02 2.831500000000e+02 
1.950000000000e-02 9.984987745000e-01 8.563273757060e-03 2.831500000000e+02 
2.000000000000e-02 9.984987745000e-01 5.190489389797e-03 2.831500000000e+02 
2.050000000000e-02 9.984987745000e-01 3.050506927737e-03 2.831500000000e+02 
2.100000000000e-02 9.984987745000e-01 1.737189966281e-03 2.831500000000e+02 
2.150000000000e-02 9.984987745000e-01 9.579428866686e-04 2.831500000000e+02 
2.200000000000e-02 9.984987745000e-01 5.111456870696e-04 2.831500000000e+02 
2.250000000000e-02 9.984987745000e-01 2.637382109644e-04 2.831500000000e+02 
2.300000000000e-02 9.984987745000e-01 1.315550749733e-04 2.831500000000e+02 
2.350000000000e-02 9.984987745000e-01 6.357852971653e-05 2.831500000000e+02 
2.400000000000e-02 9.984987745000e-01 3.025562612545e-05 2.831500000000e+02 
2.450000000000e-02 9.984987745000e-01 1.543698482377e-05 2.831500000000e+02 
2.500000000000e-02 9.984987745000e-01 1.127251803752e-05 2.831500000000e+02 
 ZONE T="TIME=2.592000000000e+04"
0.000000000000e+00 9.984987745000e-01 1.000007856031e+00 2.831500000000e+02 
5.000000000000e-04 9.984987745000e-01 1.000005954011e+00 2.831500000000e+02 
1.000000000000e-03 9.984987745000e-01 9.999990543623e-01 2.831500000000e+02 
1.500000000000e-03 9.984987745000e-01 9.999830522981e-01 2.831500000000e+02 
2.000000000000e-03 9.984987745000e-01 9.999492362031e-01 2.831500000000e+02 
2.500000000000e-03 9.984987745000e-01 9.998810558760e-01 2.831500000000e+02 
3.000000000000e-03 9.984987745000e-01 9.997487758631e-01 2.831500000000e+02 
3.500000000000e-03 9.984987745000e-01 9.995012909862e-01 2.831500000000e+02 
4.000000000000e-03 9.984987745000e-01 9.990543820879e-01 2.831500000000e+02 
4.500000000000e-03 9.984987745000e-01 9.982749378026e-01 2.831500000000e+02 
5.000000000000e-03 9.984987745000e-01 9.969612711634e-01 2.831500000000e+02 
5.500000000000e-03 9.984987745000e-01 9.948206911502e-01 2.831500000000e+02 
6.000000000000e-03 9.984987745000e-01 9.914469282100e-01 2.831500000000e+02 
6.500000000000e-03 9.984987745000e-01 9.863016880186e-01 2.831500000000e+02 
7.000000000000e-03 9.984987745000e-01 9.787061428255e-01 2.831500000000e+02 
7.500000000000e-03 9.984987745000e-01 9.678490747735e-01 2.831500000000e+02 
8.000000000000e-03 9.984987745000e-01 9.528180125016e-01 2.831500000000e+02 
8.500000000000e-03 9.984987745000e-01 9.326575763816e-01 2.831500000000e+02 
9.000000000000e-03 9.984987745000e-01 9.064552247683e-01 2.831500000000e+02 
9.500000000000e-03 9.984987745000e-01 8.734490107868e-01 2.831500000000e+02 
1.000000000000e-02 9.984987745000e-01 8.331458034422e-01 2.831500000000e+02 
1.050000000000e-02 9.984987745000e-01 7.854330414250e-01 2.831500000000e+02 
1.100000000000e-02 9.984987745000e-01 7.306642557185e-01 2.831500000000e+02 
1.150000000000e-02 9.984987745000e-01 6.696996777074e-01 2.831500000000e+02 
1.200000000000e-02 9.984987745000e-01 6.038883782757e-01 2.831500000000e+02 
1.250000000000e-02 9.984987745000e-01 5.349874707206e-01 2.831500000000e+02 
1.300000000000e-02 9.984987745000e-01 4.650250450730e-01 2.831500000000e+02 
1.350000000000e-02 9.984987745000e-01 3.961241329147e-01 2.831500000000e+02 
1.400000000000e-02 9.984987745000e-01 3.303128317926e-01 2.831500000000e+02 
1.450000000000e-02 9.984987745000e-01 2.693482605794e-01 2.831500000000e+02 
1.500000000000e-02 9.984987745000e-01 2.145794739988e-01 2.831500000000e+02 
1.550000000000e-02 9.984987745000e-01 1.668667065033e-01 2.831500000000e+02 
1.600000000000e-02 9.984987745000e-01 1.265635000011e-01 2.831500000000e+02 
1.650000000000e-02 9.984987745000e-01 9.355729084145e-02 2.831500000000e+02 
1.700000000000e-02 9.984987745000e-01 6.735493683619e-02 2.831500000000e+02 
1.750000000000e-02 9.984987745000e-01 4.719449812483e-02 2.831500000000e+02 
1.800000000000e-02 9.984987745000e-01 3.216343809316e-02 2.831500000000e+02 
1.850000000000e-02 9.984987745000e-01 2.130637062089e-02 2.831500000000e+02 
1.900000000000e-02 9.984987745000e-01 1.371082455857e-02 2.831500000000e+02 
1.950000000000e-02 9.984987745000e-01 8.565584206005e-03 2.831500000000e+02 
2.000000000000e-02 9.984987745000e-01 5.191821798235e-03 2.831500000000e+02 
2.050000000000e-02 9.984987745000e-01 3.051242087947e-03 2.831500000000e+02 
2.100000000000e-02 9.984987745000e-01 1.737576231493e-03 2.831500000000e+02 
2.150000000000e-02 9.984987745000e-01 9.581348717628e-04 2.831500000000e+02 
2.200000000000e-02 9.984987745000e-01 5.112350497010e-04 2.831500000000e+02 
2.250000000000e-02 9.984987745000e-01 2.637765096741e-04 2.831500000000e+02 
2.300000000000e-02 9.984987745000e-01 1.315696876537e-04 2.831500000000e+02 
2.350000000000e-02 9.984987745000e-01 6.358306828282e-05 2.831500000000e+02 
2.400000000000e-02 9.984987745000e-01 3.025633941625e-05 2.831500000000e+02 
2.450000000000e-02 9.984987745000e-01 1.543646192586e-05 2.831500000000e+02 
2.500000000000e-02 9.984987745000e-01 1.127173243590e-05 2.831500000000e+02 
 ZONE T="TIME=3.456000000000e+04"
0.000000000000e+00 9.984987745000e-01 9.999962881661e-01 2.831500000000e+02 
5.000000000000e-04 9.984987745000e-01 9.999943861131e-01 2.831500000000e+02 
1.000000000000e-03 9.984987745000e-01 9.999874863545e-01 2.831500000000e+02 
1.500000000000e-03 9.984987745000e-01 9.999714840675e-01 2.831500000000e+02 
2.000000000000e-03 9.984987745000e-01 9.999376675822e-01 2.831500000000e+02 
2.500000000000e-03 9.984987745000e-01 9.998694866363e-01 2.831500000000e+02 
3.000000000000e-03 9.984987745000e-01 9.997372057428e-01 2.831500000000e+02 
3.500000000000e-03 9.984987745000e-01 9.994897197901e-01 2.831500000000e+02 
4.000000000000e-03 9.984987745000e-01 9.990428099192e-01 2.831500000000e+02 
4.500000000000e-03 9.984987745000e-01 9.982633655029e-01 2.831500000000e+02 
5.000000000000e-03 9.984987745000e-01 9.969497010540e-01 2.831500000000e+02 
5.500000000000e-03 9.984987745000e-01 9.948091281624e-01 2.831500000000e+02 
6.000000000000e-03 9.984987745000e-01 9.914353814612e-01 2.831500000000e+02 
6.500000000000e-03 9.984987745000e-01 9.862901728246e-01 2.831500000000e+02 
7.000000000000e-03 9.984987745000e-01 9.786946830340e-01 2.831500000000e+02 
7.500000000000e-03 9.984987745000e-01 9.678377051807e-01 2.831500000000e+02 
8.000000000000e-03 9.984987745000e-01 9.528067809751e-01 2.831500000000e+02 
8.500000000000e-03 9.984987745000e-01 9.326465452162e-01 2.831500000000e+02 
9.000000000000e-03 9.984987745000e-01 9.064444707713e-01 2.831500000000e+02 
9.500000000000e-03 9.984987745000e-01 8.734386236579e-01 2.831500000000e+02 
1.000000000000e-02 9.984987745000e-01 8.331358822019e-01 2.831500000000e+02 
1.050000000000e-02 9.984987745000e-01 7.854236889312e-01 2.831500000000e+02 
1.100000000000e-02 9.984987745000e-01 7.306555716575e-01 2.831500000000e+02 
1.150000000000e-02 9.984987745000e-01 6.696917507760e-01 2.831500000000e+02 
1.200000000000e-02 9.984987745000e-01 6.038812785153e-01 2.831500000000e+02 
1.250000000000e-02 9.984987745000e-01 5.349812430513e-01 2.831500000000e+02 
1.300000000000e-02 9.984987745000e-01 4.650197049743e-01 2.831500000000e+02 
1.350000000000e-02 9.984987745000e-01 3.961196649071e-01 2.831500000000e+02 
1.400000000000e-02 9.984987745000e-01 3.303091909560e-01 2.831500000000e+02 
1.450000000000e-02 9.984987745000e-01 2.693453768723e-01 2.831500000000e+02 
1.500000000000e-02 9.984987745000e-01 2.145772587246e-01 2.831500000000e+02 
1.550000000000e-02 9.984987745000e-01 1.668650599755e-01 2.831500000000e+02 
1.600000000000e-02 9.984987745000e-01 1.265623193619e-01 2.831500000000e+02 
1.650000000000e-02 9.984987745000e-01 9.355647707037e-02 2.831500000000e+02 
1.700000000000e-02 9.984987745000e-01 6.735440023352e-02 2.831500000000e+02 
1.750000000000e-02 9.984987745000e-01 4.719416188334e-02 2.831500000000e+02 
1.800000000000e-02 9.984987745000e-01 3.216323991787e-02 2.831500000000e+02 
1.850000000000e-02 9.984987745000e-01 2.130626264437e-02 2.831500000000e+02 
1.900000000000e-02 9.984987745000e-01 1.371077198461e-02 2.831500000000e+02 
1.950000000000e-02 9.984987745000e-01 8.565563186622e-03 2.831500000000e+02 
2.000000000000e-02 9.984987745000e-01 5.191817018002e-03 2.831500000000e+02 
2.050000000000e-02 9.984987745000e-01 3.051244429336e-03 2.831500000000e+02 
2.100000000000e-02 9.984987745000e-01 1.737580763117e-03 2.831500000000e+02 
2.150000000000e-02 9.984987745000e-01 9.581392723762e-04 2.831500000000e+02 
2.200000000000e-02 9.984987745000e-01 5.112384779173e-04 2.831500000000e+02 
2.250000000000e-02 9.984987745000e-01 2.637788627610e-04 2.831500000000e+02 
2.300000000000e-02 9.984987745000e-01 1.315711616094e-04 2.831500000000e+02 
2.350000000000e-02 9.984987745000e-01 6.358392774639e-05 2.831500000000e+02 
2.400000000000e-02 9.984987745000e-01 3.025681922764e-05 2.831500000000e+02 
2.450000000000e-02 9.984987745000e-01 1.543674254873e-05 2.831500000000e+02 
2.500000000000e-02 9.984987745000e-01 1.127195182275e-05 2.831500000000e+02 
 ZONE T="TIME=4.320000000000e+04"
0.000000000000e+00 9.984987745000e-01 9.999953090090e-01 2.831500000000e+02 
5.000000000000e-04 9.984987745000e-01 9.999934069549e-01 2.831500000000e+02 
1.000000000000e-03 9.984987745000e-01 9.999865071933e-01 2.831500000000e+02 
1.500000000000e-03 9.984987745000e-01 9.999705049027e-01 2.831500000000e+02 
2.000000000000e-03 9.984987745000e-01 9.999366884179e-01 2.831500000000e+02 
2.500000000000e-03 9.984987745000e-01 9.998685074877e-01 2.831500000000e+02 
3.000000000000e-03 9.984987745000e-01 9.997362266495e-01 2.831500000000e+02 
3.500000000000e-03 9.984987745000e-01 9.994887408392e-01 2.831500000000e+02 
4.000000000000e-03 9.984987745000e-01 9.990418312826e-01 2.831500000000e+02 
4.500000000000e-03 9.984987745000e-01 9.982623874939e-01 2.831500000000e+02 
5.000000000000e-03 9.984987745000e-01 9.969487242061e-01 2.831500000000e+02 
5.500000000000e-03 9.984987745000e-01 9.948081533314e-01 2.831500000000e+02 
6.000000000000e-03 9.984987745000e-01 9.914344099480e-01 2.831500000000e+02 
6.500000000000e-03 9.984987745000e-01 9.862892065100e-01 2.831500000000e+02 
7.000000000000e-03 9.984987745000e-01 9.786937245112e-01 2.831500000000e+02 
7.500000000000e-03 9.984987745000e-01 9.678367578647e-01 2.831500000000e+02 
8.000000000000e-03 9.984987745000e-01 9.528058491670e-01 2.831500000000e+02 
8.500000000000e-03 9.984987745000e-01 9.326456340982e-01 2.831500000000e+02 
9.000000000000e-03 9.984987745000e-01 9.064435863145e-01 2.831500000000e+02 
9.500000000000e-03 9.984987745000e-01 8.734377724332e-01 2.831500000000e+02 
1.000000000000e-02 9.984987745000e-01 8.331350710972e-01 2.831500000000e+02 
1.050000000000e-02 9.984987745000e-01 7.854229247904e-01 2.831500000000e+02 
1.100000000000e-02 9.984987745000e-01 7.306548608717e-01 2.831500000000e+02 
1.150000000000e-02 9.984987745000e-01 6.696910988644e-01 2.831500000000e+02 
1.200000000000e-02 9.984987745000e-01 6.038806897388e-01 2.831500000000e+02 
1.250000000000e-02 9.984987745000e-01 5.349807201019e-01 2.831500000000e+02 
1.300000000000e-02 9.984987745000e-01 4.650192487725e-01 2.831500000000e+02 
1.350000000000e-02 9.984987745000e-01 3.961192745324e-01 2.831500000000e+02 
1.400000000000e-02 9.984987745000e-01 3.303088637165e-01 2.831500000000e+02 
1.450000000000e-02 9.984987745000e-01 2.693451085069e-01 2.831500000000e+02 
1.500000000000e-02 9.984987745000e-01 2.145770437142e-01 2.831500000000e+02 
1.550000000000e-02 9.984987745000e-01 1.668648919291e-01 2.831500000000e+02 
1.600000000000e-02 9.984987745000e-01 1.265621914354e-01 2.831500000000e+02 
1.650000000000e-02 9.984987745000e-01 9.355638237606e-02 2.831500000000e+02 
1.700000000000e-02 9.984987745000e-01 6.735433220038e-02 2.831500000000e+02 
1.750000000000e-02 9.984987745000e-01 4.719411454029e-02 2.831500000000e+02 
1.800000000000e-02 9.984987745000e-01 3.216320808272e-02 2.831500000000e+02 
1.850000000000e-02 9.984987745000e-01 2.130624201604e-02 2.831500000000e+02 
1.900000000000e-02 9.984987745000e-01 1.371075914801e-02 2.831500000000e+02 
1.950000000000e-02 9.984987745000e-01 8.565555548685e-03 2.831500000000e+02 
2.000000000000e-02 9.984987745000e-01 5.191812697876e-03 2.831500000000e+02 
2.050000000000e-02 9.984987745000e-01 3.051242126094e-03 2.831500000000e+02 
2.100000000000e-02 9.984987745000e-01 1.737579620957e-03 2.831500000000e+02 
2.150000000000e-02 9.984987745000e-01 9.581387578596e-04 2.831500000000e+02 
2.200000000000e-02 9.984987745000e-01 5.112382777208e-04 2.831500000000e+02 
2.250000000000e-02 9.984987745000e-01 2.637788049255e-04 2.831500000000e+02 
2.300000000000e-02 9.984987745000e-01 1.315711591985e-04 2.831500000000e+02 
2.350000000000e-02 9.984987745000e-01 6.358394138351e-05 2.831500000000e+02 
2.400000000000e-02 9.984987745000e-01 3.025683402327e-05 2.831500000000e+02 
2.450000000000e-02 9.984987745000e-01 1.543675502749e-05 2.831500000000e+02 
2.500000000000e-02 9.984987745000e-01 1.127196313185e-05 2.831500000000e+02 
 ZONE T="TIME=5.184000000000e+04"
0.000000000000e+00 9.984987745000e-01 9.999953407939e-01 2.831500000000e+02 
5.000000000000e-04 9.984987745000e-01 9.999934387398e-01 2.831500000000e+02 
1.000000000000e-03 9.984987745000e-01 9.999865389781e-01 2.831500000000e+02 
1.500000000000e-03 9.984987745000e-01 9.999705366872e-01 2.831500000000e+02 
2.000000000000e-03 9.984987745000e-01 9.999367202014e-01 2.831500000000e+02 
2.500000000000e-03 9.984987745000e-01 9.998685392684e-01 2.831500000000e+02 
3.000000000000e-03 9.984987745000e-01 9.997362584237e-01 2.831500000000e+02 
3.500000000000e-03 9.984987745000e-01 9.994887726001e-01 2.831500000000e+02 
4.000000000000e-03 9.984987745000e-01 9.990418630183e-01 2.831500000000e+02 
4.500000000000e-03 9.984987745000e-01 9.982624191848e-01 2.831500000000e+02 
5.000000000000e-03 9.984987745000e-01 9.969487558216e-01 2.831500000000e+02 
5.500000000000e-03 9.984987745000e-01 9.948081848269e-01 2.831500000000e+02 
6.000000000000e-03 9.984987745000e-01 9.914344412607e-01 2.831500000000e+02 
6.500000000000e-03 9.984987745000e-01 9.862892375567e-01 2.831500000000e+02 
7.000000000000e-03 9.984987745000e-01 9.786937551861e-01 2.831500000000e+02 
7.500000000000e-03 9.984987745000e-01 9.678367880399e-01 2.831500000000e+02 
8.000000000000e-03 9.984987745000e-01 9.528058786944e-01 2.831500000000e+02 
8.500000000000e-03 9.984987745000e-01 9.326456628143e-01 2.831500000000e+02 
9.000000000000e-03 9.984987745000e-01 9.064436140468e-01 2.831500000000e+02 
9.500000000000e-03 9.984987745000e-01 8.734377990078e-01 2.831500000000e+02 
1.000000000000e-02 9.984987745000e-01 8.331350963472e-01 2.831500000000e+02 
1.050000000000e-02 9.984987745000e-01 7.854229485633e-01 2.831500000000e+02 
1.100000000000e-02 9.984987745000e-01 7.306548830360e-01 2.831500000000e+02 
1.150000000000e-02 9.984987745000e-01 6.696911193141e-01 2.831500000000e+02 
1.200000000000e-02 9.984987745000e-01 6.038807083968e-01 2.831500000000e+02 
1.250000000000e-02 9.984987745000e-01 5.349807369214e-01 2.831500000000e+02 
1.300000000000e-02 9.984987745000e-01 4.650192637377e-01 2.831500000000e+02 
1.350000000000e-02 9.984987745000e-01 3.961192876591e-01 2.831500000000e+02 
1.400000000000e-02 9.984987745000e-01 3.303088750514e-01 2.831500000000e+02 
1.450000000000e-02 9.984987745000e-01 2.693451181273e-01 2.831500000000e+02 
1.500000000000e-02 9.984987745000e-01 2.145770517260e-01 2.831500000000e+02 
1.550000000000e-02 9.984987745000e-01 1.668648984637e-01 2.831500000000e+02 
1.600000000000e-02 9.984987745000e-01 1.265621966455e-01 2.831500000000e+02 
1.650000000000e-02 9.984987745000e-01 9.355638642843e-02 2.831500000000e+02 
1.700000000000e-02 9.984987745000e-01 6.735433526892e-02 2.831500000000e+02 
1.750000000000e-02 9.984987745000e-01 4.719411679754e-02 2.831500000000e+02 
1.800000000000e-02 9.984987745000e-01 3.216320969221e-02 2.831500000000e+02 
1.850000000000e-02 9.984987745000e-01 2.130624312578e-02 2.831500000000e+02 
1.900000000000e-02 9.984987745000e-01 1.371075988600e-02 2.831500000000e+02 
1.950000000000e-02 9.984987745000e-01 8.565556020623e-03 2.831500000000e+02 
2.000000000000e-02 9.984987745000e-01 5.191812987084e-03 2.831500000000e+02 
2.050000000000e-02 9.984987745000e-01 3.051242295190e-03 2.831500000000e+02 
2.100000000000e-02 9.984987745000e-01 1.737579714749e-03 2.831500000000e+02 
2.150000000000e-02 9.984987745000e-01 9.581388068134e-04 2.831500000000e+02 
2.200000000000e-02 9.984987745000e-01 5.112383014667e-04 2.831500000000e+02 
2.250000000000e-02 9.984987745000e-01 2.637788154003e-04 2.831500000000e+02 
2.300000000000e-02 9.984987745000e-01 1.315711632122e-04 2.831500000000e+02 
2.350000000000e-02 9.984987745000e-01 6.358394254603e-05 2.831500000000e+02 
2.400000000000e-02 9.984987745000e-01 3.025683408226e-05 2.831500000000e+02 
2.450000000000e-02 9.984987745000e-01 1.543675473260e-05 2.831500000000e+02 
2.500000000000e-02 9.984987745000e-01 1.127196276399e-05 2.831500000000e+02 
