 TITLE = "Profiles along polylines"
 VARIABLES = "DIST" "TEMPERATURE1" 
 ZONE T="TIME=0.000000000000e+00"
3.147000000000e+00 4.230000000000e+02 
1.677600000000e+01 4.230000000000e+02 
3.670000000000e+01 4.230000000000e+02 
7.014400000000e+01 4.230000000000e+02 
9.453400000000e+01 4.230000000000e+02 
1.066172000000e+02 4.230000000000e+02 
1.508728000000e+02 4.230000000000e+02 
1.899406000000e+02 4.230000000000e+02 
1.978522900000e+02 4.230000000000e+02 
2.138261000000e+02 4.230000000000e+02 
2.195371000000e+02 4.230000000000e+02 
2.298447000000e+02 4.230000000000e+02 
2.428690000000e+02 4.230000000000e+02 
2.634942000000e+02 4.230000000000e+02 
2.839899000000e+02 4.230000000000e+02 
2.949174000000e+02 4.230000000000e+02 
3.090880000000e+02 4.230000000000e+02 
3.304080000000e+02 4.230000000000e+02 
3.498850000000e+02 4.230000000000e+02 
3.633000000000e+02 4.230000000000e+02 
3.832240000000e+02 4.230000000000e+02 
4.031470000000e+02 4.230000000000e+02 
 TITLE = "Profiles along polylines"
 VARIABLES = "DIST" "TEMPERATURE1" 
 ZONE T="TIME=4.320000000000e+04"
3.147000000000e+00 3.000000000000e+02 
1.677600000000e+01 4.353618392273e+02 
3.670000000000e+01 4.234028944188e+02 
7.014400000000e+01 4.229695477199e+02 
9.453400000000e+01 4.230026539812e+02 
1.066172000000e+02 4.229993977045e+02 
1.508728000000e+02 4.229999987480e+02 
1.899406000000e+02 4.229999995730e+02 
1.978522900000e+02 4.229999997951e+02 
2.138261000000e+02 4.230000001014e+02 
2.195371000000e+02 4.230000000113e+02 
2.298447000000e+02 4.229999999953e+02 
2.428690000000e+02 4.229999999999e+02 
2.634942000000e+02 4.230000000000e+02 
2.839899000000e+02 4.230000000000e+02 
2.949174000000e+02 4.230000000000e+02 
3.090880000000e+02 4.230000000000e+02 
3.304080000000e+02 4.230000000000e+02 
3.498850000000e+02 4.230000000000e+02 
3.633000000000e+02 4.230000000000e+02 
3.832240000000e+02 4.230000000000e+02 
4.031470000000e+02 4.230000000000e+02 
 ZONE T="TIME=8.640000000000e+04"
3.147000000000e+00 3.000000000000e+02 
1.677600000000e+01 4.352205627245e+02 
3.670000000000e+01 4.234026536681e+02 
7.014400000000e+01 4.229696474791e+02 
9.453400000000e+01 4.230027385306e+02 
1.066172000000e+02 4.229993917547e+02 
1.508728000000e+02 4.229999977872e+02 
1.899406000000e+02 4.229999995971e+02 
1.978522900000e+02 4.229999998156e+02 
2.138261000000e+02 4.230000000937e+02 
2.195371000000e+02 4.230000000100e+02 
2.298447000000e+02 4.229999999957e+02 
2.428690000000e+02 4.229999999997e+02 
2.634942000000e+02 4.229999999999e+02 
2.839899000000e+02 4.230000000000e+02 
2.949174000000e+02 4.230000000000e+02 
3.090880000000e+02 4.230000000000e+02 
3.304080000000e+02 4.230000000000e+02 
3.498850000000e+02 4.230000000000e+02 
3.633000000000e+02 4.230000000000e+02 
3.832240000000e+02 4.230000000000e+02 
4.031470000000e+02 4.230000000000e+02 
