 TITLE = "Profiles along polylines"
 VARIABLES = "DIST" "PRESSURE1" "PRESSURE2" "PRESSURE_W" "SATURATION1" SATURATION2 "VELOCITY_X1" "VELOCITY_Y1" "VELOCITY_X2" "VELOCITY_Y2" 
 ZONE T="TIME=0.000000000000e+00"
0.000000000000e+00 0.000000000000e+00 1.013250000000e+05 1.013250000000e+05 1.000000000000e+00 2.220446049250e-16 0.000000000000e+00 0.000000000000e+00 0.000000000000e+00 0.000000000000e+00 
4.166666666667e-02 0.000000000000e+00 1.013250000000e+05 1.013250000000e+05 1.000000000000e+00 2.220446049250e-16 0.000000000000e+00 0.000000000000e+00 0.000000000000e+00 0.000000000000e+00 
8.333333333333e-02 0.000000000000e+00 1.013250000000e+05 1.013250000000e+05 1.000000000000e+00 2.220446049250e-16 0.000000000000e+00 0.000000000000e+00 0.000000000000e+00 0.000000000000e+00 
1.250000000000e-01 0.000000000000e+00 1.013250000000e+05 1.013250000000e+05 1.000000000000e+00 2.220446049250e-16 0.000000000000e+00 0.000000000000e+00 0.000000000000e+00 0.000000000000e+00 
1.666666666667e-01 0.000000000000e+00 1.013250000000e+05 1.013250000000e+05 1.000000000000e+00 2.220446049250e-16 0.000000000000e+00 0.000000000000e+00 0.000000000000e+00 0.000000000000e+00 
2.083333333333e-01 0.000000000000e+00 1.013250000000e+05 1.013250000000e+05 1.000000000000e+00 2.220446049250e-16 0.000000000000e+00 0.000000000000e+00 0.000000000000e+00 0.000000000000e+00 
2.500000000000e-01 0.000000000000e+00 1.013250000000e+05 1.013250000000e+05 1.000000000000e+00 2.220446049250e-16 0.000000000000e+00 0.000000000000e+00 0.000000000000e+00 0.000000000000e+00 
2.916666666667e-01 0.000000000000e+00 1.013250000000e+05 1.013250000000e+05 1.000000000000e+00 2.220446049250e-16 0.000000000000e+00 0.000000000000e+00 0.000000000000e+00 0.000000000000e+00 
3.333333333333e-01 0.000000000000e+00 1.013250000000e+05 1.013250000000e+05 1.000000000000e+00 2.220446049250e-16 0.000000000000e+00 0.000000000000e+00 0.000000000000e+00 0.000000000000e+00 
3.750000000000e-01 0.000000000000e+00 1.013250000000e+05 1.013250000000e+05 1.000000000000e+00 2.220446049250e-16 0.000000000000e+00 0.000000000000e+00 0.000000000000e+00 0.000000000000e+00 
4.166666666667e-01 0.000000000000e+00 1.013250000000e+05 1.013250000000e+05 1.000000000000e+00 2.220446049250e-16 0.000000000000e+00 0.000000000000e+00 0.000000000000e+00 0.000000000000e+00 
4.583333333333e-01 0.000000000000e+00 1.013250000000e+05 1.013250000000e+05 1.000000000000e+00 2.220446049250e-16 0.000000000000e+00 0.000000000000e+00 0.000000000000e+00 0.000000000000e+00 
5.000000000000e-01 0.000000000000e+00 1.013250000000e+05 1.013250000000e+05 1.000000000000e+00 2.220446049250e-16 0.000000000000e+00 0.000000000000e+00 0.000000000000e+00 0.000000000000e+00 
5.416666666667e-01 0.000000000000e+00 1.013250000000e+05 1.013250000000e+05 1.000000000000e+00 2.220446049250e-16 0.000000000000e+00 0.000000000000e+00 0.000000000000e+00 0.000000000000e+00 
5.833333333333e-01 0.000000000000e+00 1.013250000000e+05 1.013250000000e+05 1.000000000000e+00 2.220446049250e-16 0.000000000000e+00 0.000000000000e+00 0.000000000000e+00 0.000000000000e+00 
6.250000000000e-01 0.000000000000e+00 1.013250000000e+05 1.013250000000e+05 1.000000000000e+00 2.220446049250e-16 0.000000000000e+00 0.000000000000e+00 0.000000000000e+00 0.000000000000e+00 
6.666666666667e-01 0.000000000000e+00 1.013250000000e+05 1.013250000000e+05 1.000000000000e+00 2.220446049250e-16 0.000000000000e+00 0.000000000000e+00 0.000000000000e+00 0.000000000000e+00 
7.083333333333e-01 0.000000000000e+00 1.013250000000e+05 1.013250000000e+05 1.000000000000e+00 2.220446049250e-16 0.000000000000e+00 0.000000000000e+00 0.000000000000e+00 0.000000000000e+00 
7.500000000000e-01 0.000000000000e+00 1.013250000000e+05 1.013250000000e+05 1.000000000000e+00 2.220446049250e-16 0.000000000000e+00 0.000000000000e+00 0.000000000000e+00 0.000000000000e+00 
7.916666666667e-01 0.000000000000e+00 1.013250000000e+05 1.013250000000e+05 1.000000000000e+00 2.220446049250e-16 0.000000000000e+00 0.000000000000e+00 0.000000000000e+00 0.000000000000e+00 
8.333333333333e-01 0.000000000000e+00 1.013250000000e+05 1.013250000000e+05 1.000000000000e+00 2.220446049250e-16 0.000000000000e+00 0.000000000000e+00 0.000000000000e+00 0.000000000000e+00 
8.750000000000e-01 0.000000000000e+00 1.013250000000e+05 1.013250000000e+05 1.000000000000e+00 2.220446049250e-16 0.000000000000e+00 0.000000000000e+00 0.000000000000e+00 0.000000000000e+00 
9.166666666667e-01 0.000000000000e+00 1.013250000000e+05 1.013250000000e+05 1.000000000000e+00 2.220446049250e-16 0.000000000000e+00 0.000000000000e+00 0.000000000000e+00 0.000000000000e+00 
9.583333333333e-01 0.000000000000e+00 1.013250000000e+05 1.013250000000e+05 1.000000000000e+00 2.220446049250e-16 0.000000000000e+00 0.000000000000e+00 0.000000000000e+00 0.000000000000e+00 
1.000000000000e+00 0.000000000000e+00 1.013250000000e+05 1.013250000000e+05 1.000000000000e+00 3.330669073875e-16 0.000000000000e+00 0.000000000000e+00 0.000000000000e+00 0.000000000000e+00 
 TITLE = "Profiles along polylines"
 VARIABLES = "DIST" "PRESSURE1" "PRESSURE2" "PRESSURE_W" "SATURATION1" SATURATION2 "VELOCITY_X1" "VELOCITY_Y1" "VELOCITY_X2" "VELOCITY_Y2" 
 ZONE T="TIME=1.000000000000e-03"
0.000000000000e+00 0.000000000000e+00 1.013250000000e+05 1.013250000000e+05 1.000000000000e+00 0.000000000000e+00 -1.109577543482e-17 -2.618878295765e-04 -3.449806192812e-23 1.781851707206e-11 
4.166666666667e-02 1.246188850498e-07 1.013203978853e+05 1.013203978851e+05 1.000000000000e+00 4.729550084903e-14 4.127205607497e-16 -2.618878292841e-04 1.684796010411e-21 1.781778918526e-11 
8.333333333333e-02 1.241628869912e-07 1.013157957695e+05 1.013157957694e+05 1.000000000000e+00 4.729550084903e-14 4.882333480917e-16 -2.618878287007e-04 6.833545663889e-22 1.781708097765e-11 
1.250000000000e-01 1.233059081170e-07 1.013111936529e+05 1.013111936527e+05 1.000000000000e+00 4.685141163918e-14 6.603245447325e-16 -2.618878281209e-04 -1.393967151237e-22 1.781637246645e-11 
1.666666666667e-01 1.220976338719e-07 1.013065915353e+05 1.013065915352e+05 1.000000000000e+00 4.640732242933e-14 9.065704200390e-16 -2.618878275465e-04 -1.536571913978e-21 1.781566390996e-11 
2.083333333333e-01 1.204860001810e-07 1.013019894169e+05 1.013019894168e+05 1.000000000000e+00 4.574118861456e-14 9.853377134584e-16 -2.618878269792e-04 -5.064352131185e-21 1.781495529698e-11 
2.500000000000e-01 1.185371728421e-07 1.012973872976e+05 1.012973872975e+05 1.000000000000e+00 4.496403249732e-14 8.690588045307e-16 -2.618878264202e-04 -1.100921948014e-20 1.781424661806e-11 
2.916666666667e-01 1.165294332487e-07 1.012927851774e+05 1.012927851773e+05 1.000000000000e+00 4.429789868254e-14 2.626833050769e-16 -2.618878258697e-04 -2.056510040219e-20 1.781353787123e-11 
3.333333333333e-01 1.149841824282e-07 1.012881830565e+05 1.012881830563e+05 1.000000000000e+00 4.352074256531e-14 -8.090083167269e-16 -2.618878253258e-04 -3.214926587559e-20 1.781282906810e-11 
3.750000000000e-01 1.145200680911e-07 1.012835809346e+05 1.012835809345e+05 1.000000000000e+00 4.352074256531e-14 -2.021420804478e-15 -2.618878247847e-04 -4.138875043740e-20 1.781212023563e-11 
4.166666666667e-01 1.154305351849e-07 1.012789788120e+05 1.012789788118e+05 1.000000000000e+00 4.374278717023e-14 -2.309436296812e-15 -2.618878242417e-04 -3.909714981827e-20 1.781141140706e-11 
4.583333333333e-01 1.171427560047e-07 1.012743766885e+05 1.012743766883e+05 1.000000000000e+00 4.451994328747e-14 -6.477197533102e-16 -2.618878236947e-04 -2.016459401944e-20 1.781070260036e-11 
5.000000000000e-01 1.181973536744e-07 1.012697745641e+05 1.012697745640e+05 1.000000000000e+00 4.463096558993e-14 2.484924797049e-15 -2.618878231458e-04 6.822637863416e-21 1.780999380288e-11 
5.416666666667e-01 1.174941912958e-07 1.012651724389e+05 1.012651724388e+05 1.000000000000e+00 4.440892098501e-14 3.350860335455e-15 -2.618878225980e-04 8.102280383965e-21 1.780928498851e-11 
5.833333333333e-01 1.160207948519e-07 1.012605703129e+05 1.012605703128e+05 1.000000000000e+00 4.418687638008e-14 -1.966296673306e-15 -2.618878220499e-04 -4.210413668230e-20 1.780857616030e-11 
6.250000000000e-01 1.159497892360e-07 1.012559681860e+05 1.012559681859e+05 1.000000000000e+00 4.396483177516e-14 -7.561870951714e-15 -2.618878214983e-04 -8.587125761276e-20 1.780786734232e-11 
6.666666666667e-01 1.167034612458e-07 1.012513660582e+05 1.012513660581e+05 1.000000000000e+00 4.418687638008e-14 6.552551663051e-16 -2.618878209505e-04 -1.116132745898e-20 1.780715849713e-11 
7.083333333333e-01 1.158374648796e-07 1.012467639297e+05 1.012467639295e+05 1.000000000000e+00 4.385380947269e-14 1.288057864539e-14 -2.618878204153e-04 8.759825335812e-20 1.780644955910e-11 
7.500000000000e-01 1.150186278713e-07 1.012421618003e+05 1.012421618001e+05 1.000000000000e+00 4.352074256531e-14 -2.040683079645e-15 -2.618878198785e-04 -4.146421078615e-20 1.780574061453e-11 
7.916666666667e-01 1.167359052038e-07 1.012375596700e+05 1.012375596699e+05 1.000000000000e+00 4.440892098501e-14 -1.967432841177e-14 -2.618878193153e-04 -1.858403740895e-19 1.780503183273e-11 
8.333333333333e-01 1.201323204653e-07 1.012329575389e+05 1.012329575388e+05 1.000000000000e+00 4.574118861456e-14 -1.176731482033e-14 -2.618878187751e-04 -9.235505637874e-20 1.780432264644e-11 
8.750000000000e-01 2.379084594626e-07 1.012283554071e+05 1.012283554069e+05 9.999999999999e-01 9.015010959956e-14 1.318570368724e-13 -2.618878174467e-04 9.144102551867e-19 1.780337091294e-11 
9.166666666667e-01 1.148373908721e-04 1.012237533865e+05 1.012237532716e+05 9.999999999565e-01 4.352462834589e-11 -1.750574102327e-12 -2.618875604490e-04 -1.160072654282e-17 1.755872958985e-11 
9.583333333333e-01 1.136015919611e-01 1.012192639482e+05 1.012191503466e+05 9.999999569439e-01 4.305613932054e-08 2.593784075385e-11 -2.616262519910e-04 2.712436178638e-16 -2.213818196117e-10 
1.000000000000e+00 1.112582229149e+02 1.013250000000e+05 1.012137417771e+05 9.999578320209e-01 4.216797906698e-05 -1.283112948274e-12 -2.613419833164e-04 4.706203126148e-20 -4.605576889345e-10 
 TITLE = "Profiles along polylines"
 VARIABLES = "DIST" "PRESSURE1" "PRESSURE2" "PRESSURE_W" "SATURATION1" SATURATION2 "VELOCITY_X1" "VELOCITY_Y1" "VELOCITY_X2" "VELOCITY_Y2" 
 ZONE T="TIME=5.000000000000e+00"
0.000000000000e+00 0.000000000000e+00 1.013250000000e+05 1.013250000000e+05 1.000000000000e+00 1.110223024625e-16 -1.118011227271e-17 -3.588805869830e-05 2.501365742849e-23 1.522109437206e-09 
4.166666666667e-02 1.799449834364e+00 1.009734322565e+05 1.009716328066e+05 9.999993179905e-01 6.820094816673e-07 -9.049522291153e-16 -3.588724494760e-05 1.031588199658e-19 1.518538589410e-09 
8.333333333333e-02 2.812278112494e+00 1.006210755393e+05 1.006182632611e+05 9.999989341185e-01 1.065881527484e-06 -1.066650659823e-15 -3.588509937343e-05 -2.878437482152e-21 1.515965689615e-09 
1.250000000000e-01 3.355289509408e+00 1.002682448249e+05 1.002648895354e+05 9.999987283117e-01 1.271688277016e-06 -1.236799172681e-15 -3.588198352047e-05 -3.059062374700e-19 1.512246484829e-09 
1.666666666667e-01 3.636850452439e+00 9.991514727159e+04 9.991151042114e+04 9.999986215973e-01 1.378402689989e-06 -1.316473632274e-15 -3.587824680969e-05 -3.274165825476e-19 1.507804694148e-09 
2.083333333333e-01 3.781429111823e+00 9.956190661633e+04 9.955812518722e+04 9.999985668006e-01 1.433199447676e-06 -1.795039245462e-15 -3.587414167240e-05 -9.740316991322e-19 1.502944431895e-09 
2.500000000000e-01 3.858221726643e+00 9.920859163731e+04 9.920473341558e+04 9.999985376954e-01 1.462304616617e-06 -2.143811860786e-15 -3.586982655819e-05 -1.823205283856e-18 1.497855638306e-09 
2.916666666667e-01 3.904256248475e+00 9.885523912641e+04 9.885133487017e+04 9.999985202478e-01 1.479752160805e-06 -1.897212228786e-15 -3.586538886877e-05 -1.634474577354e-18 1.492642726796e-09 
3.333333333333e-01 3.940480364531e+00 9.850186988635e+04 9.849792940599e+04 9.999985065185e-01 1.493481462944e-06 -2.042388819803e-15 -3.586086606459e-05 -1.081390915650e-18 1.487350513418e-09 
3.750000000000e-01 3.983306881818e+00 9.814850021135e+04 9.814451690447e+04 9.999984902869e-01 1.509713141390e-06 -3.243417852861e-15 -3.585625448990e-05 -4.318444620241e-19 1.481975334250e-09 
4.166666666667e-01 4.055955853521e+00 9.779515316664e+04 9.779109721078e+04 9.999984627522e-01 1.537247828143e-06 -4.242448319944e-15 -3.585149850159e-05 -3.221365378765e-18 1.476453056005e-09 
4.583333333333e-01 4.206255249459e+00 9.744187629192e+04 9.743767003667e+04 9.999984057872e-01 1.594212802214e-06 -4.202233310157e-15 -3.584644642337e-05 -3.405461043829e-18 1.470608823671e-09 
5.000000000000e-01 4.542876036617e+00 9.708877763944e+04 9.708423476341e+04 9.999982782046e-01 1.721795446663e-06 -3.181816863833e-15 -3.584074319424e-05 -2.170819963243e-18 1.464034578932e-09 
5.416666666667e-01 5.313665091292e+00 9.673610368156e+04 9.673079001647e+04 9.999979860678e-01 2.013932206335e-06 -2.097950264578e-15 -3.583359774273e-05 -1.072042497645e-18 1.455824732695e-09 
5.833333333333e-01 7.072949279881e+00 9.638440570674e+04 9.637733275746e+04 9.999973192815e-01 2.680718506842e-06 -2.521412000771e-15 -3.582330987858e-05 5.017446922862e-18 1.444041218661e-09 
6.250000000000e-01 1.102637822607e+01 9.603488279156e+04 9.602385641333e+04 9.999958208924e-01 4.179107611413e-06 -1.113449911119e-14 -3.580636713780e-05 4.539400315889e-18 1.424697773020e-09 
6.666666666667e-01 1.970698245957e+01 9.569005419361e+04 9.567034721115e+04 9.999925308566e-01 7.469143421979e-06 -1.106271225079e-14 -3.577585715956e-05 9.966510458133e-18 1.389985527006e-09 
7.083333333333e-01 3.821412181641e+01 9.535499158825e+04 9.531677746644e+04 9.999855164657e-01 1.448353430966e-05 -9.347148468709e-15 -3.571899752897e-05 -4.439430218230e-17 1.325531395619e-09 
7.500000000000e-01 7.628037654482e+01 9.503937477769e+04 9.496309440115e+04 9.999710889745e-01 2.891102551439e-05 3.358798497673e-14 -3.561401878430e-05 -2.852390487659e-18 1.206968677737e-09 
7.916666666667e-01 1.512638738576e+02 9.476046785966e+04 9.460920398581e+04 9.999426694792e-01 5.733052083090e-05 6.668025470496e-14 -3.542779901194e-05 3.103316417868e-17 9.973704839858e-10 
8.333333333333e-01 2.915399262833e+02 9.454649261991e+04 9.425495269363e+04 9.998895034525e-01 1.104965474606e-04 -5.945707403583e-14 -3.511737034543e-05 -7.915025412040e-17 6.489269406459e-10 
8.750000000000e-01 5.386197351950e+02 9.443873595216e+04 9.390011621697e+04 9.997958577342e-01 2.041422658363e-04 -8.005496426186e-14 -3.463804832330e-05 1.061260934129e-16 1.116925352950e-10 
9.166666666667e-01 9.458875857915e+02 9.449029392267e+04 9.354440633688e+04 9.996800861089e-01 3.199138911401e-04 3.538437951976e-13 -3.322678508971e-05 1.283924571537e-15 -1.502834516730e-09 
9.583333333333e-01 1.995986426825e+03 9.518122402892e+04 9.318523760210e+04 1.000000000000e+00 0.000000000000e+00 -4.826326407006e-12 -2.261470188744e-05 -1.569233634047e-14 -1.391968654058e-08 
1.000000000000e+00 8.528350868379e+03 1.013250000000e+05 9.279664913162e+04 9.410745208014e-01 5.892547919860e-02 -5.219494298281e-13 -1.142706727022e-05 -1.680247816796e-16 -2.663875306479e-08 
 TITLE = "Profiles along polylines"
 VARIABLES = "DIST" "PRESSURE1" "PRESSURE2" "PRESSURE_W" "SATURATION1" SATURATION2 "VELOCITY_X1" "VELOCITY_Y1" "VELOCITY_X2" "VELOCITY_Y2" 
 ZONE T="TIME=1.000000000000e+01"
0.000000000000e+00 0.000000000000e+00 1.013250000000e+05 1.013250000000e+05 1.000000000000e+00 0.000000000000e+00 -1.514087658111e-17 -2.458709060058e-05 -7.870447069058e-23 1.591702524812e-09 
4.166666666667e-02 3.187526757933e+00 1.009573805678e+05 1.009541930411e+05 9.999987918955e-01 1.208104516648e-06 9.519700818263e-17 -2.458647060457e-05 3.337429232524e-20 1.588125296101e-09 
8.333333333333e-02 5.362218834653e+00 1.005887465809e+05 1.005833843620e+05 9.999979676654e-01 2.032334560642e-06 1.140633624707e-17 -2.458478932140e-05 1.594979938963e-20 1.586109518660e-09 
1.250000000000e-01 6.800471743340e+00 1.002193728177e+05 1.002125723459e+05 9.999974225532e-01 2.577446795549e-06 -5.847964230598e-17 -2.458216614987e-05 -1.722754920903e-20 1.582978385964e-09 
1.666666666667e-01 7.730654875607e+00 9.984948631287e+04 9.984175565800e+04 9.999970700045e-01 2.929995504442e-06 1.808204914723e-17 -2.457877959630e-05 3.143447047846e-19 1.578952608962e-09 
2.083333333333e-01 8.332499347164e+00 9.947926574532e+04 9.947093324597e+04 9.999968418994e-01 3.158100577605e-06 2.611536884248e-16 -2.457479193505e-05 5.343871377091e-19 1.574231133658e-09 
2.500000000000e-01 8.746224934893e+00 9.910885051180e+04 9.910010428687e+04 9.999966850933e-01 3.314906712681e-06 3.426597027328e-16 -2.457031711528e-05 1.977280140338e-19 1.568953608581e-09 
2.916666666667e-01 9.089940310889e+00 9.873835802899e+04 9.872926808868e+04 9.999965548217e-01 3.445178277328e-06 3.438470437353e-16 -2.456539038520e-05 -2.836797569667e-19 1.563165552270e-09 
3.333333333333e-01 9.485968828399e+00 9.836790991319e+04 9.835842394436e+04 9.999964047230e-01 3.595277045854e-06 5.222461103061e-16 -2.455992894707e-05 3.824004648138e-19 1.556773649386e-09 
3.750000000000e-01 1.010062199559e+01 9.799767153577e+04 9.798757091378e+04 9.999961717633e-01 3.828236742831e-06 4.804277046432e-16 -2.455366717366e-05 6.661205272732e-19 1.549472200740e-09 
4.166666666667e-01 1.120734043840e+01 9.762791482056e+04 9.761670748012e+04 9.999957523059e-01 4.247694099790e-06 -5.791696929544e-17 -2.454604468224e-05 -1.129898851348e-18 1.540616166854e-09 
4.583333333333e-01 1.328999791869e+01 9.725912098813e+04 9.724583099021e+04 9.999949629579e-01 5.037042111411e-06 3.812166030518e-16 -2.453602131695e-05 -3.516724280574e-19 1.529012020059e-09 
5.000000000000e-01 1.721101122039e+01 9.689214775736e+04 9.687493674614e+04 9.999934768546e-01 6.523145362869e-06 1.234827506162e-15 -2.452179357599e-05 3.836955128308e-19 1.512598920790e-09 
5.416666666667e-01 2.447559626643e+01 9.652849217667e+04 9.650401658041e+04 9.999907235043e-01 9.276495740895e-06 1.740716451591e-15 -2.450040117936e-05 -1.190337528860e-18 1.488009596430e-09 
5.833333333333e-01 3.762348052994e+01 9.617068022953e+04 9.613305674900e+04 9.999857403246e-01 1.425967535562e-05 3.175934003340e-15 -2.446725516001e-05 3.381650192223e-18 1.450049007125e-09 
6.250000000000e-01 6.076205579182e+01 9.582279712888e+04 9.576203507309e+04 9.999769705732e-01 2.302942676580e-05 3.313421386736e-15 -2.441570701229e-05 1.406846821383e-18 1.391226978954e-09 
6.666666666667e-01 1.002051834387e+02 9.549112271618e+04 9.539091753274e+04 9.999620212334e-01 3.797876657519e-05 -3.025087326022e-15 -2.433691354605e-05 -7.173206708630e-18 1.301628041786e-09 
7.083333333333e-01 1.650879414937e+02 9.518474296732e+04 9.501965502582e+04 9.999374300193e-01 6.256998070553e-05 -3.888078885272e-15 -2.422037696099e-05 -2.231420841025e-18 1.169532123157e-09 
7.500000000000e-01 2.677060509815e+02 9.491588770790e+04 9.464818165692e+04 9.998985367296e-01 1.014632703829e-04 -2.342413530041e-14 -2.405546504485e-05 -1.824618672269e-17 9.831032171559e-10 
7.916666666667e-01 4.232746081586e+02 9.469969080088e+04 9.427641619272e+04 9.998395746908e-01 1.604253092382e-04 -9.050119674129e-14 -2.383356887052e-05 2.667929035595e-17 7.327349052713e-10 
8.333333333333e-01 6.490408860804e+02 9.455330785863e+04 9.390426697255e+04 9.997540070138e-01 2.459929862334e-04 -3.830564737223e-13 -2.354902957977e-05 2.107526092432e-16 4.119492193574e-10 
8.750000000000e-01 9.634932714030e+02 9.449512941344e+04 9.353163614204e+04 9.996608589587e-01 3.391410412992e-04 -2.219245646433e-12 -2.284047833886e-05 2.755087027494e-17 -3.991149383062e-10 
9.166666666667e-01 1.592495931553e+03 9.474980880152e+04 9.315731286997e+04 9.987263240576e-01 1.273675942441e-03 -9.873693128675e-12 -2.080599408145e-05 -1.416428666793e-16 -2.715016360538e-09 
9.583333333333e-01 3.055036869685e+03 9.583356380341e+04 9.277852693372e+04 9.982335796801e-01 1.766420319867e-03 -1.764752604220e-11 -1.146700602933e-05 4.245429100972e-15 -1.348301200403e-08 
1.000000000000e+00 8.949478796984e+03 1.013250000000e+05 9.237552120302e+04 9.310117019630e-01 6.898829803696e-02 -1.518888912313e-11 -3.174766033156e-06 4.039165106823e-17 -2.381050401821e-08 
 TITLE = "Profiles along polylines"
 VARIABLES = "DIST" "PRESSURE1" "PRESSURE2" "PRESSURE_W" "SATURATION1" SATURATION2 "VELOCITY_X1" "VELOCITY_Y1" "VELOCITY_X2" "VELOCITY_Y2" 
 ZONE T="TIME=2.000000000000e+01"
0.000000000000e+00 0.000000000000e+00 1.013250000000e+05 1.013250000000e+05 1.000000000000e+00 1.110223024625e-16 -1.557942947236e-17 -1.863056797360e-05 -8.718999440432e-23 1.622189727634e-09 
4.166666666667e-02 5.347799137785e+00 1.009503486756e+05 1.009450008765e+05 9.999979731306e-01 2.026869351357e-06 -3.347554911735e-15 -1.863002220163e-05 1.468128284545e-20 1.618600116024e-09 
8.333333333333e-02 9.584860604514e+00 1.005745851751e+05 1.005650003145e+05 9.999963672420e-01 3.632758017735e-06 -3.784578478574e-15 -1.862851197319e-05 2.399621639148e-20 1.616789461533e-09 
1.250000000000e-01 1.298225579608e+01 1.001979789805e+05 1.001849967247e+05 9.999950795952e-01 4.920404769182e-06 -5.165484162793e-15 -1.862596089083e-05 8.409538805754e-21 1.613743811157e-09 
1.666666666667e-01 1.582726068851e+01 9.982081570590e+04 9.980498844521e+04 9.999940013099e-01 5.998690073561e-06 -6.160281233526e-15 -1.862228356951e-05 1.088901535651e-20 1.609370928451e-09 
2.083333333333e-01 1.844278776828e+01 9.944341642411e+04 9.942497363634e+04 9.999930099990e-01 6.990000992024e-06 -6.486303195897e-15 -1.861730443128e-05 -2.742385718107e-20 1.603472786165e-09 
2.500000000000e-01 2.121903896360e+01 9.906616914814e+04 9.904495010918e+04 9.999919577720e-01 8.042227957583e-06 -6.597731105522e-15 -1.861070784221e-05 1.427596200300e-19 1.595688315857e-09 
2.916666666667e-01 2.466129123373e+01 9.868957635897e+04 9.866491506774e+04 9.999906531240e-01 9.346875990524e-06 -6.389727895171e-15 -1.860197519732e-05 9.698310608405e-20 1.585421911612e-09 
3.333333333333e-01 2.945744294197e+01 9.831432218857e+04 9.828486474563e+04 9.999888353346e-01 1.116466544948e-05 -5.643563774159e-15 -1.859031142447e-05 -1.418843339197e-19 1.571760887244e-09 
3.750000000000e-01 3.656790268762e+01 9.794136182704e+04 9.790479392435e+04 9.999861403992e-01 1.385960079769e-05 -4.754886477905e-15 -1.857456721516e-05 -3.060159030762e-19 1.553389432746e-09 
4.166666666667e-01 4.733794856382e+01 9.757203328255e+04 9.752469533398e+04 9.999820584441e-01 1.794155588541e-05 -4.009439888689e-15 -1.855316948514e-05 -4.455180842967e-20 1.528513500687e-09 
4.583333333333e-01 6.362813201141e+01 9.720818709383e+04 9.714455896182e+04 9.999758843017e-01 2.411569831373e-05 -3.112774408293e-15 -1.852408073777e-05 -1.453143044571e-19 1.494819941345e-09 
5.000000000000e-01 8.795119557550e+01 9.685232252871e+04 9.676437133313e+04 9.999666656174e-01 3.333438263520e-05 -4.049453918754e-16 -1.848481649902e-05 1.723801761093e-18 1.449502155975e-09 
5.416666666667e-01 1.235945258258e+02 9.650770940500e+04 9.638411487917e+04 9.999531564388e-01 4.684356123330e-05 2.604028462448e-15 -1.843255615392e-05 -8.306927248489e-19 1.389390441328e-09 
5.833333333333e-01 1.746964735628e+02 9.617846403786e+04 9.600376756430e+04 9.999337882896e-01 6.621171044507e-05 6.280787092426e-15 -1.836438576037e-05 4.421851547129e-18 1.311227891672e-09 
6.250000000000e-01 2.462334108468e+02 9.586953641570e+04 9.562330300485e+04 9.999066750750e-01 9.332492504510e-05 9.484289134415e-15 -1.827772590022e-05 3.641498912263e-17 1.212148747543e-09 
6.666666666667e-01 3.438554424350e+02 9.558654685594e+04 9.524269141351e+04 9.998696753488e-01 1.303246512372e-04 -3.698313469351e-15 -1.817109061154e-05 3.572851382516e-17 1.090522216773e-09 
7.083333333333e-01 4.734450953741e+02 9.533534714547e+04 9.486190205009e+04 9.998205595744e-01 1.794404255979e-04 -3.816381468776e-14 -1.804572269851e-05 1.910028603880e-17 9.477804136560e-10 
7.500000000000e-01 6.400297421758e+02 9.512093893450e+04 9.448090919233e+04 9.997574223274e-01 2.425776725821e-04 -8.185808731808e-14 -1.791004132794e-05 1.521386177994e-17 7.934341688391e-10 
7.916666666667e-01 8.448296869951e+02 9.494453796103e+04 9.409970827404e+04 9.996974447970e-01 3.025552029553e-04 -1.373752511515e-13 -1.770409207863e-05 -2.532784415169e-17 5.578712587952e-10 
8.333333333333e-01 1.127288752014e+03 9.484537513821e+04 9.371808638619e+04 9.994161309194e-01 5.838690805664e-04 -7.741019857252e-13 -1.719806911766e-05 -3.048134676026e-16 -1.833861524994e-11 
8.750000000000e-01 1.617299414138e+03 9.495265358866e+04 9.333535417452e+04 9.985473191694e-01 1.452680830562e-03 -4.315588000763e-12 -1.614378017676e-05 -2.510410857003e-15 -1.216508879775e-09 
9.166666666667e-01 2.492724239339e+03 9.544329053837e+04 9.295056629904e+04 9.968535460637e-01 3.146453936309e-03 -2.020926751468e-11 -1.384237119597e-05 -2.721715852025e-15 -3.888178476070e-09 
9.583333333333e-01 4.295015092968e+03 9.685588069036e+04 9.256086559739e+04 9.899063786475e-01 1.009362135253e-02 -1.022850188862e-10 -6.622411844666e-06 -1.179949221720e-14 -1.218984670524e-08 
1.000000000000e+00 9.170963207373e+03 1.013250000000e+05 9.215403679263e+04 9.238778238556e-01 7.612217614437e-02 -1.641183956270e-11 -1.042427033654e-06 -9.047800256977e-17 -1.937820235230e-08 
 TITLE = "Profiles along polylines"
 VARIABLES = "DIST" "PRESSURE1" "PRESSURE2" "PRESSURE_W" "SATURATION1" SATURATION2 "VELOCITY_X1" "VELOCITY_Y1" "VELOCITY_X2" "VELOCITY_Y2" 
 ZONE T="TIME=3.000000000000e+01"
0.000000000000e+00 0.000000000000e+00 1.013250000000e+05 1.013250000000e+05 1.000000000000e+00 1.110223024625e-16 -5.248185424651e-18 -1.596074412589e-05 -3.986025616237e-23 1.628407000425e-09 
4.166666666667e-02 8.033879942610e+00 1.009489146579e+05 1.009408807780e+05 9.999969550792e-01 3.044920837136e-06 -3.230520773849e-17 -1.595990614871e-05 -5.527307503367e-22 1.624455022909e-09 
8.333333333333e-02 1.510431634646e+01 1.005718636025e+05 1.005567592862e+05 9.999942753131e-01 5.724686938602e-06 -6.542274714030e-17 -1.595750313022e-05 -2.926311506669e-21 1.621573619084e-09 
1.250000000000e-01 2.166826268673e+01 1.001943011887e+05 1.001726329260e+05 9.999917875118e-01 8.212488240900e-06 -1.066915159700e-16 -1.595331380893e-05 -9.501405753711e-21 1.616571112131e-09 
1.666666666667e-01 2.824881570663e+01 9.981674757833e+04 9.978849876262e+04 9.999892934164e-01 1.070658364122e-05 -1.219366510159e-16 -1.594704837890e-05 -5.694992502217e-20 1.609118658542e-09 
2.083333333333e-01 3.547276409099e+01 9.943982608756e+04 9.940435332346e+04 9.999865554677e-01 1.344453231811e-05 -1.955209378238e-16 -1.593827610987e-05 -1.447663207571e-19 1.598724233688e-09 
2.500000000000e-01 4.411351454073e+01 9.906430588343e+04 9.902019236889e+04 9.999832805369e-01 1.671946314619e-05 -2.529312108715e-16 -1.592640796216e-05 -3.843676913927e-19 1.584714475662e-09 
2.916666666667e-01 5.513901129294e+01 9.869114964972e+04 9.863601063843e+04 9.999791017633e-01 2.089823667029e-05 6.868207078969e-17 -1.591068375207e-05 4.460886696966e-21 1.566222128425e-09 
3.333333333333e-01 6.976255277488e+01 9.832156413659e+04 9.825180158381e+04 9.999735592949e-01 2.644070512736e-05 6.053617297399e-16 -1.589017059787e-05 7.152695709814e-19 1.542186730182e-09 
3.750000000000e-01 8.949231799047e+01 9.795704943017e+04 9.786755711217e+04 9.999660815166e-01 3.391848344159e-05 3.836665924768e-16 -1.586378030825e-05 -8.199489237415e-19 1.511377034609e-09 
4.166666666667e-01 1.161731429382e+02 9.759944051737e+04 9.748326737443e+04 9.999559692171e-01 4.403078290516e-05 -1.213226995305e-15 -1.583031343386e-05 -3.656099911354e-18 1.472443487251e-09 
4.583333333333e-01 1.520119094471e+02 9.725093255509e+04 9.709892064564e+04 9.999423859662e-01 5.761403379978e-05 -2.661778817105e-15 -1.578853708585e-05 -7.568216743715e-18 1.424008138572e-09 
5.000000000000e-01 1.995759492858e+02 9.691407930331e+04 9.671450335403e+04 9.999243587195e-01 7.564128053894e-05 1.172038625503e-15 -1.573730441489e-05 -5.242569440030e-18 1.364800333071e-09 
5.416666666667e-01 2.617511480642e+02 9.659175147732e+04 9.633000032925e+04 9.999007936974e-01 9.920630262783e-05 1.581313365516e-14 -1.567573240285e-05 1.184472173628e-17 1.293856631437e-09 
5.833333333333e-01 3.416395476460e+02 9.628703492532e+04 9.594539537768e+04 9.998705151950e-01 1.294848049535e-04 1.092445781704e-14 -1.560348521275e-05 -9.605304202565e-19 1.210838720467e-09 
6.250000000000e-01 4.423562865266e+02 9.600302868698e+04 9.556067240046e+04 9.998323425438e-01 1.676574561565e-04 2.215558614597e-15 -1.552128027886e-05 1.410567224782e-17 1.116604494352e-09 
6.666666666667e-01 5.666387158635e+02 9.574245623882e+04 9.517581752296e+04 9.997852382603e-01 2.147617396994e-04 -1.060640681261e-15 -1.543181888726e-05 2.676372783073e-17 1.014263584275e-09 
7.083333333333e-01 7.161126189756e+02 9.550693569103e+04 9.479082307205e+04 9.997285861563e-01 2.714138437179e-04 -2.030188251196e-14 -1.534113926999e-05 -7.208386163413e-17 9.107165117248e-10 
7.500000000000e-01 8.901268750123e+02 9.529582073517e+04 9.440569386015e+04 9.996823672149e-01 3.176327850579e-04 8.686989335304e-14 -1.518815154612e-05 -3.715330788138e-17 7.349247852112e-10 
7.916666666667e-01 1.125306833736e+03 9.514553838083e+04 9.402023154710e+04 9.994104934989e-01 5.895065011143e-04 4.284133816449e-13 -1.482701847290e-05 -9.378675353868e-17 3.236640542944e-10 
8.333333333333e-01 1.501878866633e+03 9.513589211888e+04 9.363401325224e+04 9.987150043775e-01 1.284995622455e-03 1.374109061171e-12 -1.416316770775e-05 -7.668458397042e-17 -4.301801093441e-10 
8.750000000000e-01 2.109402205813e+03 9.535596612304e+04 9.324656391723e+04 9.976739295243e-01 2.326070475739e-03 6.955387206653e-12 -1.306859457038e-05 6.149893799602e-16 -1.693245815404e-09 
9.166666666667e-01 3.107909007821e+03 9.596495668991e+04 9.285704768209e+04 9.944870872553e-01 5.512912744705e-03 1.741917375893e-11 -1.074377001636e-05 1.490043439098e-15 -4.396647223085e-09 