 TITLE = "Time curves in points"
 VARIABLES = "TIME"  "PRESSURE1"  "PRESSURE2"  "PRESSURE_W"  "SATURATION1" SATURATION2  "VELOCITY_X1"  "VELOCITY_Y1"  "VELOCITY_X2"  "VELOCITY_Y2" 
 ZONE T="POINT=POINT0"
0.000000000000e+00 0.000000000000e+00 1.013250000000e+05 1.013250000000e+05 1.000000000000e+00 2.220446049250e-16 0.000000000000e+00 0.000000000000e+00 0.000000000000e+00 0.000000000000e+00 
1.000000000000e-03 0.000000000000e+00 1.013250000000e+05 1.013250000000e+05 1.000000000000e+00 0.000000000000e+00 -1.109577543482e-17 -2.618878295765e-04 -3.449806192812e-23 1.781851707206e-11 
2.000000000000e-03 0.000000000000e+00 1.013250000000e+05 1.013250000000e+05 1.000000000000e+00 0.000000000000e+00 -4.508444408000e-18 -2.589451241369e-04 -5.930699537953e-23 3.750722025411e-11 
3.000000000000e-03 0.000000000000e+00 1.013250000000e+05 1.013250000000e+05 1.000000000000e+00 1.110223024625e-16 -6.870542544080e-18 -2.560413085094e-04 -3.700837348385e-23 5.693572090433e-11 
4.000000000000e-03 0.000000000000e+00 1.013250000000e+05 1.013250000000e+05 1.000000000000e+00 1.110223024625e-16 -6.307990326500e-18 -2.531758374642e-04 -2.038735556640e-23 7.610766573520e-11 
5.000000000000e-03 0.000000000000e+00 1.013250000000e+05 1.013250000000e+05 1.000000000000e+00 1.110223024625e-16 -6.333248613343e-18 -2.503481824768e-04 -1.202569780275e-22 9.502658974895e-11 
6.000000000000e-03 0.000000000000e+00 1.013250000000e+05 1.013250000000e+05 1.000000000000e+00 1.110223024625e-16 -6.842232701126e-18 -2.475578353456e-04 -8.884905318473e-23 1.136958920402e-10 
7.000000000000e-03 0.000000000000e+00 1.013250000000e+05 1.013250000000e+05 1.000000000000e+00 0.000000000000e+00 -8.625667153286e-18 -2.448041846840e-04 -1.089660322709e-22 1.321196620919e-10 
8.000000000000e-03 0.000000000000e+00 1.013250000000e+05 1.013250000000e+05 1.000000000000e+00 1.110223024625e-16 -6.093789447843e-19 -2.420867951655e-04 -4.366254551524e-23 1.503008114683e-10 
9.000000000000e-03 0.000000000000e+00 1.013250000000e+05 1.013250000000e+05 1.000000000000e+00 0.000000000000e+00 -1.504580110076e-17 -2.394051759725e-04 -6.590632041509e-24 1.682426231108e-10 
1.000000000000e-02 0.000000000000e+00 1.013250000000e+05 1.013250000000e+05 1.000000000000e+00 1.110223024625e-16 -5.395271566128e-18 -2.367587536406e-04 -1.023117284088e-22 1.859489329154e-10 
2.000000000000e-02 0.000000000000e+00 1.013250000000e+05 1.013250000000e+05 1.000000000000e+00 0.000000000000e+00 -9.022217727127e-18 -2.133880876345e-04 -5.804343798705e-23 3.423126039828e-10 
3.000000000000e-02 0.000000000000e+00 1.013250000000e+05 1.013250000000e+05 1.000000000000e+00 1.110223024625e-16 -9.827867842307e-18 -2.085146751013e-04 -3.905045045022e-23 3.749166508691e-10 
4.000000000000e-02 0.000000000000e+00 1.013250000000e+05 1.013250000000e+05 1.000000000000e+00 1.110223024625e-16 -7.819639088423e-18 -2.038361105340e-04 -2.882631012732e-23 4.062166281178e-10 
5.000000000000e-02 0.000000000000e+00 1.013250000000e+05 1.013250000000e+05 1.000000000000e+00 0.000000000000e+00 -6.021300959174e-18 -1.992840353115e-04 -6.566267666600e-23 4.366698833102e-10 
6.000000000000e-02 0.000000000000e+00 1.013250000000e+05 1.013250000000e+05 1.000000000000e+00 0.000000000000e+00 -1.226413957008e-17 -1.948545400078e-04 -2.072829002262e-23 4.663025572614e-10 
7.000000000000e-02 0.000000000000e+00 1.013250000000e+05 1.013250000000e+05 1.000000000000e+00 1.110223024625e-16 -1.179828360369e-17 -1.905438194536e-04 -6.984969012914e-23 4.951400955431e-10 
8.000000000000e-02 0.000000000000e+00 1.013250000000e+05 1.013250000000e+05 1.000000000000e+00 2.220446049250e-16 -6.195584249009e-18 -1.863474648586e-04 -4.330240650483e-23 5.232119841685e-10 
9.000000000000e-02 0.000000000000e+00 1.013250000000e+05 1.013250000000e+05 1.000000000000e+00 0.000000000000e+00 -1.266781050822e-17 -1.822635402332e-04 -2.392720163952e-23 5.505311665660e-10 
1.000000000000e-01 0.000000000000e+00 1.013250000000e+05 1.013250000000e+05 1.000000000000e+00 1.110223024625e-16 -1.121127238858e-17 -1.782889894716e-04 -9.884863309918e-23 5.771180821660e-10 
2.000000000000e-01 0.000000000000e+00 1.013250000000e+05 1.013250000000e+05 1.000000000000e+00 1.110223024625e-16 9.169667047183e-19 -1.470021240893e-04 -9.310242359717e-23 7.863572479766e-10 
3.000000000000e-01 0.000000000000e+00 1.013250000000e+05 1.013250000000e+05 1.000000000000e+00 0.000000000000e+00 -9.136075376206e-18 -1.316976068662e-04 -1.056522796909e-22 8.886343653199e-10 
4.000000000000e-01 0.000000000000e+00 1.013250000000e+05 1.013250000000e+05 1.000000000000e+00 0.000000000000e+00 -1.554172984244e-17 -1.204570108577e-04 -4.215185760781e-23 9.637054885963e-10 
5.000000000000e-01 0.000000000000e+00 1.013250000000e+05 1.013250000000e+05 1.000000000000e+00 1.110223024625e-16 -3.178313020672e-18 -1.113498604529e-04 -2.370143137835e-23 1.024490345639e-09 
6.000000000000e-01 0.000000000000e+00 1.013250000000e+05 1.013250000000e+05 1.000000000000e+00 1.110223024625e-16 -8.096031679251e-18 -1.037519304135e-04 -5.376237250131e-24 1.075168119337e-09 
7.000000000000e-01 0.000000000000e+00 1.013250000000e+05 1.013250000000e+05 1.000000000000e+00 1.110223024625e-16 -1.302414653272e-17 -9.733063708323e-05 -7.368015223514e-23 1.117966237779e-09 
8.000000000000e-01 0.000000000000e+00 1.013250000000e+05 1.013250000000e+05 1.000000000000e+00 1.110223024625e-16 -1.217222461268e-17 -9.175126231832e-05 -2.274039992606e-23 1.155125769798e-09 
9.000000000000e-01 0.000000000000e+00 1.013250000000e+05 1.013250000000e+05 1.000000000000e+00 1.110223024625e-16 -6.229848856275e-20 -8.683677288286e-05 -4.419854423526e-23 1.187832429392e-09 
1.000000000000e+00 0.000000000000e+00 1.013250000000e+05 1.013250000000e+05 1.000000000000e+00 1.110223024625e-16 -1.756381555259e-17 -8.248120876336e-05 -9.398452016864e-23 1.216796205806e-09 
2.000000000000e+00 0.000000000000e+00 1.013250000000e+05 1.013250000000e+05 1.000000000000e+00 1.110223024625e-16 -1.408610146047e-18 -6.089425796716e-05 -1.946581503208e-22 1.359466446159e-09 
3.000000000000e+00 0.000000000000e+00 1.013250000000e+05 1.013250000000e+05 1.000000000000e+00 1.110223024625e-16 -2.722409367607e-18 -4.845732894116e-05 -1.630799492990e-22 1.441008811894e-09 
4.000000000000e+00 0.000000000000e+00 1.013250000000e+05 1.013250000000e+05 1.000000000000e+00 1.110223024625e-16 -2.822611008328e-18 -4.094252602186e-05 -7.695142177492e-23 1.489735402896e-09 
5.000000000000e+00 0.000000000000e+00 1.013250000000e+05 1.013250000000e+05 1.000000000000e+00 1.110223024625e-16 -1.118011227271e-17 -3.588805869830e-05 2.501365742849e-23 1.522109437206e-09 
6.000000000000e+00 0.000000000000e+00 1.013250000000e+05 1.013250000000e+05 1.000000000000e+00 1.110223024625e-16 -8.898320297210e-19 -3.223658143108e-05 -1.128565610897e-22 1.545191203971e-09 
7.000000000000e+00 0.000000000000e+00 1.013250000000e+05 1.013250000000e+05 1.000000000000e+00 1.110223024625e-16 -1.634261985945e-17 -2.953462887029e-05 -7.818344458475e-23 1.562002749640e-09 
8.000000000000e+00 0.000000000000e+00 1.013250000000e+05 1.013250000000e+05 1.000000000000e+00 0.000000000000e+00 -3.686374189657e-18 -2.747588253990e-05 -1.123812517118e-22 1.574583107508e-09 
9.000000000000e+00 0.000000000000e+00 1.013250000000e+05 1.013250000000e+05 1.000000000000e+00 0.000000000000e+00 -1.540855583379e-18 -2.586220664701e-05 -7.234397259059e-23 1.584248370631e-09 
1.000000000000e+01 0.000000000000e+00 1.013250000000e+05 1.013250000000e+05 1.000000000000e+00 0.000000000000e+00 -1.514087658111e-17 -2.458709060058e-05 -7.870447069058e-23 1.591702524812e-09 
1.100000000000e+01 0.000000000000e+00 1.013250000000e+05 1.013250000000e+05 1.000000000000e+00 1.110223024625e-16 -9.157488219534e-18 -2.354507727501e-05 -4.770022369783e-23 1.597643616215e-09 
1.200000000000e+01 0.000000000000e+00 1.013250000000e+05 1.013250000000e+05 1.000000000000e+00 0.000000000000e+00 -1.711219778278e-17 -2.267695626457e-05 -2.721376509559e-23 1.602460522952e-09 
1.300000000000e+01 0.000000000000e+00 1.013250000000e+05 1.013250000000e+05 1.000000000000e+00 1.110223024625e-16 -6.158884737279e-18 -2.194200796798e-05 -5.621863848206e-23 1.606418806303e-09 
1.400000000000e+01 0.000000000000e+00 1.013250000000e+05 1.013250000000e+05 1.000000000000e+00 0.000000000000e+00 -1.352486672800e-17 -2.130551961455e-05 -6.149971740935e-24 1.609743875909e-09 
1.500000000000e+01 0.000000000000e+00 1.013250000000e+05 1.013250000000e+05 1.000000000000e+00 1.110223024625e-16 -1.233146624375e-17 -2.074530125535e-05 -5.532074608079e-23 1.612577402186e-09 
1.600000000000e+01 0.000000000000e+00 1.013250000000e+05 1.013250000000e+05 1.000000000000e+00 0.000000000000e+00 -4.881952331955e-18 -2.024327788958e-05 -4.598170932307e-23 1.615033418002e-09 
1.700000000000e+01 0.000000000000e+00 1.013250000000e+05 1.013250000000e+05 1.000000000000e+00 0.000000000000e+00 -8.551716802709e-18 -1.978810839277e-05 -1.245155247677e-22 1.617180827876e-09 
1.800000000000e+01 0.000000000000e+00 1.013250000000e+05 1.013250000000e+05 1.000000000000e+00 0.000000000000e+00 -1.150649468312e-17 -1.937145220935e-05 -2.297446513932e-23 1.619068358179e-09 
1.900000000000e+01 0.000000000000e+00 1.013250000000e+05 1.013250000000e+05 1.000000000000e+00 1.110223024625e-16 -1.616425651859e-17 -1.898671512551e-05 -8.094698754762e-24 1.620732961406e-09 
2.000000000000e+01 0.000000000000e+00 1.013250000000e+05 1.013250000000e+05 1.000000000000e+00 1.110223024625e-16 -1.557942947236e-17 -1.863056797360e-05 -8.718999440432e-23 1.622189727634e-09 
2.100000000000e+01 0.000000000000e+00 1.013250000000e+05 1.013250000000e+05 1.000000000000e+00 0.000000000000e+00 -7.383612362949e-18 -1.829697062874e-05 -6.579334274451e-23 1.623471886973e-09 
2.200000000000e+01 0.000000000000e+00 1.013250000000e+05 1.013250000000e+05 1.000000000000e+00 1.110223024625e-16 -1.049856531152e-17 -1.798486734039e-05 -7.529152937122e-23 1.624579420733e-09 
2.300000000000e+01 0.000000000000e+00 1.013250000000e+05 1.013250000000e+05 1.000000000000e+00 1.110223024625e-16 -1.275719494381e-18 -1.768838881134e-05 -1.035406886554e-22 1.625544617854e-09 
2.400000000000e+01 0.000000000000e+00 1.013250000000e+05 1.013250000000e+05 1.000000000000e+00 1.110223024625e-16 -7.450449510127e-18 -1.740659789851e-05 -7.845642884120e-23 1.626367068194e-09 
2.500000000000e+01 0.000000000000e+00 1.013250000000e+05 1.013250000000e+05 1.000000000000e+00 0.000000000000e+00 -1.272498487161e-17 -1.713824408636e-05 -9.531134660209e-23 1.627048808991e-09 
2.600000000000e+01 0.000000000000e+00 1.013250000000e+05 1.013250000000e+05 1.000000000000e+00 2.220446049250e-16 -1.193221040945e-17 -1.688209896853e-05 -1.133805301403e-23 1.627592147955e-09 
2.700000000000e+01 0.000000000000e+00 1.013250000000e+05 1.013250000000e+05 1.000000000000e+00 1.110223024625e-16 -1.216521276898e-17 -1.663697931064e-05 -8.696513005440e-23 1.627999560720e-09 
2.800000000000e+01 0.000000000000e+00 1.013250000000e+05 1.013250000000e+05 1.000000000000e+00 1.110223024625e-16 1.256002760989e-18 -1.640188300167e-05 -5.776448193073e-23 1.628272835905e-09 
2.900000000000e+01 0.000000000000e+00 1.013250000000e+05 1.013250000000e+05 1.000000000000e+00 0.000000000000e+00 -1.603769915878e-17 -1.617706627757e-05 -8.036434005127e-23 1.628405922403e-09 
3.000000000000e+01 0.000000000000e+00 1.013250000000e+05 1.013250000000e+05 1.000000000000e+00 1.110223024625e-16 -5.248185424651e-18 -1.596074412589e-05 -3.986025616237e-23 1.628407000425e-09 
3.100000000000e+01 0.000000000000e+00 1.013250000000e+05 1.013250000000e+05 1.000000000000e+00 1.110223024625e-16 -1.083560934456e-17 -1.575253566746e-05 -9.155460560008e-23 1.628275413252e-09 
3.200000000000e+01 0.000000000000e+00 1.013250000000e+05 1.013250000000e+05 1.000000000000e+00 0.000000000000e+00 -1.027600508976e-17 -1.555197555400e-05 -7.676153351306e-23 1.628011671383e-09 
3.300000000000e+01 0.000000000000e+00 1.013250000000e+05 1.013250000000e+05 1.000000000000e+00 1.110223024625e-16 -1.377852710548e-17 -1.535860512668e-05 -4.927633879262e-24 1.627616813144e-09 
3.400000000000e+01 0.000000000000e+00 1.013250000000e+05 1.013250000000e+05 1.000000000000e+00 0.000000000000e+00 -1.324473276661e-17 -1.517179032899e-05 -1.241795512724e-22 1.627093611309e-09 
3.500000000000e+01 0.000000000000e+00 1.013250000000e+05 1.013250000000e+05 1.000000000000e+00 0.000000000000e+00 -4.531543755476e-18 -1.499121639820e-05 -9.250473771078e-23 1.626443254309e-09 
3.600000000000e+01 0.000000000000e+00 1.013250000000e+05 1.013250000000e+05 1.000000000000e+00 0.000000000000e+00 -2.915850800876e-18 -1.481656726355e-05 -5.076367955952e-23 1.625667468723e-09 
3.700000000000e+01 0.000000000000e+00 1.013250000000e+05 1.013250000000e+05 1.000000000000e+00 1.110223024625e-16 -3.521853950421e-18 -1.464734466790e-05 -4.351713312173e-23 1.624769695418e-09 
3.800000000000e+01 0.000000000000e+00 1.013250000000e+05 1.013250000000e+05 1.000000000000e+00 0.000000000000e+00 -6.392036075164e-18 -1.448325910062e-05 -3.342281656001e-23 1.623752443430e-09 
3.900000000000e+01 0.000000000000e+00 1.013250000000e+05 1.013250000000e+05 1.000000000000e+00 1.110223024625e-16 -1.533983214230e-17 -1.432411605467e-05 -7.232967338380e-23 1.622618007789e-09 
4.000000000000e+01 0.000000000000e+00 1.013250000000e+05 1.013250000000e+05 1.000000000000e+00 1.110223024625e-16 -1.784357547882e-18 -1.417039750746e-05 1.087981411278e-23 1.621364558783e-09 
4.100000000000e+01 0.000000000000e+00 1.013250000000e+05 1.013250000000e+05 1.000000000000e+00 0.000000000000e+00 -8.749857987323e-18 -1.402179928737e-05 -6.737015901045e-23 1.619995791186e-09 
4.200000000000e+01 0.000000000000e+00 1.013250000000e+05 1.013250000000e+05 1.000000000000e+00 0.000000000000e+00 -1.556901089190e-17 -1.387674132666e-05 -7.335157907190e-24 1.618524213516e-09 
4.300000000000e+01 0.000000000000e+00 1.013250000000e+05 1.013250000000e+05 1.000000000000e+00 1.110223024625e-16 -1.807169104713e-17 -1.373546028068e-05 -3.973869680349e-23 1.616950408090e-09 
4.400000000000e+01 0.000000000000e+00 1.013250000000e+05 1.013250000000e+05 1.000000000000e+00 0.000000000000e+00 -1.493683096763e-17 -1.359790594691e-05 4.909510949404e-23 1.615277082847e-09 
4.500000000000e+01 0.000000000000e+00 1.013250000000e+05 1.013250000000e+05 1.000000000000e+00 0.000000000000e+00 -4.860665761188e-18 -1.346387061963e-05 -1.042834588960e-23 1.613508182380e-09 
4.600000000000e+01 0.000000000000e+00 1.013250000000e+05 1.013250000000e+05 1.000000000000e+00 1.110223024625e-16 -1.258653831528e-17 -1.333328906619e-05 -4.904669097774e-23 1.611646868912e-09 
4.700000000000e+01 0.000000000000e+00 1.013250000000e+05 1.013250000000e+05 1.000000000000e+00 1.110223024625e-16 -8.872369304038e-18 -1.320598701556e-05 -1.071834959907e-22 1.609697187609e-09 
4.800000000000e+01 0.000000000000e+00 1.013250000000e+05 1.013250000000e+05 1.000000000000e+00 2.220446049250e-16 -9.679702592584e-18 -1.308203614978e-05 -1.292336028569e-22 1.607661677785e-09 
4.900000000000e+01 0.000000000000e+00 1.013250000000e+05 1.013250000000e+05 1.000000000000e+00 1.110223024625e-16 -4.553074814497e-18 -1.296144849766e-05 -3.841756692047e-23 1.605543388118e-09 
5.000000000000e+01 0.000000000000e+00 1.013250000000e+05 1.013250000000e+05 1.000000000000e+00 1.110223024625e-16 -1.076009849283e-17 -1.284406575262e-05 -1.107804875788e-22 1.603346579292e-09 
5.100000000000e+01 0.000000000000e+00 1.013250000000e+05 1.013250000000e+05 1.000000000000e+00 0.000000000000e+00 -1.392526068694e-17 -1.272978946837e-05 -8.584738121171e-23 1.601075148077e-09 
5.200000000000e+01 0.000000000000e+00 1.013250000000e+05 1.013250000000e+05 1.000000000000e+00 1.110223024625e-16 -8.688499022273e-18 -1.261897847380e-05 -8.280508200488e-23 1.598729938833e-09 
5.300000000000e+01 0.000000000000e+00 1.013250000000e+05 1.013250000000e+05 1.000000000000e+00 3.330669073875e-16 -1.229562146341e-17 -1.251073305084e-05 -6.254748997837e-24 1.596320155096e-09 
5.400000000000e+01 0.000000000000e+00 1.013250000000e+05 1.013250000000e+05 1.000000000000e+00 0.000000000000e+00 -4.021758947211e-18 -1.240526164283e-05 -3.114619173984e-24 1.593847545567e-09 
5.500000000000e+01 0.000000000000e+00 1.013250000000e+05 1.013250000000e+05 1.000000000000e+00 0.000000000000e+00 -1.401434338817e-17 -1.230245819363e-05 -1.016448553646e-22 1.591315907580e-09 
5.600000000000e+01 0.000000000000e+00 1.013250000000e+05 1.013250000000e+05 1.000000000000e+00 1.110223024625e-16 -2.292808766182e-18 -1.220223439955e-05 -1.082008129351e-22 1.588728878125e-09 
5.700000000000e+01 0.000000000000e+00 1.013250000000e+05 1.013250000000e+05 1.000000000000e+00 1.110223024625e-16 -1.293261824517e-17 -1.210399941428e-05 -5.499581459404e-23 1.586093422991e-09 
5.800000000000e+01 0.000000000000e+00 1.013250000000e+05 1.013250000000e+05 1.000000000000e+00 1.110223024625e-16 -2.722010690136e-18 -1.200777378559e-05 -9.503402769422e-23 1.583412418321e-09 
5.900000000000e+01 0.000000000000e+00 1.013250000000e+05 1.013250000000e+05 1.000000000000e+00 0.000000000000e+00 -1.353736854765e-17 -1.191346905097e-05 -2.210981461713e-22 1.580689471228e-09 
6.000000000000e+01 0.000000000000e+00 1.013250000000e+05 1.013250000000e+05 1.000000000000e+00 1.110223024625e-16 -6.828630493500e-18 -1.182104732814e-05 -2.414194433054e-23 1.577927844750e-09 
6.100000000000e+01 0.000000000000e+00 1.013250000000e+05 1.013250000000e+05 1.000000000000e+00 0.000000000000e+00 -2.708208309401e-18 -1.173040968425e-05 3.305357952869e-23 1.575131189713e-09 
6.200000000000e+01 0.000000000000e+00 1.013250000000e+05 1.013250000000e+05 1.000000000000e+00 0.000000000000e+00 -4.655822635961e-18 -1.164155485119e-05 4.444874329065e-23 1.572302445923e-09 
6.300000000000e+01 0.000000000000e+00 1.013250000000e+05 1.013250000000e+05 1.000000000000e+00 1.110223024625e-16 -9.685406497008e-18 -1.155433255797e-05 5.491922351925e-23 1.569445460308e-09 
6.400000000000e+01 0.000000000000e+00 1.013250000000e+05 1.013250000000e+05 1.000000000000e+00 0.000000000000e+00 -1.249409114091e-17 -1.146942816218e-05 -5.702480759865e-23 1.566558378950e-09 
6.500000000000e+01 0.000000000000e+00 1.013250000000e+05 1.013250000000e+05 1.000000000000e+00 1.110223024625e-16 -9.608895789091e-18 -1.138571290304e-05 -4.744640897513e-23 1.563651287550e-09 
6.600000000000e+01 0.000000000000e+00 1.013250000000e+05 1.013250000000e+05 1.000000000000e+00 0.000000000000e+00 -4.443712641860e-18 -1.130388158992e-05 -2.033773303250e-23 1.560721907284e-09 
6.700000000000e+01 0.000000000000e+00 1.013250000000e+05 1.013250000000e+05 1.000000000000e+00 1.110223024625e-16 -1.710555535754e-18 -1.122324703721e-05 -1.094616026708e-22 1.557776995027e-09 
6.800000000000e+01 0.000000000000e+00 1.013250000000e+05 1.013250000000e+05 1.000000000000e+00 1.110223024625e-16 -1.364609518948e-17 -1.114390990811e-05 1.115807547849e-23 1.554817875806e-09 
6.900000000000e+01 0.000000000000e+00 1.013250000000e+05 1.013250000000e+05 1.000000000000e+00 1.110223024625e-16 -7.408521427456e-18 -1.106588453474e-05 -9.211897265283e-24 1.551846336295e-09 
7.000000000000e+01 0.000000000000e+00 1.013250000000e+05 1.013250000000e+05 1.000000000000e+00 1.110223024625e-16 -1.016805974600e-17 -1.098917244763e-05 8.761846590617e-23 1.548864185743e-09 
7.100000000000e+01 0.000000000000e+00 1.013250000000e+05 1.013250000000e+05 1.000000000000e+00 0.000000000000e+00 -1.735485753834e-17 -1.091372003091e-05 -1.677910613140e-22 1.545873590982e-09 
7.200000000000e+01 0.000000000000e+00 1.013250000000e+05 1.013250000000e+05 1.000000000000e+00 0.000000000000e+00 -1.038322527344e-17 -1.083948611177e-05 -3.415490633227e-23 1.542876655099e-09 
7.300000000000e+01 0.000000000000e+00 1.013250000000e+05 1.013250000000e+05 1.000000000000e+00 0.000000000000e+00 -1.520929670217e-17 -1.076648936874e-05 -1.110551979361e-22 1.539875108599e-09 
7.400000000000e+01 0.000000000000e+00 1.013250000000e+05 1.013250000000e+05 1.000000000000e+00 1.110223024625e-16 -9.822067725376e-18 -1.069464788987e-05 -1.638489739379e-23 1.536871368024e-09 
7.500000000000e+01 0.000000000000e+00 1.013250000000e+05 1.013250000000e+05 1.000000000000e+00 0.000000000000e+00 -4.670512139321e-18 -1.062397983299e-05 -2.292359323522e-22 1.533867162274e-09 
7.600000000000e+01 0.000000000000e+00 1.013250000000e+05 1.013250000000e+05 1.000000000000e+00 0.000000000000e+00 -5.703230308550e-19 -1.055447163429e-05 -2.337610769744e-23 1.530864367245e-09 
7.700000000000e+01 0.000000000000e+00 1.013250000000e+05 1.013250000000e+05 1.000000000000e+00 0.000000000000e+00 -1.227723868521e-18 -1.048606377200e-05 1.410524116586e-22 1.527865059028e-09 
7.800000000000e+01 0.000000000000e+00 1.013250000000e+05 1.013250000000e+05 1.000000000000e+00 2.220446049250e-16 -4.843031990987e-18 -1.041874852262e-05 -6.477481227239e-23 1.524870820008e-09 
7.900000000000e+01 0.000000000000e+00 1.013250000000e+05 1.013250000000e+05 1.000000000000e+00 1.110223024625e-16 -1.135701812790e-17 -1.035248025589e-05 8.029422373715e-23 1.521883300686e-09 
8.000000000000e+01 0.000000000000e+00 1.013250000000e+05 1.013250000000e+05 1.000000000000e+00 1.110223024625e-16 -1.130857586649e-17 -1.028721196915e-05 -5.333867312671e-23 1.518903951375e-09 
8.100000000000e+01 0.000000000000e+00 1.013250000000e+05 1.013250000000e+05 1.000000000000e+00 1.110223024625e-16 -7.382059547076e-18 -1.022326297601e-05 2.982552980910e-23 1.515931575785e-09 
8.200000000000e+01 0.000000000000e+00 1.013250000000e+05 1.013250000000e+05 1.000000000000e+00 1.110223024625e-16 -3.387715075434e-18 -1.016009068149e-05 4.093358904328e-23 1.512970553233e-09 
8.300000000000e+01 0.000000000000e+00 1.013250000000e+05 1.013250000000e+05 1.000000000000e+00 1.110223024625e-16 -1.214750368228e-17 -1.009782770642e-05 -4.118233397255e-22 1.510020654497e-09 
8.400000000000e+01 0.000000000000e+00 1.013250000000e+05 1.013250000000e+05 1.000000000000e+00 1.110223024625e-16 -1.555545553067e-18 -1.003646384363e-05 -9.574596382563e-23 1.507082596746e-09 
8.500000000000e+01 0.000000000000e+00 1.013250000000e+05 1.013250000000e+05 1.000000000000e+00 1.110223024625e-16 -1.580551774596e-17 -9.976002883489e-06 -2.643912568230e-22 1.504157079384e-09 
8.600000000000e+01 0.000000000000e+00 1.013250000000e+05 1.013250000000e+05 1.000000000000e+00 0.000000000000e+00 -1.034152189998e-17 -9.916408307816e-06 -1.034254450763e-22 1.501245190078e-09 
8.700000000000e+01 0.000000000000e+00 1.013250000000e+05 1.013250000000e+05 1.000000000000e+00 0.000000000000e+00 -7.574110530850e-18 -9.857674802298e-06 3.941292216442e-24 1.498347940107e-09 
8.800000000000e+01 0.000000000000e+00 1.013250000000e+05 1.013250000000e+05 1.000000000000e+00 0.000000000000e+00 -6.223285448181e-18 -9.799786364351e-06 -7.162108193474e-23 1.495466513755e-09 
8.900000000000e+01 0.000000000000e+00 1.013250000000e+05 1.013250000000e+05 1.000000000000e+00 0.000000000000e+00 -1.627549293245e-17 -9.742738469948e-06 -1.228501243454e-22 1.492602066566e-09 
9.000000000000e+01 0.000000000000e+00 1.013250000000e+05 1.013250000000e+05 1.000000000000e+00 1.110223024625e-16 -1.497972969095e-17 -9.686497486034e-06 -1.505743002863e-22 1.489755929210e-09 
9.100000000000e+01 0.000000000000e+00 1.013250000000e+05 1.013250000000e+05 1.000000000000e+00 0.000000000000e+00 -1.057646364726e-17 -9.631060569422e-06 -1.133019981192e-22 1.486929135456e-09 
9.200000000000e+01 0.000000000000e+00 1.013250000000e+05 1.013250000000e+05 1.000000000000e+00 0.000000000000e+00 -9.864489377618e-18 -9.576885595969e-06 -1.948605424080e-23 1.484119507134e-09 
9.300000000000e+01 0.000000000000e+00 1.013250000000e+05 1.013250000000e+05 1.000000000000e+00 0.000000000000e+00 -4.907400848373e-18 -9.523179305039e-06 -4.856390882695e-23 1.481333012169e-09 
9.400000000000e+01 0.000000000000e+00 1.013250000000e+05 1.013250000000e+05 1.000000000000e+00 0.000000000000e+00 -1.064061689933e-17 -9.470175569460e-06 9.114508115532e-23 1.478568540285e-09 
9.500000000000e+01 0.000000000000e+00 1.013250000000e+05 1.013250000000e+05 1.000000000000e+00 0.000000000000e+00 -8.627648428724e-18 -9.417867488727e-06 2.133392689543e-22 1.475826356973e-09 
9.600000000000e+01 0.000000000000e+00 1.013250000000e+05 1.013250000000e+05 1.000000000000e+00 0.000000000000e+00 -4.902458805689e-18 -9.366266568831e-06 -3.072717320729e-23 1.473106369099e-09 
9.700000000000e+01 0.000000000000e+00 1.013250000000e+05 1.013250000000e+05 1.000000000000e+00 1.110223024625e-16 -8.856936511450e-18 -9.315340037262e-06 2.054290808597e-22 1.470408553335e-09 
9.800000000000e+01 0.000000000000e+00 1.013250000000e+05 1.013250000000e+05 1.000000000000e+00 1.110223024625e-16 -9.011000332895e-18 -9.265363642849e-06 2.889298694171e-22 1.467730657699e-09 
9.900000000000e+01 0.000000000000e+00 1.013250000000e+05 1.013250000000e+05 1.000000000000e+00 1.110223024625e-16 -9.495893435141e-18 -9.215863563266e-06 2.527677525817e-22 1.465075359459e-09 
1.000000000000e+02 0.000000000000e+00 1.013250000000e+05 1.013250000000e+05 1.000000000000e+00 0.000000000000e+00 -1.510378509951e-17 -9.166999126841e-06 -1.837598180539e-22 1.462441179243e-09 
1.010000000000e+02 0.000000000000e+00 1.013250000000e+05 1.013250000000e+05 1.000000000000e+00 0.000000000000e+00 -1.430067785279e-17 -9.118783645194e-06 -1.117960769621e-23 1.459827819923e-09 
1.020000000000e+02 0.000000000000e+00 1.013250000000e+05 1.013250000000e+05 1.000000000000e+00 0.000000000000e+00 -3.589580104118e-18 -9.071175191184e-06 -2.598233846958e-22 1.457235639112e-09 
1.030000000000e+02 0.000000000000e+00 1.013250000000e+05 1.013250000000e+05 1.000000000000e+00 0.000000000000e+00 -1.676550662169e-17 -9.024187998996e-06 -2.716313283392e-22 1.454664909731e-09 
1.040000000000e+02 0.000000000000e+00 1.013250000000e+05 1.013250000000e+05 1.000000000000e+00 1.110223024625e-16 -1.780926492165e-17 -8.977815651755e-06 -9.323395125616e-23 1.452116286270e-09 
1.050000000000e+02 0.000000000000e+00 1.013250000000e+05 1.013250000000e+05 1.000000000000e+00 0.000000000000e+00 -1.162913525684e-18 -8.932043819690e-06 3.641273490186e-23 1.449590621180e-09 
1.060000000000e+02 0.000000000000e+00 1.013250000000e+05 1.013250000000e+05 1.000000000000e+00 1.110223024625e-16 -7.606603064248e-18 -8.886850230698e-06 3.582502460641e-23 1.447088855362e-09 
1.070000000000e+02 0.000000000000e+00 1.013250000000e+05 1.013250000000e+05 1.000000000000e+00 1.110223024625e-16 -1.019257215478e-17 -8.842249244816e-06 -2.169197788389e-22 1.444611611281e-09 
1.080000000000e+02 0.000000000000e+00 1.013250000000e+05 1.013250000000e+05 1.000000000000e+00 1.110223024625e-16 -7.572328746388e-18 -8.798186564589e-06 -3.766057731677e-23 1.442159809723e-09 
1.090000000000e+02 0.000000000000e+00 1.013250000000e+05 1.013250000000e+05 1.000000000000e+00 1.110223024625e-16 -1.496547479120e-17 -8.754683716220e-06 -2.138267059562e-22 1.439733651988e-09 
1.100000000000e+02 0.000000000000e+00 1.013250000000e+05 1.013250000000e+05 1.000000000000e+00 3.330669073875e-16 -1.129296804517e-17 -8.711742023992e-06 1.201667283783e-23 1.437333218740e-09 
1.110000000000e+02 0.000000000000e+00 1.013250000000e+05 1.013250000000e+05 1.000000000000e+00 1.110223024625e-16 -2.532157443797e-18 -8.669325872077e-06 -1.053667420343e-22 1.434958575293e-09 
1.120000000000e+02 0.000000000000e+00 1.013250000000e+05 1.013250000000e+05 1.000000000000e+00 0.000000000000e+00 -8.391425251120e-18 -8.627456367658e-06 -1.292090675404e-22 1.432609152206e-09 
1.130000000000e+02 0.000000000000e+00 1.013250000000e+05 1.013250000000e+05 1.000000000000e+00 0.000000000000e+00 -1.287255066991e-17 -8.586097029683e-06 -1.278801524113e-22 1.430284531269e-09 
1.140000000000e+02 0.000000000000e+00 1.013250000000e+05 1.013250000000e+05 1.000000000000e+00 0.000000000000e+00 -1.467860431706e-17 -8.545246929937e-06 -8.385562079133e-23 1.427983854435e-09 
1.150000000000e+02 0.000000000000e+00 1.013250000000e+05 1.013250000000e+05 1.000000000000e+00 1.110223024625e-16 -1.414787653451e-17 -8.504908542688e-06 -6.976260774877e-23 1.425706069962e-09 
1.160000000000e+02 0.000000000000e+00 1.013250000000e+05 1.013250000000e+05 1.000000000000e+00 1.110223024625e-16 -8.857880610630e-18 -8.465068577423e-06 -1.938474119427e-22 1.423450100047e-09 
1.170000000000e+02 0.000000000000e+00 1.013250000000e+05 1.013250000000e+05 1.000000000000e+00 1.110223024625e-16 -2.476067498578e-18 -8.425905309686e-06 -1.226333601096e-22 1.421213559303e-09 
1.180000000000e+02 0.000000000000e+00 1.013250000000e+05 1.013250000000e+05 1.000000000000e+00 0.000000000000e+00 -3.938829918651e-18 -8.387105123907e-06 -9.111757906902e-23 1.418997509965e-09 
1.190000000000e+02 0.000000000000e+00 1.013250000000e+05 1.013250000000e+05 1.000000000000e+00 0.000000000000e+00 -7.635924741917e-18 -8.348745762722e-06 -7.987726373656e-23 1.416800760728e-09 
1.200000000000e+02 0.000000000000e+00 1.013250000000e+05 1.013250000000e+05 1.000000000000e+00 1.110223024625e-16 -2.200953743379e-19 -8.310832254723e-06 9.597414955643e-23 1.414623100519e-09 
