 TITLE = "Time curves in points"
 VARIABLES = "TIME"  "TEMPERATURE1"  "DISPLACEMENT_X1"  "DISPLACEMENT_Y1"  "STRESS_XX"  "STRESS_XY"  "STRESS_YY"  "STRESS_ZZ"  "STRAIN_XX"  "STRAIN_XY"  "STRAIN_YY"  "STRAIN_ZZ"  "STRAIN_PLS"  p_(1st_Invariant)  q_(2nd_Invariant)   Effective_Strain
 ZONE T="POINT=POINT6"
0.000000000000e+00 2.981500000000e+02 0.000000000000e+00 0.000000000000e+00 0.000000000000e+00 0.000000000000e+00 0.000000000000e+00 0.000000000000e+00 0.000000000000e+00 0.000000000000e+00 0.000000000000e+00 0.000000000000e+00 0.000000000000e+00 -0.000000000000e+00 0.000000000000e+00  0.000000000000e+00
1.000000000000e-01 3.080000000000e+02 0.000000000000e+00 5.299814084906e-08 -2.684093515781e+05 2.915906725613e+01 -2.123209515338e+06 -2.123237094067e+06 9.422524931844e-05 2.962561233223e-09 1.400999437951e-09 0.000000000000e+00 0.000000000000e+00 1.504951986994e+06 1.854813953966e+06  9.422454896626e-05
2.000000000000e-01 3.080000000000e+02 0.000000000000e+00 2.293929742605e-08 -3.265164258484e+05 -3.233373240837e+00 -2.144178075572e+06 -2.144587515384e+06 9.235801134838e-05 -3.285107212691e-10 2.079954242089e-08 0.000000000000e+00 0.000000000000e+00 1.538427338935e+06 1.817866404220e+06  9.234761333569e-05
3.000000000000e-01 3.080000000000e+02 0.000000000000e+00 1.701970436968e-08 -3.974409828878e+05 -6.180902867266e+00 -2.170611907208e+06 -2.170874280326e+06 9.009041150986e-05 -6.279797313143e-10 1.332855437200e-08 0.000000000000e+00 0.000000000000e+00 1.579642390141e+06 1.773302125469e+06  9.008374797876e-05
4.000000000000e-01 3.080000000000e+02 0.000000000000e+00 1.507560812232e-08 -4.560823058363e+05 -3.406208741762e+00 -2.192407400635e+06 -2.192592220747e+06 8.821470367747e-05 -3.460708081630e-10 9.388861713328e-09 0.000000000000e+00 0.000000000000e+00 1.613693975739e+06 1.736417512242e+06  8.821000962340e-05
5.000000000000e-01 3.080000000000e+02 0.000000000000e+00 1.378110030593e-08 -5.106700673055e+05 5.124969799296e+00 -2.212686892119e+06 -2.212806379045e+06 8.646852463635e-05 5.206969316085e-10 6.069935810537e-09 0.000000000000e+00 0.000000000000e+00 1.645387779490e+06 1.702076571445e+06  8.646548983294e-05
6.000000000000e-01 3.080000000000e+02 0.000000000000e+00 9.661381450855e-09 -5.591443834211e+05 -4.589990805307e-02 -2.230613824367e+06 -2.230734716103e+06 8.491678890023e-05 -4.663430658193e-12 6.141300176606e-09 0.000000000000e+00 0.000000000000e+00 1.673497641297e+06 1.671529890093e+06  8.491371841670e-05
7.000000000000e-01 3.080000000000e+02 0.000000000000e+00 4.846509947276e-09 -6.034070574533e+05 1.686039220112e+00 -2.247057793715e+06 -2.247125509815e+06 8.350089737999e-05 1.713015847634e-10 3.439977920220e-09 0.000000000000e+00 0.000000000000e+00 1.699196786994e+06 1.643684595360e+06  8.349917744470e-05
8.000000000000e-01 3.080000000000e+02 0.000000000000e+00 4.624926814278e-09 -6.456101853360e+05 -3.925579510150e-01 -2.262667662433e+06 -2.262735018898e+06 8.214994154493e-05 -3.988388782313e-11 3.421708405806e-09 0.000000000000e+00 0.000000000000e+00 1.723670955555e+06 1.617091156382e+06  8.214823074420e-05
9.000000000000e-01 3.080000000000e+02 0.000000000000e+00 2.601884301408e-09 -6.852296990749e+05 -5.025002800632e-01 -2.277314026800e+06 -2.277386805986e+06 8.088158103110e-05 -5.105402845443e-11 3.697182643843e-09 0.000000000000e+00 0.000000000000e+00 1.746643510621e+06 1.592120718566e+06  8.087973250320e-05
1.000000000000e+00 3.080000000000e+02 0.000000000000e+00 9.686733691528e-11 -7.221848520885e+05 8.740185094329e-02 -2.291011636766e+06 -2.291063051991e+06 7.969901255503e-05 8.880028055837e-12 2.611893412185e-09 0.000000000000e+00 0.000000000000e+00 1.768086513615e+06 1.568852492922e+06  7.969770664043e-05
