 TITLE = "Time curves in points"
 VARIABLES = "TIME"  "TEMPERATURE1"  "DISPLACEMENT_X1"  "DISPLACEMENT_Y1"  "STRESS_XX"  "STRESS_XY"  "STRESS_YY"  "STRESS_ZZ"  "STRAIN_XX"  "STRAIN_XY"  "STRAIN_YY"  "STRAIN_ZZ"  "STRAIN_PLS"  p_(1st_Invariant)  q_(2nd_Invariant)   Effective_Strain
 ZONE T="POINT=POINT8"
0.000000000000e+00 2.981500000000e+02 0.000000000000e+00 0.000000000000e+00 0.000000000000e+00 0.000000000000e+00 0.000000000000e+00 0.000000000000e+00 0.000000000000e+00 0.000000000000e+00 0.000000000000e+00 0.000000000000e+00 0.000000000000e+00 -0.000000000000e+00 0.000000000000e+00  0.000000000000e+00
1.000000000000e-01 3.080000000000e+02 0.000000000000e+00 -2.766230281685e-08 -2.689961131103e+05 -6.770161029959e+01 -2.124561002653e+06 -2.123760421256e+06 9.422202685379e-05 -6.878483606438e-09 -4.066953495845e-08 0.000000000000e+00 0.000000000000e+00 1.505772512340e+06 1.855164732107e+06  9.424236895581e-05
2.000000000000e-01 3.080000000000e+02 0.000000000000e+00 -6.329423022073e-08 -3.267999113892e+05 -5.895342391082e+00 -2.144443799486e+06 -2.144735801936e+06 9.235114323979e-05 -5.989667869339e-10 1.483372448298e-08 0.000000000000e+00 0.000000000000e+00 1.538659837604e+06 1.817789906940e+06  9.234372727694e-05
3.000000000000e-01 3.080000000000e+02 0.000000000000e+00 -6.042686658946e-08 -3.976083083657e+05 -6.902182081764e+00 -2.170652266627e+06 -2.170930355248e+06 9.008475998162e-05 -7.012616995072e-10 1.412690196521e-08 0.000000000000e+00 0.000000000000e+00 1.579730310080e+06 1.773183018967e+06  9.007769736964e-05
4.000000000000e-01 3.080000000000e+02 0.000000000000e+00 -5.145632001746e-08 -4.561726827948e+05 -6.582487817813e+00 -2.192412887420e+06 -2.192618103958e+06 8.821142739509e-05 -6.687807622898e-10 1.042500014265e-08 0.000000000000e+00 0.000000000000e+00 1.613734558057e+06 1.736342822027e+06  8.820621536467e-05
5.000000000000e-01 3.080000000000e+02 0.000000000000e+00 -4.209958416175e-08 -5.108251362420e+05 2.425578204292e+01 -2.212609834674e+06 -2.212827442147e+06 8.646171714000e-05 2.464387455561e-09 1.105445962804e-08 0.000000000000e+00 0.000000000000e+00 1.645420804355e+06 1.701893513121e+06  8.645619054559e-05
6.000000000000e-01 3.080000000000e+02 0.000000000000e+00 -3.919723022061e-08 -5.591947728990e+05 4.350166129940e+00 -2.230614044935e+06 -2.230748380815e+06 8.491492328214e-05 4.419768788019e-10 6.824262728770e-09 0.000000000000e+00 0.000000000000e+00 1.673519066216e+06 1.671486444041e+06  8.491151135989e-05
7.000000000000e-01 3.080000000000e+02 0.000000000000e+00 -3.037954880916e-08 -6.033327160868e+05 -2.380062391998e+00 -2.247051484010e+06 -2.247103734026e+06 8.350356771132e-05 -2.418143390270e-10 2.654300829467e-09 0.000000000000e+00 0.000000000000e+00 1.699162644708e+06 1.643744893559e+06  8.350224059359e-05
8.000000000000e-01 3.080000000000e+02 0.000000000000e+00 -2.314647173328e-08 -6.455526481329e+05 2.907159480854e+00 -2.262571412107e+06 -2.262693496265e+06 8.215075508510e-05 2.953674032548e-10 6.201875210876e-09 0.000000000000e+00 0.000000000000e+00 1.723605852168e+06 1.617079809517e+06  8.214765432467e-05
9.000000000000e-01 3.080000000000e+02 0.000000000000e+00 -2.047836639602e-08 -6.851887290000e+05 6.674976939465e+00 -2.277047779062e+06 -2.277303857177e+06 8.087944851138e-05 6.781776570497e-10 1.300876821641e-08 0.000000000000e+00 0.000000000000e+00 1.746513455080e+06 1.591987104608e+06  8.087294492050e-05
1.000000000000e+00 3.080000000000e+02 0.000000000000e+00 -1.826856169337e-08 -7.221163412101e+05 -8.764685958722e-01 -2.290946058684e+06 -2.291026847971e+06 7.970065374347e-05 -8.904920934062e-11 4.104095817853e-09 0.000000000000e+00 0.000000000000e+00 1.768029749288e+06 1.568870113678e+06  7.969860177496e-05
