 TITLE = "Time curves in points"
 VARIABLES = "TIME"  "TEMPERATURE1"  "DISPLACEMENT_X1"  "DISPLACEMENT_Y1"  "STRESS_XX"  "STRESS_XY"  "STRESS_YY"  "STRESS_ZZ"  "STRAIN_XX"  "STRAIN_XY"  "STRAIN_YY"  "STRAIN_ZZ"  "STRAIN_PLS"  p_(1st_Invariant)  q_(2nd_Invariant)   Effective_Strain
 ZONE T="POINT=POINT7"
0.000000000000e+00 2.981500000000e+02 0.000000000000e+00 0.000000000000e+00 0.000000000000e+00 0.000000000000e+00 0.000000000000e+00 0.000000000000e+00 0.000000000000e+00 0.000000000000e+00 0.000000000000e+00 0.000000000000e+00 0.000000000000e+00 -0.000000000000e+00 0.000000000000e+00  0.000000000000e+00
1.000000000000e-01 2.981481874324e+02 8.688936951229e-09 8.863456467819e-09 -1.853989456841e+05 -1.641558171208e+02 -6.828317790320e+04 -6.822228822600e+04 -5.952574198871e-06 -1.667823101948e-08 -3.093195601662e-09 0.000000000000e+00 0.000000000000e+00 1.073014706044e+05 1.171465695321e+05  5.951098316677e-06
2.000000000000e-01 2.981588244055e+02 4.784271175045e-09 3.338164399545e-08 -3.157021738727e+05 -1.889293647787e+02 -1.190887868707e+05 -1.187172202299e+05 -1.000683564505e-05 -1.919522346152e-08 -1.887558535365e-08 0.000000000000e+00 0.000000000000e+00 1.845027269911e+05 1.967997054592e+05  9.997466499283e-06
3.000000000000e-01 2.981408143462e+02 2.415081626077e-09 2.468703290577e-08 -3.915628549323e+05 -1.220743653280e+02 -1.432389862556e+05 -1.430186490463e+05 -1.262604565901e-05 -1.240275551732e-08 -1.119313022853e-08 0.000000000000e+00 0.000000000000e+00 2.259401634114e+05 2.484342005396e+05  1.262047109981e-05
4.000000000000e-01 2.981423762000e+02 3.436536250877e-10 1.595558563625e-08 -4.546045507799e+05 -8.983342404971e+01 -1.667974951539e+05 -1.666349824093e+05 -1.462885407323e-05 -9.127075883451e-09 -8.255647420819e-09 0.000000000000e+00 0.000000000000e+00 2.626790094477e+05 2.878883884480e+05  1.462473654124e-05
5.000000000000e-01 2.981525810825e+02 -1.897117324802e-09 1.007125550237e-08 -5.095757741703e+05 -8.391761228576e+01 -1.891036646683e+05 -1.890306108572e+05 -1.628369429631e-05 -8.526029408233e-09 -3.711133601734e-09 0.000000000000e+00 0.000000000000e+00 2.959033498986e+05 3.205086756095e+05  1.628184574373e-05
6.000000000000e-01 2.981603599934e+02 -1.700148104194e-09 8.045569673953e-09 -5.583378224805e+05 -5.968726357882e+01 -2.088084299506e+05 -2.086834871687e+05 -1.776244023384e-05 -6.064225979608e-09 -6.347093317067e-09 0.000000000000e+00 0.000000000000e+00 3.252765798666e+05 3.495918959521e+05  1.775927064395e-05
7.000000000000e-01 2.981616063537e+02 -8.884495476586e-10 4.098645381158e-09 -6.032667574816e+05 -1.424411378722e+01 -2.255960947277e+05 -2.255339231527e+05 -1.918882798391e-05 -1.447201960782e-09 -3.158316011138e-09 0.000000000000e+00 0.000000000000e+00 3.514655917873e+05 3.777017531849e+05  1.918724918459e-05
8.000000000000e-01 2.981567524495e+02 -1.680673934974e-09 5.856005199607e-10 -6.449755796084e+05 -2.494270502929e+01 -2.400221451664e+05 -2.399622531121e+05 -2.057467698601e-05 -2.534178830976e-09 -3.042516359965e-09 0.000000000000e+00 0.000000000000e+00 3.749866592956e+05 4.049833860949e+05  2.057315636480e-05
9.000000000000e-01 2.981481305803e+02 -1.864237122425e-09 4.295307220882e-11 -6.846402303148e+05 -2.554560138860e+01 -2.528916655073e+05 -2.528531989210e+05 -2.193478119480e-05 -2.595433101082e-09 -1.954102584433e-09 0.000000000000e+00 0.000000000000e+00 3.967950315810e+05 4.317678016529e+05  2.193380466948e-05
1.000000000000e+00 2.981384398368e+02 -1.281481527274e-09 -3.910559799633e-10 -7.220432305817e+05 -1.126935593034e+01 -2.647223324457e+05 -2.646926775413e+05 -2.323340809445e-05 -1.144966562522e-09 -1.506469145284e-09 0.000000000000e+00 0.000000000000e+00 4.171527468562e+05 4.573357267258e+05  2.323265498115e-05
