 TITLE = "Time curves in points"
 VARIABLES = "TIME"  "TEMPERATURE1"  "DISPLACEMENT_X1"  "DISPLACEMENT_Y1"  "STRESS_XX"  "STRESS_XY"  "STRESS_YY"  "STRESS_ZZ"  "STRAIN_XX"  "STRAIN_XY"  "STRAIN_YY"  "STRAIN_ZZ"  "STRAIN_PLS"  p_(1st_Invariant)  q_(2nd_Invariant)   Effective_Strain
 ZONE T="POINT=POINT8"
0.000000000000e+00 2.981500000000e+02 0.000000000000e+00 0.000000000000e+00 0.000000000000e+00 0.000000000000e+00 0.000000000000e+00 0.000000000000e+00 0.000000000000e+00 0.000000000000e+00 0.000000000000e+00 0.000000000000e+00 0.000000000000e+00 -0.000000000000e+00 0.000000000000e+00  0.000000000000e+00
1.000000000000e-01 3.080000000000e+02 0.000000000000e+00 -3.098128020043e-08 -2.690063572187e+05 -6.692111095125e+01 -2.124546431680e+06 -2.123759253002e+06 9.422144710581e-05 -6.799184872647e-09 -3.998867681462e-08 0.000000000000e+00 0.000000000000e+00 1.505770680634e+06 1.855146614000e+06  9.424144854305e-05
2.000000000000e-01 3.080000000000e+02 0.000000000000e+00 -6.500631174896e-08 -3.267988619669e+05 -6.245054578648e+00 -2.144436709148e+06 -2.144733604201e+06 9.235108490550e-05 -6.344975451906e-10 1.508226868288e-08 0.000000000000e+00 0.000000000000e+00 1.538656391772e+06 1.817786312924e+06  9.234354470145e-05
3.000000000000e-01 3.080000000000e+02 0.000000000000e+00 -6.124129382615e-08 -3.976059347654e+05 -7.098258400255e+00 -2.170652050131e+06 -2.170929655922e+06 9.008484503476e-05 -7.211830534659e-10 1.410237416905e-08 0.000000000000e+00 0.000000000000e+00 1.579729213606e+06 1.773184934602e+06  9.007779468428e-05
4.000000000000e-01 3.080000000000e+02 0.000000000000e+00 -5.186793857302e-08 -4.561697254370e+05 -6.767573387769e+00 -2.192412172605e+06 -2.192617112471e+06 8.821152726134e-05 -6.875854561973e-10 1.041094521073e-08 0.000000000000e+00 0.000000000000e+00 1.613733003504e+06 1.736344926212e+06  8.820632225758e-05
5.000000000000e-01 3.080000000000e+02 0.000000000000e+00 -4.230288087402e-08 -5.108223218194e+05 2.393336935018e+01 -2.212606797529e+06 -2.212825862224e+06 8.646177985256e-05 2.431630325979e-09 1.112848649906e-08 0.000000000000e+00 0.000000000000e+00 1.645418327191e+06 1.701894019136e+06  8.645621624906e-05
6.000000000000e-01 3.080000000000e+02 0.000000000000e+00 -3.922791634135e-08 -5.591919685593e+05 4.240488495660e+00 -2.230612812129e+06 -2.230747290786e+06 8.491501036910e-05 4.308336311590e-10 6.831515777981e-09 0.000000000000e+00 0.000000000000e+00 1.673517357158e+06 1.671488086971e+06  8.491159482060e-05
7.000000000000e-01 3.080000000000e+02 0.000000000000e+00 -3.028447201929e-08 -6.033345464073e+05 -2.228632209941e+00 -2.247053679300e+06 -2.247104820941e+06 8.350352994632e-05 -2.264290325300e-10 2.597995345242e-09 0.000000000000e+00 0.000000000000e+00 1.699164348883e+06 1.643744704315e+06  8.350223097988e-05
8.000000000000e-01 3.080000000000e+02 0.000000000000e+00 -2.305658251611e-08 -6.455535158946e+05 2.949983433404e+00 -2.262571857089e+06 -2.262693850706e+06 8.215072900840e-05 2.997183168338e-10 6.197275721967e-09 0.000000000000e+00 0.000000000000e+00 1.723606407896e+06 1.617079341462e+06  8.214763054750e-05
9.000000000000e-01 3.080000000000e+02 0.000000000000e+00 -2.035699769551e-08 -6.851878364142e+05 6.591698075926e+00 -2.277048254753e+06 -2.277303744615e+06 8.087948813661e-05 6.697165245141e-10 1.297888497895e-08 0.000000000000e+00 0.000000000000e+00 1.746513278594e+06 1.591988178687e+06  8.087299948354e-05
1.000000000000e+00 3.080000000000e+02 0.000000000000e+00 -1.812231527990e-08 -7.221169761466e+05 -7.741434472475e-01 -2.290947546292e+06 -2.291027421058e+06 7.970065060152e-05 -7.865297424034e-11 4.057638128260e-09 0.000000000000e+00 0.000000000000e+00 1.768030647832e+06 1.568870509054e+06  7.969862186004e-05
