 TITLE = "Time curves in points"
 VARIABLES = "TIME"  "TEMPERATURE1"  "DISPLACEMENT_X1"  "DISPLACEMENT_Y1"  "STRESS_XX"  "STRESS_XY"  "STRESS_YY"  "STRESS_ZZ"  "STRAIN_XX"  "STRAIN_XY"  "STRAIN_YY"  "STRAIN_ZZ"  "STRAIN_PLS"  p_(1st_Invariant)  q_(2nd_Invariant)   Effective_Strain
 ZONE T="POINT=POINT2"
0.000000000000e+00 2.981500000000e+02 0.000000000000e+00 0.000000000000e+00 0.000000000000e+00 0.000000000000e+00 0.000000000000e+00 0.000000000000e+00 0.000000000000e+00 0.000000000000e+00 0.000000000000e+00 0.000000000000e+00 0.000000000000e+00 -0.000000000000e+00 0.000000000000e+00  0.000000000000e+00
1.000000000000e-01 2.981481874324e+02 -3.525444625557e-08 0.000000000000e+00 -1.732733486354e+05 8.553814244978e+02 -6.139453571312e+04 -6.308844362967e+04 -5.597393174293e-06 8.690675272898e-08 8.605052216060e-08 0.000000000000e+00 0.000000000000e+00 9.925210932608e+04 1.110514328146e+05  5.642918747987e-06
2.000000000000e-01 2.981588244055e+02 -3.275671536355e-08 0.000000000000e+00 -3.247444454573e+05 1.514861805409e+02 -1.189393363664e+05 -1.211182819242e+05 -1.034420910748e-05 1.539099594296e-08 1.106904343361e-07 0.000000000000e+00 0.000000000000e+00 1.882673545826e+05 2.047245013368e+05  1.040003029221e-05
3.000000000000e-01 2.981408143462e+02 -3.027528508290e-08 0.000000000000e+00 -3.943836278735e+05 1.605905406037e+01 -1.426436259416e+05 -1.436195104582e+05 -1.273881716470e-05 1.631599892534e-09 4.957493343986e-08 0.000000000000e+00 0.000000000000e+00 2.268822547577e+05 2.512534826163e+05  1.276367715155e-05
4.000000000000e-01 2.981423762001e+02 -2.846252508922e-08 0.000000000000e+00 -4.558392134452e+05 -2.427378931656e+01 -1.662646971871e+05 -1.668244858790e+05 -1.468194816036e-05 -2.466216994563e-09 2.843726554896e-08 0.000000000000e+00 0.000000000000e+00 2.629761321704e+05 2.892950311663e+05  1.469618804884e-05
5.000000000000e-01 2.981525810825e+02 -2.850060216760e-08 0.000000000000e+00 -5.117422471165e+05 -1.072484165832e+02 -1.888143608495e+05 -1.895374465225e+05 -1.636800387018e-05 -1.089643912485e-08 3.673275218828e-08 0.000000000000e+00 0.000000000000e+00 2.966980181628e+05 3.225670047610e+05  1.638641199337e-05
6.000000000000e-01 2.981603599934e+02 -2.411985339816e-08 0.000000000000e+00 -5.590719999379e+05 -2.117622662008e+01 -2.084216050701e+05 -2.087772723656e+05 -1.779497216068e-05 -2.151504624600e-09 1.806789861343e-08 0.000000000000e+00 0.000000000000e+00 3.254236257912e+05 3.504726984915e+05  1.780401337586e-05
7.000000000000e-01 2.981616063537e+02 -1.616108812792e-08 0.000000000000e+00 -6.034751439012e+05 7.803294170214e-03 -2.254310798376e+05 -2.255456334669e+05 -1.919881913006e-05 7.928146877069e-13 5.819324368117e-09 0.000000000000e+00 0.000000000000e+00 3.514839524019e+05 3.779868002678e+05  1.920172945360e-05
8.000000000000e-01 2.981567524493e+02 -1.478289342693e-08 0.000000000000e+00 -6.452979841509e+05 4.229491794614e+00 -2.398673058533e+05 -2.400074957001e+05 -2.058875681330e-05 4.297163663328e-10 7.121644215119e-09 0.000000000000e+00 0.000000000000e+00 3.750575952348e+05 4.053606016216e+05  2.059231857246e-05
9.000000000000e-01 2.981481305801e+02 -1.283652841064e-08 0.000000000000e+00 -6.847510110904e+05 -3.060223676611e+00 -2.527586104991e+05 -2.528471848441e+05 -2.194071437331e-05 -3.109187255436e-10 4.499576729385e-09 0.000000000000e+00 0.000000000000e+00 3.967856021446e+05 4.319481202624e+05  2.194296451429e-05
1.000000000000e+00 2.981384398366e+02 -9.259785526199e-09 0.000000000000e+00 -7.222832840224e+05 -2.262352058551e+00 -2.646464684590e+05 -2.647370086542e+05 -2.324335078870e-05 -2.298549691488e-10 4.599441918824e-09 0.000000000000e+00 0.000000000000e+00 4.172222537119e+05 4.575915522005e+05  2.324565085434e-05
