 TITLE = "Time curves in points"
 VARIABLES = "TIME"  "TEMPERATURE1"  "DISPLACEMENT_X1"  "DISPLACEMENT_Y1"  "STRESS_XX"  "STRESS_XY"  "STRESS_YY"  "STRESS_ZZ"  "STRAIN_XX"  "STRAIN_XY"  "STRAIN_YY"  "STRAIN_ZZ"  "STRAIN_PLS"  p_(1st_Invariant)  q_(2nd_Invariant)   Effective_Strain
 ZONE T="POINT=POINT3"
0.000000000000e+00 2.981500000000e+02 0.000000000000e+00 0.000000000000e+00 0.000000000000e+00 0.000000000000e+00 0.000000000000e+00 0.000000000000e+00 0.000000000000e+00 0.000000000000e+00 0.000000000000e+00 0.000000000000e+00 0.000000000000e+00 -0.000000000000e+00 0.000000000000e+00  0.000000000000e+00
1.000000000000e-01 2.981481874325e+02 9.428909175758e-08 0.000000000000e+00 -1.059963069934e+05 -1.355232702035e+02 -4.837849101515e+04 -4.140931033507e+04 -3.281019430246e-06 -1.376916425267e-08 -3.540343785482e-07 0.000000000000e+00 0.000000000000e+00 6.526136944789e+04 6.140021390089e+04  3.119199246201e-06
2.000000000000e-01 2.981588244054e+02 3.836869659257e-08 0.000000000000e+00 -3.334113674373e+05 7.039826813956e+01 -1.222816711125e+05 -1.243607812189e+05 -1.061976977989e-05 7.152464042979e-09 1.056187934009e-07 0.000000000000e+00 0.000000000000e+00 1.933512732562e+05 2.100978923059e+05  1.067297832149e-05
3.000000000000e-01 2.981408143461e+02 3.205105678951e-08 0.000000000000e+00 -4.005151566142e+05 1.719369065648e+01 -1.449559286597e+05 -1.458993449456e+05 -1.293448323277e-05 1.746878970699e-09 4.792554732173e-08 0.000000000000e+00 0.000000000000e+00 2.304568100732e+05 2.550888299715e+05  1.295851282748e-05
4.000000000000e-01 2.981423762000e+02 2.761217239020e-08 0.000000000000e+00 -4.562845240260e+05 -9.375751473892e+00 -1.669997896033e+05 -1.671431946829e+05 -1.468837953063e-05 -9.525763497474e-10 7.284978042737e-09 0.000000000000e+00 0.000000000000e+00 2.634758361040e+05 2.892130590039e+05  1.469202346688e-05
5.000000000000e-01 2.981525810824e+02 2.392559240694e-08 0.000000000000e+00 -5.143205281653e+05 2.782487465422e+01 -1.900310384846e+05 -1.905620853625e+05 -1.644692889438e-05 2.827007264869e-09 2.697718139664e-08 0.000000000000e+00 0.000000000000e+00 2.983045506708e+05 3.240242962029e+05  1.646043479333e-05
6.000000000000e-01 2.981603599934e+02 2.063189458111e-08 0.000000000000e+00 -5.588323110277e+05 2.911067050138e-01 -2.087175331121e+05 -2.087924569278e+05 -1.778202458827e-05 2.957644122940e-11 3.806129835574e-09 0.000000000000e+00 0.000000000000e+00 3.254474336892e+05 3.500773220213e+05  1.778392795874e-05
7.000000000000e-01 2.981616063537e+02 1.527133003980e-08 0.000000000000e+00 -6.032057495916e+05 1.664485558189e+01 -2.254100907687e+05 -2.254672299531e+05 -1.918911679764e-05 1.691117327120e-09 2.902670564563e-09 0.000000000000e+00 0.000000000000e+00 3.513610234378e+05 3.777670935718e+05  1.919056852110e-05
8.000000000000e-01 2.981567524492e+02 1.221693203891e-08 0.000000000000e+00 -6.448225702061e+05 1.030931737943e+01 -2.398345658140e+05 -2.398702941067e+05 -2.057157562585e-05 1.047426645750e-09 1.814997271503e-09 0.000000000000e+00 0.000000000000e+00 3.748424767089e+05 4.049701418215e+05  2.057248326453e-05
9.000000000000e-01 2.981481305797e+02 9.010959599842e-09 0.000000000000e+00 -6.840329037280e+05 -6.315125635594e+00 -2.526690918139e+05 -2.526291257554e+05 -2.191531192101e-05 -6.416167645764e-10 -2.030275771466e-09 0.000000000000e+00 0.000000000000e+00 3.964437070991e+05 4.313837964705e+05  2.191429688183e-05
1.000000000000e+00 2.981384398360e+02 7.577163974637e-09 0.000000000000e+00 -7.220079053113e+05 1.335130640712e+01 -2.645792882586e+05 -2.646445176680e+05 -2.323406009228e-05 1.356492730963e-09 3.313653999176e-09 0.000000000000e+00 0.000000000000e+00 4.170772370793e+05 4.573960064210e+05  2.323571721528e-05
