 TITLE = "Time curves in points"
 VARIABLES = "TIME"  "TEMPERATURE1"  "DISPLACEMENT_X1"  "DISPLACEMENT_Y1"  "STRESS_XX"  "STRESS_XY"  "STRESS_YY"  "STRESS_ZZ"  "STRAIN_XX"  "STRAIN_XY"  "STRAIN_YY"  "STRAIN_ZZ"  "STRAIN_PLS"  p_(1st_Invariant)  q_(2nd_Invariant)   Effective_Strain
 ZONE T="POINT=POINT6"
0.000000000000e+00 2.981500000000e+02 0.000000000000e+00 0.000000000000e+00 0.000000000000e+00 0.000000000000e+00 0.000000000000e+00 0.000000000000e+00 0.000000000000e+00 0.000000000000e+00 0.000000000000e+00 0.000000000000e+00 0.000000000000e+00 -0.000000000000e+00 0.000000000000e+00  0.000000000000e+00
1.000000000000e-01 3.080000000000e+02 0.000000000000e+00 5.254714598747e-08 -2.683796057476e+05 2.863518414484e+01 -2.123208722552e+06 -2.123228848641e+06 9.422634153897e-05 2.909334709116e-09 1.022405287514e-09 0.000000000000e+00 0.000000000000e+00 1.504939058980e+06 1.854839180594e+06  9.422583047523e-05
2.000000000000e-01 3.080000000000e+02 0.000000000000e+00 2.140912684765e-08 -3.264968395990e+05 -3.469903338227e+00 -2.144170984192e+06 -2.144580312424e+06 9.235864041948e-05 -3.525421791638e-10 2.079387417247e-08 0.000000000000e+00 0.000000000000e+00 1.538416045405e+06 1.817878843281e+06  9.234824524021e-05
3.000000000000e-01 3.080000000000e+02 0.000000000000e+00 1.524182159208e-08 -3.974275570500e+05 -6.403261426068e+00 -2.170606874683e+06 -2.170869296568e+06 9.009084036751e-05 -6.505713608885e-10 1.333103176871e-08 0.000000000000e+00 0.000000000000e+00 1.579634576100e+06 1.773310543173e+06  9.008417559846e-05
4.000000000000e-01 3.080000000000e+02 0.000000000000e+00 1.340859166860e-08 -4.560704223402e+05 -3.571979116799e+00 -2.192404286612e+06 -2.192588171417e+06 8.821510165310e-05 -3.629130782668e-10 9.341348106410e-09 0.000000000000e+00 0.000000000000e+00 1.613687626790e+06 1.736425813988e+06  8.821043135225e-05
5.000000000000e-01 3.080000000000e+02 0.000000000000e+00 1.222026239164e-08 -5.106608272611e+05 4.889969226009e+00 -2.212686115703e+06 -2.212803674600e+06 8.646885664483e-05 4.968208733625e-10 5.971991989643e-09 0.000000000000e+00 0.000000000000e+00 1.645383539188e+06 1.702084070956e+06  8.646587080779e-05
6.000000000000e-01 3.080000000000e+02 0.000000000000e+00 8.220832787130e-09 -5.591367259571e+05 -1.775744356082e-01 -2.230612200107e+06 -2.230732210037e+06 8.491705059128e-05 -1.804156265779e-11 6.096504453989e-09 0.000000000000e+00 0.000000000000e+00 1.673493712034e+06 1.671535482346e+06  8.491400250320e-05
7.000000000000e-01 3.080000000000e+02 0.000000000000e+00 3.698513481796e-09 -6.034108489180e+05 1.577515416034e+00 -2.247057531183e+06 -2.247126462627e+06 8.350075317644e-05 1.602755662691e-10 3.501717358528e-09 0.000000000000e+00 0.000000000000e+00 1.699198280910e+06 1.643681149074e+06  8.349900237329e-05
8.000000000000e-01 3.080000000000e+02 0.000000000000e+00 3.722004140855e-09 -6.456090054941e+05 -4.089582784244e-01 -2.262670301696e+06 -2.262735412941e+06 8.215002149831e-05 -4.155016108792e-11 3.307651280569e-09 0.000000000000e+00 0.000000000000e+00 1.723671573377e+06 1.617093852808e+06  8.214836772265e-05
9.000000000000e-01 3.080000000000e+02 0.000000000000e+00 1.806746369775e-09 -6.852271318309e+05 -4.415490996476e-01 -2.277321658780e+06 -2.277388173465e+06 8.088178091501e-05 -4.486138852420e-11 3.378946009458e-09 0.000000000000e+00 0.000000000000e+00 1.746645654692e+06 1.592127785334e+06  8.088009149497e-05
1.000000000000e+00 3.080000000000e+02 0.000000000000e+00 -5.921301336631e-10 -7.221865280326e+05 5.194030972188e-02 -2.291012813562e+06 -2.291063822231e+06 7.969896654526e-05 5.277135467739e-12 2.591240357383e-09 0.000000000000e+00 0.000000000000e+00 1.768087721275e+06 1.568851790486e+06  7.969767095667e-05
