 TITLE = "Time curves in points"
 VARIABLES = "TIME"  "TEMPERATURE1"  "DISPLACEMENT_X1"  "DISPLACEMENT_Y1"  "STRESS_XX"  "STRESS_XY"  "STRESS_YY"  "STRESS_ZZ"  "STRAIN_XX"  "STRAIN_XY"  "STRAIN_YY"  "STRAIN_ZZ"  "STRAIN_PLS"  p_(1st_Invariant)  q_(2nd_Invariant)   Effective_Strain
 ZONE T="POINT=POINT7"
0.000000000000e+00 2.981500000000e+02 0.000000000000e+00 0.000000000000e+00 0.000000000000e+00 0.000000000000e+00 0.000000000000e+00 0.000000000000e+00 0.000000000000e+00 0.000000000000e+00 0.000000000000e+00 0.000000000000e+00 0.000000000000e+00 -0.000000000000e+00 0.000000000000e+00  0.000000000000e+00
1.000000000000e-01 2.981481874324e+02 7.608207310240e-09 7.510208771464e-09 -1.853709070005e+05 -1.367791454502e+02 -6.827205786958e+04 -6.821171537235e+04 -5.951686934711e-06 -1.389676117774e-08 -3.065398859691e-09 0.000000000000e+00 0.000000000000e+00 1.072848934141e+05 1.171292716258e+05  5.950203511734e-06
2.000000000000e-01 2.981588244055e+02 3.840878222829e-09 3.084535770188e-08 -3.156944173066e+05 -1.721787708151e+02 -1.190662385938e+05 -1.187090379223e+05 -1.000685727272e-05 -1.749336311481e-08 -1.814579411361e-08 0.000000000000e+00 0.000000000000e+00 1.844898979409e+05 1.968072481142e+05  9.997842638688e-06
3.000000000000e-01 2.981408143462e+02 1.676702301367e-09 2.242982107705e-08 -3.915599457307e+05 -1.113003125756e+02 -1.432272228142e+05 -1.430146874327e+05 -1.262609912154e-05 -1.130811175768e-08 -1.079679738118e-08 0.000000000000e+00 0.000000000000e+00 2.259339519925e+05 2.484391335834e+05  1.262071938457e-05
4.000000000000e-01 2.981423762000e+02 -2.730256489386e-10 1.404556359836e-08 -4.546025495179e+05 -8.154662083938e+01 -1.667891293782e+05 -1.666321833092e+05 -1.462889460340e-05 -8.285136677281e-09 -7.972860309614e-09 0.000000000000e+00 0.000000000000e+00 2.626746207351e+05 2.878919599069e+05  1.462491684357e-05
5.000000000000e-01 2.981525810825e+02 -2.506471904680e-09 8.416799416762e-09 -5.095740414396e+05 -7.497725871697e+01 -1.890991727483e+05 -1.890289302015e+05 -1.628369165090e-05 -7.617689485644e-09 -3.568321378062e-09 0.000000000000e+00 0.000000000000e+00 2.959007147965e+05 3.205100220468e+05  1.628191312951e-05
6.000000000000e-01 2.981603599934e+02 -2.157622475367e-09 6.566669570251e-09 -5.583378236411e+05 -5.378173737855e+01 -2.088031859988e+05 -2.086820716151e+05 -1.776251220292e-05 -5.464224517660e-09 -6.152610693994e-09 0.000000000000e+00 0.000000000000e+00 3.252743604183e+05 3.495952229794e+05  1.775943921874e-05
7.000000000000e-01 2.981616063537e+02 -1.053629673402e-09 3.183813019261e-09 -6.032677054729e+05 -1.365878068765e+01 -2.255951959267e+05 -2.255339364340e+05 -1.918887546718e-05 -1.387732117865e-09 -3.111982227799e-09 0.000000000000e+00 0.000000000000e+00 3.514656126112e+05 3.777031437594e+05  1.918731981589e-05
8.000000000000e-01 2.981567524495e+02 -1.900089643466e-09 -1.885938571467e-10 -6.449775060300e+05 -2.253460146231e+01 -2.400225432156e+05 -2.399628807192e+05 -2.057474296579e-05 -2.289515508571e-09 -3.030854815637e-09 0.000000000000e+00 0.000000000000e+00 3.749876433216e+05 4.049847992395e+05  2.057322808801e-05
9.000000000000e-01 2.981481305803e+02 -2.080466434295e-09 -6.834738198907e-10 -6.846434480990e+05 -2.294843111050e+01 -2.528950718331e+05 -2.528549874307e+05 -2.193485380195e-05 -2.331560600826e-09 -2.036287644036e-09 0.000000000000e+00 0.000000000000e+00 3.967978357876e+05 4.317684216921e+05  2.193383610079e-05
1.000000000000e+00 2.981384398368e+02 -1.396820089574e-09 -9.273079251935e-10 -7.220437270025e+05 -1.049613016112e+01 -2.647224420264e+05 -2.646928411617e+05 -2.323342500071e-05 -1.066406824370e-09 -1.503723928173e-09 0.000000000000e+00 0.000000000000e+00 4.171530033969e+05 4.573360864882e+05  2.323267324867e-05
