 TITLE = "Time curves in points"
 VARIABLES = "TIME"  "TEMPERATURE1"  "DISPLACEMENT_X1"  "DISPLACEMENT_Y1"  "STRESS_XX"  "STRESS_XY"  "STRESS_YY"  "STRESS_ZZ"  "STRAIN_XX"  "STRAIN_XY"  "STRAIN_YY"  "STRAIN_ZZ"  "STRAIN_PLS"  p_(1st_Invariant)  q_(2nd_Invariant)   Effective_Strain
 ZONE T="POINT=POINT2"
0.000000000000e+00 2.981500000000e+02 0.000000000000e+00 0.000000000000e+00 0.000000000000e+00 0.000000000000e+00 0.000000000000e+00 0.000000000000e+00 0.000000000000e+00 0.000000000000e+00 0.000000000000e+00 0.000000000000e+00 0.000000000000e+00 -0.000000000000e+00 0.000000000000e+00  0.000000000000e+00
1.000000000000e-01 2.981481874324e+02 -3.379491247901e-08 0.000000000000e+00 -1.733260269478e+05 8.558078134386e+02 -6.143477561480e+04 -6.311353154748e+04 -5.598794766338e-06 8.695007384536e-08 8.528080138000e-08 0.000000000000e+00 0.000000000000e+00 9.929144470336e+04 1.110712810109e+05  5.643928268601e-06
2.000000000000e-01 2.981588244055e+02 -3.122056451722e-08 0.000000000000e+00 -3.247583083360e+05 1.514934611947e+02 -1.189831688076e+05 -1.211338596606e+05 -1.034412199271e-05 1.539173565738e-08 1.092550953303e-07 0.000000000000e+00 0.000000000000e+00 1.882917789347e+05 2.047084357312e+05  1.039921416391e-05
3.000000000000e-01 2.981408143462e+02 -2.884499593299e-08 0.000000000000e+00 -3.943927052234e+05 1.594007698490e+01 -1.426765887395e+05 -1.436308612981e+05 -1.273870167141e-05 1.619511821666e-09 4.847704597720e-08 0.000000000000e+00 0.000000000000e+00 2.269000517536e+05 2.512403409359e+05  1.276300955073e-05
4.000000000000e-01 2.981423762001e+02 -2.707665221631e-08 0.000000000000e+00 -4.558454183166e+05 -2.436212775084e+01 -1.662908206367e+05 -1.668332145257e+05 -1.468181995258e-05 -2.475192179486e-09 2.755360955789e-08 0.000000000000e+00 0.000000000000e+00 2.629898178263e+05 2.892837851745e+05  1.469561675588e-05
5.000000000000e-01 2.981525810825e+02 -2.711896671764e-08 0.000000000000e+00 -5.117527398553e+05 -1.074028204402e+02 -1.888377491504e+05 -1.895465944032e+05 -1.636807218897e-05 -1.091212655672e-08 3.600933884291e-08 0.000000000000e+00 0.000000000000e+00 2.967123611363e+05 3.225612058686e+05  1.638611743327e-05
6.000000000000e-01 2.981603599934e+02 -2.285740753387e-08 0.000000000000e+00 -5.590761827282e+05 -2.124575692594e+01 -2.084421393965e+05 -2.087839459871e+05 -1.779484562645e-05 -2.158568903675e-09 1.736377480463e-08 0.000000000000e+00 0.000000000000e+00 3.254340893706e+05 3.504632669798e+05  1.780353425700e-05
7.000000000000e-01 2.981616063537e+02 -1.546201860448e-08 0.000000000000e+00 -6.034791381137e+05 5.645986825897e-02 -2.254410942377e+05 -2.255494157923e+05 -1.919882989393e-05 5.736322615117e-12 5.502734974087e-09 0.000000000000e+00 0.000000000000e+00 3.514898827146e+05 3.779838947396e+05  1.920158185277e-05
8.000000000000e-01 2.981567524493e+02 -1.400024103885e-08 0.000000000000e+00 -6.453006076374e+05 4.208081534327e+00 -2.398778127955e+05 -2.400110409158e+05 -2.058870998946e-05 4.275410838876e-10 6.767988513026e-09 0.000000000000e+00 0.000000000000e+00 3.750631537829e+05 4.053561972678e+05  2.059209483119e-05
9.000000000000e-01 2.981481305801e+02 -1.208485131335e-08 0.000000000000e+00 -6.847514540858e+05 -3.140273465005e+00 -2.527672826454e+05 -2.528496459324e+05 -2.194061185420e-05 -3.190517840445e-10 4.184054980658e-09 0.000000000000e+00 0.000000000000e+00 3.967894608879e+05 4.319429957206e+05  2.194270418783e-05
1.000000000000e+00 2.981384398366e+02 -8.769615052885e-09 0.000000000000e+00 -7.222833017243e+05 -2.161181297645e+00 -2.646528226972e+05 -2.647387290781e+05 -2.324326429043e-05 -2.195760198407e-10 4.364044146364e-09 0.000000000000e+00 0.000000000000e+00 4.172249511665e+05 4.575875318999e+05  2.324544662285e-05
