 TITLE = "Time curves in points"
 VARIABLES = "TIME"  "TEMPERATURE1"  "DISPLACEMENT_X1"  "DISPLACEMENT_Y1"  "STRESS_XX"  "STRESS_XY"  "STRESS_YY"  "STRESS_ZZ"  "STRAIN_XX"  "STRAIN_XY"  "STRAIN_YY"  "STRAIN_ZZ"  "STRAIN_PLS"  p_(1st_Invariant)  q_(2nd_Invariant)   Effective_Strain
 ZONE T="POINT=POINT3"
0.000000000000e+00 2.981500000000e+02 0.000000000000e+00 0.000000000000e+00 0.000000000000e+00 0.000000000000e+00 0.000000000000e+00 0.000000000000e+00 0.000000000000e+00 0.000000000000e+00 0.000000000000e+00 0.000000000000e+00 0.000000000000e+00 -0.000000000000e+00 0.000000000000e+00  0.000000000000e+00
1.000000000000e-01 2.981481874325e+02 9.429131672086e-08 0.000000000000e+00 -1.059905788916e+05 -1.355568341667e+02 -4.837898814879e+04 -4.140789797369e+04 -3.280800190632e-06 -1.377257435134e-08 -3.541313808952e-07 0.000000000000e+00 0.000000000000e+00 6.525915500471e+04 6.139513178840e+04  3.118941114424e-06
2.000000000000e-01 2.981588244054e+02 3.828214844402e-08 0.000000000000e+00 -3.334195411937e+05 7.043384253027e+01 -1.222939838156e+05 -1.243663125629e+05 -1.061990401444e-05 7.156078401076e-09 1.052743003650e-07 0.000000000000e+00 0.000000000000e+00 1.933599458574e+05 2.100970938532e+05  1.067293776557e-05
3.000000000000e-01 2.981408143461e+02 3.215035821054e-08 0.000000000000e+00 -4.005215922387e+05 1.719410716418e+01 -1.449696068648e+05 -1.459047756796e+05 -1.293453428120e-05 1.746921287880e-09 4.750657579005e-08 0.000000000000e+00 0.000000000000e+00 2.304653249277e+05 2.550856883655e+05  1.295835323391e-05
4.000000000000e-01 2.981423762000e+02 2.786091168050e-08 0.000000000000e+00 -4.562911451731e+05 -9.437446626134e+00 -1.670127039719e+05 -1.671484692721e+05 -1.468844793577e-05 -9.588445772153e-10 6.896877251451e-09 0.000000000000e+00 0.000000000000e+00 2.634841061390e+05 2.892105829128e+05  1.469189768237e-05
5.000000000000e-01 2.981525810824e+02 2.427303132068e-08 0.000000000000e+00 -5.143247159952e+05 2.782313518932e+01 -1.900424575047e+05 -1.905662992120e+05 -1.644692757259e-05 2.826830535235e-09 2.661115873171e-08 0.000000000000e+00 0.000000000000e+00 2.983111575706e+05 3.240206588048e+05  1.646025001344e-05
6.000000000000e-01 2.981603599934e+02 2.102184292064e-08 0.000000000000e+00 -5.588381038851e+05 3.007804710120e-01 -2.087272855198e+05 -2.087966541494e+05 -1.778210564657e-05 3.055929585482e-11 3.523926380585e-09 0.000000000000e+00 0.000000000000e+00 3.254540145181e+05 3.500761392054e+05  1.778386787170e-05
7.000000000000e-01 2.981616063537e+02 1.567655026792e-08 0.000000000000e+00 -6.032081997921e+05 1.689991602131e+01 -2.254172277429e+05 -2.254698184903e+05 -1.918910977013e-05 1.717031467765e-09 2.671609964533e-09 0.000000000000e+00 0.000000000000e+00 3.513650820084e+05 3.777646805551e+05  1.919044594503e-05
8.000000000000e-01 2.981567524492e+02 1.257467388837e-08 0.000000000000e+00 -6.448219501933e+05 1.032563332907e+01 -2.398395321847e+05 -2.398714676234e+05 -2.057148451455e-05 1.049084346234e-09 1.622320284217e-09 0.000000000000e+00 0.000000000000e+00 3.748443166671e+05 4.049664516286e+05  2.057229580292e-05
9.000000000000e-01 2.981481305797e+02 9.336562442864e-09 0.000000000000e+00 -6.840329533071e+05 -6.299090079288e+00 -2.526739914710e+05 -2.526304620492e+05 -2.191524655590e-05 -6.399875520556e-10 -2.211294628852e-09 0.000000000000e+00 0.000000000000e+00 3.964458022758e+05 4.313807283321e+05  2.191414102030e-05
1.000000000000e+00 2.981384398360e+02 7.872352076834e-09 0.000000000000e+00 -7.220099651178e+05 1.353876615983e+01 -2.645832658423e+05 -2.646461477634e+05 -2.323408192160e-05 1.375538641839e-09 3.194401591662e-09 0.000000000000e+00 0.000000000000e+00 4.170797929079e+05 4.573952621579e+05  2.323567940923e-05
