 TITLE = "Time curves in points"
 VARIABLES = "TIME"  "TEMPERATURE1"  "DISPLACEMENT_X1"  "DISPLACEMENT_Y1"  "DISPLACEMENT_Z1"  "STRESS_XX"  "STRESS_XY"  "STRESS_YY"  "STRESS_ZZ"  "STRESS_XZ"  "STRESS_YZ"  "STRAIN_XX"  "STRAIN_XY"  "STRAIN_YY"  "STRAIN_ZZ"  "STRAIN_XZ"  "STRAIN_YZ"  "STRAIN_PLS"  p_(1st_Invariant)  q_(2nd_Invariant)   Effective_Strain
 ZONE T="POINT=POINT12"
0.000000000000e+00 2.981500000000e+02 0.000000000000e+00 0.000000000000e+00 0.000000000000e+00 0.000000000000e+00 0.000000000000e+00 0.000000000000e+00 0.000000000000e+00 0.000000000000e+00 0.000000000000e+00 0.000000000000e+00 0.000000000000e+00 0.000000000000e+00 0.000000000000e+00 0.000000000000e+00 0.000000000000e+00 0.000000000000e+00 -0.000000000000e+00 0.000000000000e+00  0.000000000000e+00
1.000000000000e-01 2.981499930226e+02 7.340961637500e-11 -1.801666157842e-10 -3.497914660213e-10 -2.879014569674e+01 -8.086379157362e+00 -5.188682535484e+01 1.584486861867e+01 3.380066140191e+00 2.667567648458e+01 -6.740340314736e-10 -8.215761223880e-10 -1.847345358105e-09 1.593424695749e-09 3.434147198434e-10 2.710248730833e-09 0.000000000000e+00 2.161070081097e+01 7.695375243637e+01  5.795996125704e-09
2.000000000000e-01 2.981500460540e+02 5.525318082396e-08 4.904906368801e-07 1.750929010964e-07 -4.570958965821e+04 5.883778352752e+02 -1.103034909881e+05 -4.724763452564e+04 3.573991664238e+02 -6.937403433816e+03 -1.270881147469e-07 5.977918806396e-08 -3.408458302305e-06 -2.052207940124e-07 3.631175530866e-08 -7.048401888758e-07 0.000000000000e+00 6.775357172398e+04 6.497071509346e+04  3.467302718138e-06
3.000000000000e-01 2.981498598774e+02 5.981068890088e-08 7.543699936484e-07 3.000425401751e-07 -6.653409419807e+04 3.515678196946e+02 -1.668114753497e+05 -7.280460519936e+04 2.534245671982e+02 -6.352055756623e+03 -7.394224643009e-08 3.571929048097e-08 -5.168033208930e-06 -3.924842052957e-07 2.574793602734e-08 -6.453688648729e-07 0.000000000000e+00 1.020500582490e+05 9.791675732979e+04  5.067925550653e-06
4.000000000000e-01 2.981499563408e+02 4.610788377930e-08 8.848857867528e-07 3.299899877155e-07 -7.856925988798e+04 2.857131024257e+02 -2.001738386645e+05 -8.636445585048e+04 2.384790388637e+02 -5.577363427255e+03 -4.742717930082e-08 2.902845120645e-08 -6.224939781150e-06 -4.434231341959e-07 2.422947034855e-08 -5.666601242091e-07 0.000000000000e+00 1.217025181343e+05 1.182972679275e+05  6.069580297220e-06
5.000000000000e-01 2.981502850479e+02 3.028148875244e-08 1.540687315072e-06 3.642775225682e-07 -1.482864541108e+05 1.869279727217e+02 -3.877994587723e+05 -1.547676092523e+05 2.478408925895e+02 -6.338704141142e+03 -7.030918356954e-08 1.899188202853e-08 -1.223756982037e-05 -3.995518647557e-07 2.518063468710e-08 -6.440123407401e-07 0.000000000000e+00 2.302845073785e+05 2.365945697695e+05  1.205785596966e-05
6.000000000000e-01 2.981502928728e+02 3.028172492766e-08 1.587795356584e-06 3.635290782077e-07 -1.551970055083e+05 2.347783223751e+02 -4.081873522093e+05 -1.623178965289e+05 2.001328935289e+02 -6.048858700712e+03 -4.709122355389e-08 2.385347755331e-08 -1.289900083596e-05 -4.088324873991e-07 2.033350198253e-08 -6.145640439923e-07 0.000000000000e+00 2.419007514155e+05 2.497265655103e+05  1.271964565596e-05
7.000000000000e-01 2.981496805637e+02 1.747684990833e-08 1.769720640559e-06 2.591071499456e-07 -1.954025907562e+05 -1.199771628916e+02 -5.195885627035e+05 -2.003864577218e+05 2.230989649207e+02 -5.301237977566e+03 -4.584025800234e-08 -1.218967974979e-08 -1.651448763292e-05 -2.990206998530e-07 2.266685483594e-08 -5.386057785207e-07 0.000000000000e+00 3.051258703938e+05 3.218542922758e+05  1.637019190341e-05
8.000000000000e-01 2.981486874723e+02 1.395548990710e-08 1.791365517716e-06 2.169928713842e-07 -2.055870532308e+05 -1.155982511561e+02 -5.500350420964e+05 -2.098920877495e+05 1.709168610673e+02 -4.871310081899e+03 -2.632278010641e-08 -1.174478231746e-08 -1.752428061448e-05 -2.450185336564e-07 1.736515308444e-08 -4.949251043209e-07 0.000000000000e+00 3.218380610256e+05 3.424199272621e+05  1.741079544920e-05
9.000000000000e-01 2.981479914635e+02 1.383051769293e-08 1.809019317197e-06 1.840025711479e-07 -2.138767172816e+05 2.453107627120e+02 -5.730820884369e+05 -2.176874013887e+05 8.752908708766e+01 -4.547773808561e+03 -2.440932928500e-08 2.492357349154e-08 -1.827204218397e-05 -2.179920819291e-07 8.892955248106e-09 -4.620538189498e-07 0.000000000000e+00 3.348820690357e+05 3.574023671397e+05  1.816930747405e-05
1.000000000000e+00 2.981484883310e+02 1.586315186436e-08 1.822122435138e-06 1.699812820676e-07 -2.200507682474e+05 2.083068819128e+02 -5.886027028584e+05 -2.233425671263e+05 1.607052171310e+02 -4.613605617901e+03 -3.186664936657e-08 2.116397920234e-08 -1.875430492760e-05 -1.990900324111e-07 1.632765006051e-08 -4.687423307787e-07 0.000000000000e+00 3.439986794107e+05 3.670043995981e+05  1.865712011300e-05
