 TITLE = "Profiles along polylines"
 VARIABLES = "DIST" "DISPLACEMENT_X1" "DISPLACEMENT_Y1" "TEMPERATURE1" "STRESS_XX" "STRESS_XY" "STRESS_YY" "STRESS_ZZ" "STRAIN_XX" "STRAIN_XY" "STRAIN_YY" "STRAIN_ZZ"  p_(1st_Invariant)  q_(2nd_Invariant)   Effective_Strain
 ZONE T="TIME=0.000000000000e+00"
0.000000000000e+00 0.000000000000e+00 0.000000000000e+00 0.000000000000e+00 0.000000000000e+00 0.000000000000e+00 0.000000000000e+00 0.000000000000e+00 0.000000000000e+00 0.000000000000e+00 0.000000000000e+00 0.000000000000e+00 -0.000000000000e+00 0.000000000000e+00  0.000000000000e+00
2.706366175423e+00 0.000000000000e+00 0.000000000000e+00 0.000000000000e+00 0.000000000000e+00 0.000000000000e+00 0.000000000000e+00 0.000000000000e+00 0.000000000000e+00 0.000000000000e+00 0.000000000000e+00 0.000000000000e+00 -0.000000000000e+00 0.000000000000e+00  0.000000000000e+00
5.572652989512e+00 0.000000000000e+00 0.000000000000e+00 0.000000000000e+00 0.000000000000e+00 0.000000000000e+00 0.000000000000e+00 0.000000000000e+00 0.000000000000e+00 0.000000000000e+00 0.000000000000e+00 0.000000000000e+00 -0.000000000000e+00 0.000000000000e+00  0.000000000000e+00
8.609324411420e+00 0.000000000000e+00 0.000000000000e+00 0.000000000000e+00 0.000000000000e+00 0.000000000000e+00 0.000000000000e+00 0.000000000000e+00 0.000000000000e+00 0.000000000000e+00 0.000000000000e+00 0.000000000000e+00 -0.000000000000e+00 0.000000000000e+00  0.000000000000e+00
1.182737955688e+01 0.000000000000e+00 0.000000000000e+00 0.000000000000e+00 0.000000000000e+00 0.000000000000e+00 0.000000000000e+00 0.000000000000e+00 0.000000000000e+00 0.000000000000e+00 0.000000000000e+00 0.000000000000e+00 -0.000000000000e+00 0.000000000000e+00  0.000000000000e+00
1.523619499301e+01 0.000000000000e+00 0.000000000000e+00 0.000000000000e+00 0.000000000000e+00 0.000000000000e+00 0.000000000000e+00 0.000000000000e+00 0.000000000000e+00 0.000000000000e+00 0.000000000000e+00 0.000000000000e+00 -0.000000000000e+00 0.000000000000e+00  0.000000000000e+00
1.884768529545e+01 0.000000000000e+00 0.000000000000e+00 0.000000000000e+00 0.000000000000e+00 0.000000000000e+00 0.000000000000e+00 0.000000000000e+00 0.000000000000e+00 0.000000000000e+00 0.000000000000e+00 0.000000000000e+00 -0.000000000000e+00 0.000000000000e+00  0.000000000000e+00
2.267335393406e+01 0.000000000000e+00 0.000000000000e+00 0.000000000000e+00 0.000000000000e+00 0.000000000000e+00 0.000000000000e+00 0.000000000000e+00 0.000000000000e+00 0.000000000000e+00 0.000000000000e+00 0.000000000000e+00 -0.000000000000e+00 0.000000000000e+00  0.000000000000e+00
2.672766545364e+01 0.000000000000e+00 0.000000000000e+00 0.000000000000e+00 0.000000000000e+00 0.000000000000e+00 0.000000000000e+00 0.000000000000e+00 0.000000000000e+00 0.000000000000e+00 0.000000000000e+00 0.000000000000e+00 -0.000000000000e+00 0.000000000000e+00  0.000000000000e+00
3.102247701015e+01 0.000000000000e+00 0.000000000000e+00 0.000000000000e+00 0.000000000000e+00 0.000000000000e+00 0.000000000000e+00 0.000000000000e+00 0.000000000000e+00 0.000000000000e+00 0.000000000000e+00 0.000000000000e+00 -0.000000000000e+00 0.000000000000e+00  0.000000000000e+00
3.557215812203e+01 0.000000000000e+00 0.000000000000e+00 0.000000000000e+00 0.000000000000e+00 0.000000000000e+00 0.000000000000e+00 0.000000000000e+00 0.000000000000e+00 0.000000000000e+00 0.000000000000e+00 0.000000000000e+00 -0.000000000000e+00 0.000000000000e+00  0.000000000000e+00
4.039547527718e+01 0.000000000000e+00 0.000000000000e+00 0.000000000000e+00 0.000000000000e+00 0.000000000000e+00 0.000000000000e+00 0.000000000000e+00 0.000000000000e+00 0.000000000000e+00 0.000000000000e+00 0.000000000000e+00 -0.000000000000e+00 0.000000000000e+00  0.000000000000e+00
4.550000000000e+01 0.000000000000e+00 0.000000000000e+00 0.000000000000e+00 0.000000000000e+00 0.000000000000e+00 0.000000000000e+00 0.000000000000e+00 0.000000000000e+00 0.000000000000e+00 0.000000000000e+00 0.000000000000e+00 -0.000000000000e+00 0.000000000000e+00  0.000000000000e+00
 TITLE = "Profiles along polylines"
 VARIABLES = "DIST" "DISPLACEMENT_X1" "DISPLACEMENT_Y1" "TEMPERATURE1" "STRESS_XX" "STRESS_XY" "STRESS_YY" "STRESS_ZZ" "STRAIN_XX" "STRAIN_XY" "STRAIN_YY" "STRAIN_ZZ"  p_(1st_Invariant)  q_(2nd_Invariant)   Effective_Strain
 ZONE T="TIME=1.000000000000e+00"
0.000000000000e+00 -1.689172147621e-02 0.000000000000e+00 8.363504595073e+01 -1.074068888443e+06 3.933396628192e+04 -2.074541993675e+07 -1.421532436138e+07 6.570135380556e-03 3.933396628192e-05 -3.265540143598e-03 -4.923559148458e-07 1.201160439553e+07 1.735376153259e+07  8.677081360947e-03
2.706366175423e+00 -4.202488065899e-03 0.000000000000e+00 7.245401819159e+01 -6.412857160022e+06 -2.014729397314e+04 -1.389993779080e+07 -1.273805237217e+07 3.170740150524e-03 -2.014729397314e-05 -5.728001648644e-04 8.142544449616e-06 1.101694910766e+07 6.979143358976e+06  3.489702539122e-03
5.572652989512e+00 2.516801652916e-03 0.000000000000e+00 6.435875630843e+01 -8.038029676145e+06 -3.934442025354e+03 -1.114628463388e+07 -1.161091741750e+07 1.791230886792e-03 -3.934442025354e-06 2.371034079218e-04 4.787016116333e-06 1.026507724251e+07 3.364725263467e+06  1.682372983104e-03
8.609324411420e+00 6.613792471548e-03 0.000000000000e+00 5.776892930971e+01 -8.565851990266e+06 1.535384856234e+03 -9.640017984144e+06 -1.064963235649e+07 1.045410241625e-03 1.535384856234e-06 5.083272446861e-04 3.520058510850e-06 9.618500776969e+06 1.804897299347e+06  9.024515884315e-04
1.182737955688e+01 9.176536872271e-03 0.000000000000e+00 5.242002626705e+01 -8.675575029720e+06 7.260011517314e+02 -8.774009707280e+06 -9.901619993183e+06 6.144739882651e-04 7.260011517314e-07 5.652566494848e-04 1.451506533328e-06 9.117068243394e+06 1.179911809739e+06  5.899569099645e-04
1.523619499301e+01 1.066246882098e-02 0.000000000000e+00 4.779187899637e+01 -8.630487061963e+06 -2.521960205227e+02 -8.142410928414e+06 -9.227129930031e+06 2.991681251489e-04 -2.521960205227e-07 5.432061919237e-04 8.466911150517e-07 8.666675973469e+06 9.409614015047e+05  4.704808528376e-04
1.884768529545e+01 1.128292529145e-02 0.000000000000e+00 4.367504623802e+01 -8.518351620789e+06 -9.912040996675e+01 -7.678200629779e+06 -8.647542337217e+06 6.619025694547e-05 -9.912040996675e-08 4.862657524507e-04 1.594898731463e-06 8.281364862595e+06 9.116379033464e+05  4.558189759218e-04
2.267335393406e+01 1.114260908851e-02 0.000000000000e+00 3.995708622154e+01 -8.377653668261e+06 3.538109529941e+02 -7.315165272875e+06 -8.144706915734e+06 -1.149839844074e-04 3.538109529941e-07 4.162602132857e-04 1.489391855988e-06 7.945841952290e+06 9.672863764610e+05  4.836434794161e-04
2.672766545364e+01 1.029806279358e-02 0.000000000000e+00 3.654625359459e+01 -8.212050495622e+06 -2.250121235597e+02 -6.986889782895e+06 -7.652220171404e+06 -2.788526044298e-04 -2.250121235597e-07 3.337277519341e-04 1.062557679305e-06 7.617053483307e+06 1.062330832082e+06  5.311655232753e-04
3.102247701015e+01 8.769287578444e-03 0.000000000000e+00 3.338775841652e+01 -8.050462932670e+06 3.100217150035e+02 -6.716680842855e+06 -7.222035023768e+06 -4.134976565125e-04 3.100217150035e-07 2.533933883947e-04 7.162979382165e-07 7.329726266431e+06 1.166329903630e+06  5.831651372302e-04
3.557215812203e+01 6.556251614122e-03 0.000000000000e+00 3.043138837608e+01 -7.880242804087e+06 -2.833438889007e+02 -6.462327716990e+06 -6.797357102138e+06 -5.407296623082e-04 -2.833438889007e-07 1.682278812403e-04 7.131886660082e-07 7.046642541072e+06 1.283621791712e+06  6.418110365818e-04
4.039547527718e+01 3.639629206771e-03 0.000000000000e+00 2.764285338306e+01 -7.720362178471e+06 -3.022423552615e+01 -6.241898313946e+06 -6.415929989761e+06 -6.513142253382e-04 -3.022423552615e-08 8.791770692446e-05 9.018690169615e-07 6.792730160726e+06 1.399586682438e+06  6.997933426878e-04
4.550000000000e+01 0.000000000000e+00 0.000000000000e+00 2.500000000000e+01 -7.561839315510e+06 -1.719349667157e+02 -6.037858060414e+06 -6.053049758148e+06 -7.536318829376e-04 -1.719349667157e-07 8.358744610382e-06 7.628957434568e-07 6.550915711357e+06 1.516442507868e+06  7.582212977957e-04
