 TITLE = "Profiles along polylines"
 VARIABLES = "DIST" "DISPLACEMENT_X1" "DISPLACEMENT_Y1" "TEMPERATURE1" "STRESS_XX" "STRESS_XY" "STRESS_YY" "STRESS_ZZ" "STRAIN_XX" "STRAIN_XY" "STRAIN_YY" "STRAIN_ZZ"  p_(1st_Invariant)  q_(2nd_Invariant)   Effective_Strain
 ZONE T="TIME=0.000000000000e+00"
0.000000000000e+00 0.000000000000e+00 0.000000000000e+00 2.500000000000e+01 0.000000000000e+00 0.000000000000e+00 0.000000000000e+00 0.000000000000e+00 0.000000000000e+00 0.000000000000e+00 0.000000000000e+00 0.000000000000e+00 -0.000000000000e+00 0.000000000000e+00  0.000000000000e+00
2.706366175423e+00 0.000000000000e+00 0.000000000000e+00 2.500000000000e+01 0.000000000000e+00 0.000000000000e+00 0.000000000000e+00 0.000000000000e+00 0.000000000000e+00 0.000000000000e+00 0.000000000000e+00 0.000000000000e+00 -0.000000000000e+00 0.000000000000e+00  0.000000000000e+00
5.572652989512e+00 0.000000000000e+00 0.000000000000e+00 2.500000000000e+01 0.000000000000e+00 0.000000000000e+00 0.000000000000e+00 0.000000000000e+00 0.000000000000e+00 0.000000000000e+00 0.000000000000e+00 0.000000000000e+00 -0.000000000000e+00 0.000000000000e+00  0.000000000000e+00
8.609324411420e+00 0.000000000000e+00 0.000000000000e+00 2.500000000000e+01 0.000000000000e+00 0.000000000000e+00 0.000000000000e+00 0.000000000000e+00 0.000000000000e+00 0.000000000000e+00 0.000000000000e+00 0.000000000000e+00 -0.000000000000e+00 0.000000000000e+00  0.000000000000e+00
1.182737955688e+01 0.000000000000e+00 0.000000000000e+00 2.500000000000e+01 0.000000000000e+00 0.000000000000e+00 0.000000000000e+00 0.000000000000e+00 0.000000000000e+00 0.000000000000e+00 0.000000000000e+00 0.000000000000e+00 -0.000000000000e+00 0.000000000000e+00  0.000000000000e+00
1.523619499301e+01 0.000000000000e+00 0.000000000000e+00 2.500000000000e+01 0.000000000000e+00 0.000000000000e+00 0.000000000000e+00 0.000000000000e+00 0.000000000000e+00 0.000000000000e+00 0.000000000000e+00 0.000000000000e+00 -0.000000000000e+00 0.000000000000e+00  0.000000000000e+00
1.884768529545e+01 0.000000000000e+00 0.000000000000e+00 2.500000000000e+01 0.000000000000e+00 0.000000000000e+00 0.000000000000e+00 0.000000000000e+00 0.000000000000e+00 0.000000000000e+00 0.000000000000e+00 0.000000000000e+00 -0.000000000000e+00 0.000000000000e+00  0.000000000000e+00
2.267335393406e+01 0.000000000000e+00 0.000000000000e+00 2.500000000000e+01 0.000000000000e+00 0.000000000000e+00 0.000000000000e+00 0.000000000000e+00 0.000000000000e+00 0.000000000000e+00 0.000000000000e+00 0.000000000000e+00 -0.000000000000e+00 0.000000000000e+00  0.000000000000e+00
2.672766545364e+01 0.000000000000e+00 0.000000000000e+00 2.500000000000e+01 0.000000000000e+00 0.000000000000e+00 0.000000000000e+00 0.000000000000e+00 0.000000000000e+00 0.000000000000e+00 0.000000000000e+00 0.000000000000e+00 -0.000000000000e+00 0.000000000000e+00  0.000000000000e+00
3.102247701015e+01 0.000000000000e+00 0.000000000000e+00 2.500000000000e+01 0.000000000000e+00 0.000000000000e+00 0.000000000000e+00 0.000000000000e+00 0.000000000000e+00 0.000000000000e+00 0.000000000000e+00 0.000000000000e+00 -0.000000000000e+00 0.000000000000e+00  0.000000000000e+00
3.557215812203e+01 0.000000000000e+00 0.000000000000e+00 2.500000000000e+01 0.000000000000e+00 0.000000000000e+00 0.000000000000e+00 0.000000000000e+00 0.000000000000e+00 0.000000000000e+00 0.000000000000e+00 0.000000000000e+00 -0.000000000000e+00 0.000000000000e+00  0.000000000000e+00
4.039547527718e+01 0.000000000000e+00 0.000000000000e+00 2.500000000000e+01 0.000000000000e+00 0.000000000000e+00 0.000000000000e+00 0.000000000000e+00 0.000000000000e+00 0.000000000000e+00 0.000000000000e+00 0.000000000000e+00 -0.000000000000e+00 0.000000000000e+00  0.000000000000e+00
4.550000000000e+01 0.000000000000e+00 0.000000000000e+00 2.500000000000e+01 0.000000000000e+00 0.000000000000e+00 0.000000000000e+00 0.000000000000e+00 0.000000000000e+00 0.000000000000e+00 0.000000000000e+00 0.000000000000e+00 -0.000000000000e+00 0.000000000000e+00  0.000000000000e+00
 TITLE = "Profiles along polylines"
 VARIABLES = "DIST" "DISPLACEMENT_X1" "DISPLACEMENT_Y1" "TEMPERATURE1" "STRESS_XX" "STRESS_XY" "STRESS_YY" "STRESS_ZZ" "STRAIN_XX" "STRAIN_XY" "STRAIN_YY" "STRAIN_ZZ"  p_(1st_Invariant)  q_(2nd_Invariant)   Effective_Strain
 ZONE T="TIME=1.000000000000e+00"
0.000000000000e+00 -5.403150233318e-03 0.000000000000e+00 8.363504595073e+01 -5.823073422473e+05 2.576553800623e+04 -1.087108560428e+07 -8.992205839693e+06 4.207094713618e-03 2.576553800623e-05 -9.372944173985e-04 2.145464894770e-06 6.815199595407e+06 9.489982170955e+06  4.745148479542e-03
2.706366175423e+00 2.899732380744e-03 0.000000000000e+00 7.245401819159e+01 -3.259270901245e+06 -1.149765070886e+04 -6.715476974180e+06 -7.530320568625e+06 2.142955392018e-03 -1.149765070886e-05 4.148523555509e-04 7.430558328089e-06 5.835022814683e+06 3.927593979720e+06  1.963872719480e-03
5.572652989512e+00 7.497640112198e-03 0.000000000000e+00 6.435875630843e+01 -3.929640583384e+06 -2.909902941201e+03 -4.918868646190e+06 -6.394749804542e+06 1.240228163831e-03 -2.909902941201e-06 7.456141324285e-04 7.673553252151e-06 5.081086344705e+06 2.148675363017e+06  1.074346548309e-03
8.609324411420e+00 1.032750885610e-02 0.000000000000e+00 5.776892930971e+01 -4.014706952613e+06 7.391503712885e+02 -3.860352333492e+06 -5.438979832843e+06 7.168364392560e-04 7.391503712885e-07 7.940137488166e-04 4.699999141079e-06 4.438013039649e+06 1.507389572335e+06  7.536956016646e-04
1.182737955688e+01 1.203195727240e-02 0.000000000000e+00 5.242002626705e+01 -3.910532389757e+06 6.632444786147e+02 -3.209322219128e+06 -4.690406411099e+06 3.929009372265e-04 6.632444786147e-07 7.435060225411e-04 2.963926555653e-06 3.936753673328e+06 1.283259953326e+06  6.416307479483e-04
1.523619499301e+01 1.289018431448e-02 0.000000000000e+00 4.779187899637e+01 -3.735097094974e+06 -2.486343501432e+02 -2.707454355632e+06 -4.016337112847e+06 1.427491729481e-04 -2.486343501432e-07 6.565705426192e-04 2.129164011674e-06 3.486296187817e+06 1.193381747477e+06  5.966909902922e-04
1.884768529545e+01 1.302378172950e-02 0.000000000000e+00 4.367504623802e+01 -3.544973505250e+06 -6.224098464643e+01 -2.319778756405e+06 -3.438047679745e+06 -5.125014992335e-05 -6.224098464643e-08 5.613472244991e-04 2.212762828887e-06 3.100933313800e+06 1.175385194927e+06  5.876926048795e-04
2.267335393406e+01 1.248885592016e-02 0.000000000000e+00 3.995708622154e+01 -3.354432465247e+06 5.385350583685e+02 -2.005386755793e+06 -2.935784677721e+06 -2.075655787115e-04 5.385350583685e-07 4.669572760158e-04 1.758315051666e-06 2.765201299587e+06 1.196000068864e+06  5.980005800382e-04
2.672766545364e+01 1.131097071771e-02 0.000000000000e+00 3.654625359459e+01 -3.152829313617e+06 -1.813605794593e+02 -1.712513829498e+06 -2.442764297085e+06 -3.535473143991e-04 -1.813605794593e-07 3.666104276604e-04 1.485193866737e-06 2.436035813400e+06 1.247390669409e+06  6.236953940333e-04
3.102247701015e+01 9.490809349365e-03 0.000000000000e+00 3.338775841652e+01 -2.967403626381e+06 3.435105402577e+02 -1.466063328760e+06 -2.012156875992e+06 -4.763235001840e-04 3.435105402577e-07 2.743466486263e-04 1.299875010463e-06 2.148541277044e+06 1.316194877994e+06  6.580976407138e-04
3.557215812203e+01 7.016755401302e-03 0.000000000000e+00 3.043138837608e+01 -2.778227150870e+06 -2.483890962398e+02 -1.229861505512e+06 -1.587669726368e+06 -5.941387597464e-04 -2.483890962398e-07 1.800440629326e-04 1.139952504813e-06 1.865252794250e+06 1.404081594114e+06  7.020408959247e-04
4.039547527718e+01 3.861653792986e-03 0.000000000000e+00 2.764285338306e+01 -2.604563800891e+06 -7.109403389675e+00 -1.022105840630e+06 -1.206111979436e+06 -6.979559226700e-04 -7.109403389675e-09 9.327305746030e-05 1.269988057330e-06 1.610927206986e+06 1.498949457511e+06  7.494747288313e-04
4.550000000000e+01 0.000000000000e+00 0.000000000000e+00 2.500000000000e+01 -2.435425003149e+06 -1.546095201846e+02 -8.276656067903e+05 -8.428665055691e+05 -7.951037286135e-04 -1.546095201846e-07 8.775969565855e-06 1.175520176451e-06 1.368652371836e+06 1.600213119485e+06  8.001065933530e-04
