 TITLE = "Profiles along polylines"
 VARIABLES = "DIST" "DISPLACEMENT_X1" "DISPLACEMENT_Y1" "TEMPERATURE1" "STRESS_XX" "STRESS_XY" "STRESS_YY" "STRESS_ZZ" "STRAIN_XX" "STRAIN_XY" "STRAIN_YY" "STRAIN_ZZ"  p_(1st_Invariant)  q_(2nd_Invariant)   Effective_Strain
 ZONE T="TIME=0.000000000000e+00"
0.000000000000e+00 0.000000000000e+00 0.000000000000e+00 0.000000000000e+00 0.000000000000e+00 0.000000000000e+00 0.000000000000e+00 0.000000000000e+00 0.000000000000e+00 0.000000000000e+00 0.000000000000e+00 0.000000000000e+00 -0.000000000000e+00 0.000000000000e+00  0.000000000000e+00
2.706366175423e+00 0.000000000000e+00 0.000000000000e+00 0.000000000000e+00 0.000000000000e+00 0.000000000000e+00 0.000000000000e+00 0.000000000000e+00 0.000000000000e+00 0.000000000000e+00 0.000000000000e+00 0.000000000000e+00 -0.000000000000e+00 0.000000000000e+00  0.000000000000e+00
5.572652989512e+00 0.000000000000e+00 0.000000000000e+00 0.000000000000e+00 0.000000000000e+00 0.000000000000e+00 0.000000000000e+00 0.000000000000e+00 0.000000000000e+00 0.000000000000e+00 0.000000000000e+00 0.000000000000e+00 -0.000000000000e+00 0.000000000000e+00  0.000000000000e+00
8.609324411420e+00 0.000000000000e+00 0.000000000000e+00 0.000000000000e+00 0.000000000000e+00 0.000000000000e+00 0.000000000000e+00 0.000000000000e+00 0.000000000000e+00 0.000000000000e+00 0.000000000000e+00 0.000000000000e+00 -0.000000000000e+00 0.000000000000e+00  0.000000000000e+00
1.182737955688e+01 0.000000000000e+00 0.000000000000e+00 0.000000000000e+00 0.000000000000e+00 0.000000000000e+00 0.000000000000e+00 0.000000000000e+00 0.000000000000e+00 0.000000000000e+00 0.000000000000e+00 0.000000000000e+00 -0.000000000000e+00 0.000000000000e+00  0.000000000000e+00
1.523619499301e+01 0.000000000000e+00 0.000000000000e+00 0.000000000000e+00 0.000000000000e+00 0.000000000000e+00 0.000000000000e+00 0.000000000000e+00 0.000000000000e+00 0.000000000000e+00 0.000000000000e+00 0.000000000000e+00 -0.000000000000e+00 0.000000000000e+00  0.000000000000e+00
1.884768529545e+01 0.000000000000e+00 0.000000000000e+00 0.000000000000e+00 0.000000000000e+00 0.000000000000e+00 0.000000000000e+00 0.000000000000e+00 0.000000000000e+00 0.000000000000e+00 0.000000000000e+00 0.000000000000e+00 -0.000000000000e+00 0.000000000000e+00  0.000000000000e+00
2.267335393406e+01 0.000000000000e+00 0.000000000000e+00 0.000000000000e+00 0.000000000000e+00 0.000000000000e+00 0.000000000000e+00 0.000000000000e+00 0.000000000000e+00 0.000000000000e+00 0.000000000000e+00 0.000000000000e+00 -0.000000000000e+00 0.000000000000e+00  0.000000000000e+00
2.672766545364e+01 0.000000000000e+00 0.000000000000e+00 0.000000000000e+00 0.000000000000e+00 0.000000000000e+00 0.000000000000e+00 0.000000000000e+00 0.000000000000e+00 0.000000000000e+00 0.000000000000e+00 0.000000000000e+00 -0.000000000000e+00 0.000000000000e+00  0.000000000000e+00
3.102247701015e+01 0.000000000000e+00 0.000000000000e+00 0.000000000000e+00 0.000000000000e+00 0.000000000000e+00 0.000000000000e+00 0.000000000000e+00 0.000000000000e+00 0.000000000000e+00 0.000000000000e+00 0.000000000000e+00 -0.000000000000e+00 0.000000000000e+00  0.000000000000e+00
3.557215812203e+01 0.000000000000e+00 0.000000000000e+00 0.000000000000e+00 0.000000000000e+00 0.000000000000e+00 0.000000000000e+00 0.000000000000e+00 0.000000000000e+00 0.000000000000e+00 0.000000000000e+00 0.000000000000e+00 -0.000000000000e+00 0.000000000000e+00  0.000000000000e+00
4.039547527718e+01 0.000000000000e+00 0.000000000000e+00 0.000000000000e+00 0.000000000000e+00 0.000000000000e+00 0.000000000000e+00 0.000000000000e+00 0.000000000000e+00 0.000000000000e+00 0.000000000000e+00 0.000000000000e+00 -0.000000000000e+00 0.000000000000e+00  0.000000000000e+00
4.550000000000e+01 0.000000000000e+00 0.000000000000e+00 0.000000000000e+00 0.000000000000e+00 0.000000000000e+00 0.000000000000e+00 0.000000000000e+00 0.000000000000e+00 0.000000000000e+00 0.000000000000e+00 0.000000000000e+00 -0.000000000000e+00 0.000000000000e+00  0.000000000000e+00
 TITLE = "Profiles along polylines"
 VARIABLES = "DIST" "DISPLACEMENT_X1" "DISPLACEMENT_Y1" "TEMPERATURE1" "STRESS_XX" "STRESS_XY" "STRESS_YY" "STRESS_ZZ" "STRAIN_XX" "STRAIN_XY" "STRAIN_YY" "STRAIN_ZZ"  p_(1st_Invariant)  q_(2nd_Invariant)   Effective_Strain
 ZONE T="TIME=1.000000000000e+00"
0.000000000000e+00 -1.689172147620e-02 0.000000000000e+00 8.363504595073e+01 -1.074068888452e+06 3.933396628150e+04 -2.074541993675e+07 -1.421532436139e+07 6.570135380552e-03 3.933396628150e-05 -3.265540143597e-03 -4.923559148068e-07 1.201160439553e+07 1.735376153258e+07  8.677081360943e-03
2.706366175423e+00 -4.202488065892e-03 0.000000000000e+00 7.245401819159e+01 -6.412857160022e+06 -2.014729397463e+04 -1.389993779080e+07 -1.273805237217e+07 3.170740150523e-03 -2.014729397463e-05 -5.728001648634e-04 8.142544450520e-06 1.101694910766e+07 6.979143358973e+06  3.489702539121e-03
5.572652989512e+00 2.516801652919e-03 0.000000000000e+00 6.435875630843e+01 -8.038029676145e+06 -3.934442026092e+03 -1.114628463388e+07 -1.161091741749e+07 1.791230886791e-03 -3.934442026092e-06 2.371034079221e-04 4.787016116802e-06 1.026507724251e+07 3.364725263465e+06  1.682372983104e-03
8.609324411420e+00 6.613792471547e-03 0.000000000000e+00 5.776892930971e+01 -8.565851990267e+06 1.535384856859e+03 -9.640017984145e+06 -1.064963235650e+07 1.045410241625e-03 1.535384856859e-06 5.083272446862e-04 3.520058510731e-06 9.618500776969e+06 1.804897299347e+06  9.024515884314e-04
1.182737955688e+01 9.176536872270e-03 0.000000000000e+00 5.242002626705e+01 -8.675575029721e+06 7.260011521374e+02 -8.774009707280e+06 -9.901619993181e+06 6.144739882644e-04 7.260011521374e-07 5.652566494848e-04 1.451506534444e-06 9.117068243394e+06 1.179911809736e+06  5.899569099630e-04
1.523619499301e+01 1.066246882098e-02 0.000000000000e+00 4.779187899637e+01 -8.630487061960e+06 -2.521960209911e+02 -8.142410928413e+06 -9.227129930031e+06 2.991681251502e-04 -2.521960209911e-07 5.432061919237e-04 8.466911145652e-07 8.666675973468e+06 9.409614015058e+05  4.704808528382e-04
1.884768529545e+01 1.128292529145e-02 0.000000000000e+00 4.367504623802e+01 -8.518351620789e+06 -9.912041289882e+01 -7.678200629779e+06 -8.647542337219e+06 6.619025694568e-05 -9.912041289882e-08 4.862657524508e-04 1.594898730806e-06 8.281364862596e+06 9.116379033474e+05  4.558189759223e-04
2.267335393406e+01 1.114260908852e-02 0.000000000000e+00 3.995708622154e+01 -8.377653668266e+06 3.538109477570e+02 -7.315165272875e+06 -8.144706915733e+06 -1.149839844095e-04 3.538109477570e-07 4.162602132858e-04 1.489391857129e-06 7.945841952291e+06 9.672863764633e+05  4.836434794172e-04
2.672766545364e+01 1.029806279357e-02 0.000000000000e+00 3.654625359459e+01 -8.212050495624e+06 -2.250121230796e+02 -6.986889782896e+06 -7.652220171406e+06 -2.788526044302e-04 -2.250121230796e-07 3.337277519339e-04 1.062557678938e-06 7.617053483309e+06 1.062330832082e+06  5.311655232756e-04
3.102247701015e+01 8.769287578444e-03 0.000000000000e+00 3.338775841652e+01 -8.050462932667e+06 3.100217156763e+02 -6.716680842854e+06 -7.222035023767e+06 -4.134976565116e-04 3.100217156763e-07 2.533933883947e-04 7.162979383008e-07 7.329726266430e+06 1.166329903628e+06  5.831651372294e-04
3.557215812203e+01 6.556251614125e-03 0.000000000000e+00 3.043138837608e+01 -7.880242804086e+06 -2.833438895976e+02 -6.462327716989e+06 -6.797357102138e+06 -5.407296623082e-04 -2.833438895976e-07 1.682278812404e-04 7.131886661154e-07 7.046642541071e+06 1.283621791712e+06  6.418110365818e-04
4.039547527718e+01 3.639629206773e-03 0.000000000000e+00 2.764285338306e+01 -7.720362178472e+06 -3.022423565111e+01 -6.241898313946e+06 -6.415929989761e+06 -6.513142253383e-04 -3.022423565111e-08 8.791770692450e-05 9.018690168998e-07 6.792730160726e+06 1.399586682439e+06  6.997933426879e-04
4.550000000000e+01 0.000000000000e+00 0.000000000000e+00 2.500000000000e+01 -7.561839315511e+06 -1.719349666989e+02 -6.037858060414e+06 -6.053049758148e+06 -7.536318829381e-04 -1.719349666989e-07 8.358744610391e-06 7.628957434940e-07 6.550915711358e+06 1.516442507869e+06  7.582212977963e-04
