 TITLE = "Time curves in points"
 VARIABLES = "TIME"  "DISPLACEMENT_X1"  "DISPLACEMENT_Y1"  "STRESS_XX"  "STRESS_XY"  "STRESS_YY"  "STRESS_ZZ"  "STRAIN_XX"  "STRAIN_XY"  "STRAIN_YY"  "STRAIN_ZZ"  p_(1st_Invariant)  q_(2nd_Invariant)   Effective_Strain
 ZONE T="POINT=POINT1"
0.000000000000e+00 0.000000000000e+00 0.000000000000e+00 0.000000000000e+00 0.000000000000e+00 0.000000000000e+00 0.000000000000e+00 0.000000000000e+00 0.000000000000e+00 0.000000000000e+00 0.000000000000e+00 -0.000000000000e+00 0.000000000000e+00  0.000000000000e+00
1.000000000000e+00 9.449710687620e-20 5.388266603011e-05 -2.478322215588e-11 -5.295809128031e-12 -5.015069014749e-12 -5.000000000291e+00 6.176533205802e-05 -5.874026670164e-16 6.176533205912e-05 -2.155306641230e-04 1.666666666774e+00 5.000000000276e+00  2.772959961816e-04
2.000000000000e+00 -1.596756905615e-19 5.776533205447e-05 -5.740537580923e-12 -5.071143765678e-13 -6.664616292446e-12 -4.999999999988e+00 6.953066410911e-05 -1.055967740910e-16 6.953066410915e-05 -2.310613282183e-04 1.666666666667e+00 4.999999999982e+00  3.005919923274e-04
3.000000000000e+00 -1.287795193471e-19 6.164799808129e-05 -4.161524601599e-12 -3.406565200934e-13 -5.023646939880e-12 -4.999999999988e+00 7.729599616274e-05 -9.185902906383e-17 7.729599616278e-05 -2.465919923255e-04 1.666666666666e+00 4.999999999984e+00  3.238879884882e-04
4.000000000000e+00 -1.047175231588e-19 6.553066410811e-05 -2.913397781700e-12 -2.162854764790e-13 -3.733778821716e-12 -4.999999999989e+00 8.506132821638e-05 -8.123836528253e-17 8.506132821642e-05 -2.621226564327e-04 1.666666666665e+00 4.999999999985e+00  3.471839846491e-04
5.000000000000e+00 -8.663547469034e-20 6.941333013493e-05 -1.930376676898e-12 -1.225540210715e-13 -2.725612366750e-12 -4.999999999989e+00 9.282666027002e-05 -7.285725661376e-17 9.282666027006e-05 -2.776533205400e-04 1.666666666664e+00 4.999999999986e+00  3.704799808100e-04
6.000000000000e+00 -7.275524564166e-20 7.329599616176e-05 -1.148452912275e-12 -4.973009749122e-14 -1.927043192522e-12 -4.999999999989e+00 1.005919923237e-04 -6.592175084164e-17 1.005919923237e-04 -2.931839846472e-04 1.666666666664e+00 4.999999999987e+00  3.937759769709e-04
7.000000000000e+00 -6.185347679055e-20 7.717866218858e-05 -5.292735424755e-13 8.473777709466e-15 -1.295790164501e-12 -4.999999999989e+00 1.083573243773e-04 -5.992927508414e-17 1.083573243773e-04 -3.087146487545e-04 1.666666666664e+00 4.999999999988e+00  4.170719731318e-04
8.000000000000e+00 -5.354791077486e-20 8.106132821540e-05 -3.366111827738e-14 5.537317507856e-14 -7.936352703072e-13 -4.999999999989e+00 1.161226564309e-04 -5.464830700232e-17 1.161226564310e-04 -3.242453128617e-04 1.666666666663e+00 4.999999999988e+00  4.403679692927e-04
9.000000000000e+00 -4.586267316943e-20 8.494399424222e-05 3.612728139998e-13 8.832353294582e-14 -3.906286374490e-13 -4.999999999989e+00 1.238879884846e-04 -5.047751677004e-17 1.238879884846e-04 -3.397759769690e-04 1.666666666663e+00 4.999999999989e+00  4.636639654536e-04
1.000000000000e+01 -4.044541155547e-20 8.882666026905e-05 6.761065007228e-13 1.160925414320e-13 -7.270756939879e-14 -4.999999999989e+00 1.316533205382e-04 -4.657438894909e-17 1.316533205382e-04 -3.553066410763e-04 1.666666666663e+00 4.999999999989e+00  4.869599616145e-04
1.100000000000e+01 -3.604213201375e-20 9.270932629587e-05 9.346732731627e-13 1.430864939696e-13 1.891061816059e-13 -4.999999999989e+00 1.394186525919e-04 -4.249846640691e-17 1.394186525919e-04 -3.708373051835e-04 1.666666666663e+00 4.999999999990e+00  5.102559577754e-04
1.200000000000e+01 -3.198878100075e-20 9.659199232269e-05 1.136719990559e-12 1.607463032038e-13 3.953651907846e-13 -4.999999999989e+00 1.471839846455e-04 -3.920633168524e-17 1.471839846455e-04 -3.863679692908e-04 1.666666666663e+00 4.999999999990e+00  5.335519539363e-04
1.300000000000e+01 -2.937271615833e-20 1.004746583495e-04 1.310212043676e-12 1.833168196756e-13 5.677527411022e-13 -4.999999999989e+00 1.549493166992e-04 -3.520494804241e-17 1.549493166992e-04 -4.018986333981e-04 1.666666666662e+00 4.999999999990e+00  5.568479500972e-04
1.400000000000e+01 -2.639789498583e-20 1.043573243763e-04 1.448043152273e-12 1.981873862957e-13 7.074231178898e-13 -4.999999999989e+00 1.627146487528e-04 -3.184730943950e-17 1.627146487528e-04 -4.174292975054e-04 1.666666666662e+00 4.999999999990e+00  5.801439462582e-04
1.500000000000e+01 -2.343586424791e-20 1.082399904032e-04 1.555428517423e-12 2.081736636053e-13 8.189536778710e-13 -4.999999999989e+00 1.704799808064e-04 -2.889285851948e-17 1.704799808064e-04 -4.329599616126e-04 1.666666666662e+00 4.999999999990e+00  6.034399424191e-04
1.600000000000e+01 -2.081857061099e-20 1.121226564300e-04 1.646510702807e-12 2.193675739197e-13 9.139411656881e-13 -4.999999999989e+00 1.782453128601e-04 -2.571140276959e-17 1.782453128601e-04 -4.484906257199e-04 1.666666666662e+00 4.999999999990e+00  6.267359385800e-04
1.700000000000e+01 -1.878494125122e-20 1.160053224568e-04 1.716455963345e-12 2.321869472429e-13 9.873965364906e-13 -4.999999999989e+00 1.860106449137e-04 -2.224534394942e-17 1.860106449137e-04 -4.640212898272e-04 1.666666666662e+00 4.999999999990e+00  6.500319347409e-04
1.800000000000e+01 -1.653960344643e-20 1.198879884836e-04 1.771567096869e-12 2.407118189297e-13 1.047679013875e-12 -4.999999999989e+00 1.937759769674e-04 -1.913616834437e-17 1.937759769674e-04 -4.795519539345e-04 1.666666666662e+00 4.999999999991e+00  6.733279309018e-04
1.900000000000e+01 -1.418280900377e-20 1.237706545105e-04 1.829362651353e-12 2.481539511043e-13 1.110005689937e-12 -4.999999999989e+00 2.015413090210e-04 -1.606765032078e-17 2.015413090210e-04 -4.950826180418e-04 1.666666666662e+00 4.999999999991e+00  6.966239270628e-04
2.000000000000e+01 -1.213890680424e-20 1.276533205373e-04 1.868500782140e-12 2.575163739229e-13 1.154666925332e-12 -4.999999999989e+00 2.093066410747e-04 -1.271678798144e-17 2.093066410746e-04 -5.106132821490e-04 1.666666666662e+00 4.999999999991e+00  7.199199232237e-04
2.100000000000e+01 -1.029555577809e-20 1.315359865641e-04 1.901981247834e-12 2.632616360988e-13 1.192377295514e-12 -4.999999999989e+00 2.170719731283e-04 -9.679892521222e-18 2.170719731283e-04 -5.261439462563e-04 1.666666666662e+00 4.999999999991e+00  7.432159193846e-04
2.200000000000e+01 -8.509325488138e-21 1.354186525909e-04 1.926069950192e-12 2.715381197093e-13 1.220431880416e-12 -4.999999999989e+00 2.248373051819e-04 -6.308701391150e-18 2.248373051819e-04 -5.416746103636e-04 1.666666666662e+00 4.999999999991e+00  7.665119155456e-04
2.300000000000e+01 -6.479156875744e-21 1.393013186177e-04 1.951545420835e-12 2.757184787429e-13 1.250241668663e-12 -4.999999999989e+00 2.326026372356e-04 -3.314722266922e-18 2.326026372356e-04 -5.572052744709e-04 1.666666666662e+00 4.999999999991e+00  7.898079117065e-04
2.400000000000e+01 -4.333992483385e-21 1.431839846446e-04 1.973126458875e-12 2.834575496164e-13 1.278075291718e-12 -4.999999999989e+00 2.403679692892e-04 1.129377263008e-19 2.403679692892e-04 -5.727359385782e-04 1.666666666662e+00 4.999999999991e+00  8.131039078674e-04
2.500000000000e+01 -2.482074925031e-21 1.470666506714e-04 1.985751385745e-12 2.867689086090e-13 1.296065398175e-12 -4.999999999989e+00 2.481333013429e-04 3.121598754948e-18 2.481333013429e-04 -5.882666026855e-04 1.666666666662e+00 4.999999999991e+00  8.363999040283e-04
2.600000000000e+01 -4.850366885842e-22 1.509493166982e-04 2.001673270499e-12 2.943840009089e-13 1.315712801804e-12 -4.999999999989e+00 2.558986333965e-04 6.638479551948e-18 2.558986333965e-04 -6.037972667928e-04 1.666666666662e+00 4.999999999991e+00  8.596959001893e-04
2.700000000000e+01 1.208709561002e-21 1.548319827250e-04 2.010252735907e-12 3.017971678085e-13 1.329697470066e-12 -4.999999999989e+00 2.636639654502e-04 1.020392357126e-17 2.636639654501e-04 -6.193279309000e-04 1.666666666662e+00 4.999999999991e+00  8.829918963502e-04
2.800000000000e+01 3.277564395175e-21 1.587146487519e-04 2.023473154292e-12 3.115403409729e-13 1.347817151180e-12 -4.999999999989e+00 2.714292975038e-04 1.409688699684e-17 2.714292975038e-04 -6.348585950073e-04 1.666666666662e+00 4.999999999991e+00  9.062878925111e-04
2.900000000000e+01 5.313727416475e-21 1.625973147787e-04 2.029607273124e-12 3.145084751980e-13 1.358867636271e-12 -4.999999999989e+00 2.791946295575e-04 1.732916472356e-17 2.791946295574e-04 -6.503892591146e-04 1.666666666662e+00 4.999999999991e+00  9.295838886720e-04
3.000000000000e+01 7.561054677908e-21 1.664799808055e-04 2.033837195911e-12 3.171661602871e-13 1.369254282534e-12 -4.999999999989e+00 2.869599616111e-04 2.055466618670e-17 2.869599616111e-04 -6.659199232219e-04 1.666666666662e+00 4.999999999991e+00  9.528798848330e-04
3.100000000000e+01 9.313652646288e-21 1.703626468323e-04 2.039251409873e-12 3.213824294778e-13 1.378563191502e-12 -4.999999999989e+00 2.947252936647e-04 2.397780867087e-17 2.947252936647e-04 -6.814505873292e-04 1.666666666662e+00 4.999999999991e+00  9.761758809939e-04
3.200000000000e+01 1.143345337241e-20 1.742453128592e-04 2.041116275379e-12 3.266597901094e-13 1.385901559267e-12 -4.999999999989e+00 3.024906257184e-04 2.755793459460e-17 3.024906257183e-04 -6.969812514365e-04 1.666666666662e+00 4.999999999991e+00  9.994718771548e-04
3.300000000000e+01 1.328153924209e-20 1.781279788860e-04 2.040550892955e-12 3.319927135405e-13 1.389245972570e-12 -4.999999999989e+00 3.102559577720e-04 3.119340000422e-17 3.102559577720e-04 -7.125119155438e-04 1.666666666662e+00 4.999999999991e+00  1.022767873316e-03
3.400000000000e+01 1.533412504565e-20 1.820106449128e-04 2.045621960746e-12 3.349226565493e-13 1.400414295037e-12 -4.999999999989e+00 3.180212898257e-04 3.461202497934e-17 3.180212898256e-04 -7.280425796510e-04 1.666666666662e+00 4.999999999991e+00  1.046063869477e-03
3.500000000000e+01 1.761564051167e-20 1.858933109396e-04 2.044302366436e-12 3.401417830084e-13 1.402997392929e-12 -4.999999999989e+00 3.257866218793e-04 3.831186489294e-17 3.257866218793e-04 -7.435732437583e-04 1.666666666662e+00 4.999999999991e+00  1.069359865638e-03
3.600000000000e+01 1.995658625391e-20 1.897759769664e-04 2.043599027911e-12 3.427129378948e-13 1.408717085973e-12 -4.999999999989e+00 3.335519539330e-04 4.176662994048e-17 3.335519539329e-04 -7.591039078656e-04 1.666666666662e+00 4.999999999991e+00  1.092655861799e-03
3.700000000000e+01 2.228330353628e-20 1.936586429933e-04 2.048151943704e-12 3.464935744629e-13 1.417233985263e-12 -4.999999999989e+00 3.413172859866e-04 4.537950780483e-17 3.413172859865e-04 -7.746345719729e-04 1.666666666662e+00 4.999999999991e+00  1.115951857959e-03
3.800000000000e+01 2.436667959182e-20 1.975413090201e-04 2.049237993610e-12 3.494271279777e-13 1.422232169102e-12 -4.999999999989e+00 3.490826180403e-04 4.893365805151e-17 3.490826180402e-04 -7.901652360802e-04 1.666666666662e+00 4.999999999991e+00  1.139247854120e-03
3.900000000000e+01 2.645022004716e-20 2.014239750469e-04 2.048422567050e-12 3.516865835373e-13 1.425677531137e-12 -4.999999999989e+00 3.568479500939e-04 5.244037445315e-17 3.568479500938e-04 -8.056959001875e-04 1.666666666662e+00 4.999999999991e+00  1.162543850281e-03
4.000000000000e+01 2.894409076276e-20 2.053066410737e-04 2.051462979112e-12 3.570246590462e-13 1.434865876542e-12 -4.999999999989e+00 3.646132821475e-04 5.630962095620e-17 3.646132821475e-04 -8.212265642948e-04 1.666666666662e+00 4.999999999991e+00  1.185839846442e-03
4.100000000000e+01 3.168611914301e-20 2.091893071006e-04 2.047809030280e-12 3.609164344951e-13 1.437041931010e-12 -4.999999999989e+00 3.723786142012e-04 6.006818848749e-17 3.723786142011e-04 -8.367572284020e-04 1.666666666662e+00 4.999999999991e+00  1.209135842603e-03
4.200000000000e+01 3.403283612042e-20 2.130719731274e-04 2.047420580008e-12 3.625466663425e-13 1.441555852563e-12 -4.999999999989e+00 3.801439462548e-04 6.361217433880e-17 3.801439462548e-04 -8.522878925093e-04 1.666666666662e+00 4.999999999991e+00  1.232431838764e-03
4.300000000000e+01 3.650677382033e-20 2.169546391542e-04 2.045673510803e-12 3.655876126993e-13 1.444071942418e-12 -4.999999999989e+00 3.879092783085e-04 6.732782553409e-17 3.879092783084e-04 -8.678185566166e-04 1.666666666662e+00 4.999999999991e+00  1.255727834925e-03
4.400000000000e+01 3.922480838713e-20 2.208373051810e-04 2.049489857830e-12 3.682916287680e-13 1.452511734777e-12 -4.999999999989e+00 3.956746103621e-04 7.103444171127e-17 3.956746103620e-04 -8.833492207239e-04 1.666666666662e+00 4.999999999991e+00  1.279023831086e-03
4.500000000000e+01 4.140564455924e-20 2.247199712079e-04 2.045031829083e-12 3.682127810696e-13 1.451873328689e-12 -4.999999999989e+00 4.034399424158e-04 7.445758419544e-17 4.034399424157e-04 -8.988798848312e-04 1.666666666662e+00 4.999999999991e+00  1.302319827247e-03
4.600000000000e+01 4.420526080002e-20 2.286026372347e-04 2.045395535833e-12 3.703704275716e-13 1.456900383743e-12 -4.999999999989e+00 4.112052744694e-04 7.812806030021e-17 4.112052744693e-04 -9.144105489385e-04 1.666666666662e+00 4.999999999991e+00  1.325615823408e-03
4.700000000000e+01 4.673788247265e-20 2.324853032615e-04 2.041884067521e-12 3.716747917462e-13 1.457351738502e-12 -4.999999999989e+00 4.189706065231e-04 8.172399750562e-17 4.189706065230e-04 -9.299412130458e-04 1.666666666662e+00 4.999999999991e+00  1.348911819569e-03
4.800000000000e+01 4.939178149173e-20 2.363679692883e-04 2.042799451024e-12 3.752623575828e-13 1.461925303069e-12 -4.999999999989e+00 4.267359385767e-04 8.558533836784e-17 4.267359385766e-04 -9.454718771530e-04 1.666666666662e+00 4.999999999991e+00  1.372207815730e-03
4.900000000000e+01 5.213360161262e-20 2.402506353151e-04 2.043557637482e-12 3.785994376386e-13 1.466380729561e-12 -4.999999999989e+00 4.345012706303e-04 8.945232611637e-17 4.345012706302e-04 -9.610025412603e-04 1.666666666662e+00 4.999999999991e+00  1.395503811891e-03
5.000000000000e+01 5.488186830879e-20 2.441333013420e-04 2.036275152207e-12 3.816663473279e-13 1.463974028435e-12 -4.999999999989e+00 4.422666026840e-04 9.332044324216e-17 4.422666026839e-04 -9.765332053676e-04 1.666666666662e+00 4.999999999991e+00  1.418799808052e-03
5.100000000000e+01 5.766330627841e-20 2.480159673688e-04 2.034726539498e-12 3.809933390572e-13 1.466933754497e-12 -4.999999999989e+00 4.500319347376e-04 9.680231334401e-17 4.500319347375e-04 -9.920638694749e-04 1.666666666662e+00 4.999999999991e+00  1.442095804212e-03
5.200000000000e+01 6.054571450102e-20 2.518986333956e-04 2.032853311029e-12 3.832176645030e-13 1.468739983066e-12 -4.999999999989e+00 4.577972667913e-04 1.005992797022e-16 4.577972667912e-04 -1.007594533582e-03 1.666666666662e+00 4.999999999991e+00  1.465391800373e-03
5.300000000000e+01 6.335984658122e-20 2.557812994224e-04 2.034398152524e-12 3.878617276322e-13 1.474284588295e-12 -4.999999999989e+00 4.655625988449e-04 1.046853666398e-16 4.655625988448e-04 -1.023125197689e-03 1.666666666662e+00 4.999999999991e+00  1.488687796534e-03
5.400000000000e+01 6.629409157006e-20 2.596639654493e-04 2.033594970303e-12 3.888064690359e-13 1.477839012940e-12 -4.999999999989e+00 4.733279308986e-04 1.084044059669e-16 4.733279308985e-04 -1.038655861797e-03 1.666666666662e+00 4.999999999991e+00  1.511983792695e-03
5.500000000000e+01 6.887962722511e-20 2.635466314761e-04 2.032992987120e-12 3.921257168084e-13 1.477588170217e-12 -4.999999999989e+00 4.810932629522e-04 1.123956252143e-16 4.810932629521e-04 -1.054186525904e-03 1.666666666662e+00 4.999999999991e+00  1.535279788856e-03
5.600000000000e+01 7.224484470107e-20 2.674292975029e-04 2.030169930664e-12 3.928547837270e-13 1.480449837229e-12 -4.999999999989e+00 4.888585950059e-04 1.161304758231e-16 4.888585950057e-04 -1.069717190011e-03 1.666666666662e+00 4.999999999991e+00  1.558575785017e-03
5.700000000000e+01 7.500545692390e-20 2.713119635297e-04 2.030553273076e-12 3.941640702703e-13 1.483085922937e-12 -4.999999999989e+00 4.966239270595e-04 1.199364771994e-16 4.966239270594e-04 -1.085247854119e-03 1.666666666662e+00 4.999999999991e+00  1.581871781178e-03
5.800000000000e+01 7.822593257897e-20 2.751946295566e-04 2.028886227169e-12 3.975423217804e-13 1.486120890997e-12 -4.999999999989e+00 5.043892591131e-04 1.239841653100e-16 5.043892591130e-04 -1.100778518226e-03 1.666666666662e+00 4.999999999991e+00  1.605167777339e-03
5.900000000000e+01 8.151992700036e-20 2.790772955834e-04 2.027334648461e-12 3.995167359222e-13 1.488412948469e-12 -4.999999999989e+00 5.121545911668e-04 1.279076219217e-16 5.121545911667e-04 -1.116309182333e-03 1.666666666662e+00 4.999999999991e+00  1.628463773500e-03
6.000000000000e+01 8.479174959967e-20 2.829599616102e-04 2.026716808702e-12 4.013456410828e-13 1.492056562580e-12 -4.999999999989e+00 5.199199232204e-04 1.318333372879e-16 5.199199232203e-04 -1.131839846440e-03 1.666666666662e+00 4.999999999991e+00  1.651759769661e-03
6.100000000000e+01 8.794323379357e-20 2.868426276370e-04 2.028402630931e-12 4.038252799156e-13 1.496577028254e-12 -4.999999999989e+00 5.276852552741e-04 1.358482734579e-16 5.276852552740e-04 -1.147370510548e-03 1.666666666662e+00 4.999999999991e+00  1.675055765822e-03
6.200000000000e+01 9.115317233727e-20 2.907252936638e-04 2.023584597070e-12 4.031438050485e-13 1.494689835365e-12 -4.999999999989e+00 5.354505873277e-04 1.395356902216e-16 5.354505873276e-04 -1.162901174655e-03 1.666666666662e+00 4.999999999991e+00  1.698351761983e-03
6.300000000000e+01 9.406688923889e-20 2.946079596907e-04 2.024484995778e-12 4.029370460343e-13 1.496959370108e-12 -4.999999999989e+00 5.432159193814e-04 1.432694114531e-16 5.432159193812e-04 -1.178431838762e-03 1.666666666662e+00 4.999999999991e+00  1.721647758144e-03
6.400000000000e+01 9.682496452322e-20 2.984906257175e-04 2.025201831315e-12 4.053848094267e-13 1.500457860657e-12 -4.999999999989e+00 5.509812514350e-04 1.472956413957e-16 5.509812514349e-04 -1.193962502870e-03 1.666666666662e+00 4.999999999991e+00  1.744943754305e-03
6.500000000000e+01 1.000743612988e-19 3.023732917443e-04 2.026231518577e-12 4.077491177062e-13 1.504939201648e-12 -4.999999999989e+00 5.587465834886e-04 1.513354238655e-16 5.587465834885e-04 -1.209493166977e-03 1.666666666662e+00 4.999999999991e+00  1.768239750465e-03
6.600000000000e+01 1.035311400603e-19 3.062559577711e-04 2.022170541124e-12 4.097315203872e-13 1.504042751835e-12 -4.999999999989e+00 5.665119155423e-04 1.553548775445e-16 5.665119155422e-04 -1.225023831084e-03 1.666666666662e+00 4.999999999991e+00  1.791535746626e-03
6.700000000000e+01 1.070942576579e-19 3.101386237980e-04 2.019092976708e-12 4.084723981587e-13 1.504488535225e-12 -4.999999999989e+00 5.742772475959e-04 1.590332592902e-16 5.742772475958e-04 -1.240554495191e-03 1.666666666662e+00 4.999999999991e+00  1.814831742787e-03
6.800000000000e+01 1.105156951772e-19 3.140212898248e-04 2.016064902407e-12 4.102209421716e-13 1.505718444288e-12 -4.999999999989e+00 5.820425796496e-04 1.630335135557e-16 5.820425796494e-04 -1.256085159299e-03 1.666666666662e+00 4.999999999991e+00  1.838127738948e-03
6.900000000000e+01 1.131542766392e-19 3.179039558516e-04 2.018954441910e-12 4.113440321376e-13 1.508114395786e-12 -4.999999999989e+00 5.898079117032e-04 1.669806870899e-16 5.898079117031e-04 -1.271615823406e-03 1.666666666662e+00 4.999999999991e+00  1.861423735109e-03
7.000000000000e+01 1.165983497588e-19 3.217866218784e-04 2.016850368784e-12 4.108760077356e-13 1.508432888724e-12 -4.999999999989e+00 5.975732437569e-04 1.707618421665e-16 5.975732437567e-04 -1.287146487513e-03 1.666666666662e+00 4.999999999991e+00  1.884719731270e-03
7.100000000000e+01 1.198608508314e-19 3.256692879052e-04 2.014838847538e-12 4.129215420998e-13 1.509826674326e-12 -4.999999999989e+00 6.053385758105e-04 1.748174359179e-16 6.053385758104e-04 -1.302677151621e-03 1.666666666662e+00 4.999999999991e+00  1.908015727431e-03
7.200000000000e+01 1.229763055654e-19 3.295519539321e-04 2.014208675236e-12 4.174832910601e-13 1.510243086588e-12 -4.999999999989e+00 6.131039078642e-04 1.791711852668e-16 6.131039078640e-04 -1.318207815728e-03 1.666666666662e+00 4.999999999991e+00  1.931311723592e-03
7.300000000000e+01 1.267333027999e-19 3.334346199589e-04 2.019116498883e-12 4.167438688831e-13 1.518701561426e-12 -4.999999999989e+00 6.208692399178e-04 1.829794453977e-16 6.208692399177e-04 -1.333738479835e-03 1.666666666662e+00 4.999999999991e+00  1.954607719753e-03
7.400000000000e+01 1.298564958974e-19 3.373172859857e-04 2.015492543599e-12 4.174207798720e-13 1.516768484423e-12 -4.999999999989e+00 6.286345719714e-04 1.869379127045e-16 6.286345719713e-04 -1.349269143942e-03 1.666666666662e+00 4.999999999991e+00  1.977903715914e-03
7.500000000000e+01 1.333404636871e-19 3.411999520125e-04 2.011685589234e-12 4.221136447973e-13 1.514918198700e-12 -4.999999999989e+00 6.363999040251e-04 1.913481309165e-16 6.363999040249e-04 -1.364799808050e-03 1.666666666662e+00 4.999999999991e+00  2.001199712075e-03
7.600000000000e+01 1.369584496752e-19 3.450826180394e-04 2.012267268542e-12 4.219626979052e-13 1.517987933945e-12 -4.999999999989e+00 6.441652360787e-04 1.952648112646e-16 6.441652360786e-04 -1.380330472157e-03 1.666666666662e+00 4.999999999991e+00  2.024495708236e-03
7.700000000000e+01 1.403091717621e-19 3.489652840662e-04 2.008007453530e-12 4.204193086306e-13 1.517594783928e-12 -4.999999999989e+00 6.519305681324e-04 1.990256375504e-16 6.519305681322e-04 -1.395861136264e-03 1.666666666662e+00 4.999999999991e+00  2.047791704397e-03
7.800000000000e+01 1.440634674944e-19 3.528479500930e-04 2.007346346818e-12 4.223249315064e-13 1.519225759794e-12 -4.999999999989e+00 6.596959001860e-04 2.031546408240e-16 6.596959001859e-04 -1.411391800372e-03 1.666666666662e+00 4.999999999991e+00  2.071087700558e-03
7.900000000000e+01 1.475998670241e-19 3.567306161198e-04 2.007369042075e-12 4.225431522440e-13 1.521813251674e-12 -4.999999999989e+00 6.674612322397e-04 2.071142375081e-16 6.674612322395e-04 -1.426922464479e-03 1.666666666662e+00 4.999999999991e+00  2.094383696718e-03
8.000000000000e+01 1.511172999428e-19 3.606132821467e-04 2.006001240840e-12 4.221422987139e-13 1.522784867975e-12 -4.999999999989e+00 6.752265642933e-04 2.110072009337e-16 6.752265642931e-04 -1.442453128586e-03 1.666666666662e+00 4.999999999991e+00  2.117679692879e-03
8.100000000000e+01 1.544107645778e-19 3.644959481735e-04 2.004105177902e-12 4.251250175908e-13 1.522374894229e-12 -4.999999999989e+00 6.829918963470e-04 2.152717294788e-16 6.829918963468e-04 -1.457983792693e-03 1.666666666662e+00 4.999999999991e+00  2.140975689040e-03
8.200000000000e+01 1.580425407617e-19 3.683786142003e-04 2.001485895554e-12 4.235399629554e-13 1.521920956244e-12 -4.999999999989e+00 6.907572284006e-04 2.190574020644e-16 6.907572284004e-04 -1.473514456801e-03 1.666666666662e+00 4.999999999991e+00  2.164271685201e-03
8.300000000000e+01 1.615528478421e-19 3.722612802271e-04 2.005927814105e-12 4.280751193109e-13 1.529426354551e-12 -4.999999999989e+00 6.985225604542e-04 2.235071484806e-16 6.985225604541e-04 -1.489045120908e-03 1.666666666662e+00 4.999999999991e+00  2.187567681362e-03
8.400000000000e+01 1.651600453707e-19 3.761439462539e-04 2.000294218543e-12 4.249694658972e-13 1.524246813696e-12 -4.999999999989e+00 7.062878925079e-04 2.271516489083e-16 7.062878925077e-04 -1.504575785015e-03 1.666666666662e+00 4.999999999991e+00  2.210863677523e-03
8.500000000000e+01 1.693753251288e-19 3.800266122808e-04 1.993829348736e-12 4.255458930222e-13 1.522228185914e-12 -4.999999999989e+00 7.140532245615e-04 2.311756200964e-16 7.140532245614e-04 -1.520106449123e-03 1.666666666662e+00 4.999999999991e+00  2.234159673684e-03
8.600000000000e+01 1.727145370921e-19 3.839092783076e-04 2.003624169458e-12 4.287314101814e-13 1.532198435697e-12 -4.999999999989e+00 7.218185566152e-04 2.354943587502e-16 7.218185566150e-04 -1.535637113230e-03 1.666666666662e+00 4.999999999991e+00  2.257455669845e-03
8.700000000000e+01 1.763498887155e-19 3.877919443344e-04 1.997941626812e-12 4.289917914899e-13 1.528731909042e-12 -4.999999999989e+00 7.295838886688e-04 2.395183299383e-16 7.295838886686e-04 -1.551167777337e-03 1.666666666662e+00 4.999999999991e+00  2.280751666006e-03
8.800000000000e+01 1.799031619451e-19 3.916746103612e-04 1.994871030356e-12 4.290368387771e-13 1.527545840553e-12 -4.999999999989e+00 7.373492207225e-04 2.435208429583e-16 7.373492207223e-04 -1.566698441444e-03 1.666666666662e+00 4.999999999991e+00  2.304047662167e-03
8.900000000000e+01 1.838360964631e-19 3.955572763881e-04 1.995742546925e-12 4.301981276624e-13 1.529778792290e-12 -4.999999999989e+00 7.451145527761e-04 2.476475874774e-16 7.451145527759e-04 -1.582229105552e-03 1.666666666662e+00 4.999999999991e+00  2.327343658328e-03
9.000000000000e+01 1.874897647123e-19 3.994399424149e-04 1.994129863882e-12 4.297447289285e-13 1.531163349079e-12 -4.999999999989e+00 7.528798848298e-04 2.516060547842e-16 7.528798848296e-04 -1.597759769659e-03 1.666666666662e+00 4.999999999991e+00  2.350639654489e-03
9.100000000000e+01 1.914205590658e-19 4.033226084417e-04 1.998706145828e-12 4.295025157494e-13 1.537627448182e-12 -4.999999999989e+00 7.606452168834e-04 2.555837215045e-16 7.606452168832e-04 -1.613290433766e-03 1.666666666662e+00 4.999999999991e+00  2.373935650650e-03
9.200000000000e+01 1.950274282899e-19 4.072052744685e-04 2.000444768562e-12 4.308385056692e-13 1.540078512712e-12 -4.999999999989e+00 7.684105489370e-04 2.597341829461e-16 7.684105489369e-04 -1.628821097874e-03 1.666666666662e+00 4.999999999991e+00  2.397231646811e-03
9.300000000000e+01 1.987974195297e-19 4.110879404954e-04 1.990727222645e-12 4.310644159277e-13 1.533033597554e-12 -4.999999999989e+00 7.761758809907e-04 2.637739654158e-16 7.761758809905e-04 -1.644351761981e-03 1.666666666662e+00 4.999999999991e+00  2.420527642972e-03
9.400000000000e+01 2.029177641121e-19 4.149706065222e-04 1.990862364014e-12 4.305586033040e-13 1.535790715863e-12 -4.999999999989e+00 7.839412130443e-04 2.677346914772e-16 7.839412130441e-04 -1.659882426088e-03 1.666666666662e+00 4.999999999991e+00  2.443823639132e-03
9.500000000000e+01 2.067651555023e-19 4.188532725490e-04 1.991734772473e-12 4.295047254492e-13 1.538898141024e-12 -4.999999999989e+00 7.917065450980e-04 2.716299136573e-16 7.917065450978e-04 -1.675413090195e-03 1.666666666662e+00 4.999999999991e+00  2.467119635293e-03
9.600000000000e+01 2.103187426941e-19 4.227359385758e-04 1.989161196095e-12 4.341802438562e-13 1.536867493815e-12 -4.999999999989e+00 7.994718771516e-04 2.761508108411e-16 7.994718771514e-04 -1.690943754303e-03 1.666666666662e+00 4.999999999991e+00  2.490415631454e-03
9.700000000000e+01 2.142023439796e-19 4.266186046026e-04 1.992824080124e-12 4.311318861092e-13 1.542265811147e-12 -4.999999999989e+00 8.072372092053e-04 2.798585563956e-16 8.072372092051e-04 -1.706474418410e-03 1.666666666662e+00 4.999999999991e+00  2.513711627615e-03
9.800000000000e+01 2.177830407013e-19 4.305012706295e-04 1.993581432864e-12 4.314349696493e-13 1.543892449519e-12 -4.999999999989e+00 8.150025412589e-04 2.839096326380e-16 8.150025412587e-04 -1.722005082517e-03 1.666666666662e+00 4.999999999991e+00  2.537007623776e-03
9.900000000000e+01 2.215755720033e-19 4.343839366563e-04 1.991791433098e-12 4.353170383121e-13 1.543348727843e-12 -4.999999999989e+00 8.227678733126e-04 2.883605084315e-16 8.227678733123e-04 -1.737535746625e-03 1.666666666662e+00 4.999999999991e+00  2.560303619937e-03
1.000000000000e+02 2.260607223928e-19 4.382666026831e-04 1.981607355354e-12 4.318982614970e-13 1.536233683448e-12 -4.999999999989e+00 8.305332053662e-04 2.920377607998e-16 8.305332053660e-04 -1.753066410732e-03 1.666666666662e+00 4.999999999991e+00  2.583599616098e-03
