 TITLE = "Profiles along polylines"
 VARIABLES = "DIST" "PRESSURE1" "PRESSURE2" "PRESSURE_W" "SATURATION1" SATURATION2 "VELOCITY_X1" "VELOCITY_Y1" "VELOCITY_X2" "VELOCITY_Y2" 
 ZONE T="TIME=0.000000000000e+00"
0.000000000000e+00 0.000000000000e+00 1.013250000000e+05 1.013250000000e+05 1.000000000000e+00 1.110223024625e-16 0.000000000000e+00 0.000000000000e+00 0.000000000000e+00 0.000000000000e+00 
5.263157894737e-02 0.000000000000e+00 1.013250000000e+05 1.013250000000e+05 1.000000000000e+00 1.110223024625e-16 0.000000000000e+00 0.000000000000e+00 0.000000000000e+00 0.000000000000e+00 
1.052631578947e-01 0.000000000000e+00 1.013250000000e+05 1.013250000000e+05 1.000000000000e+00 1.110223024625e-16 0.000000000000e+00 0.000000000000e+00 0.000000000000e+00 0.000000000000e+00 
1.578947368421e-01 0.000000000000e+00 1.013250000000e+05 1.013250000000e+05 1.000000000000e+00 1.110223024625e-16 0.000000000000e+00 0.000000000000e+00 0.000000000000e+00 0.000000000000e+00 
2.105263157895e-01 0.000000000000e+00 1.013250000000e+05 1.013250000000e+05 1.000000000000e+00 1.110223024625e-16 0.000000000000e+00 0.000000000000e+00 0.000000000000e+00 0.000000000000e+00 
2.631578947368e-01 0.000000000000e+00 1.013250000000e+05 1.013250000000e+05 1.000000000000e+00 1.110223024625e-16 0.000000000000e+00 0.000000000000e+00 0.000000000000e+00 0.000000000000e+00 
3.157894736842e-01 0.000000000000e+00 1.013250000000e+05 1.013250000000e+05 1.000000000000e+00 1.110223024625e-16 0.000000000000e+00 0.000000000000e+00 0.000000000000e+00 0.000000000000e+00 
3.684210526316e-01 0.000000000000e+00 1.013250000000e+05 1.013250000000e+05 1.000000000000e+00 1.110223024625e-16 0.000000000000e+00 0.000000000000e+00 0.000000000000e+00 0.000000000000e+00 
4.210526315789e-01 0.000000000000e+00 1.013250000000e+05 1.013250000000e+05 1.000000000000e+00 1.110223024625e-16 0.000000000000e+00 0.000000000000e+00 0.000000000000e+00 0.000000000000e+00 
4.736842105263e-01 0.000000000000e+00 1.013250000000e+05 1.013250000000e+05 1.000000000000e+00 1.110223024625e-16 0.000000000000e+00 0.000000000000e+00 0.000000000000e+00 0.000000000000e+00 
5.263157894737e-01 0.000000000000e+00 1.013250000000e+05 1.013250000000e+05 1.000000000000e+00 1.110223024625e-16 0.000000000000e+00 0.000000000000e+00 0.000000000000e+00 0.000000000000e+00 
5.789473684210e-01 0.000000000000e+00 1.013250000000e+05 1.013250000000e+05 1.000000000000e+00 1.110223024625e-16 0.000000000000e+00 0.000000000000e+00 0.000000000000e+00 0.000000000000e+00 
6.315789473684e-01 0.000000000000e+00 1.013250000000e+05 1.013250000000e+05 1.000000000000e+00 1.110223024625e-16 0.000000000000e+00 0.000000000000e+00 0.000000000000e+00 0.000000000000e+00 
6.842105263158e-01 0.000000000000e+00 1.013250000000e+05 1.013250000000e+05 1.000000000000e+00 1.110223024625e-16 0.000000000000e+00 0.000000000000e+00 0.000000000000e+00 0.000000000000e+00 
7.368421052631e-01 0.000000000000e+00 1.013250000000e+05 1.013250000000e+05 1.000000000000e+00 1.110223024625e-16 0.000000000000e+00 0.000000000000e+00 0.000000000000e+00 0.000000000000e+00 
7.894736842105e-01 0.000000000000e+00 1.013250000000e+05 1.013250000000e+05 1.000000000000e+00 1.110223024625e-16 0.000000000000e+00 0.000000000000e+00 0.000000000000e+00 0.000000000000e+00 
8.421052631579e-01 0.000000000000e+00 1.013250000000e+05 1.013250000000e+05 1.000000000000e+00 1.110223024625e-16 0.000000000000e+00 0.000000000000e+00 0.000000000000e+00 0.000000000000e+00 
8.947368421053e-01 0.000000000000e+00 1.013250000000e+05 1.013250000000e+05 1.000000000000e+00 1.110223024625e-16 0.000000000000e+00 0.000000000000e+00 0.000000000000e+00 0.000000000000e+00 
9.473684210526e-01 0.000000000000e+00 1.013250000000e+05 1.013250000000e+05 1.000000000000e+00 1.110223024625e-16 0.000000000000e+00 0.000000000000e+00 0.000000000000e+00 0.000000000000e+00 
1.000000000000e+00 0.000000000000e+00 1.013250000000e+05 1.013250000000e+05 1.000000000000e+00 1.110223024625e-16 0.000000000000e+00 0.000000000000e+00 0.000000000000e+00 0.000000000000e+00 
 TITLE = "Profiles along polylines"
 VARIABLES = "DIST" "PRESSURE1" "PRESSURE2" "PRESSURE_W" "SATURATION1" SATURATION2 "VELOCITY_X1" "VELOCITY_Y1" "VELOCITY_X2" "VELOCITY_Y2" 
 ZONE T="TIME=1.000000000000e-03"
0.000000000000e+00 0.000000000000e+00 1.013250000000e+05 1.013250000000e+05 1.000000000000e+00 2.786659791809e-14 -2.625029888223e-04 0.000000000000e+00 1.370384721254e-11 0.000000000000e+00 
5.263157894737e-02 7.306996167389e-08 1.013203859432e+05 1.013203859431e+05 1.000000000000e+00 2.786659791809e-14 -2.625029886054e-04 0.000000000000e+00 1.370259140972e-11 0.000000000000e+00 
1.052631578947e-01 7.312272969893e-08 1.013157718855e+05 1.013157718854e+05 1.000000000000e+00 2.775557561563e-14 -2.625029881716e-04 0.000000000000e+00 1.370107365653e-11 0.000000000000e+00 
1.578947368421e-01 7.317144061969e-08 1.013111578269e+05 1.013111578268e+05 1.000000000000e+00 2.775557561563e-14 -2.625029877378e-04 0.000000000000e+00 1.370054975030e-11 0.000000000000e+00 
2.105263157895e-01 7.320627181171e-08 1.013065437675e+05 1.013065437674e+05 1.000000000000e+00 2.775557561563e-14 -2.625029873043e-04 0.000000000000e+00 1.370002583315e-11 0.000000000000e+00 
2.631578947368e-01 7.316344345078e-08 1.013019297072e+05 1.013019297072e+05 1.000000000000e+00 2.764455331317e-14 -2.625029868711e-04 0.000000000000e+00 1.369950190460e-11 0.000000000000e+00 
3.157894736842e-01 7.300233299006e-08 1.012973156461e+05 1.012973156461e+05 1.000000000000e+00 2.753353101070e-14 -2.625029864386e-04 0.000000000000e+00 1.369897796236e-11 0.000000000000e+00 
3.684210526316e-01 7.277615873431e-08 1.012927015842e+05 1.012927015841e+05 1.000000000000e+00 2.753353101070e-14 -2.625029860071e-04 0.000000000000e+00 1.369845400392e-11 0.000000000000e+00 
4.210526315789e-01 7.267843871475e-08 1.012880875214e+05 1.012880875213e+05 1.000000000000e+00 2.753353101070e-14 -2.625029855763e-04 0.000000000000e+00 1.369793003069e-11 0.000000000000e+00 
4.736842105263e-01 7.295335488498e-08 1.012834734578e+05 1.012834734577e+05 1.000000000000e+00 2.775557561563e-14 -2.625029851450e-04 0.000000000000e+00 1.369740605116e-11 0.000000000000e+00 
5.263157894737e-01 7.358963732046e-08 1.012788593933e+05 1.012788593932e+05 1.000000000000e+00 2.786659791809e-14 -2.625029847116e-04 0.000000000000e+00 1.369688207706e-11 0.000000000000e+00 
5.789473684210e-01 7.400313041169e-08 1.012742453280e+05 1.012742453279e+05 1.000000000000e+00 2.786659791809e-14 -2.625029842765e-04 0.000000000000e+00 1.369635810828e-11 0.000000000000e+00 
6.315789473684e-01 7.340139413214e-08 1.012696312618e+05 1.012696312618e+05 1.000000000000e+00 2.753353101070e-14 -2.625029838430e-04 0.000000000000e+00 1.369583411949e-11 0.000000000000e+00 
6.842105263158e-01 7.217805709289e-08 1.012650171948e+05 1.012650171948e+05 1.000000000000e+00 2.742250870824e-14 -2.625029834146e-04 0.000000000000e+00 1.369531008379e-11 0.000000000000e+00 
7.368421052631e-01 7.226896914915e-08 1.012604031270e+05 1.012604031269e+05 1.000000000000e+00 2.775557561563e-14 -2.625029829868e-04 0.000000000000e+00 1.369478603153e-11 0.000000000000e+00 
7.894736842105e-01 7.391967663178e-08 1.012557890583e+05 1.012557890583e+05 1.000000000000e+00 3.308464613383e-14 -2.625029825502e-04 0.000000000000e+00 1.369426198710e-11 0.000000000000e+00 
8.421052631579e-01 1.008338941970e-07 1.012511749888e+05 1.012511749887e+05 9.999999999923e-01 7.671085988648e-12 -2.625029820271e-04 0.000000000000e+00 1.369366946599e-11 0.000000000000e+00 
8.947368421053e-01 4.037864545589e-05 1.012465609584e+05 1.012465609180e+05 9.999999885867e-01 1.141325522980e-08 -2.625028587590e-04 0.000000000000e+00 1.359079359403e-11 0.000000000000e+00 
9.473684210526e-01 6.018629219714e-02 1.012420065788e+05 1.012419463926e+05 9.999832465246e-01 1.675347540586e-05 -2.623195222101e-04 0.000000000000e+00 -1.367512988622e-10 0.000000000000e+00 
1.000000000000e+00 8.834632227442e+01 1.013250000000e+05 1.012366536777e+05 9.999665158604e-01 3.348413960524e-05 -2.621363086276e-04 0.000000000000e+00 -2.869908459441e-10 0.000000000000e+00 
 TITLE = "Profiles along polylines"
 VARIABLES = "DIST" "PRESSURE1" "PRESSURE2" "PRESSURE_W" "SATURATION1" SATURATION2 "VELOCITY_X1" "VELOCITY_Y1" "VELOCITY_X2" "VELOCITY_Y2" 
 ZONE T="TIME=5.000000000000e+00"
0.000000000000e+00 0.000000000000e+00 1.013250000000e+05 1.013250000000e+05 9.999992268043e-01 7.731956641610e-07 -3.716994266513e-05 0.000000000000e+00 1.507866337671e-09 0.000000000000e+00 
5.263157894737e-02 2.040040273528e+00 1.008831803976e+05 1.008811403574e+05 9.999990437214e-01 9.562786403849e-07 -3.716873072921e-05 0.000000000000e+00 1.506317951777e-09 0.000000000000e+00 
1.052631578947e-01 3.006151860657e+00 1.004402821977e+05 1.004372760458e+05 9.999987791031e-01 1.220896857168e-06 -3.716551680647e-05 0.000000000000e+00 1.502373128048e-09 0.000000000000e+00 
1.578947368421e-01 3.436405630043e+00 9.999684035982e+04 9.999340395419e+04 9.999986621032e-01 1.337896771481e-06 -3.716107701411e-05 0.000000000000e+00 1.497079435329e-09 0.000000000000e+00 
2.105263157895e-01 3.623549365839e+00 9.955314591862e+04 9.954952236925e+04 9.999986103208e-01 1.389679242236e-06 -3.715598278637e-05 0.000000000000e+00 1.491043209858e-09 0.000000000000e+00 
2.631578947368e-01 3.709656841070e+00 9.910934008969e+04 9.910563043285e+04 9.999985843406e-01 1.415659380610e-06 -3.715056101690e-05 0.000000000000e+00 1.484653771712e-09 0.000000000000e+00 
3.157894736842e-01 3.760644104413e+00 9.866548836240e+04 9.866172771829e+04 9.999985645671e-01 1.435432885111e-06 -3.714496241638e-05 0.000000000000e+00 1.478090116253e-09 0.000000000000e+00 
3.684210526316e-01 3.813999757080e+00 9.822162796073e+04 9.821781396097e+04 9.999985351986e-01 1.464801449469e-06 -3.713921636717e-05 0.000000000000e+00 1.471388349553e-09 0.000000000000e+00 
4.210526315789e-01 3.915619247161e+00 9.777780447282e+04 9.777388885357e+04 9.999984668877e-01 1.533112265584e-06 -3.713322201767e-05 0.000000000000e+00 1.464434227819e-09 0.000000000000e+00 
4.736842105263e-01 4.174469487185e+00 9.733412621675e+04 9.732995174726e+04 9.999982819104e-01 1.718089639002e-06 -3.712661809936e-05 0.000000000000e+00 1.456817150429e-09 0.000000000000e+00 
5.263157894737e-01 4.891727388595e+00 9.689089267741e+04 9.688600095002e+04 9.999977664191e-01 2.233580871813e-06 -3.711838788900e-05 0.000000000000e+00 1.447386231178e-09 0.000000000000e+00 
5.789473684210e-01 6.894668072182e+00 9.644892658253e+04 9.644203191446e+04 9.999963485680e-01 3.651431975449e-06 -3.710585733915e-05 0.000000000000e+00 1.433129768852e-09 0.000000000000e+00 
6.315789473684e-01 1.237359384931e+01 9.601040629169e+04 9.599803269784e+04 9.999925688633e-01 7.431136730629e-06 -3.708239556917e-05 0.000000000000e+00 1.406618897628e-09 0.000000000000e+00 
6.842105263158e-01 2.683981334694e+01 9.558081315919e+04 9.555397334585e+04 9.999829282803e-01 1.707171968857e-05 -3.703276481913e-05 0.000000000000e+00 1.350870455182e-09 0.000000000000e+00 
7.368421052631e-01 6.324604026395e+01 9.517302961084e+04 9.510978357057e+04 9.999597374826e-01 4.026251744627e-05 -3.692565187467e-05 0.000000000000e+00 1.231144867371e-09 0.000000000000e+00 
7.894736842105e-01 1.492154644256e+02 9.481452911373e+04 9.466531364931e+04 9.999082104500e-01 9.178955002775e-05 -3.670799891668e-05 0.000000000000e+00 9.887605471409e-10 0.000000000000e+00 
8.421052631579e-01 3.351493282068e+02 9.455544011865e+04 9.422029079044e+04 9.998062853477e-01 1.937146522695e-04 -3.632526623571e-05 0.000000000000e+00 5.634797977634e-10 0.000000000000e+00 
8.947368421053e-01 6.870646095229e+02 9.446142345422e+04 9.377435884470e+04 9.992495172568e-01 7.504827431689e-04 -3.538693255710e-05 0.000000000000e+00 -4.641931534885e-10 0.000000000000e+00 
9.473684210526e-01 1.517037688249e+03 9.484287385920e+04 9.332583617095e+04 9.710290026588e-01 2.897099734123e-02 -2.530573156372e-05 0.000000000000e+00 -1.173897319487e-08 0.000000000000e+00 
1.000000000000e+00 8.480182321648e+03 1.013250000000e+05 9.284481767835e+04 9.432985664462e-01 5.670143355378e-02 -1.592466326587e-05 0.000000000000e+00 -2.225058765321e-08 0.000000000000e+00 
 TITLE = "Profiles along polylines"
 VARIABLES = "DIST" "PRESSURE1" "PRESSURE2" "PRESSURE_W" "SATURATION1" SATURATION2 "VELOCITY_X1" "VELOCITY_Y1" "VELOCITY_X2" "VELOCITY_Y2" 
 ZONE T="TIME=1.000000000000e+01"
0.000000000000e+00 0.000000000000e+00 1.013250000000e+05 1.013250000000e+05 9.999985608320e-01 1.439167993333e-06 -2.375153933492e-05 0.000000000000e+00 1.590854983879e-09 0.000000000000e+00 
5.263157894737e-02 3.797176838063e+00 1.008587808250e+05 1.008549836481e+05 9.999981237245e-01 1.876275520063e-06 -2.375060263429e-05 0.000000000000e+00 1.589637563402e-09 0.000000000000e+00 
1.052631578947e-01 6.103752003049e+00 1.003910674818e+05 1.003849637298e+05 9.999974320117e-01 2.567988288238e-06 -2.374794801055e-05 0.000000000000e+00 1.586358261627e-09 0.000000000000e+00 
1.578947368421e-01 7.447279833904e+00 9.992238444350e+04 9.991493716366e+04 9.999970301595e-01 2.969840472655e-06 -2.374392279357e-05 0.000000000000e+00 1.581550479113e-09 0.000000000000e+00 
2.105263157895e-01 8.224288054754e+00 9.945312591899e+04 9.944490163094e+04 9.999967881497e-01 3.211850312157e-06 -2.373887512966e-05 0.000000000000e+00 1.575564599915e-09 0.000000000000e+00 
2.631578947368e-01 8.724342916267e+00 9.898357977586e+04 9.897485543294e+04 9.999966054798e-01 3.394520153854e-06 -2.373303396779e-05 0.000000000000e+00 1.568680250206e-09 0.000000000000e+00 
3.157894736842e-01 9.188219569213e+00 9.851398538274e+04 9.850479716317e+04 9.999963820487e-01 3.617951332524e-06 -2.372640887335e-05 0.000000000000e+00 1.560917973413e-09 0.000000000000e+00 
3.684210526316e-01 9.903368159292e+00 9.804462854795e+04 9.803472517979e+04 9.999959694611e-01 4.030538858002e-06 -2.371864565557e-05 0.000000000000e+00 1.551877168374e-09 0.000000000000e+00 
4.210526315789e-01 1.136540500279e+01 9.757600212937e+04 9.756463672436e+04 9.999950850046e-01 4.914995358707e-06 -2.370875073306e-05 0.000000000000e+00 1.540426972644e-09 0.000000000000e+00 
4.736842105263e-01 1.457056163986e+01 9.710909689814e+04 9.709452633650e+04 9.999931551361e-01 6.844863878586e-06 -2.369457018675e-05 0.000000000000e+00 1.524123662832e-09 0.000000000000e+00 
5.263157894737e-01 2.154913904624e+01 9.664593211101e+04 9.662438297197e+04 9.999890388158e-01 1.096118423605e-05 -2.367190217560e-05 0.000000000000e+00 1.498223546723e-09 0.000000000000e+00 
5.789473684210e-01 3.629199567880e+01 9.619047700586e+04 9.615418501019e+04 9.999805731694e-01 1.942683063616e-05 -2.363318669173e-05 0.000000000000e+00 1.454236393135e-09 0.000000000000e+00 
6.315789473684e-01 6.622155613270e+01 9.575011390645e+04 9.568389235032e+04 9.999639067369e-01 3.609326312204e-05 -2.356594488744e-05 0.000000000000e+00 1.378216062520e-09 0.000000000000e+00 
6.842105263158e-01 1.242391869716e+02 9.533767464329e+04 9.521343545632e+04 9.999326681211e-01 6.733187890329e-05 -2.345158284502e-05 0.000000000000e+00 1.249456660063e-09 0.000000000000e+00 
7.368421052631e-01 2.310647833896e+02 9.497376771200e+04 9.474270292861e+04 9.998771613985e-01 1.228386015040e-04 -2.326561876686e-05 0.000000000000e+00 1.040706886491e-09 0.000000000000e+00 
7.894736842105e-01 4.171429235515e+02 9.468867445956e+04 9.427153153601e+04 9.997838813361e-01 2.161186638971e-04 -2.298006079951e-05 0.000000000000e+00 7.205851260980e-10 0.000000000000e+00 
8.421052631579e-01 7.232948691039e+02 9.452299790709e+04 9.379970303798e+04 9.995385388282e-01 4.614611718246e-04 -2.256368090057e-05 0.000000000000e+00 2.565450103404e-10 0.000000000000e+00 
8.947368421053e-01 1.200311050683e+03 9.452726397839e+04 9.332695292771e+04 9.982725449387e-01 1.727455061257e-03 -2.136017593929e-05 0.000000000000e+00 -1.085571481356e-09 0.000000000000e+00 
9.473684210526e-01 2.344521454295e+03 9.519516507950e+04 9.285064362520e+04 9.648991567942e-01 3.510084320584e-02 -1.247070102194e-05 0.000000000000e+00 -1.159852076316e-08 0.000000000000e+00 
1.000000000000e+00 8.980339323489e+03 1.013250000000e+05 9.234466067651e+04 9.326044373555e-01 6.739556264448e-02 -4.539637305937e-06 0.000000000000e+00 -2.104141955882e-08 0.000000000000e+00 
 TITLE = "Profiles along polylines"
 VARIABLES = "DIST" "PRESSURE1" "PRESSURE2" "PRESSURE_W" "SATURATION1" SATURATION2 "VELOCITY_X1" "VELOCITY_Y1" "VELOCITY_X2" "VELOCITY_Y2" 
 ZONE T="TIME=2.000000000000e+01"
0.000000000000e+00 0.000000000000e+00 1.013250000000e+05 1.013250000000e+05 9.999975045476e-01 2.495452413043e-06 -1.736844416020e-05 0.000000000000e+00 1.623667129920e-09 0.000000000000e+00 
5.263157894737e-02 6.584133434608e+00 1.008491251386e+05 1.008425410052e+05 9.999965732000e-01 3.426799968786e-06 -1.736763049125e-05 0.000000000000e+00 1.622607353636e-09 0.000000000000e+00 
1.052631578947e-01 1.149876658837e+01 1.003715777378e+05 1.003600789712e+05 9.999949191267e-01 5.080873250574e-06 -1.736516134905e-05 0.000000000000e+00 1.619559391210e-09 0.000000000000e+00 
1.578947368421e-01 1.531252203480e+01 9.989292310842e+04 9.987761058639e+04 9.999935624991e-01 6.437500874923e-06 -1.736092594036e-05 0.000000000000e+00 1.614502819603e-09 0.000000000000e+00 
2.105263157895e-01 1.865756252680e+01 9.941378979629e+04 9.939513223377e+04 9.999922353752e-01 7.764624833539e-06 -1.735463837514e-05 0.000000000000e+00 1.607058079261e-09 0.000000000000e+00 
2.631578947368e-01 2.231562991403e+01 9.893495515513e+04 9.891263952522e+04 9.999905853830e-01 9.414616991776e-06 -1.734568749157e-05 0.000000000000e+00 1.596534047210e-09 0.000000000000e+00 
3.157894736842e-01 2.736441542373e+01 9.845749092673e+04 9.843012651130e+04 9.999881056086e-01 1.189439140870e-05 -1.733294556149e-05 0.000000000000e+00 1.581648393075e-09 0.000000000000e+00 
3.684210526316e-01 3.540116547829e+01 9.798298564477e+04 9.794758447930e+04 9.999840333017e-01 1.596669827841e-05 -1.731454078006e-05 0.000000000000e+00 1.560274888672e-09 0.000000000000e+00 
4.210526315789e-01 4.885359444104e+01 9.751385388463e+04 9.746500029019e+04 9.999772168583e-01 2.278314172921e-05 -1.728762794808e-05 0.000000000000e+00 1.529193500665e-09 0.000000000000e+00 
4.736842105263e-01 7.137089424961e+01 9.705372519506e+04 9.698235430081e+04 9.999659599877e-01 3.404001232576e-05 -1.724822772451e-05 0.000000000000e+00 1.483922064065e-09 0.000000000000e+00 
5.263157894737e-01 1.082550381835e+02 9.660787313261e+04 9.649961809442e+04 9.999478674968e-01 5.213250321900e-05 -1.719124911064e-05 0.000000000000e+00 1.418754820736e-09 0.000000000000e+00 
5.789473684210e-01 1.668432611700e+02 9.618359576973e+04 9.601675250856e+04 9.999197393763e-01 8.026062369870e-05 -1.711085833900e-05 0.000000000000e+00 1.327183067065e-09 0.000000000000e+00 
6.315789473684e-01 2.566844752945e+02 9.579039128703e+04 9.553370681174e+04 9.998775980918e-01 1.224019082240e-04 -1.700147366159e-05 0.000000000000e+00 1.203001467234e-09 0.000000000000e+00 
6.842105263158e-01 3.892188424228e+02 9.543963943725e+04 9.505042059483e+04 9.998170513381e-01 1.829486618916e-04 -1.686024950680e-05 0.000000000000e+00 1.043068851838e-09 0.000000000000e+00 
7.368421052631e-01 5.761839801499e+02 9.514301655064e+04 9.456683257049e+04 9.997346831805e-01 2.653168195479e-04 -1.669467262062e-05 0.000000000000e+00 8.558395624715e-10 0.000000000000e+00 
7.894736842105e-01 8.238678366783e+02 9.490677973338e+04 9.408291189670e+04 9.995108109451e-01 4.891890549464e-04 -1.644003019401e-05 0.000000000000e+00 5.715867273689e-10 0.000000000000e+00 
8.421052631579e-01 1.187745947428e+03 9.478610663849e+04 9.359836069106e+04 9.986744341446e-01 1.325565855396e-03 -1.578811032511e-05 0.000000000000e+00 -1.549816084137e-10 0.000000000000e+00 
8.947368421053e-01 1.889656867003e+03 9.500165945587e+04 9.311200258887e+04 9.952009719822e-01 4.799028017759e-03 -1.397935444445e-05 0.000000000000e+00 -2.184214047874e-09 0.000000000000e+00 
9.473684210526e-01 3.508254892842e+03 9.612901281699e+04 9.262075792415e+04 9.586929940150e-01 4.130700598497e-02 -6.877670936981e-06 0.000000000000e+00 -1.075453316144e-08 0.000000000000e+00 
1.000000000000e+00 9.218003525563e+03 1.013250000000e+05 9.210699647444e+04 9.249990363159e-01 7.500096368410e-02 -1.100534113593e-06 0.000000000000e+00 -1.783618352365e-08 0.000000000000e+00 
 TITLE = "Profiles along polylines"
 VARIABLES = "DIST" "PRESSURE1" "PRESSURE2" "PRESSURE_W" "SATURATION1" SATURATION2 "VELOCITY_X1" "VELOCITY_Y1" "VELOCITY_X2" "VELOCITY_Y2" 
 ZONE T="TIME=3.000000000000e+01"
0.000000000000e+00 0.000000000000e+00 1.013250000000e+05 1.013250000000e+05 9.999961972372e-01 3.802762770566e-06 -1.506692481816e-05 0.000000000000e+00 1.627178470769e-09 0.000000000000e+00 
5.263157894737e-02 1.003341012274e+01 1.008480880802e+05 1.008380546701e+05 9.999945545873e-01 5.445412679439e-06 -1.506566648212e-05 0.000000000000e+00 1.625597380540e-09 0.000000000000e+00 
1.052631578947e-01 1.870151866306e+01 1.003698061567e+05 1.003511046380e+05 9.999913447007e-01 8.655299299831e-06 -1.506174889729e-05 0.000000000000e+00 1.620839046296e-09 0.000000000000e+00 
1.578947368421e-01 2.697167887693e+01 9.989111611141e+04 9.986414443254e+04 9.999880621358e-01 1.193786423070e-05 -1.505474262480e-05 0.000000000000e+00 1.612509294710e-09 0.000000000000e+00 
2.105263157895e-01 3.602330400288e+01 9.941319079571e+04 9.937716749170e+04 9.999841954647e-01 1.580453530603e-05 -1.504389646065e-05 0.000000000000e+00 1.599702972999e-09 0.000000000000e+00 
2.631578947368e-01 4.737573721510e+01 9.893754121582e+04 9.889016547860e+04 9.999790763959e-01 2.092360407602e-05 -1.502807773167e-05 0.000000000000e+00 1.581136923227e-09 0.000000000000e+00 
3.157894736842e-01 6.303614677743e+01 9.846616364404e+04 9.840312749727e+04 9.999718218061e-01 2.817819386580e-05 -1.500573355971e-05 0.000000000000e+00 1.555055308877e-09 0.000000000000e+00 
3.684210526316e-01 8.565752286575e+01 9.800169678710e+04 9.791603926424e+04 9.999612762445e-01 3.872375552627e-05 -1.497489854069e-05 0.000000000000e+00 1.519245191839e-09 0.000000000000e+00 
4.210526315789e-01 1.186840803970e+02 9.754756644093e+04 9.742888236053e+04 9.999459657598e-01 5.403424020201e-05 -1.493328302745e-05 0.000000000000e+00 1.471142713889e-09 0.000000000000e+00 
4.736842105263e-01 1.664495055352e+02 9.710808325708e+04 9.694163375155e+04 9.999240767757e-01 7.592322430550e-05 -1.487846231047e-05 0.000000000000e+00 1.408049904626e-09 0.000000000000e+00 
5.263157894737e-01 2.341901836840e+02 9.668845596046e+04 9.645426577678e+04 9.998934710657e-01 1.065289342612e-04 -1.480814543724e-05 0.000000000000e+00 1.327434385767e-09 0.000000000000e+00 
5.789473684210e-01 3.279529484830e+02 9.629469966108e+04 9.596674671260e+04 9.998517351287e-01 1.482648712745e-04 -1.472042737810e-05 0.000000000000e+00 1.227200765701e-09 0.000000000000e+00 
6.315789473684e-01 4.544267843720e+02 9.593346851934e+04 9.547904173496e+04 9.997962375494e-01 2.037624505959e-04 -1.461384045407e-05 0.000000000000e+00 1.105726554940e-09 0.000000000000e+00 
6.842105263158e-01 6.208084368409e+02 9.561192210768e+04 9.499111367084e+04 9.997241389830e-01 2.758610170410e-04 -1.448699299072e-05 0.000000000000e+00 9.614261562323e-10 0.000000000000e+00 
7.368421052631e-01 8.348841150227e+02 9.533780665980e+04 9.450292254478e+04 9.995852428739e-01 4.147571261333e-04 -1.433683560741e-05 0.000000000000e+00 7.917758251341e-10 0.000000000000e+00 
7.894736842105e-01 1.105483191259e+03 9.511990829190e+04 9.401442510064e+04 9.990398622528e-01 9.601377472024e-04 -1.397784821124e-05 0.000000000000e+00 3.901373143039e-10 0.000000000000e+00 
8.421052631579e-01 1.569569910219e+03 9.509446510084e+04 9.352489519062e+04 9.977228161267e-01 2.277183873258e-03 -1.312912770669e-05 0.000000000000e+00 -5.658371406193e-10 0.000000000000e+00 
8.947368421053e-01 2.435358575649e+03 9.546858104789e+04 9.303322247224e+04 9.924112859544e-01 7.588714045589e-03 -1.119457528063e-05 0.000000000000e+00 -2.755431117641e-09 0.000000000000e+00 
9.473684210526e-01 4.242804636925e+03 9.677937484726e+04 9.253657021034e+04 9.546903259766e-01 4.530967402337e-02 -5.250591811221e-06 0.000000000000e+00 -9.951534926532e-09 0.000000000000e+00 
1.000000000000e+00 9.303175955414e+03 1.013250000000e+05 9.202182404459e+04 9.214109029685e-01 7.858909703150e-02 -6.699476407207e-07 0.000000000000e+00 -1.560395567481e-08 0.000000000000e+00 
 TITLE = "Profiles along polylines"
 VARIABLES = "DIST" "PRESSURE1" "PRESSURE2" "PRESSURE_W" "SATURATION1" SATURATION2 "VELOCITY_X1" "VELOCITY_Y1" "VELOCITY_X2" "VELOCITY_Y2" 
 ZONE T="TIME=6.000000000000e+01"
0.000000000000e+00 0.000000000000e+00 1.013250000000e+05 1.013250000000e+05 9.999876338867e-01 1.236611327016e-05 -1.148342197501e-05 0.000000000000e+00 1.574074153454e-09 0.000000000000e+00 
5.263157894737e-02 3.262740632213e+01 1.008636970393e+05 1.008310696330e+05 9.999814640180e-01 1.853598200774e-05 -1.148053840895e-05 0.000000000000e+00 1.570571595846e-09 0.000000000000e+00 
1.052631578947e-01 6.518522135354e+01 1.004023138279e+05 1.003371286065e+05 9.999687426327e-01 3.125736726639e-05 -1.147181499961e-05 0.000000000000e+00 1.560117213367e-09 0.000000000000e+00 
1.578947368421e-01 9.975695571964e+01 9.994292238544e+04 9.984316542972e+04 9.999548452930e-01 4.515470704347e-05 -1.145707493016e-05 0.000000000000e+00 1.542627404531e-09 0.000000000000e+00 
2.105263157895e-01 1.385201717619e+02 9.948768841534e+04 9.934916824358e+04 9.999389265094e-01 6.107349064721e-05 -1.143609411573e-05 0.000000000000e+00 1.517853891199e-09 0.000000000000e+00 
2.631578947368e-01 1.837588744223e+02 9.903888363499e+04 9.885512476057e+04 9.999201018750e-01 7.989812499742e-05 -1.140864482286e-05 0.000000000000e+00 1.485588051394e-09 0.000000000000e+00 
3.157894736842e-01 2.378559906072e+02 9.859887830388e+04 9.836102231327e+04 9.998974550365e-01 1.025449635119e-04 -1.137455413060e-05 0.000000000000e+00 1.445683917076e-09 0.000000000000e+00 
3.684210526316e-01 3.032641039120e+02 9.817011212462e+04 9.786684802070e+04 9.998700519383e-01 1.299480617005e-04 -1.133375692044e-05 0.000000000000e+00 1.398117363731e-09 0.000000000000e+00 
4.210526315789e-01 3.824595535137e+02 9.775504859533e+04 9.737258904181e+04 9.998369583818e-01 1.630416182059e-04 -1.128631877979e-05 0.000000000000e+00 1.343009299342e-09 0.000000000000e+00 
4.736842105263e-01 4.778956783052e+02 9.735612850732e+04 9.687823282901e+04 9.997972526967e-01 2.027473033118e-04 -1.123239762487e-05 0.000000000000e+00 1.280577816789e-09 0.000000000000e+00 
5.263157894737e-01 5.919827064968e+02 9.697574993703e+04 9.638376723054e+04 9.997500216228e-01 2.499783771979e-04 -1.117211741105e-05 0.000000000000e+00 1.210989956249e-09 0.000000000000e+00 
5.789473684210e-01 7.271295976535e+02 9.661630984911e+04 9.588918025145e+04 9.996943272068e-01 3.056727931665e-04 -1.110535332425e-05 0.000000000000e+00 1.134113195679e-09 0.000000000000e+00 
6.315789473684e-01 8.858768832648e+02 9.628033620385e+04 9.539445932059e+04 9.995979942533e-01 4.020057467307e-04 -1.103101923754e-05 0.000000000000e+00 1.049224859139e-09 0.000000000000e+00 
6.842105263158e-01 1.071119708607e+03 9.597071080728e+04 9.489959109867e+04 9.992657038540e-01 7.342961460151e-04 -1.086472813504e-05 0.000000000000e+00 8.618178736489e-10 0.000000000000e+00 
7.368421052631e-01 1.344189665796e+03 9.574844051071e+04 9.440425084491e+04 9.985971352104e-01 1.402864789638e-03 -1.049214273028e-05 0.000000000000e+00 4.400673915467e-10 0.000000000000e+00 
7.894736842105e-01 1.790157433506e+03 9.569814269096e+04 9.390798525746e+04 9.974464699823e-01 2.553530017691e-03 -9.944451912254e-06 0.000000000000e+00 -1.819307980029e-10 0.000000000000e+00 
8.421052631579e-01 2.448638569432e+03 9.585923594782e+04 9.341059737839e+04 9.944345403780e-01 5.565459622001e-03 -9.063311476480e-06 0.000000000000e+00 -1.181725216949e-09 0.000000000000e+00 
8.947368421053e-01 3.510421732099e+03 9.642151977842e+04 9.291109804632e+04 9.846248418708e-01 1.537515812916e-02 -7.148407867120e-06 0.000000000000e+00 -3.380457380415e-09 0.000000000000e+00 
9.473684210526e-01 5.498498003654e+03 9.790518680814e+04 9.240668880448e+04 9.465826002416e-01 5.341739975839e-02 -3.082234147565e-06 0.000000000000e+00 -8.331159005848e-09 0.000000000000e+00 
1.000000000000e+00 9.433790793757e+03 1.013250000000e+05 9.189120920624e+04 9.160862649497e-01 8.391373505027e-02 -3.519281404058e-07 0.000000000000e+00 -1.173985148271e-08 0.000000000000e+00 
 ZONE T="TIME=1.200000000000e+02"
0.000000000000e+00 0.000000000000e+00 1.013250000000e+05 1.013250000000e+05 9.999672312248e-01 3.276877515512e-05 -8.270702037403e-06 0.000000000000e+00 1.412188099799e-09 0.000000000000e+00 
5.263157894737e-02 8.645886693003e+01 1.009112664189e+05 1.008248075519e+05 9.999508907048e-01 4.910929521917e-05 -8.268632477127e-06 0.000000000000e+00 1.409669793886e-09 0.000000000000e+00 
1.052631578947e-01 1.726862491313e+02 1.004972943958e+05 1.003246081467e+05 9.999179811963e-01 8.201880369607e-05 -8.262454888699e-06 0.000000000000e+00 1.402247506766e-09 0.000000000000e+00 
1.578947368421e-01 2.601192372467e+02 1.000845130872e+05 9.982439384997e+04 9.998843504746e-01 1.156495253664e-04 -8.252280127660e-06 0.000000000000e+00 1.390132658064e-09 0.000000000000e+00 
2.105263157895e-01 3.501523934033e+02 9.967430944810e+04 9.932415705470e+04 9.998494831169e-01 1.505168830858e-04 -8.238304908909e-06 0.000000000000e+00 1.373557348255e-09 0.000000000000e+00 
2.631578947368e-01 4.441109932403e+02 9.926800161847e+04 9.882389062523e+04 9.998128928149e-01 1.871071850734e-04 -8.220783395784e-06 0.000000000000e+00 1.352850013065e-09 0.000000000000e+00 
3.157894736842e-01 5.432359636924e+02 9.886682393876e+04 9.832358797507e+04 9.997741244739e-01 2.258755261177e-04 -8.199983064075e-06 0.000000000000e+00 1.328350456744e-09 0.000000000000e+00 
3.684210526316e-01 6.486878700734e+02 9.847193090873e+04 9.782324303866e+04 9.997327477616e-01 2.672522384459e-04 -8.176120929989e-06 0.000000000000e+00 1.300334735973e-09 0.000000000000e+00 