 TITLE = "Time curves in points"
 VARIABLES = "TIME"  "PRESSURE1"  "PRESSURE2"  "PRESSURE_W"  "SATURATION1" SATURATION2  "VELOCITY_X1"  "VELOCITY_Y1"  "VELOCITY_X2"  "VELOCITY_Y2" 
 ZONE T="POINT=POINT0"
0.000000000000e+00 0.000000000000e+00 1.013250000000e+05 1.013250000000e+05 1.000000000000e+00 1.110223024625e-16 0.000000000000e+00 0.000000000000e+00 0.000000000000e+00 0.000000000000e+00 
1.000000000000e-03 0.000000000000e+00 1.013250000000e+05 1.013250000000e+05 1.000000000000e+00 2.786659791809e-14 -2.625029888223e-04 0.000000000000e+00 1.370384721254e-11 0.000000000000e+00 
2.000000000000e-03 0.000000000000e+00 1.013250000000e+05 1.013250000000e+05 9.999999999998e-01 1.578737141017e-13 -2.601602134872e-04 0.000000000000e+00 2.937834117881e-11 0.000000000000e+00 
3.000000000000e-03 0.000000000000e+00 1.013250000000e+05 1.013250000000e+05 9.999999999995e-01 4.625189120588e-13 -2.578414541422e-04 0.000000000000e+00 4.489076022222e-11 0.000000000000e+00 
4.000000000000e-03 0.000000000000e+00 1.013250000000e+05 1.013250000000e+05 9.999999999990e-01 1.011746242341e-12 -2.555463745984e-04 0.000000000000e+00 6.024339548132e-11 0.000000000000e+00 
5.000000000000e-03 0.000000000000e+00 1.013250000000e+05 1.013250000000e+05 9.999999999981e-01 1.874056465567e-12 -2.532747795838e-04 0.000000000000e+00 7.543759453889e-11 0.000000000000e+00 
6.000000000000e-03 0.000000000000e+00 1.013250000000e+05 1.013250000000e+05 9.999999999969e-01 3.114397628678e-12 -2.510263933324e-04 0.000000000000e+00 9.047524222913e-11 0.000000000000e+00 
7.000000000000e-03 0.000000000000e+00 1.013250000000e+05 1.013250000000e+05 9.999999999952e-01 4.796052444078e-12 -2.488010143727e-04 0.000000000000e+00 1.053577256825e-10 0.000000000000e+00 
8.000000000000e-03 0.000000000000e+00 1.013250000000e+05 1.013250000000e+05 9.999999999930e-01 6.980860334238e-12 -2.465983040188e-04 0.000000000000e+00 1.200873485408e-10 0.000000000000e+00 
9.000000000000e-03 0.000000000000e+00 1.013250000000e+05 1.013250000000e+05 9.999999999903e-01 9.728440275580e-12 -2.444179907934e-04 0.000000000000e+00 1.346659639417e-10 0.000000000000e+00 
1.000000000000e-02 0.000000000000e+00 1.013250000000e+05 1.013250000000e+05 9.999999999869e-01 1.309641284308e-11 -2.422600089302e-04 0.000000000000e+00 1.490940491117e-10 0.000000000000e+00 
2.000000000000e-02 0.000000000000e+00 1.013250000000e+05 1.013250000000e+05 9.999999998684e-01 1.315700881577e-10 -2.226865974515e-04 0.000000000000e+00 2.799045669047e-10 0.000000000000e+00 
3.000000000000e-02 0.000000000000e+00 1.013250000000e+05 1.013250000000e+05 9.999999996837e-01 3.162713424487e-10 -2.185790173242e-04 0.000000000000e+00 3.073525189170e-10 0.000000000000e+00 
4.000000000000e-02 0.000000000000e+00 1.013250000000e+05 1.013250000000e+05 9.999999994715e-01 5.285076820627e-10 -2.146209302744e-04 0.000000000000e+00 3.337865470173e-10 0.000000000000e+00 
5.000000000000e-02 0.000000000000e+00 1.013250000000e+05 1.013250000000e+05 9.999999992780e-01 7.220412046038e-10 -2.107209010039e-04 0.000000000000e+00 3.598188223122e-10 0.000000000000e+00 
6.000000000000e-02 0.000000000000e+00 1.013250000000e+05 1.013250000000e+05 9.999999990567e-01 9.433496206412e-10 -2.069201925882e-04 0.000000000000e+00 3.851942523707e-10 0.000000000000e+00 
7.000000000000e-02 0.000000000000e+00 1.013250000000e+05 1.013250000000e+05 9.999999988064e-01 1.193611209871e-09 -2.031995140676e-04 0.000000000000e+00 4.100314490615e-10 0.000000000000e+00 
8.000000000000e-02 0.000000000000e+00 1.013250000000e+05 1.013250000000e+05 9.999999985261e-01 1.473879129854e-09 -1.995569447157e-04 0.000000000000e+00 4.343434533428e-10 0.000000000000e+00 
9.000000000000e-02 0.000000000000e+00 1.013250000000e+05 1.013250000000e+05 9.999999982149e-01 1.785107506258e-09 -1.959908101931e-04 0.000000000000e+00 4.581416507690e-10 0.000000000000e+00 
1.000000000000e-01 0.000000000000e+00 1.013250000000e+05 1.013250000000e+05 9.999999978719e-01 2.128148435254e-09 -1.924992866200e-04 0.000000000000e+00 4.814384149688e-10 0.000000000000e+00 
2.000000000000e-01 0.000000000000e+00 1.013250000000e+05 1.013250000000e+05 9.999999913425e-01 8.657479400043e-09 -1.636916152886e-04 0.000000000000e+00 6.735003369225e-10 0.000000000000e+00 
3.000000000000e-01 0.000000000000e+00 1.013250000000e+05 1.013250000000e+05 9.999999825874e-01 1.741259070265e-08 -1.462188248197e-04 0.000000000000e+00 7.898445677586e-10 0.000000000000e+00 
4.000000000000e-01 0.000000000000e+00 1.013250000000e+05 1.013250000000e+05 9.999999720479e-01 2.795212250550e-08 -1.330982030158e-04 0.000000000000e+00 8.771219128985e-10 0.000000000000e+00 
5.000000000000e-01 0.000000000000e+00 1.013250000000e+05 1.013250000000e+05 9.999999601134e-01 3.988657115706e-08 -1.229433900634e-04 0.000000000000e+00 9.446063891301e-10 0.000000000000e+00 
6.000000000000e-01 0.000000000000e+00 1.013250000000e+05 1.013250000000e+05 9.999999470734e-01 5.292658078471e-08 -1.147278524313e-04 0.000000000000e+00 9.991533180969e-10 0.000000000000e+00 
7.000000000000e-01 0.000000000000e+00 1.013250000000e+05 1.013250000000e+05 9.999999331076e-01 6.689242515456e-08 -1.076737998037e-04 0.000000000000e+00 1.045949743872e-09 0.000000000000e+00 
8.000000000000e-01 0.000000000000e+00 1.013250000000e+05 1.013250000000e+05 9.999999183722e-01 8.162781939269e-08 -1.015566301374e-04 0.000000000000e+00 1.086496883774e-09 0.000000000000e+00 
9.000000000000e-01 0.000000000000e+00 1.013250000000e+05 1.013250000000e+05 9.999999030021e-01 9.699789116357e-08 -9.620742511792e-05 0.000000000000e+00 1.121923356323e-09 0.000000000000e+00 
1.000000000000e+00 0.000000000000e+00 1.013250000000e+05 1.013250000000e+05 9.999998871052e-01 1.128948070583e-07 -9.146003823741e-05 0.000000000000e+00 1.153337646304e-09 0.000000000000e+00 
2.000000000000e+00 0.000000000000e+00 1.013250000000e+05 1.013250000000e+05 9.999997165437e-01 2.834562879972e-07 -6.716362575626e-05 0.000000000000e+00 1.313216704809e-09 0.000000000000e+00 
3.000000000000e+00 0.000000000000e+00 1.013250000000e+05 1.013250000000e+05 9.999995466857e-01 4.533143111995e-07 -5.268552172999e-05 0.000000000000e+00 1.407802065391e-09 0.000000000000e+00 
4.000000000000e+00 0.000000000000e+00 1.013250000000e+05 1.013250000000e+05 9.999993826261e-01 6.173739353077e-07 -4.331387309662e-05 0.000000000000e+00 1.468511620332e-09 0.000000000000e+00 
5.000000000000e+00 0.000000000000e+00 1.013250000000e+05 1.013250000000e+05 9.999992268043e-01 7.731956641610e-07 -3.716994266513e-05 0.000000000000e+00 1.507866337671e-09 0.000000000000e+00 
6.000000000000e+00 0.000000000000e+00 1.013250000000e+05 1.013250000000e+05 9.999990795129e-01 9.204870587975e-07 -3.289070228508e-05 0.000000000000e+00 1.534922644736e-09 0.000000000000e+00 
7.000000000000e+00 0.000000000000e+00 1.013250000000e+05 1.013250000000e+05 9.999989399988e-01 1.060001171060e-06 -2.966559376690e-05 0.000000000000e+00 1.555054512046e-09 0.000000000000e+00 
8.000000000000e+00 0.000000000000e+00 1.013250000000e+05 1.013250000000e+05 9.999988075307e-01 1.192469285760e-06 -2.719574710939e-05 0.000000000000e+00 1.570239545097e-09 0.000000000000e+00 
9.000000000000e+00 0.000000000000e+00 1.013250000000e+05 1.013250000000e+05 9.999986813824e-01 1.318617631307e-06 -2.527331430288e-05 0.000000000000e+00 1.581850627424e-09 0.000000000000e+00 
1.000000000000e+01 0.000000000000e+00 1.013250000000e+05 1.013250000000e+05 9.999985608320e-01 1.439167993333e-06 -2.375153933492e-05 0.000000000000e+00 1.590854983879e-09 0.000000000000e+00 
1.100000000000e+01 0.000000000000e+00 1.013250000000e+05 1.013250000000e+05 9.999984451800e-01 1.554820040939e-06 -2.253296916778e-05 0.000000000000e+00 1.597892843184e-09 0.000000000000e+00 
1.200000000000e+01 0.000000000000e+00 1.013250000000e+05 1.013250000000e+05 9.999983337069e-01 1.666293108826e-06 -2.153516800411e-05 0.000000000000e+00 1.603504483529e-09 0.000000000000e+00 
1.300000000000e+01 0.000000000000e+00 1.013250000000e+05 1.013250000000e+05 9.999982256944e-01 1.774305595670e-06 -2.070469470988e-05 0.000000000000e+00 1.608037865197e-09 0.000000000000e+00 
1.400000000000e+01 0.000000000000e+00 1.013250000000e+05 1.013250000000e+05 9.999981204457e-01 1.879554264894e-06 -2.001388792196e-05 0.000000000000e+00 1.611670308731e-09 0.000000000000e+00 
1.500000000000e+01 0.000000000000e+00 1.013250000000e+05 1.013250000000e+05 9.999980172154e-01 1.982784594623e-06 -1.942167398581e-05 0.000000000000e+00 1.614667345309e-09 0.000000000000e+00 
1.600000000000e+01 0.000000000000e+00 1.013250000000e+05 1.013250000000e+05 9.999979152517e-01 2.084748287001e-06 -1.890869529981e-05 0.000000000000e+00 1.617150580930e-09 0.000000000000e+00 
1.700000000000e+01 0.000000000000e+00 1.013250000000e+05 1.013250000000e+05 9.999978137864e-01 2.186213612476e-06 -1.845787131516e-05 0.000000000000e+00 1.619226360267e-09 0.000000000000e+00 
1.800000000000e+01 0.000000000000e+00 1.013250000000e+05 1.013250000000e+05 9.999977120382e-01 2.287961833214e-06 -1.805637089298e-05 0.000000000000e+00 1.620972735857e-09 0.000000000000e+00 
1.900000000000e+01 0.000000000000e+00 1.013250000000e+05 1.013250000000e+05 9.999976092194e-01 2.390780622030e-06 -1.769500320185e-05 0.000000000000e+00 1.622443568045e-09 0.000000000000e+00 
2.000000000000e+01 0.000000000000e+00 1.013250000000e+05 1.013250000000e+05 9.999975045476e-01 2.495452413043e-06 -1.736844416020e-05 0.000000000000e+00 1.623667129920e-09 0.000000000000e+00 
2.100000000000e+01 0.000000000000e+00 1.013250000000e+05 1.013250000000e+05 9.999973972385e-01 2.602761455917e-06 -1.706824772837e-05 0.000000000000e+00 1.624692370553e-09 0.000000000000e+00 
2.200000000000e+01 0.000000000000e+00 1.013250000000e+05 1.013250000000e+05 9.999972865258e-01 2.713474233862e-06 -1.679075198051e-05 0.000000000000e+00 1.625536685778e-09 0.000000000000e+00 
2.300000000000e+01 0.000000000000e+00 1.013250000000e+05 1.013250000000e+05 9.999971716647e-01 2.828335253779e-06 -1.653246924610e-05 0.000000000000e+00 1.626216510058e-09 0.000000000000e+00 
2.400000000000e+01 0.000000000000e+00 1.013250000000e+05 1.013250000000e+05 9.999970519398e-01 2.948060217056e-06 -1.628962950517e-05 0.000000000000e+00 1.626750401146e-09 0.000000000000e+00 
2.500000000000e+01 0.000000000000e+00 1.013250000000e+05 1.013250000000e+05 9.999969266760e-01 3.073324012282e-06 -1.606020680502e-05 0.000000000000e+00 1.627145730855e-09 0.000000000000e+00 
2.600000000000e+01 0.000000000000e+00 1.013250000000e+05 1.013250000000e+05 9.999967952449e-01 3.204755134267e-06 -1.584270849850e-05 0.000000000000e+00 1.627406753146e-09 0.000000000000e+00 
2.700000000000e+01 0.000000000000e+00 1.013250000000e+05 1.013250000000e+05 9.999966570716e-01 3.342928372896e-06 -1.563560127040e-05 0.000000000000e+00 1.627538471949e-09 0.000000000000e+00 
2.800000000000e+01 0.000000000000e+00 1.013250000000e+05 1.013250000000e+05 9.999965116392e-01 3.488360805326e-06 -1.543790069063e-05 0.000000000000e+00 1.627542771720e-09 0.000000000000e+00 
2.900000000000e+01 0.000000000000e+00 1.013250000000e+05 1.013250000000e+05 9.999963584919e-01 3.641508077079e-06 -1.524855559043e-05 0.000000000000e+00 1.627422529529e-09 0.000000000000e+00 
3.000000000000e+01 0.000000000000e+00 1.013250000000e+05 1.013250000000e+05 9.999961972372e-01 3.802762770566e-06 -1.506692481816e-05 0.000000000000e+00 1.627178470769e-09 0.000000000000e+00 
3.100000000000e+01 0.000000000000e+00 1.013250000000e+05 1.013250000000e+05 9.999960275469e-01 3.972453116452e-06 -1.489334430215e-05 0.000000000000e+00 1.626805421986e-09 0.000000000000e+00 
3.200000000000e+01 0.000000000000e+00 1.013250000000e+05 1.013250000000e+05 9.999958491527e-01 4.150847254691e-06 -1.472556457391e-05 0.000000000000e+00 1.626315880795e-09 0.000000000000e+00 
3.300000000000e+01 0.000000000000e+00 1.013250000000e+05 1.013250000000e+05 9.999956618427e-01 4.338157254757e-06 -1.456286442039e-05 0.000000000000e+00 1.625712721210e-09 0.000000000000e+00 
3.400000000000e+01 0.000000000000e+00 1.013250000000e+05 1.013250000000e+05 9.999954654651e-01 4.534534854939e-06 -1.440512069925e-05 0.000000000000e+00 1.624995395335e-09 0.000000000000e+00 
3.500000000000e+01 0.000000000000e+00 1.013250000000e+05 1.013250000000e+05 9.999952599295e-01 4.740070531861e-06 -1.425407544696e-05 0.000000000000e+00 1.624151543099e-09 0.000000000000e+00 
3.600000000000e+01 0.000000000000e+00 1.013250000000e+05 1.013250000000e+05 9.999950451919e-01 4.954808135227e-06 -1.410668287175e-05 0.000000000000e+00 1.623200956297e-09 0.000000000000e+00 
3.700000000000e+01 0.000000000000e+00 1.013250000000e+05 1.013250000000e+05 9.999948212644e-01 5.178735607014e-06 -1.396344748692e-05 0.000000000000e+00 1.622140396033e-09 0.000000000000e+00 
3.800000000000e+01 0.000000000000e+00 1.013250000000e+05 1.013250000000e+05 9.999945882096e-01 5.411790383270e-06 -1.382417813882e-05 0.000000000000e+00 1.620971687511e-09 0.000000000000e+00 
3.900000000000e+01 0.000000000000e+00 1.013250000000e+05 1.013250000000e+05 9.999943461382e-01 5.653861846033e-06 -1.368870646940e-05 0.000000000000e+00 1.619696935503e-09 0.000000000000e+00 
4.000000000000e+01 0.000000000000e+00 1.013250000000e+05 1.013250000000e+05 9.999940952041e-01 5.904795922773e-06 -1.355694017539e-05 0.000000000000e+00 1.618318130867e-09 0.000000000000e+00 
4.100000000000e+01 0.000000000000e+00 1.013250000000e+05 1.013250000000e+05 9.999938356002e-01 6.164399789954e-06 -1.342857708155e-05 0.000000000000e+00 1.616839002461e-09 0.000000000000e+00 
4.200000000000e+01 0.000000000000e+00 1.013250000000e+05 1.013250000000e+05 9.999935675521e-01 6.432447928306e-06 -1.330340282002e-05 0.000000000000e+00 1.615262990065e-09 0.000000000000e+00 
4.300000000000e+01 0.000000000000e+00 1.013250000000e+05 1.013250000000e+05 9.999932913121e-01 6.708687919521e-06 -1.318127428190e-05 0.000000000000e+00 1.613593303294e-09 0.000000000000e+00 
4.400000000000e+01 0.000000000000e+00 1.013250000000e+05 1.013250000000e+05 9.999930071531e-01 6.992846881659e-06 -1.306209026631e-05 0.000000000000e+00 1.611833057768e-09 0.000000000000e+00 
4.500000000000e+01 0.000000000000e+00 1.013250000000e+05 1.013250000000e+05 9.999927153623e-01 7.284637710714e-06 -1.294575868436e-05 0.000000000000e+00 1.609985436080e-09 0.000000000000e+00 
4.600000000000e+01 0.000000000000e+00 1.013250000000e+05 1.013250000000e+05 9.999924162371e-01 7.583762945407e-06 -1.283297449754e-05 0.000000000000e+00 1.608048496739e-09 0.000000000000e+00 
4.700000000000e+01 0.000000000000e+00 1.013250000000e+05 1.013250000000e+05 9.999921100754e-01 7.889924605986e-06 -1.272237306054e-05 0.000000000000e+00 1.606033955429e-09 0.000000000000e+00 
4.800000000000e+01 0.000000000000e+00 1.013250000000e+05 1.013250000000e+05 9.999917971793e-01 8.202820707681e-06 -1.261429074862e-05 0.000000000000e+00 1.603942288446e-09 0.000000000000e+00 
4.900000000000e+01 0.000000000000e+00 1.013250000000e+05 1.013250000000e+05 9.999914778527e-01 8.522147291079e-06 -1.250867535332e-05 0.000000000000e+00 1.601776565690e-09 0.000000000000e+00 
5.000000000000e+01 0.000000000000e+00 1.013250000000e+05 1.013250000000e+05 9.999911524038e-01 8.847596159933e-06 -1.240545610041e-05 0.000000000000e+00 1.599540018135e-09 0.000000000000e+00 
5.100000000000e+01 0.000000000000e+00 1.013250000000e+05 1.013250000000e+05 9.999908211472e-01 9.178852771630e-06 -1.230447661635e-05 0.000000000000e+00 1.597236501054e-09 0.000000000000e+00 
5.200000000000e+01 0.000000000000e+00 1.013250000000e+05 1.013250000000e+05 9.999904844054e-01 9.515594586951e-06 -1.220566644715e-05 0.000000000000e+00 1.594869372028e-09 0.000000000000e+00 
5.300000000000e+01 0.000000000000e+00 1.013250000000e+05 1.013250000000e+05 9.999901425104e-01 9.857489560061e-06 -1.210888670464e-05 0.000000000000e+00 1.592442527846e-09 0.000000000000e+00 
5.400000000000e+01 0.000000000000e+00 1.013250000000e+05 1.013250000000e+05 9.999897958027e-01 1.020419727349e-05 -1.201408321970e-05 0.000000000000e+00 1.589959379141e-09 0.000000000000e+00 
5.500000000000e+01 0.000000000000e+00 1.013250000000e+05 1.013250000000e+05 9.999894446294e-01 1.055537061545e-05 -1.192124438761e-05 0.000000000000e+00 1.587423114651e-09 0.000000000000e+00 
5.600000000000e+01 0.000000000000e+00 1.013250000000e+05 1.013250000000e+05 9.999890893404e-01 1.091065957248e-05 -1.183026760963e-05 0.000000000000e+00 1.584837552353e-09 0.000000000000e+00 
5.700000000000e+01 0.000000000000e+00 1.013250000000e+05 1.013250000000e+05 9.999887302846e-01 1.126971541843e-05 -1.174107713044e-05 0.000000000000e+00 1.582206321209e-09 0.000000000000e+00 
5.800000000000e+01 0.000000000000e+00 1.013250000000e+05 1.013250000000e+05 9.999883678046e-01 1.163219541389e-05 -1.165355182823e-05 0.000000000000e+00 1.579533297237e-09 0.000000000000e+00 
5.900000000000e+01 0.000000000000e+00 1.013250000000e+05 1.013250000000e+05 9.999880022327e-01 1.199776726268e-05 -1.156770680366e-05 0.000000000000e+00 1.576821359678e-09 0.000000000000e+00 
6.000000000000e+01 0.000000000000e+00 1.013250000000e+05 1.013250000000e+05 9.999876338867e-01 1.236611327016e-05 -1.148342197501e-05 0.000000000000e+00 1.574074153454e-09 0.000000000000e+00 
6.100000000000e+01 0.000000000000e+00 1.013250000000e+05 1.013250000000e+05 9.999872630656e-01 1.273693441628e-05 -1.140065425463e-05 0.000000000000e+00 1.571294645305e-09 0.000000000000e+00 
6.200000000000e+01 0.000000000000e+00 1.013250000000e+05 1.013250000000e+05 9.999868900499e-01 1.310995010750e-05 -1.131995011555e-05 0.000000000000e+00 1.568481727820e-09 0.000000000000e+00 
6.300000000000e+01 0.000000000000e+00 1.013250000000e+05 1.013250000000e+05 9.999865151004e-01 1.348489962605e-05 -1.124113108289e-05 0.000000000000e+00 1.565638921717e-09 0.000000000000e+00 
6.400000000000e+01 0.000000000000e+00 1.013250000000e+05 1.013250000000e+05 9.999861384595e-01 1.386154046723e-05 -1.116318317042e-05 0.000000000000e+00 1.562775125204e-09 0.000000000000e+00 
6.500000000000e+01 0.000000000000e+00 1.013250000000e+05 1.013250000000e+05 9.999857603634e-01 1.423963663649e-05 -1.108655711399e-05 0.000000000000e+00 1.559889465990e-09 0.000000000000e+00 
6.600000000000e+01 0.000000000000e+00 1.013250000000e+05 1.013250000000e+05 9.999853810460e-01 1.461895396870e-05 -1.101121167312e-05 0.000000000000e+00 1.556984317794e-09 0.000000000000e+00 
6.700000000000e+01 0.000000000000e+00 1.013250000000e+05 1.013250000000e+05 9.999850007455e-01 1.499925453086e-05 -1.093707723195e-05 0.000000000000e+00 1.554062276207e-09 0.000000000000e+00 
6.800000000000e+01 0.000000000000e+00 1.013250000000e+05 1.013250000000e+05 9.999846197065e-01 1.538029354065e-05 -1.086415645786e-05 0.000000000000e+00 1.551125519495e-09 0.000000000000e+00 
6.900000000000e+01 0.000000000000e+00 1.013250000000e+05 1.013250000000e+05 9.999842381811e-01 1.576181890983e-05 -1.079246231552e-05 0.000000000000e+00 1.548176223095e-09 0.000000000000e+00 
7.000000000000e+01 0.000000000000e+00 1.013250000000e+05 1.013250000000e+05 9.999838564258e-01 1.614357422186e-05 -1.072196373139e-05 0.000000000000e+00 1.545216893599e-09 0.000000000000e+00 
7.100000000000e+01 0.000000000000e+00 1.013250000000e+05 1.013250000000e+05 9.999834746984e-01 1.652530163188e-05 -1.065261089660e-05 0.000000000000e+00 1.542250174582e-09 0.000000000000e+00 
7.200000000000e+01 0.000000000000e+00 1.013250000000e+05 1.013250000000e+05 9.999830932511e-01 1.690674892907e-05 -1.058437496466e-05 0.000000000000e+00 1.539278520719e-09 0.000000000000e+00 
7.300000000000e+01 0.000000000000e+00 1.013250000000e+05 1.013250000000e+05 9.999827123261e-01 1.728767389086e-05 -1.051723012954e-05 0.000000000000e+00 1.536304276663e-09 0.000000000000e+00 
7.400000000000e+01 0.000000000000e+00 1.013250000000e+05 1.013250000000e+05 9.999823321498e-01 1.766785022428e-05 -1.045130416903e-05 0.000000000000e+00 1.533328626430e-09 0.000000000000e+00 
7.500000000000e+01 0.000000000000e+00 1.013250000000e+05 1.013250000000e+05 9.999819529287e-01 1.804707125430e-05 -1.038651968898e-05 0.000000000000e+00 1.530353938400e-09 0.000000000000e+00 
7.600000000000e+01 0.000000000000e+00 1.013250000000e+05 1.013250000000e+05 9.999815748465e-01 1.842515346173e-05 -1.032282080383e-05 0.000000000000e+00 1.527382230255e-09 0.000000000000e+00 
7.700000000000e+01 0.000000000000e+00 1.013250000000e+05 1.013250000000e+05 9.999811980603e-01 1.880193966264e-05 -1.026024834204e-05 0.000000000000e+00 1.524414642318e-09 0.000000000000e+00 
7.800000000000e+01 0.000000000000e+00 1.013250000000e+05 1.013250000000e+05 9.999808227021e-01 1.917729792722e-05 -1.019879337340e-05 0.000000000000e+00 1.521452417915e-09 0.000000000000e+00 
7.900000000000e+01 0.000000000000e+00 1.013250000000e+05 1.013250000000e+05 9.999804488761e-01 1.955112385532e-05 -1.013838825347e-05 0.000000000000e+00 1.518496942892e-09 0.000000000000e+00 
8.000000000000e+01 0.000000000000e+00 1.013250000000e+05 1.013250000000e+05 9.999800766613e-01 1.992333874645e-05 -1.007901988375e-05 0.000000000000e+00 1.515549010779e-09 0.000000000000e+00 
8.100000000000e+01 0.000000000000e+00 1.013250000000e+05 1.013250000000e+05 9.999797061149e-01 2.029388512159e-05 -1.002096440107e-05 0.000000000000e+00 1.512607306282e-09 0.000000000000e+00 
8.200000000000e+01 0.000000000000e+00 1.013250000000e+05 1.013250000000e+05 9.999793372810e-01 2.066271896461e-05 -9.963711135691e-06 0.000000000000e+00 1.509675611649e-09 0.000000000000e+00 
8.300000000000e+01 0.000000000000e+00 1.013250000000e+05 1.013250000000e+05 9.999789702030e-01 2.102979695662e-05 -9.907374580085e-06 0.000000000000e+00 1.506753556838e-09 0.000000000000e+00 
8.400000000000e+01 0.000000000000e+00 1.013250000000e+05 1.013250000000e+05 9.999786049360e-01 2.139506397258e-05 -9.851950545341e-06 0.000000000000e+00 1.503841664699e-09 0.000000000000e+00 
8.500000000000e+01 0.000000000000e+00 1.013250000000e+05 1.013250000000e+05 9.999782415573e-01 2.175844269570e-05 -9.797476671365e-06 0.000000000000e+00 1.500940380129e-09 0.000000000000e+00 
8.600000000000e+01 0.000000000000e+00 1.013250000000e+05 1.013250000000e+05 9.999778801685e-01 2.211983145917e-05 -9.743864906842e-06 0.000000000000e+00 1.498051200146e-09 0.000000000000e+00 
8.700000000000e+01 0.000000000000e+00 1.013250000000e+05 1.013250000000e+05 9.999775208949e-01 2.247910514819e-05 -9.691056173548e-06 0.000000000000e+00 1.495175639975e-09 0.000000000000e+00 
8.800000000000e+01 0.000000000000e+00 1.013250000000e+05 1.013250000000e+05 9.999771638795e-01 2.283612054288e-05 -9.638949360836e-06 0.000000000000e+00 1.492315655750e-09 0.000000000000e+00 
8.900000000000e+01 0.000000000000e+00 1.013250000000e+05 1.013250000000e+05 9.999768092742e-01 2.319072575052e-05 -9.587485010572e-06 0.000000000000e+00 1.489473006194e-09 0.000000000000e+00 
9.000000000000e+01 0.000000000000e+00 1.013250000000e+05 1.013250000000e+05 9.999764572314e-01 2.354276863759e-05 -9.536705284422e-06 0.000000000000e+00 1.486648778275e-09 0.000000000000e+00 
9.100000000000e+01 0.000000000000e+00 1.013250000000e+05 1.013250000000e+05 9.999761078936e-01 2.389210638365e-05 -9.486580130766e-06 0.000000000000e+00 1.483844454480e-09 0.000000000000e+00 
9.200000000000e+01 0.000000000000e+00 1.013250000000e+05 1.013250000000e+05 9.999757613867e-01 2.423861334810e-05 -9.437084930492e-06 0.000000000000e+00 1.481061327071e-09 0.000000000000e+00 
9.300000000000e+01 0.000000000000e+00 1.013250000000e+05 1.013250000000e+05 9.999754178141e-01 2.458218586976e-05 -9.388211851854e-06 0.000000000000e+00 1.478300379683e-09 0.000000000000e+00 
9.400000000000e+01 0.000000000000e+00 1.013250000000e+05 1.013250000000e+05 9.999750772529e-01 2.492274707033e-05 -9.340022925384e-06 0.000000000000e+00 1.475561892078e-09 0.000000000000e+00 
9.500000000000e+01 0.000000000000e+00 1.013250000000e+05 1.013250000000e+05 9.999747397522e-01 2.526024776472e-05 -9.292432672763e-06 0.000000000000e+00 1.472846873876e-09 0.000000000000e+00 
9.600000000000e+01 0.000000000000e+00 1.013250000000e+05 1.013250000000e+05 9.999744053319e-01 2.559466812768e-05 -9.245400493835e-06 0.000000000000e+00 1.470155773482e-09 0.000000000000e+00 
9.700000000000e+01 0.000000000000e+00 1.013250000000e+05 1.013250000000e+05 9.999740739855e-01 2.592601446372e-05 -9.198977239431e-06 0.000000000000e+00 1.467488197957e-09 0.000000000000e+00 
9.800000000000e+01 0.000000000000e+00 1.013250000000e+05 1.013250000000e+05 9.999737456808e-01 2.625431924796e-05 -9.153101789669e-06 0.000000000000e+00 1.464844262214e-09 0.000000000000e+00 
9.900000000000e+01 0.000000000000e+00 1.013250000000e+05 1.013250000000e+05 9.999734203631e-01 2.657963686759e-05 -9.107809540790e-06 0.000000000000e+00 1.462223244102e-09 0.000000000000e+00 
1.000000000000e+02 0.000000000000e+00 1.013250000000e+05 1.013250000000e+05 9.999730979591e-01 2.690204088851e-05 -9.063616580620e-06 0.000000000000e+00 1.459621059725e-09 0.000000000000e+00 
1.010000000000e+02 0.000000000000e+00 1.013250000000e+05 1.013250000000e+05 9.999727783761e-01 2.722162391144e-05 -9.019585648016e-06 0.000000000000e+00 1.457043096970e-09 0.000000000000e+00 
1.020000000000e+02 0.000000000000e+00 1.013250000000e+05 1.013250000000e+05 9.999724615086e-01 2.753849143045e-05 -8.976069704219e-06 0.000000000000e+00 1.454486067698e-09 0.000000000000e+00 
1.030000000000e+02 0.000000000000e+00 1.013250000000e+05 1.013250000000e+05 9.999721472489e-01 2.785275106765e-05 -8.933332110454e-06 0.000000000000e+00 1.451947258950e-09 0.000000000000e+00 
1.040000000000e+02 0.000000000000e+00 1.013250000000e+05 1.013250000000e+05 9.999718355050e-01 2.816449499643e-05 -8.890889927221e-06 0.000000000000e+00 1.449429047867e-09 0.000000000000e+00 
1.050000000000e+02 0.000000000000e+00 1.013250000000e+05 1.013250000000e+05 9.999715262197e-01 2.847378033932e-05 -8.848905764963e-06 0.000000000000e+00 1.446929843631e-09 0.000000000000e+00 
1.060000000000e+02 0.000000000000e+00 1.013250000000e+05 1.013250000000e+05 9.999712193865e-01 2.878061353384e-05 -8.807367649099e-06 0.000000000000e+00 1.444449668520e-09 0.000000000000e+00 
1.070000000000e+02 0.000000000000e+00 1.013250000000e+05 1.013250000000e+05 9.999709150511e-01 2.908494886078e-05 -8.766264286702e-06 0.000000000000e+00 1.441989008828e-09 0.000000000000e+00 
1.080000000000e+02 0.000000000000e+00 1.013250000000e+05 1.013250000000e+05 9.999706133061e-01 2.938669394204e-05 -8.725618556997e-06 0.000000000000e+00 1.439548543094e-09 0.000000000000e+00 
1.090000000000e+02 0.000000000000e+00 1.013250000000e+05 1.013250000000e+05 9.999703142758e-01 2.968572416295e-05 -8.685387948968e-06 0.000000000000e+00 1.437129673403e-09 0.000000000000e+00 
1.100000000000e+02 0.000000000000e+00 1.013250000000e+05 1.013250000000e+05 9.999700181007e-01 2.998189933356e-05 -8.645612400286e-06 0.000000000000e+00 1.434733394574e-09 0.000000000000e+00 
1.110000000000e+02 0.000000000000e+00 1.013250000000e+05 1.013250000000e+05 9.999697249187e-01 3.027508125120e-05 -8.606272088249e-06 0.000000000000e+00 1.432361080325e-09 0.000000000000e+00 
1.120000000000e+02 0.000000000000e+00 1.013250000000e+05 1.013250000000e+05 9.999694348534e-01 3.056514661204e-05 -8.567338899636e-06 0.000000000000e+00 1.430014025513e-09 0.000000000000e+00 
1.130000000000e+02 0.000000000000e+00 1.013250000000e+05 1.013250000000e+05 9.999691480022e-01 3.085199775310e-05 -8.528840722869e-06 0.000000000000e+00 1.427692923192e-09 0.000000000000e+00 
1.140000000000e+02 0.000000000000e+00 1.013250000000e+05 1.013250000000e+05 9.999688644302e-01 3.113556976841e-05 -8.490771405128e-06 0.000000000000e+00 1.425398398144e-09 0.000000000000e+00 
1.150000000000e+02 0.000000000000e+00 1.013250000000e+05 1.013250000000e+05 9.999685841677e-01 3.141583229782e-05 -8.453115971099e-06 0.000000000000e+00 1.423130823440e-09 0.000000000000e+00 
1.160000000000e+02 0.000000000000e+00 1.013250000000e+05 1.013250000000e+05 9.999683072092e-01 3.169279076420e-05 -8.415849466851e-06 0.000000000000e+00 1.420890316997e-09 0.000000000000e+00 
1.170000000000e+02 0.000000000000e+00 1.013250000000e+05 1.013250000000e+05 9.999680335166e-01 3.196648339665e-05 -8.378977175024e-06 0.000000000000e+00 1.418676501327e-09 0.000000000000e+00 
1.180000000000e+02 0.000000000000e+00 1.013250000000e+05 1.013250000000e+05 9.999677630211e-01 3.223697894028e-05 -8.342514400838e-06 0.000000000000e+00 1.416488658442e-09 0.000000000000e+00 
1.190000000000e+02 0.000000000000e+00 1.013250000000e+05 1.013250000000e+05 9.999674956288e-01 3.250437118463e-05 -8.306429210849e-06 0.000000000000e+00 1.414326158740e-09 0.000000000000e+00 
1.200000000000e+02 0.000000000000e+00 1.013250000000e+05 1.013250000000e+05 9.999672312248e-01 3.276877515512e-05 -8.270702037403e-06 0.000000000000e+00 1.412188099799e-09 0.000000000000e+00 
