 TITLE = "Time curves in points"
 VARIABLES = "TIME"  "PRESSURE1"  "PRESSURE2"  "PRESSURE_W"  "SATURATION1" SATURATION2  "VELOCITY_X1"  "VELOCITY_Y1"  "VELOCITY_X2"  "VELOCITY_Y2" 
 ZONE T="POINT=POINT0"
0.000000000000e+00 0.000000000000e+00 1.013250000000e+05 1.013250000000e+05 1.000000000000e+00 2.220446049250e-16 0.000000000000e+00 0.000000000000e+00 0.000000000000e+00 0.000000000000e+00 
1.000000000000e-03 0.000000000000e+00 1.013250000000e+05 1.013250000000e+05 1.000000000000e+00 2.775557561563e-14 -2.625029807137e-04 0.000000000000e+00 1.370390146472e-11 0.000000000000e+00 
2.000000000000e-03 0.000000000000e+00 1.013250000000e+05 1.013250000000e+05 9.999999999998e-01 1.578737141017e-13 -2.601602121565e-04 0.000000000000e+00 2.937835008243e-11 0.000000000000e+00 
3.000000000000e-03 0.000000000000e+00 1.013250000000e+05 1.013250000000e+05 9.999999999995e-01 4.625189120588e-13 -2.578414528923e-04 0.000000000000e+00 4.489076858346e-11 0.000000000000e+00 
4.000000000000e-03 0.000000000000e+00 1.013250000000e+05 1.013250000000e+05 9.999999999990e-01 1.011524197736e-12 -2.555464044587e-04 0.000000000000e+00 6.024319579710e-11 0.000000000000e+00 
5.000000000000e-03 0.000000000000e+00 1.013250000000e+05 1.013250000000e+05 9.999999999981e-01 1.873057264845e-12 -2.532748588738e-04 0.000000000000e+00 7.543706427637e-11 0.000000000000e+00 
6.000000000000e-03 0.000000000000e+00 1.013250000000e+05 1.013250000000e+05 9.999999999969e-01 3.113065361049e-12 -2.510264525934e-04 0.000000000000e+00 9.047484593926e-11 0.000000000000e+00 
7.000000000000e-03 0.000000000000e+00 1.013250000000e+05 1.013250000000e+05 9.999999999952e-01 4.794609154146e-12 -2.488009833581e-04 0.000000000000e+00 1.053579330067e-10 0.000000000000e+00 
8.000000000000e-03 0.000000000000e+00 1.013250000000e+05 1.013250000000e+05 9.999999999930e-01 6.979528066609e-12 -2.465983156602e-04 0.000000000000e+00 1.200872707048e-10 0.000000000000e+00 
9.000000000000e-03 0.000000000000e+00 1.013250000000e+05 1.013250000000e+05 9.999999999903e-01 9.726996985648e-12 -2.444180019126e-04 0.000000000000e+00 1.346658897127e-10 0.000000000000e+00 
1.000000000000e-02 0.000000000000e+00 1.013250000000e+05 1.013250000000e+05 9.999999999869e-01 1.309485853085e-11 -2.422599516075e-04 0.000000000000e+00 1.490944323628e-10 0.000000000000e+00 
2.000000000000e-02 0.000000000000e+00 1.013250000000e+05 1.013250000000e+05 9.999999998684e-01 1.315741959829e-10 -2.226863406298e-04 0.000000000000e+00 2.799062821129e-10 0.000000000000e+00 
3.000000000000e-02 0.000000000000e+00 1.013250000000e+05 1.013250000000e+05 9.999999996837e-01 3.162752282293e-10 -2.185789851222e-04 0.000000000000e+00 3.073527338594e-10 0.000000000000e+00 
4.000000000000e-02 0.000000000000e+00 1.013250000000e+05 1.013250000000e+05 9.999999994715e-01 5.285136772670e-10 -2.146207467499e-04 0.000000000000e+00 3.337877729108e-10 0.000000000000e+00 
5.000000000000e-02 0.000000000000e+00 1.013250000000e+05 1.013250000000e+05 9.999999992779e-01 7.220525288787e-10 -2.107207700953e-04 0.000000000000e+00 3.598196963807e-10 0.000000000000e+00 
6.000000000000e-02 0.000000000000e+00 1.013250000000e+05 1.013250000000e+05 9.999999990566e-01 9.433669401204e-10 -2.069201127670e-04 0.000000000000e+00 3.851947851984e-10 0.000000000000e+00 
7.000000000000e-02 0.000000000000e+00 1.013250000000e+05 1.013250000000e+05 9.999999988064e-01 1.193627863216e-09 -2.031994574432e-04 0.000000000000e+00 4.100318269534e-10 0.000000000000e+00 
8.000000000000e-02 0.000000000000e+00 1.013250000000e+05 1.013250000000e+05 9.999999985261e-01 1.473896116266e-09 -1.995569151879e-04 0.000000000000e+00 4.343436503050e-10 0.000000000000e+00 
9.000000000000e-02 0.000000000000e+00 1.013250000000e+05 1.013250000000e+05 9.999999982149e-01 1.785118497466e-09 -1.959906593236e-04 0.000000000000e+00 4.581426575777e-10 0.000000000000e+00 
1.000000000000e-01 0.000000000000e+00 1.013250000000e+05 1.013250000000e+05 9.999999978718e-01 2.128166975979e-09 -1.924991930117e-04 0.000000000000e+00 4.814390395601e-10 0.000000000000e+00 
2.000000000000e-01 0.000000000000e+00 1.013250000000e+05 1.013250000000e+05 9.999999913425e-01 8.657531691547e-09 -1.636915280531e-04 0.000000000000e+00 6.735009179549e-10 0.000000000000e+00 
3.000000000000e-01 0.000000000000e+00 1.013250000000e+05 1.013250000000e+05 9.999999825873e-01 1.741268995659e-08 -1.462185021351e-04 0.000000000000e+00 7.898467164254e-10 0.000000000000e+00 
4.000000000000e-01 0.000000000000e+00 1.013250000000e+05 1.013250000000e+05 9.999999720477e-01 2.795226328178e-08 -1.330982022959e-04 0.000000000000e+00 8.771219173681e-10 0.000000000000e+00 
5.000000000000e-01 0.000000000000e+00 1.013250000000e+05 1.013250000000e+05 9.999999601133e-01 3.988672414579e-08 -1.229434959710e-04 0.000000000000e+00 9.446056836291e-10 0.000000000000e+00 
6.000000000000e-01 0.000000000000e+00 1.013250000000e+05 1.013250000000e+05 9.999999470733e-01 5.292669091883e-08 -1.147278951294e-04 0.000000000000e+00 9.991530326172e-10 0.000000000000e+00 
7.000000000000e-01 0.000000000000e+00 1.013250000000e+05 1.013250000000e+05 9.999999331075e-01 6.689252141090e-08 -1.076736923079e-04 0.000000000000e+00 1.045950457812e-09 0.000000000000e+00 
8.000000000000e-01 0.000000000000e+00 1.013250000000e+05 1.013250000000e+05 9.999999183721e-01 8.162794162825e-08 -1.015564575698e-04 0.000000000000e+00 1.086498030248e-09 0.000000000000e+00 
9.000000000000e-01 0.000000000000e+00 1.013250000000e+05 1.013250000000e+05 9.999999030020e-01 9.699802849816e-08 -9.620731858196e-05 0.000000000000e+00 1.121924063439e-09 0.000000000000e+00 
1.000000000000e+00 0.000000000000e+00 1.013250000000e+05 1.013250000000e+05 9.999998871050e-01 1.128949878026e-07 -9.145994131457e-05 0.000000000000e+00 1.153338289137e-09 0.000000000000e+00 
2.000000000000e+00 0.000000000000e+00 1.013250000000e+05 1.013250000000e+05 9.999997165434e-01 2.834565953069e-07 -6.716397385323e-05 0.000000000000e+00 1.313214391618e-09 0.000000000000e+00 
3.000000000000e+00 0.000000000000e+00 1.013250000000e+05 1.013250000000e+05 9.999995466859e-01 4.533140708363e-07 -5.268582237357e-05 0.000000000000e+00 1.407800071944e-09 0.000000000000e+00 
4.000000000000e+00 0.000000000000e+00 1.013250000000e+05 1.013250000000e+05 9.999993826266e-01 6.173733897441e-07 -4.331413861723e-05 0.000000000000e+00 1.468509863253e-09 0.000000000000e+00 
5.000000000000e+00 0.000000000000e+00 1.013250000000e+05 1.013250000000e+05 9.999992268051e-01 7.731948750145e-07 -3.717012997434e-05 0.000000000000e+00 1.507865101881e-09 0.000000000000e+00 
6.000000000000e+00 0.000000000000e+00 1.013250000000e+05 1.013250000000e+05 9.999990795138e-01 9.204862494450e-07 -3.289082806465e-05 0.000000000000e+00 1.534921817386e-09 0.000000000000e+00 
7.000000000000e+00 0.000000000000e+00 1.013250000000e+05 1.013250000000e+05 9.999989399995e-01 1.060000516251e-06 -2.966567949706e-05 0.000000000000e+00 1.555053949031e-09 0.000000000000e+00 
8.000000000000e+00 0.000000000000e+00 1.013250000000e+05 1.013250000000e+05 9.999988075314e-01 1.192468649380e-06 -2.719575498962e-05 0.000000000000e+00 1.570239497995e-09 0.000000000000e+00 
9.000000000000e+00 0.000000000000e+00 1.013250000000e+05 1.013250000000e+05 9.999986813828e-01 1.318617167678e-06 -2.527326211866e-05 0.000000000000e+00 1.581850977215e-09 0.000000000000e+00 
1.000000000000e+01 0.000000000000e+00 1.013250000000e+05 1.013250000000e+05 9.999985608322e-01 1.439167822470e-06 -2.375151113264e-05 0.000000000000e+00 1.590855172235e-09 0.000000000000e+00 
1.100000000000e+01 0.000000000000e+00 1.013250000000e+05 1.013250000000e+05 9.999984451801e-01 1.554819929250e-06 -2.253301537955e-05 0.000000000000e+00 1.597892537612e-09 0.000000000000e+00 
1.200000000000e+01 0.000000000000e+00 1.013250000000e+05 1.013250000000e+05 9.999983337068e-01 1.666293214742e-06 -2.153511062848e-05 0.000000000000e+00 1.603504862697e-09 0.000000000000e+00 
1.300000000000e+01 0.000000000000e+00 1.013250000000e+05 1.013250000000e+05 9.999982256941e-01 1.774305946167e-06 -2.070464681401e-05 0.000000000000e+00 1.608038179434e-09 0.000000000000e+00 
1.400000000000e+01 0.000000000000e+00 1.013250000000e+05 1.013250000000e+05 9.999981204453e-01 1.879554693884e-06 -2.001392034242e-05 0.000000000000e+00 1.611670089808e-09 0.000000000000e+00 
1.500000000000e+01 0.000000000000e+00 1.013250000000e+05 1.013250000000e+05 9.999980172150e-01 1.982785041488e-06 -1.942169180383e-05 0.000000000000e+00 1.614667222917e-09 0.000000000000e+00 
1.600000000000e+01 0.000000000000e+00 1.013250000000e+05 1.013250000000e+05 9.999979152513e-01 2.084748747411e-06 -1.890863082346e-05 0.000000000000e+00 1.617151003683e-09 0.000000000000e+00 
1.700000000000e+01 0.000000000000e+00 1.013250000000e+05 1.013250000000e+05 9.999978137858e-01 2.186214156152e-06 -1.845789160888e-05 0.000000000000e+00 1.619226220619e-09 0.000000000000e+00 
1.800000000000e+01 0.000000000000e+00 1.013250000000e+05 1.013250000000e+05 9.999977120375e-01 2.287962451497e-06 -1.805645284527e-05 0.000000000000e+00 1.620972186895e-09 0.000000000000e+00 
1.900000000000e+01 0.000000000000e+00 1.013250000000e+05 1.013250000000e+05 9.999976092186e-01 2.390781448147e-06 -1.769495200460e-05 0.000000000000e+00 1.622443899577e-09 0.000000000000e+00 
2.000000000000e+01 0.000000000000e+00 1.013250000000e+05 1.013250000000e+05 9.999975045465e-01 2.495453485407e-06 -1.736834964419e-05 0.000000000000e+00 1.623667746445e-09 0.000000000000e+00 
2.100000000000e+01 0.000000000000e+00 1.013250000000e+05 1.013250000000e+05 9.999973972369e-01 2.602763109927e-06 -1.706810350326e-05 0.000000000000e+00 1.624693311436e-09 0.000000000000e+00 
2.200000000000e+01 0.000000000000e+00 1.013250000000e+05 1.013250000000e+05 9.999972865235e-01 2.713476460858e-06 -1.679079772553e-05 0.000000000000e+00 1.625536362688e-09 0.000000000000e+00 
2.300000000000e+01 0.000000000000e+00 1.013250000000e+05 1.013250000000e+05 9.999971716621e-01 2.828337915428e-06 -1.653254914296e-05 0.000000000000e+00 1.626215956534e-09 0.000000000000e+00 
2.400000000000e+01 0.000000000000e+00 1.013250000000e+05 1.013250000000e+05 9.999970519367e-01 2.948063273944e-06 -1.628967194479e-05 0.000000000000e+00 1.626750092181e-09 0.000000000000e+00 
2.500000000000e+01 0.000000000000e+00 1.013250000000e+05 1.013250000000e+05 9.999969266725e-01 3.073327545788e-06 -1.606029677908e-05 0.000000000000e+00 1.627145102610e-09 0.000000000000e+00 
2.600000000000e+01 0.000000000000e+00 1.013250000000e+05 1.013250000000e+05 9.999967952408e-01 3.204759248643e-06 -1.584274791045e-05 0.000000000000e+00 1.627406454742e-09 0.000000000000e+00 
2.700000000000e+01 0.000000000000e+00 1.013250000000e+05 1.013250000000e+05 9.999966570667e-01 3.342933293182e-06 -1.563559294541e-05 0.000000000000e+00 1.627538482807e-09 0.000000000000e+00 
2.800000000000e+01 0.000000000000e+00 1.013250000000e+05 1.013250000000e+05 9.999965116333e-01 3.488366694393e-06 -1.543793400556e-05 0.000000000000e+00 1.627542497988e-09 0.000000000000e+00 
2.900000000000e+01 0.000000000000e+00 1.013250000000e+05 1.013250000000e+05 9.999963584851e-01 3.641514934261e-06 -1.524860491359e-05 0.000000000000e+00 1.627422140955e-09 0.000000000000e+00 
3.000000000000e+01 0.000000000000e+00 1.013250000000e+05 1.013250000000e+05 9.999961972295e-01 3.802770539019e-06 -1.506702006867e-05 0.000000000000e+00 1.627177769569e-09 0.000000000000e+00 
3.100000000000e+01 0.000000000000e+00 1.013250000000e+05 1.013250000000e+05 9.999960275383e-01 3.972461666168e-06 -1.489350354591e-05 0.000000000000e+00 1.626804289555e-09 0.000000000000e+00 
3.200000000000e+01 0.000000000000e+00 1.013250000000e+05 1.013250000000e+05 9.999958491433e-01 4.150856711238e-06 -1.472566519217e-05 0.000000000000e+00 1.626315128687e-09 0.000000000000e+00 
3.300000000000e+01 0.000000000000e+00 1.013250000000e+05 1.013250000000e+05 9.999956618323e-01 4.338167719498e-06 -1.456295406896e-05 0.000000000000e+00 1.625712032744e-09 0.000000000000e+00 
3.400000000000e+01 0.000000000000e+00 1.013250000000e+05 1.013250000000e+05 9.999954654535e-01 4.534546467649e-06 -1.440521248531e-05 0.000000000000e+00 1.624994682441e-09 0.000000000000e+00 
3.500000000000e+01 0.000000000000e+00 1.013250000000e+05 1.013250000000e+05 9.999952599165e-01 4.740083502819e-06 -1.425413220418e-05 0.000000000000e+00 1.624151050258e-09 0.000000000000e+00 
3.600000000000e+01 0.000000000000e+00 1.013250000000e+05 1.013250000000e+05 9.999950451775e-01 4.954822494518e-06 -1.410667043802e-05 0.000000000000e+00 1.623200909511e-09 0.000000000000e+00 
3.700000000000e+01 0.000000000000e+00 1.013250000000e+05 1.013250000000e+05 9.999948212484e-01 5.178751566914e-06 -1.396345910883e-05 0.000000000000e+00 1.622140175640e-09 0.000000000000e+00 
3.800000000000e+01 0.000000000000e+00 1.013250000000e+05 1.013250000000e+05 9.999945881921e-01 5.411807874944e-06 -1.382420474116e-05 0.000000000000e+00 1.620971354075e-09 0.000000000000e+00 
3.900000000000e+01 0.000000000000e+00 1.013250000000e+05 1.013250000000e+05 9.999943461191e-01 5.653880870815e-06 -1.368871805189e-05 0.000000000000e+00 1.619696687777e-09 0.000000000000e+00 
4.000000000000e+01 0.000000000000e+00 1.013250000000e+05 1.013250000000e+05 9.999940951835e-01 5.904816480440e-06 -1.355694533586e-05 0.000000000000e+00 1.618317911930e-09 0.000000000000e+00 
4.100000000000e+01 0.000000000000e+00 1.013250000000e+05 1.013250000000e+05 9.999938355781e-01 6.164421897159e-06 -1.342856642153e-05 0.000000000000e+00 1.616838874447e-09 0.000000000000e+00 
4.200000000000e+01 0.000000000000e+00 1.013250000000e+05 1.013250000000e+05 9.999935675282e-01 6.432471830742e-06 -1.330337660508e-05 0.000000000000e+00 1.615262949209e-09 0.000000000000e+00 
4.300000000000e+01 0.000000000000e+00 1.013250000000e+05 1.013250000000e+05 9.999932912864e-01 6.708713551240e-06 -1.318126968767e-05 0.000000000000e+00 1.613593103635e-09 0.000000000000e+00 
4.400000000000e+01 0.000000000000e+00 1.013250000000e+05 1.013250000000e+05 9.999930071259e-01 6.992874091560e-06 -1.306208065553e-05 0.000000000000e+00 1.611832877115e-09 0.000000000000e+00 
4.500000000000e+01 0.000000000000e+00 1.013250000000e+05 1.013250000000e+05 9.999927153334e-01 7.284666645901e-06 -1.294578389871e-05 0.000000000000e+00 1.609985009184e-09 0.000000000000e+00 
4.600000000000e+01 0.000000000000e+00 1.013250000000e+05 1.013250000000e+05 9.999924162064e-01 7.583793609545e-06 -1.283292967276e-05 0.000000000000e+00 1.608048518489e-09 0.000000000000e+00 
4.700000000000e+01 0.000000000000e+00 1.013250000000e+05 1.013250000000e+05 9.999921100430e-01 7.889956968432e-06 -1.272232656939e-05 0.000000000000e+00 1.606033973003e-09 0.000000000000e+00 
4.800000000000e+01 0.000000000000e+00 1.013250000000e+05 1.013250000000e+05 9.999917971452e-01 8.202854846928e-06 -1.261429136989e-05 0.000000000000e+00 1.603941977847e-09 0.000000000000e+00 
4.900000000000e+01 0.000000000000e+00 1.013250000000e+05 1.013250000000e+05 9.999914778169e-01 8.522183081672e-06 -1.250870134290e-05 0.000000000000e+00 1.601776072098e-09 0.000000000000e+00 
5.000000000000e+01 0.000000000000e+00 1.013250000000e+05 1.013250000000e+05 9.999911523664e-01 8.847633606868e-06 -1.240546120781e-05 0.000000000000e+00 1.599539648021e-09 0.000000000000e+00 
5.100000000000e+01 0.000000000000e+00 1.013250000000e+05 1.013250000000e+05 9.999908211081e-01 9.178891855477e-06 -1.230447504189e-05 0.000000000000e+00 1.597236160564e-09 0.000000000000e+00 
5.200000000000e+01 0.000000000000e+00 1.013250000000e+05 1.013250000000e+05 9.999904843646e-01 9.515635367219e-06 -1.220566270711e-05 0.000000000000e+00 1.594869030697e-09 0.000000000000e+00 
5.300000000000e+01 0.000000000000e+00 1.013250000000e+05 1.013250000000e+05 9.999901424679e-01 9.857532067503e-06 -1.210886942636e-05 0.000000000000e+00 1.592442260755e-09 0.000000000000e+00 
5.400000000000e+01 0.000000000000e+00 1.013250000000e+05 1.013250000000e+05 9.999897957586e-01 1.020424139941e-05 -1.201411301898e-05 0.000000000000e+00 1.589958785397e-09 0.000000000000e+00 
5.500000000000e+01 0.000000000000e+00 1.013250000000e+05 1.013250000000e+05 9.999894445836e-01 1.055541640382e-05 -1.192125691878e-05 0.000000000000e+00 1.587422620455e-09 0.000000000000e+00 
5.600000000000e+01 0.000000000000e+00 1.013250000000e+05 1.013250000000e+05 9.999890892929e-01 1.091070714865e-05 -1.183027970460e-05 0.000000000000e+00 1.584837045061e-09 0.000000000000e+00 
5.700000000000e+01 0.000000000000e+00 1.013250000000e+05 1.013250000000e+05 9.999887302353e-01 1.126976467503e-05 -1.174111796511e-05 0.000000000000e+00 1.582205608328e-09 0.000000000000e+00 
5.800000000000e+01 0.000000000000e+00 1.013250000000e+05 1.013250000000e+05 9.999883677535e-01 1.163224646716e-05 -1.165356477697e-05 0.000000000000e+00 1.579532753009e-09 0.000000000000e+00 
5.900000000000e+01 0.000000000000e+00 1.013250000000e+05 1.013250000000e+05 9.999880021800e-01 1.199782004968e-05 -1.156771580361e-05 0.000000000000e+00 1.576820826141e-09 0.000000000000e+00 
6.000000000000e+01 0.000000000000e+00 1.013250000000e+05 1.013250000000e+05 9.999876338322e-01 1.236616778610e-05 -1.148343119697e-05 0.000000000000e+00 1.574073602855e-09 0.000000000000e+00 
6.100000000000e+01 0.000000000000e+00 1.013250000000e+05 1.013250000000e+05 9.999872630095e-01 1.273699052773e-05 -1.140072184955e-05 0.000000000000e+00 1.571293693407e-09 0.000000000000e+00 
6.200000000000e+01 0.000000000000e+00 1.013250000000e+05 1.013250000000e+05 9.999868899923e-01 1.311000772308e-05 -1.131994452225e-05 0.000000000000e+00 1.568481247649e-09 0.000000000000e+00 
6.300000000000e+01 0.000000000000e+00 1.013250000000e+05 1.013250000000e+05 9.999865150412e-01 1.348495882247e-05 -1.124113344311e-05 0.000000000000e+00 1.565638374632e-09 0.000000000000e+00 
6.400000000000e+01 0.000000000000e+00 1.013250000000e+05 1.013250000000e+05 9.999861383989e-01 1.386160113992e-05 -1.116321979369e-05 0.000000000000e+00 1.562774337689e-09 0.000000000000e+00 
6.500000000000e+01 0.000000000000e+00 1.013250000000e+05 1.013250000000e+05 9.999857603013e-01 1.423969873260e-05 -1.108658975408e-05 0.000000000000e+00 1.559888692127e-09 0.000000000000e+00 
6.600000000000e+01 0.000000000000e+00 1.013250000000e+05 1.013250000000e+05 9.999853809826e-01 1.461901742783e-05 -1.101121888308e-05 0.000000000000e+00 1.556983700246e-09 0.000000000000e+00 
6.700000000000e+01 0.000000000000e+00 1.013250000000e+05 1.013250000000e+05 9.999850006807e-01 1.499931933879e-05 -1.093707071565e-05 0.000000000000e+00 1.554061737615e-09 0.000000000000e+00 
6.800000000000e+01 0.000000000000e+00 1.013250000000e+05 1.013250000000e+05 9.999846196403e-01 1.538035966686e-05 -1.086418480679e-05 0.000000000000e+00 1.551124737863e-09 0.000000000000e+00 
6.900000000000e+01 0.000000000000e+00 1.013250000000e+05 1.013250000000e+05 9.999842381134e-01 1.576188657926e-05 -1.079251218548e-05 0.000000000000e+00 1.548175284898e-09 0.000000000000e+00 
7.000000000000e+01 0.000000000000e+00 1.013250000000e+05 1.013250000000e+05 9.999838563569e-01 1.614364310998e-05 -1.072200600098e-05 0.000000000000e+00 1.545215994727e-09 0.000000000000e+00 
7.100000000000e+01 0.000000000000e+00 1.013250000000e+05 1.013250000000e+05 9.999834746281e-01 1.652537193109e-05 -1.065261864730e-05 0.000000000000e+00 1.542249492008e-09 0.000000000000e+00 
7.200000000000e+01 0.000000000000e+00 1.013250000000e+05 1.013250000000e+05 9.999830931794e-01 1.690682061239e-05 -1.058435671844e-05 0.000000000000e+00 1.539277998084e-09 0.000000000000e+00 
7.300000000000e+01 0.000000000000e+00 1.013250000000e+05 1.013250000000e+05 9.999827122527e-01 1.728774726151e-05 -1.051723409274e-05 0.000000000000e+00 1.536303591619e-09 0.000000000000e+00 
7.400000000000e+01 0.000000000000e+00 1.013250000000e+05 1.013250000000e+05 9.999823320750e-01 1.766792502678e-05 -1.045128093480e-05 0.000000000000e+00 1.533328108901e-09 0.000000000000e+00 
7.500000000000e+01 0.000000000000e+00 1.013250000000e+05 1.013250000000e+05 9.999819528525e-01 1.804714752052e-05 -1.038644271811e-05 0.000000000000e+00 1.530353764035e-09 0.000000000000e+00 
7.600000000000e+01 0.000000000000e+00 1.013250000000e+05 1.013250000000e+05 9.999815747687e-01 1.842523129325e-05 -1.032281261050e-05 0.000000000000e+00 1.527381585883e-09 0.000000000000e+00 
7.700000000000e+01 0.000000000000e+00 1.013250000000e+05 1.013250000000e+05 9.999811979813e-01 1.880201866578e-05 -1.026021159571e-05 0.000000000000e+00 1.524414176704e-09 0.000000000000e+00 
7.800000000000e+01 0.000000000000e+00 1.013250000000e+05 1.013250000000e+05 9.999808226216e-01 1.917737840185e-05 -1.019874211609e-05 0.000000000000e+00 1.521452035296e-09 0.000000000000e+00 
7.900000000000e+01 0.000000000000e+00 1.013250000000e+05 1.013250000000e+05 9.999804487942e-01 1.955120577102e-05 -1.013833875634e-05 0.000000000000e+00 1.518496535667e-09 0.000000000000e+00 
8.000000000000e+01 0.000000000000e+00 1.013250000000e+05 1.013250000000e+05 9.999800765779e-01 1.992342212320e-05 -1.007894651882e-05 0.000000000000e+00 1.515548748735e-09 0.000000000000e+00 
8.100000000000e+01 0.000000000000e+00 1.013250000000e+05 1.013250000000e+05 9.999797060301e-01 2.029396991765e-05 -1.002093329659e-05 0.000000000000e+00 1.512606751263e-09 0.000000000000e+00 
8.200000000000e+01 0.000000000000e+00 1.013250000000e+05 1.013250000000e+05 9.999793371951e-01 2.066280490687e-05 -9.963667998280e-06 0.000000000000e+00 1.509675126123e-09 0.000000000000e+00 
8.300000000000e+01 0.000000000000e+00 1.013250000000e+05 1.013250000000e+05 9.999789701157e-01 2.102988428676e-05 -9.907343299142e-06 0.000000000000e+00 1.506752980197e-09 0.000000000000e+00 
8.400000000000e+01 0.000000000000e+00 1.013250000000e+05 1.013250000000e+05 9.999786048481e-01 2.139515189414e-05 -9.851931565829e-06 0.000000000000e+00 1.503841001182e-09 0.000000000000e+00 
8.500000000000e+01 0.000000000000e+00 1.013250000000e+05 1.013250000000e+05 9.999782414685e-01 2.175853153086e-05 -9.797441766104e-06 0.000000000000e+00 1.500939814010e-09 0.000000000000e+00 
8.600000000000e+01 0.000000000000e+00 1.013250000000e+05 1.013250000000e+05 9.999778800786e-01 2.211992140022e-05 -9.743819287347e-06 0.000000000000e+00 1.498050695194e-09 0.000000000000e+00 
8.700000000000e+01 0.000000000000e+00 1.013250000000e+05 1.013250000000e+05 9.999775208042e-01 2.247919578036e-05 -9.691044201130e-06 0.000000000000e+00 1.495174905654e-09 0.000000000000e+00 
8.800000000000e+01 0.000000000000e+00 1.013250000000e+05 1.013250000000e+05 9.999771637881e-01 2.283621190546e-05 -9.638915938203e-06 0.000000000000e+00 1.492315057116e-09 0.000000000000e+00 
8.900000000000e+01 0.000000000000e+00 1.013250000000e+05 1.013250000000e+05 9.999768091820e-01 2.319081796798e-05 -9.587486002960e-06 0.000000000000e+00 1.489472171572e-09 0.000000000000e+00 
9.000000000000e+01 0.000000000000e+00 1.013250000000e+05 1.013250000000e+05 9.999764571380e-01 2.354286195883e-05 -9.536662631083e-06 0.000000000000e+00 1.486648223266e-09 0.000000000000e+00 
9.100000000000e+01 0.000000000000e+00 1.013250000000e+05 1.013250000000e+05 9.999761077991e-01 2.389220089993e-05 -9.486520328675e-06 0.000000000000e+00 1.483844002494e-09 0.000000000000e+00 
9.200000000000e+01 0.000000000000e+00 1.013250000000e+05 1.013250000000e+05 9.999757612915e-01 2.423870852641e-05 -9.437057126734e-06 0.000000000000e+00 1.481060656940e-09 0.000000000000e+00 
9.300000000000e+01 0.000000000000e+00 1.013250000000e+05 1.013250000000e+05 9.999754177180e-01 2.458228200641e-05 -9.388199721280e-06 0.000000000000e+00 1.478299596891e-09 0.000000000000e+00 
9.400000000000e+01 0.000000000000e+00 1.013250000000e+05 1.013250000000e+05 9.999750771561e-01 2.492284388644e-05 -9.339959217356e-06 0.000000000000e+00 1.475561445309e-09 0.000000000000e+00 
9.500000000000e+01 0.000000000000e+00 1.013250000000e+05 1.013250000000e+05 9.999747396543e-01 2.526034571237e-05 -9.292368678086e-06 0.000000000000e+00 1.472846418905e-09 0.000000000000e+00 
9.600000000000e+01 0.000000000000e+00 1.013250000000e+05 1.013250000000e+05 9.999744052331e-01 2.559476688857e-05 -9.245342714117e-06 0.000000000000e+00 1.470155269912e-09 0.000000000000e+00 
9.700000000000e+01 0.000000000000e+00 1.013250000000e+05 1.013250000000e+05 9.999740738861e-01 2.592611390084e-05 -9.198929413641e-06 0.000000000000e+00 1.467487622327e-09 0.000000000000e+00 
9.800000000000e+01 0.000000000000e+00 1.013250000000e+05 1.013250000000e+05 9.999737455810e-01 2.625441898574e-05 -9.153092812533e-06 0.000000000000e+00 1.464843426190e-09 0.000000000000e+00 
9.900000000000e+01 0.000000000000e+00 1.013250000000e+05 1.013250000000e+05 9.999734202627e-01 2.657973730247e-05 -9.107791466452e-06 0.000000000000e+00 1.462222462086e-09 0.000000000000e+00 
1.000000000000e+02 0.000000000000e+00 1.013250000000e+05 1.013250000000e+05 9.999730978585e-01 2.690214154011e-05 -9.063592473686e-06 0.000000000000e+00 1.459620315732e-09 0.000000000000e+00 
1.010000000000e+02 0.000000000000e+00 1.013250000000e+05 1.013250000000e+05 9.999727782745e-01 2.722172551584e-05 -9.019555257945e-06 0.000000000000e+00 1.457042386148e-09 0.000000000000e+00 
1.020000000000e+02 0.000000000000e+00 1.013250000000e+05 1.013250000000e+05 9.999724614063e-01 2.753859365812e-05 -8.976037843032e-06 0.000000000000e+00 1.454485361057e-09 0.000000000000e+00 
1.030000000000e+02 0.000000000000e+00 1.013250000000e+05 1.013250000000e+05 9.999721471465e-01 2.785285345897e-05 -8.933296093743e-06 0.000000000000e+00 1.451946578332e-09 0.000000000000e+00 
1.040000000000e+02 0.000000000000e+00 1.013250000000e+05 1.013250000000e+05 9.999718354023e-01 2.816459765898e-05 -8.890883259604e-06 0.000000000000e+00 1.449428170141e-09 0.000000000000e+00 
1.050000000000e+02 0.000000000000e+00 1.013250000000e+05 1.013250000000e+05 9.999715261167e-01 2.847388328686e-05 -8.848901721480e-06 0.000000000000e+00 1.446928945899e-09 0.000000000000e+00 
1.060000000000e+02 0.000000000000e+00 1.013250000000e+05 1.013250000000e+05 9.999712192830e-01 2.878071703649e-05 -8.807364102810e-06 0.000000000000e+00 1.444448762479e-09 0.000000000000e+00 
1.070000000000e+02 0.000000000000e+00 1.013250000000e+05 1.013250000000e+05 9.999709149474e-01 2.908505256616e-05 -8.766258392093e-06 0.000000000000e+00 1.441988116491e-09 0.000000000000e+00 
1.080000000000e+02 0.000000000000e+00 1.013250000000e+05 1.013250000000e+05 9.999706132019e-01 2.938679805098e-05 -8.725582425720e-06 0.000000000000e+00 1.439547847770e-09 0.000000000000e+00 
1.090000000000e+02 0.000000000000e+00 1.013250000000e+05 1.013250000000e+05 9.999703141710e-01 2.968582895835e-05 -8.685371923179e-06 0.000000000000e+00 1.437128838526e-09 0.000000000000e+00 
1.100000000000e+02 0.000000000000e+00 1.013250000000e+05 1.013250000000e+05 9.999700179948e-01 2.998200517268e-05 -8.645581611567e-06 0.000000000000e+00 1.434732648305e-09 0.000000000000e+00 
1.110000000000e+02 0.000000000000e+00 1.013250000000e+05 1.013250000000e+05 9.999697248125e-01 3.027518750209e-05 -8.606239161677e-06 0.000000000000e+00 1.432360344509e-09 0.000000000000e+00 
1.120000000000e+02 0.000000000000e+00 1.013250000000e+05 1.013250000000e+05 9.999694347468e-01 3.056525319012e-05 -8.567333372553e-06 0.000000000000e+00 1.430013104908e-09 0.000000000000e+00 
1.130000000000e+02 0.000000000000e+00 1.013250000000e+05 1.013250000000e+05 9.999691478954e-01 3.085210455844e-05 -8.528840443304e-06 0.000000000000e+00 1.427691965706e-09 0.000000000000e+00 
1.140000000000e+02 0.000000000000e+00 1.013250000000e+05 1.013250000000e+05 9.999688643231e-01 3.113567690516e-05 -8.490752774026e-06 0.000000000000e+00 1.425397559465e-09 0.000000000000e+00 
1.150000000000e+02 0.000000000000e+00 1.013250000000e+05 1.013250000000e+05 9.999685840604e-01 3.141593961753e-05 -8.453114828436e-06 0.000000000000e+00 1.423129867071e-09 0.000000000000e+00 
1.160000000000e+02 0.000000000000e+00 1.013250000000e+05 1.013250000000e+05 9.999683071017e-01 3.169289834637e-05 -8.415848925402e-06 0.000000000000e+00 1.420889354255e-09 0.000000000000e+00 
1.170000000000e+02 0.000000000000e+00 1.013250000000e+05 1.013250000000e+05 9.999680334085e-01 3.196659150384e-05 -8.378977743292e-06 0.000000000000e+00 1.418675526482e-09 0.000000000000e+00 
1.180000000000e+02 0.000000000000e+00 1.013250000000e+05 1.013250000000e+05 9.999677629126e-01 3.223708742539e-05 -8.342510889082e-06 0.000000000000e+00 1.416487707258e-09 0.000000000000e+00 
1.190000000000e+02 0.000000000000e+00 1.013250000000e+05 1.013250000000e+05 9.999674955201e-01 3.250447991165e-05 -8.306371368166e-06 0.000000000000e+00 1.414325565917e-09 0.000000000000e+00 
1.200000000000e+02 0.000000000000e+00 1.013250000000e+05 1.013250000000e+05 9.999672311157e-01 3.276888429560e-05 -8.270702205997e-06 0.000000000000e+00 1.412187118337e-09 0.000000000000e+00 
