 TITLE = "Profiles along polylines"
 VARIABLES = "DIST" "PRESSURE1" "PRESSURE2" "PRESSURE_W" "SATURATION1" SATURATION2 "VELOCITY_X1" "VELOCITY_Y1" "VELOCITY_X2" "VELOCITY_Y2" 
 ZONE T="TIME=0.000000000000e+00"
0.000000000000e+00 0.000000000000e+00 1.013250000000e+05 1.013250000000e+05 1.000000000000e+00 2.220446049250e-16 0.000000000000e+00 0.000000000000e+00 0.000000000000e+00 0.000000000000e+00 
5.263157894737e-02 0.000000000000e+00 1.013250000000e+05 1.013250000000e+05 1.000000000000e+00 2.220446049250e-16 0.000000000000e+00 0.000000000000e+00 0.000000000000e+00 0.000000000000e+00 
1.052631578947e-01 0.000000000000e+00 1.013250000000e+05 1.013250000000e+05 1.000000000000e+00 2.220446049250e-16 0.000000000000e+00 0.000000000000e+00 0.000000000000e+00 0.000000000000e+00 
1.578947368421e-01 0.000000000000e+00 1.013250000000e+05 1.013250000000e+05 1.000000000000e+00 2.220446049250e-16 0.000000000000e+00 0.000000000000e+00 0.000000000000e+00 0.000000000000e+00 
2.105263157895e-01 0.000000000000e+00 1.013250000000e+05 1.013250000000e+05 1.000000000000e+00 2.220446049250e-16 0.000000000000e+00 0.000000000000e+00 0.000000000000e+00 0.000000000000e+00 
2.631578947368e-01 0.000000000000e+00 1.013250000000e+05 1.013250000000e+05 1.000000000000e+00 2.220446049250e-16 0.000000000000e+00 0.000000000000e+00 0.000000000000e+00 0.000000000000e+00 
3.157894736842e-01 0.000000000000e+00 1.013250000000e+05 1.013250000000e+05 1.000000000000e+00 2.220446049250e-16 0.000000000000e+00 0.000000000000e+00 0.000000000000e+00 0.000000000000e+00 
3.684210526316e-01 0.000000000000e+00 1.013250000000e+05 1.013250000000e+05 1.000000000000e+00 2.220446049250e-16 0.000000000000e+00 0.000000000000e+00 0.000000000000e+00 0.000000000000e+00 
4.210526315789e-01 0.000000000000e+00 1.013250000000e+05 1.013250000000e+05 1.000000000000e+00 2.220446049250e-16 0.000000000000e+00 0.000000000000e+00 0.000000000000e+00 0.000000000000e+00 
4.736842105263e-01 0.000000000000e+00 1.013250000000e+05 1.013250000000e+05 1.000000000000e+00 2.220446049250e-16 0.000000000000e+00 0.000000000000e+00 0.000000000000e+00 0.000000000000e+00 
5.263157894737e-01 0.000000000000e+00 1.013250000000e+05 1.013250000000e+05 1.000000000000e+00 2.220446049250e-16 0.000000000000e+00 0.000000000000e+00 0.000000000000e+00 0.000000000000e+00 
5.789473684210e-01 0.000000000000e+00 1.013250000000e+05 1.013250000000e+05 1.000000000000e+00 2.220446049250e-16 0.000000000000e+00 0.000000000000e+00 0.000000000000e+00 0.000000000000e+00 
6.315789473684e-01 0.000000000000e+00 1.013250000000e+05 1.013250000000e+05 1.000000000000e+00 2.220446049250e-16 0.000000000000e+00 0.000000000000e+00 0.000000000000e+00 0.000000000000e+00 
6.842105263158e-01 0.000000000000e+00 1.013250000000e+05 1.013250000000e+05 1.000000000000e+00 2.220446049250e-16 0.000000000000e+00 0.000000000000e+00 0.000000000000e+00 0.000000000000e+00 
7.368421052631e-01 0.000000000000e+00 1.013250000000e+05 1.013250000000e+05 1.000000000000e+00 2.220446049250e-16 0.000000000000e+00 0.000000000000e+00 0.000000000000e+00 0.000000000000e+00 
7.894736842105e-01 0.000000000000e+00 1.013250000000e+05 1.013250000000e+05 1.000000000000e+00 2.220446049250e-16 0.000000000000e+00 0.000000000000e+00 0.000000000000e+00 0.000000000000e+00 
8.421052631579e-01 0.000000000000e+00 1.013250000000e+05 1.013250000000e+05 1.000000000000e+00 2.220446049250e-16 0.000000000000e+00 0.000000000000e+00 0.000000000000e+00 0.000000000000e+00 
8.947368421053e-01 0.000000000000e+00 1.013250000000e+05 1.013250000000e+05 1.000000000000e+00 2.220446049250e-16 0.000000000000e+00 0.000000000000e+00 0.000000000000e+00 0.000000000000e+00 
9.473684210526e-01 0.000000000000e+00 1.013250000000e+05 1.013250000000e+05 1.000000000000e+00 2.220446049250e-16 0.000000000000e+00 0.000000000000e+00 0.000000000000e+00 0.000000000000e+00 
1.000000000000e+00 0.000000000000e+00 1.013250000000e+05 1.013250000000e+05 1.000000000000e+00 2.220446049250e-16 0.000000000000e+00 0.000000000000e+00 0.000000000000e+00 0.000000000000e+00 
 TITLE = "Profiles along polylines"
 VARIABLES = "DIST" "PRESSURE1" "PRESSURE2" "PRESSURE_W" "SATURATION1" SATURATION2 "VELOCITY_X1" "VELOCITY_Y1" "VELOCITY_X2" "VELOCITY_Y2" 
 ZONE T="TIME=1.000000000000e-03"
0.000000000000e+00 0.000000000000e+00 1.013250000000e+05 1.013250000000e+05 1.000000000000e+00 2.775557561563e-14 -2.625029807137e-04 0.000000000000e+00 1.370390146472e-11 0.000000000000e+00 
5.263157894737e-02 7.347065839540e-08 1.013203859274e+05 1.013203859273e+05 1.000000000000e+00 2.775557561563e-14 -2.625029804957e-04 0.000000000000e+00 1.370264566462e-11 0.000000000000e+00 
1.052631578947e-01 7.351410625635e-08 1.013157718539e+05 1.013157718538e+05 1.000000000000e+00 2.775557561563e-14 -2.625029800596e-04 0.000000000000e+00 1.370112791988e-11 0.000000000000e+00 
1.578947368421e-01 7.349033442045e-08 1.013111577795e+05 1.013111577794e+05 1.000000000000e+00 2.775557561563e-14 -2.625029796231e-04 0.000000000000e+00 1.370060402734e-11 0.000000000000e+00 
2.105263157895e-01 7.347040227581e-08 1.013065437042e+05 1.013065437042e+05 1.000000000000e+00 2.775557561563e-14 -2.625029791863e-04 0.000000000000e+00 1.370008012779e-11 0.000000000000e+00 
2.631578947368e-01 7.350650181795e-08 1.013019296282e+05 1.013019296281e+05 1.000000000000e+00 2.775557561563e-14 -2.625029787491e-04 0.000000000000e+00 1.369955622136e-11 0.000000000000e+00 
3.157894736842e-01 7.363840913359e-08 1.012973155512e+05 1.012973155511e+05 1.000000000000e+00 2.786659791809e-14 -2.625029783113e-04 0.000000000000e+00 1.369903230977e-11 0.000000000000e+00 
3.684210526316e-01 7.383769178338e-08 1.012927014734e+05 1.012927014733e+05 1.000000000000e+00 2.797762022055e-14 -2.625029778726e-04 0.000000000000e+00 1.369850839498e-11 0.000000000000e+00 
4.210526315789e-01 7.395852635734e-08 1.012880873948e+05 1.012880873947e+05 1.000000000000e+00 2.797762022055e-14 -2.625029774332e-04 0.000000000000e+00 1.369798447663e-11 0.000000000000e+00 
4.736842105263e-01 7.378188190776e-08 1.012834733153e+05 1.012834733152e+05 1.000000000000e+00 2.786659791809e-14 -2.625029769939e-04 0.000000000000e+00 1.369746054828e-11 0.000000000000e+00 
5.263157894737e-01 7.325086086337e-08 1.012788592349e+05 1.012788592348e+05 1.000000000000e+00 2.764455331317e-14 -2.625029765563e-04 0.000000000000e+00 1.369693659897e-11 0.000000000000e+00 
5.789473684210e-01 7.280507190559e-08 1.012742451537e+05 1.012742451536e+05 1.000000000000e+00 2.775557561563e-14 -2.625029761206e-04 0.000000000000e+00 1.369641262569e-11 0.000000000000e+00 
6.315789473684e-01 7.323455575016e-08 1.012696310716e+05 1.012696310716e+05 1.000000000000e+00 2.797762022055e-14 -2.625029756840e-04 0.000000000000e+00 1.369588864861e-11 0.000000000000e+00 
6.842105263158e-01 7.443822098708e-08 1.012650169887e+05 1.012650169886e+05 1.000000000000e+00 2.819966482548e-14 -2.625029752425e-04 0.000000000000e+00 1.369536469731e-11 0.000000000000e+00 
7.368421052631e-01 7.460934953624e-08 1.012604029049e+05 1.012604029049e+05 1.000000000000e+00 2.797762022055e-14 -2.625029747993e-04 0.000000000000e+00 1.369484075317e-11 0.000000000000e+00 
7.894736842105e-01 7.310728627386e-08 1.012557888203e+05 1.012557888202e+05 1.000000000000e+00 3.241851231905e-14 -2.625029743633e-04 0.000000000000e+00 1.369431670312e-11 0.000000000000e+00 
8.421052631579e-01 9.852248329471e-08 1.012511747348e+05 1.012511747347e+05 9.999999999923e-01 7.671863144765e-12 -2.625029738545e-04 0.000000000000e+00 1.369372406124e-11 0.000000000000e+00 
8.947368421053e-01 4.038544999834e-05 1.012465606885e+05 1.012465606481e+05 9.999999885910e-01 1.140900041108e-08 -2.625028505705e-04 0.000000000000e+00 1.359088682790e-11 0.000000000000e+00 
9.473684210526e-01 6.016383250956e-02 1.012420062705e+05 1.012419461066e+05 9.999832465209e-01 1.675347913621e-05 -2.623195806228e-04 0.000000000000e+00 -1.367517621075e-10 0.000000000000e+00 
1.000000000000e+00 8.834636441864e+01 1.013250000000e+05 1.012366536356e+05 9.999665158444e-01 3.348415557825e-05 -2.621364336654e-04 0.000000000000e+00 -2.869919043794e-10 0.000000000000e+00 
 TITLE = "Profiles along polylines"
 VARIABLES = "DIST" "PRESSURE1" "PRESSURE2" "PRESSURE_W" "SATURATION1" SATURATION2 "VELOCITY_X1" "VELOCITY_Y1" "VELOCITY_X2" "VELOCITY_Y2" 
 ZONE T="TIME=5.000000000000e+00"
0.000000000000e+00 0.000000000000e+00 1.013250000000e+05 1.013250000000e+05 9.999992268051e-01 7.731948750145e-07 -3.717012997434e-05 0.000000000000e+00 1.507865101881e-09 0.000000000000e+00 
5.263157894737e-02 2.040038191303e+00 1.008831807607e+05 1.008811407225e+05 9.999990437222e-01 9.562777780747e-07 -3.716891804036e-05 0.000000000000e+00 1.506316718839e-09 0.000000000000e+00 
1.052631578947e-01 3.006149391913e+00 1.004402829255e+05 1.004372767761e+05 9.999987791040e-01 1.220895966658e-06 -3.716570412191e-05 0.000000000000e+00 1.502371902373e-09 0.000000000000e+00 
1.578947368421e-01 3.436403398790e+00 9.999684145299e+04 9.999340504959e+04 9.999986621040e-01 1.337895990328e-06 -3.716126433209e-05 0.000000000000e+00 1.497078219378e-09 0.000000000000e+00 
2.105263157895e-01 3.623547474852e+00 9.955314737727e+04 9.954952382980e+04 9.999986103214e-01 1.389678591091e-06 -3.715617010635e-05 0.000000000000e+00 1.491042004692e-09 0.000000000000e+00 
2.631578947368e-01 3.709655295957e+00 9.910934191384e+04 9.910563225855e+04 9.999985843414e-01 1.415658642756e-06 -3.715074834538e-05 0.000000000000e+00 1.484652579372e-09 0.000000000000e+00 
3.157894736842e-01 3.760641755763e+00 9.866549055092e+04 9.866172990917e+04 9.999985645683e-01 1.435431718266e-06 -3.714514976268e-05 0.000000000000e+00 1.478088937755e-09 0.000000000000e+00 
3.684210526316e-01 3.813995949773e+00 9.822163051301e+04 9.821781651706e+04 9.999985352001e-01 1.464799873840e-06 -3.713940373469e-05 0.000000000000e+00 1.471387181684e-09 0.000000000000e+00 
4.210526315789e-01 3.915614740565e+00 9.777780738966e+04 9.777389177492e+04 9.999984668889e-01 1.533111095187e-06 -3.713340939556e-05 0.000000000000e+00 1.464433063753e-09 0.000000000000e+00 
4.736842105263e-01 4.174467817662e+00 9.733412950170e+04 9.732995503388e+04 9.999982819082e-01 1.718091765190e-06 -3.712680546624e-05 0.000000000000e+00 1.456815972439e-09 0.000000000000e+00 
5.263157894737e-01 4.891740277833e+00 9.689089634213e+04 9.688600460185e+04 9.999977664066e-01 2.233593379031e-06 -3.711857520019e-05 0.000000000000e+00 1.447385003752e-09 0.000000000000e+00 
5.789473684210e-01 6.894721182439e+00 9.644893065252e+04 9.644203593134e+04 9.999963485284e-01 3.651471626731e-06 -3.710604448343e-05 0.000000000000e+00 1.433128410462e-09 0.000000000000e+00 
6.315789473684e-01 1.237374997536e+01 9.601041082927e+04 9.599803707930e+04 9.999925687486e-01 7.431251387913e-06 -3.708258229996e-05 0.000000000000e+00 1.406617146204e-09 0.000000000000e+00 
6.842105263158e-01 2.684026225619e+01 9.558081835302e+04 9.555397809077e+04 9.999829279768e-01 1.707202319856e-05 -3.703295055227e-05 0.000000000000e+00 1.350867757645e-09 0.000000000000e+00 
7.368421052631e-01 6.324719294823e+01 9.517303586920e+04 9.510978867625e+04 9.999597367768e-01 4.026322323103e-05 -3.692583546586e-05 0.000000000000e+00 1.231140393898e-09 0.000000000000e+00 
7.894736842105e-01 1.492180361010e+02 9.481453714636e+04 9.466531911026e+04 9.999082089379e-01 9.179106211532e-05 -3.670817878373e-05 0.000000000000e+00 9.887526990620e-10 0.000000000000e+00 
8.421052631579e-01 3.351547356747e+02 9.455545133362e+04 9.422029659795e+04 9.998062823175e-01 1.937176824638e-04 -3.632544046075e-05 0.000000000000e+00 5.634659628667e-10 0.000000000000e+00 
8.947368421053e-01 6.870751921042e+02 9.446144017817e+04 9.377436498607e+04 9.992494947936e-01 7.505052064147e-04 -3.538709758576e-05 0.000000000000e+00 -4.642162745865e-10 0.000000000000e+00 
9.473684210526e-01 1.517056773949e+03 9.484289940326e+04 9.332584262931e+04 9.710290093242e-01 2.897099067580e-02 -2.530592952130e-05 0.000000000000e+00 -1.173894369128e-08 0.000000000000e+00 
1.000000000000e+00 8.480175343212e+03 1.013250000000e+05 9.284482465679e+04 9.432986206927e-01 5.670137930734e-02 -1.592489999559e-05 0.000000000000e+00 -2.225049997868e-08 0.000000000000e+00 
 TITLE = "Profiles along polylines"
 VARIABLES = "DIST" "PRESSURE1" "PRESSURE2" "PRESSURE_W" "SATURATION1" SATURATION2 "VELOCITY_X1" "VELOCITY_Y1" "VELOCITY_X2" "VELOCITY_Y2" 
 ZONE T="TIME=1.000000000000e+01"
0.000000000000e+00 0.000000000000e+00 1.013250000000e+05 1.013250000000e+05 9.999985608322e-01 1.439167822470e-06 -2.375151113264e-05 0.000000000000e+00 1.590855172235e-09 0.000000000000e+00 
5.263157894737e-02 3.797176387166e+00 1.008587807695e+05 1.008549835931e+05 9.999981237247e-01 1.876275285140e-06 -2.375057442971e-05 0.000000000000e+00 1.589637750770e-09 0.000000000000e+00 
1.052631578947e-01 6.103751214089e+00 1.003910673711e+05 1.003849636199e+05 9.999974320120e-01 2.567988036661e-06 -2.374791980089e-05 0.000000000000e+00 1.586358446155e-09 0.000000000000e+00 
1.578947368421e-01 7.447279295528e+00 9.992238427801e+04 9.991493699871e+04 9.999970301594e-01 2.969840551037e-06 -2.374389457909e-05 0.000000000000e+00 1.581550658854e-09 0.000000000000e+00 
2.105263157895e-01 8.224289006274e+00 9.945312569998e+04 9.944490141098e+04 9.999967881489e-01 3.211851120177e-06 -2.373884690898e-05 0.000000000000e+00 1.575564774444e-09 0.000000000000e+00 
2.631578947368e-01 8.724346228778e+00 9.898357950419e+04 9.897485515796e+04 9.999966054778e-01 3.394522173572e-06 -2.373300573300e-05 0.000000000000e+00 1.568680418908e-09 0.000000000000e+00 
3.157894736842e-01 9.188226914501e+00 9.851398506005e+04 9.850479683314e+04 9.999963820441e-01 3.617955854907e-06 -2.372638061217e-05 0.000000000000e+00 1.560918129367e-09 0.000000000000e+00 
3.684210526316e-01 9.903384678132e+00 9.804462817931e+04 9.803472479463e+04 9.999959694509e-01 4.030549139555e-06 -2.371861734997e-05 0.000000000000e+00 1.551877294775e-09 0.000000000000e+00 
4.210526315789e-01 1.136544273844e+01 9.757600172671e+04 9.756463628398e+04 9.999950849812e-01 4.915018794849e-06 -2.370872235326e-05 0.000000000000e+00 1.540427034292e-09 0.000000000000e+00 
4.736842105263e-01 1.457064757497e+01 9.710909648828e+04 9.709452584071e+04 9.999931550845e-01 6.844915536819e-06 -2.369454168287e-05 0.000000000000e+00 1.524123594914e-09 0.000000000000e+00 
5.263157894737e-01 2.154932570694e+01 9.664593174617e+04 9.662438242046e+04 9.999890387054e-01 1.096129457467e-05 -2.367187345161e-05 0.000000000000e+00 1.498223219826e-09 0.000000000000e+00 
5.789473684210e-01 3.629239126406e+01 9.619047679369e+04 9.615418440242e+04 9.999805729404e-01 1.942705962210e-05 -2.363315756668e-05 0.000000000000e+00 1.454235560199e-09 0.000000000000e+00 
6.315789473684e-01 6.622236888518e+01 9.575011405419e+04 9.568389168530e+04 9.999639062851e-01 3.609371492475e-05 -2.356591500314e-05 0.000000000000e+00 1.378214356439e-09 0.000000000000e+00 
6.842105263158e-01 1.242407583401e+02 9.533767549047e+04 9.521343473213e+04 9.999326672819e-01 6.733271814330e-05 -2.345155169372e-05 0.000000000000e+00 1.249453580844e-09 0.000000000000e+00 
7.368421052631e-01 2.310676406110e+02 9.497376978291e+04 9.474270214230e+04 9.998771599323e-01 1.228400677475e-04 -2.326558579969e-05 0.000000000000e+00 1.040701812224e-09 0.000000000000e+00 
7.894736842105e-01 4.171478035598e+02 9.468867848709e+04 9.427153068354e+04 9.997838789343e-01 2.161210657028e-04 -2.298002562354e-05 0.000000000000e+00 7.205774744722e-10 0.000000000000e+00 
8.421052631579e-01 7.233026631978e+02 9.452300477812e+04 9.379970211492e+04 9.995385251240e-01 4.614748759786e-04 -2.256364311366e-05 0.000000000000e+00 2.565353165342e-10 0.000000000000e+00 
8.947368421053e-01 1.200322141986e+03 9.452727407229e+04 9.332695193030e+04 9.982725219608e-01 1.727478039224e-03 -2.136013413593e-05 0.000000000000e+00 -1.085577949106e-09 0.000000000000e+00 
9.473684210526e-01 2.344533365336e+03 9.519517590796e+04 9.285064254262e+04 9.648991162660e-01 3.510088373397e-02 -1.247066657013e-05 0.000000000000e+00 -1.159850348703e-08 0.000000000000e+00 
1.000000000000e+00 8.980340460353e+03 1.013250000000e+05 9.234465953965e+04 9.326043778009e-01 6.739562219907e-02 -4.539612770667e-06 0.000000000000e+00 -2.104138239252e-08 0.000000000000e+00 
 TITLE = "Profiles along polylines"
 VARIABLES = "DIST" "PRESSURE1" "PRESSURE2" "PRESSURE_W" "SATURATION1" SATURATION2 "VELOCITY_X1" "VELOCITY_Y1" "VELOCITY_X2" "VELOCITY_Y2" 
 ZONE T="TIME=2.000000000000e+01"
0.000000000000e+00 0.000000000000e+00 1.013250000000e+05 1.013250000000e+05 9.999975045465e-01 2.495453485407e-06 -1.736834964419e-05 0.000000000000e+00 1.623667746445e-09 0.000000000000e+00 
5.263157894737e-02 6.584136263640e+00 1.008491249572e+05 1.008425408209e+05 9.999965731981e-01 3.426801884032e-06 -1.736753597328e-05 0.000000000000e+00 1.622607964646e-09 0.000000000000e+00 
1.052631578947e-01 1.149877386501e+01 1.003715773766e+05 1.003600786027e+05 9.999949191225e-01 5.080877548691e-06 -1.736506682493e-05 0.000000000000e+00 1.619559987619e-09 0.000000000000e+00 
1.578947368421e-01 1.531253743933e+01 9.989292257107e+04 9.987761003363e+04 9.999935624904e-01 6.437509574519e-06 -1.736083140459e-05 0.000000000000e+00 1.614503392434e-09 0.000000000000e+00 
2.105263157895e-01 1.865759302982e+01 9.941378908974e+04 9.939513149671e+04 9.999922353584e-01 7.764641648200e-06 -1.735454381834e-05 0.000000000000e+00 1.607058613898e-09 0.000000000000e+00 
2.631578947368e-01 2.231568814027e+01 9.893495429195e+04 9.891263860381e+04 9.999905853514e-01 9.414648558304e-06 -1.734559289601e-05 0.000000000000e+00 1.596534518628e-09 0.000000000000e+00 
3.157894736842e-01 2.736452377129e+01 9.845748992922e+04 9.843012540545e+04 9.999881055508e-01 1.189444916860e-05 -1.733285089570e-05 0.000000000000e+00 1.581648760438e-09 0.000000000000e+00 
3.684210526316e-01 3.540136192373e+01 9.798298455074e+04 9.794758318882e+04 9.999840331989e-01 1.596680112104e-05 -1.731444599266e-05 0.000000000000e+00 1.560275089135e-09 0.000000000000e+00 
4.210526315789e-01 4.885394068629e+01 9.751385275548e+04 9.746499881480e+04 9.999772166805e-01 2.278331950079e-05 -1.728753296316e-05 0.000000000000e+00 1.529193442439e-09 0.000000000000e+00 
4.736842105263e-01 7.137148608767e+01 9.705372412612e+04 9.698235264003e+04 9.999659596907e-01 3.404030929555e-05 -1.724813244049e-05 0.000000000000e+00 1.483921627345e-09 0.000000000000e+00 
5.263157894737e-01 1.082560134271e+02 9.660787226100e+04 9.649961624757e+04 9.999478670177e-01 5.213298232865e-05 -1.719115340576e-05 0.000000000000e+00 1.418753851352e-09 0.000000000000e+00 
5.789473684210e-01 1.668448141436e+02 9.618359528883e+04 9.601675047469e+04 9.999197386300e-01 8.026136997552e-05 -1.711076211120e-05 0.000000000000e+00 1.327181383409e-09 0.000000000000e+00 
6.315789473684e-01 2.566868603537e+02 9.579039145012e+04 9.553370458977e+04 9.998775969795e-01 1.224030204588e-04 -1.700137685245e-05 0.000000000000e+00 1.202998959266e-09 0.000000000000e+00 
6.842105263158e-01 3.892223265218e+02 9.543964051011e+04 9.505041818359e+04 9.998170497703e-01 1.829502297365e-04 -1.686015212492e-05 0.000000000000e+00 1.043065602032e-09 0.000000000000e+00 
7.368421052631e-01 5.761887694202e+02 9.514301873835e+04 9.456682996893e+04 9.997346811295e-01 2.653188704540e-04 -1.669457479304e-05 0.000000000000e+00 8.558360973788e-10 0.000000000000e+00 
7.894736842105e-01 8.238738698460e+02 9.490678297399e+04 9.408290910414e+04 9.995108015962e-01 4.891984037586e-04 -1.643993194983e-05 0.000000000000e+00 5.715833766018e-10 0.000000000000e+00 
8.421052631579e-01 1.187753218168e+03 9.478611092551e+04 9.359835770735e+04 9.986744189731e-01 1.325581026879e-03 -1.578801473669e-05 0.000000000000e+00 -1.549837250617e-10 0.000000000000e+00 
8.947368421053e-01 1.889664584745e+03 9.500166400934e+04 9.311199942460e+04 9.952009458670e-01 4.799054132966e-03 -1.397926649587e-05 0.000000000000e+00 -2.184213637032e-09 0.000000000000e+00 
9.473684210526e-01 3.508262200721e+03 9.612901679781e+04 9.262075459709e+04 9.586929394453e-01 4.130706055470e-02 -6.877714456117e-06 0.000000000000e+00 -1.075452547354e-08 0.000000000000e+00 
1.000000000000e+00 9.218006457013e+03 1.013250000000e+05 9.210699354299e+04 9.249989654749e-01 7.500103452513e-02 -1.100704358899e-06 0.000000000000e+00 -1.783616986038e-08 0.000000000000e+00 
 TITLE = "Profiles along polylines"
 VARIABLES = "DIST" "PRESSURE1" "PRESSURE2" "PRESSURE_W" "SATURATION1" SATURATION2 "VELOCITY_X1" "VELOCITY_Y1" "VELOCITY_X2" "VELOCITY_Y2" 
 ZONE T="TIME=3.000000000000e+01"
0.000000000000e+00 0.000000000000e+00 1.013250000000e+05 1.013250000000e+05 9.999961972295e-01 3.802770539019e-06 -1.506702006867e-05 0.000000000000e+00 1.627177769569e-09 0.000000000000e+00 
5.263157894737e-02 1.003343061908e+01 1.008480882864e+05 1.008380548558e+05 9.999945545746e-01 5.445425413697e-06 -1.506576172551e-05 0.000000000000e+00 1.625596673178e-09 0.000000000000e+00 
1.052631578947e-01 1.870156536308e+01 1.003698065747e+05 1.003511050093e+05 9.999913446758e-01 8.655324213125e-06 -1.506184411750e-05 0.000000000000e+00 1.620838316335e-09 0.000000000000e+00 
1.578947368421e-01 2.697176364187e+01 9.989111675309e+04 9.986414498945e+04 9.999880620926e-01 1.193790737553e-05 -1.505483780119e-05 0.000000000000e+00 1.612508518457e-09 0.000000000000e+00 
2.105263157895e-01 3.602344690886e+01 9.941319168101e+04 9.937716823410e+04 9.999841953936e-01 1.580460638562e-05 -1.504399156597e-05 0.000000000000e+00 1.599702119142e-09 0.000000000000e+00 
2.631578947368e-01 4.737596938893e+01 9.893754237571e+04 9.889016640632e+04 9.999790762824e-01 2.092371761342e-05 -1.502817272963e-05 0.000000000000e+00 1.581135950787e-09 0.000000000000e+00 
3.157894736842e-01 6.303651372987e+01 9.846616512379e+04 9.840312861006e+04 9.999718216298e-01 2.817837016544e-05 -1.500582840252e-05 0.000000000000e+00 1.555054169208e-09 0.000000000000e+00 
3.684210526316e-01 8.565808623030e+01 9.800169864798e+04 9.791604056175e+04 9.999612759786e-01 3.872402138272e-05 -1.497499317439e-05 0.000000000000e+00 1.519243830885e-09 0.000000000000e+00 
4.210526315789e-01 1.186849199319e+02 9.754756876226e+04 9.742888384233e+04 9.999459653700e-01 5.403463003417e-05 -1.493337739995e-05 0.000000000000e+00 1.471141068415e-09 0.000000000000e+00 
4.736842105263e-01 1.664507231077e+02 9.710808614018e+04 9.694163541708e+04 9.999240762194e-01 7.592378063270e-05 -1.487855636954e-05 0.000000000000e+00 1.408047907833e-09 0.000000000000e+00 
5.263157894737e-01 2.341919017970e+02 9.668845952720e+04 9.645426762540e+04 9.998934702939e-01 1.065297060885e-04 -1.480823913980e-05 0.000000000000e+00 1.327431984907e-09 0.000000000000e+00 
5.789473684210e-01 3.279553032293e+02 9.629470404685e+04 9.596674874362e+04 9.998517340926e-01 1.482659073934e-04 -1.472052064091e-05 0.000000000000e+00 1.227197965126e-09 0.000000000000e+00 
6.315789473684e-01 4.544298971260e+02 9.593347384455e+04 9.547904394743e+04 9.997962362051e-01 2.037637948531e-04 -1.461393320948e-05 0.000000000000e+00 1.105723397654e-09 0.000000000000e+00 
6.842105263158e-01 6.208124176049e+02 9.561192848140e+04 9.499111606379e+04 9.997241372856e-01 2.758627143521e-04 -1.448708533618e-05 0.000000000000e+00 9.614226305591e-10 0.000000000000e+00 
7.368421052631e-01 8.348890908097e+02 9.533781420849e+04 9.450292511768e+04 9.995852351089e-01 4.147648911433e-04 -1.433692759545e-05 0.000000000000e+00 7.917719689414e-10 0.000000000000e+00 
7.894736842105e-01 1.105489244815e+03 9.511991709827e+04 9.401442785345e+04 9.990398489668e-01 9.601510332461e-04 -1.397793875929e-05 0.000000000000e+00 3.901332576575e-10 0.000000000000e+00 
8.421052631579e-01 1.569577071767e+03 9.509447519055e+04 9.352489811878e+04 9.977227940295e-01 2.277205970496e-03 -1.312921607240e-05 0.000000000000e+00 -5.658404330852e-10 0.000000000000e+00 
8.947368421053e-01 2.435366282018e+03 9.546859185560e+04 9.303322557358e+04 9.924112255194e-01 7.588774480584e-03 -1.119464232481e-05 0.000000000000e+00 -2.755439490267e-09 0.000000000000e+00 
9.473684210526e-01 4.242816401026e+03 9.677938980986e+04 9.253657340884e+04 9.546902955307e-01 4.530970446933e-02 -5.250549194298e-06 0.000000000000e+00 -9.951516391534e-09 0.000000000000e+00 
1.000000000000e+00 9.303173066057e+03 1.013250000000e+05 9.202182693394e+04 9.214109316800e-01 7.858906831996e-02 -6.698157404962e-07 0.000000000000e+00 -1.560390431890e-08 0.000000000000e+00 
 TITLE = "Profiles along polylines"
 VARIABLES = "DIST" "PRESSURE1" "PRESSURE2" "PRESSURE_W" "SATURATION1" SATURATION2 "VELOCITY_X1" "VELOCITY_Y1" "VELOCITY_X2" "VELOCITY_Y2" 
 ZONE T="TIME=6.000000000000e+01"
0.000000000000e+00 0.000000000000e+00 1.013250000000e+05 1.013250000000e+05 9.999876338322e-01 1.236616778610e-05 -1.148343119697e-05 0.000000000000e+00 1.574073602855e-09 0.000000000000e+00 
5.263157894737e-02 3.262755015978e+01 1.008636972011e+05 1.008310696510e+05 9.999814639341e-01 1.853606589219e-05 -1.148054761734e-05 0.000000000000e+00 1.570571029130e-09 0.000000000000e+00 
1.052631578947e-01 6.518552016646e+01 1.004023141626e+05 1.003371286424e+05 9.999687424863e-01 3.125751370270e-05 -1.147182416504e-05 0.000000000000e+00 1.560116599476e-09 0.000000000000e+00 
1.578947368421e-01 9.975742963866e+01 9.994292291309e+04 9.984316548345e+04 9.999548450749e-01 4.515492512969e-05 -1.145708402117e-05 0.000000000000e+00 1.542626716047e-09 0.000000000000e+00 
2.105263157895e-01 1.385208486634e+02 9.948768916362e+04 9.934916831495e+04 9.999389262075e-01 6.107379252462e-05 -1.143610310771e-05 0.000000000000e+00 1.517853102354e-09 0.000000000000e+00 
2.631578947368e-01 1.837597904996e+02 9.903888463988e+04 9.885512484938e+04 9.999201014725e-01 7.989852750456e-05 -1.140865370929e-05 0.000000000000e+00 1.485587122166e-09 0.000000000000e+00 
3.157894736842e-01 2.378571985224e+02 9.859887961786e+04 9.836102241933e+04 9.998974545154e-01 1.025454846008e-04 -1.137456290726e-05 0.000000000000e+00 1.445682839244e-09 0.000000000000e+00 
3.684210526316e-01 3.032656457342e+02 9.817011378953e+04 9.786684814380e+04 9.998700512805e-01 1.299487194687e-04 -1.133376558048e-05 0.000000000000e+00 1.398116137670e-09 0.000000000000e+00 
4.210526315789e-01 3.824614826723e+02 9.775505066438e+04 9.737258918171e+04 9.998369575678e-01 1.630424321519e-04 -1.128632730941e-05 0.000000000000e+00 1.343007914206e-09 0.000000000000e+00 
4.736842105263e-01 4.778980442629e+02 9.735613102971e+04 9.687823298545e+04 9.997972517029e-01 2.027482970506e-04 -1.123240600287e-05 0.000000000000e+00 1.280576238342e-09 0.000000000000e+00 
5.263157894737e-01 5.919855844044e+02 9.697575298761e+04 9.638376740320e+04 9.997500204224e-01 2.499795775661e-04 -1.117212560569e-05 0.000000000000e+00 1.210988158004e-09 0.000000000000e+00 
5.789473684210e-01 7.271330539759e+02 9.661631349394e+04 9.588918043996e+04 9.996943257947e-01 3.056742053116e-04 -1.110536120519e-05 0.000000000000e+00 1.134111365540e-09 0.000000000000e+00 
6.315789473684e-01 8.858808786993e+02 9.628034040283e+04 9.539445952413e+04 9.995979882529e-01 4.020117470649e-04 -1.103102657095e-05 0.000000000000e+00 1.049222973358e-09 0.000000000000e+00 
6.842105263158e-01 1.071124324330e+03 9.597071564067e+04 9.489959131634e+04 9.992656938907e-01 7.343061093403e-04 -1.086473426030e-05 0.000000000000e+00 8.618158754022e-10 0.000000000000e+00 
7.368421052631e-01 1.344194895330e+03 9.574844596859e+04 9.440425107326e+04 9.985971255669e-01 1.402874433128e-03 -1.049214635691e-05 0.000000000000e+00 4.400660320818e-10 0.000000000000e+00 
7.894736842105e-01 1.790162888167e+03 9.569814837830e+04 9.390798549013e+04 9.974464532996e-01 2.553546700362e-03 -9.944454625289e-06 0.000000000000e+00 -1.819317348296e-10 0.000000000000e+00 
8.421052631579e-01 2.448644357082e+03 9.585924197583e+04 9.341059761874e+04 9.944345104625e-01 5.565489537489e-03 -9.063310379134e-06 0.000000000000e+00 -1.181727893210e-09 0.000000000000e+00 
8.947368421053e-01 3.510428777020e+03 9.642152705386e+04 9.291109827684e+04 9.846247784805e-01 1.537522151953e-02 -7.148394392508e-06 0.000000000000e+00 -3.380463233650e-09 0.000000000000e+00 
9.473684210526e-01 5.498507206863e+03 9.790519620057e+04 9.240668899370e+04 9.465825473077e-01 5.341745269233e-02 -3.082228419405e-06 0.000000000000e+00 -8.331146633733e-09 0.000000000000e+00 
1.000000000000e+00 9.433790581047e+03 1.013250000000e+05 9.189120941895e+04 9.160862495503e-01 8.391375044972e-02 -3.519380111036e-07 0.000000000000e+00 -1.173981924522e-08 0.000000000000e+00 
 ZONE T="TIME=1.200000000000e+02"
0.000000000000e+00 0.000000000000e+00 1.013250000000e+05 1.013250000000e+05 9.999672311157e-01 3.276888429560e-05 -8.270702205997e-06 0.000000000000e+00 1.412187118337e-09 0.000000000000e+00 
5.263157894737e-02 8.645915489186e+01 1.009112667072e+05 1.008248075523e+05 9.999508905404e-01 4.910945963821e-05 -8.268632642474e-06 0.000000000000e+00 1.409668810156e-09 0.000000000000e+00 
1.052631578947e-01 1.726868287931e+02 1.004972949762e+05 1.003246081474e+05 9.999179809203e-01 8.201907974381e-05 -8.262455046687e-06 0.000000000000e+00 1.402246515308e-09 0.000000000000e+00 
1.578947368421e-01 2.601201142628e+02 1.000845139652e+05 9.982439385093e+04 9.998843500846e-01 1.156499153873e-04 -8.252280287555e-06 0.000000000000e+00 1.390131653900e-09 0.000000000000e+00 
2.105263157895e-01 3.501535744906e+02 9.967431063050e+04 9.932415705601e+04 9.998494826106e-01 1.505173893557e-04 -8.238305087785e-06 0.000000000000e+00 1.373556331997e-09 0.000000000000e+00 
2.631578947368e-01 4.441124836908e+02 9.926800311062e+04 9.882389062693e+04 9.998128921922e-01 1.871078078209e-04 -8.220783602869e-06 0.000000000000e+00 1.352849002740e-09 0.000000000000e+00 
3.157894736842e-01 5.432377594215e+02 9.886682573665e+04 9.832358797722e+04 9.997741237362e-01 2.258762638060e-04 -8.199983341922e-06 0.000000000000e+00 1.328349467412e-09 0.000000000000e+00 
3.684210526316e-01 6.486899670557e+02 9.847193300854e+04 9.782324304149e+04 9.997327469082e-01 2.672530918141e-04 -8.176121360782e-06 0.000000000000e+00 1.300333746799e-09 0.000000000000e+00 