VARIABLES  = "X","Y","Z", "PRESSURE1", "SorbDecay"
ZONE T="0.000000000000e+00s", N=101, E=100, F=FEPOINT, ET=QUADRILATERAL
STRANDID=1, SOLUTIONTIME=0.000000000000e+00
0.000000000000e+00 0.000000000000e+00 0.000000000000e+00 0.000000000000e+00 0.000000000000e+00 
1.000000000000e+00 0.000000000000e+00 0.000000000000e+00 0.000000000000e+00 0.000000000000e+00 
2.000000000000e+00 0.000000000000e+00 0.000000000000e+00 0.000000000000e+00 0.000000000000e+00 
3.000000000000e+00 0.000000000000e+00 0.000000000000e+00 0.000000000000e+00 0.000000000000e+00 
4.000000000000e+00 0.000000000000e+00 0.000000000000e+00 0.000000000000e+00 0.000000000000e+00 
5.000000000000e+00 0.000000000000e+00 0.000000000000e+00 0.000000000000e+00 0.000000000000e+00 
6.000000000000e+00 0.000000000000e+00 0.000000000000e+00 0.000000000000e+00 0.000000000000e+00 
7.000000000000e+00 0.000000000000e+00 0.000000000000e+00 0.000000000000e+00 0.000000000000e+00 
8.000000000000e+00 0.000000000000e+00 0.000000000000e+00 0.000000000000e+00 0.000000000000e+00 
9.000000000000e+00 0.000000000000e+00 0.000000000000e+00 0.000000000000e+00 0.000000000000e+00 
1.000000000000e+01 0.000000000000e+00 0.000000000000e+00 0.000000000000e+00 0.000000000000e+00 
1.100000000000e+01 0.000000000000e+00 0.000000000000e+00 0.000000000000e+00 0.000000000000e+00 
1.200000000000e+01 0.000000000000e+00 0.000000000000e+00 0.000000000000e+00 0.000000000000e+00 
1.300000000000e+01 0.000000000000e+00 0.000000000000e+00 0.000000000000e+00 0.000000000000e+00 
1.400000000000e+01 0.000000000000e+00 0.000000000000e+00 0.000000000000e+00 0.000000000000e+00 
1.500000000000e+01 0.000000000000e+00 0.000000000000e+00 0.000000000000e+00 0.000000000000e+00 
1.600000000000e+01 0.000000000000e+00 0.000000000000e+00 0.000000000000e+00 0.000000000000e+00 
1.700000000000e+01 0.000000000000e+00 0.000000000000e+00 0.000000000000e+00 0.000000000000e+00 
1.800000000000e+01 0.000000000000e+00 0.000000000000e+00 0.000000000000e+00 0.000000000000e+00 
1.900000000000e+01 0.000000000000e+00 0.000000000000e+00 0.000000000000e+00 0.000000000000e+00 
2.000000000000e+01 0.000000000000e+00 0.000000000000e+00 0.000000000000e+00 0.000000000000e+00 
2.100000000000e+01 0.000000000000e+00 0.000000000000e+00 0.000000000000e+00 0.000000000000e+00 
2.200000000000e+01 0.000000000000e+00 0.000000000000e+00 0.000000000000e+00 0.000000000000e+00 
2.300000000000e+01 0.000000000000e+00 0.000000000000e+00 0.000000000000e+00 0.000000000000e+00 
2.400000000000e+01 0.000000000000e+00 0.000000000000e+00 0.000000000000e+00 0.000000000000e+00 
2.500000000000e+01 0.000000000000e+00 0.000000000000e+00 0.000000000000e+00 0.000000000000e+00 
2.600000000000e+01 0.000000000000e+00 0.000000000000e+00 0.000000000000e+00 0.000000000000e+00 
2.700000000000e+01 0.000000000000e+00 0.000000000000e+00 0.000000000000e+00 0.000000000000e+00 
2.800000000000e+01 0.000000000000e+00 0.000000000000e+00 0.000000000000e+00 0.000000000000e+00 
2.900000000000e+01 0.000000000000e+00 0.000000000000e+00 0.000000000000e+00 0.000000000000e+00 
3.000000000000e+01 0.000000000000e+00 0.000000000000e+00 0.000000000000e+00 0.000000000000e+00 
3.100000000000e+01 0.000000000000e+00 0.000000000000e+00 0.000000000000e+00 0.000000000000e+00 
3.200000000000e+01 0.000000000000e+00 0.000000000000e+00 0.000000000000e+00 0.000000000000e+00 
3.300000000000e+01 0.000000000000e+00 0.000000000000e+00 0.000000000000e+00 0.000000000000e+00 
3.400000000000e+01 0.000000000000e+00 0.000000000000e+00 0.000000000000e+00 0.000000000000e+00 
3.500000000000e+01 0.000000000000e+00 0.000000000000e+00 0.000000000000e+00 0.000000000000e+00 
3.600000000000e+01 0.000000000000e+00 0.000000000000e+00 0.000000000000e+00 0.000000000000e+00 
3.700000000000e+01 0.000000000000e+00 0.000000000000e+00 0.000000000000e+00 0.000000000000e+00 
3.800000000000e+01 0.000000000000e+00 0.000000000000e+00 0.000000000000e+00 0.000000000000e+00 
3.900000000000e+01 0.000000000000e+00 0.000000000000e+00 0.000000000000e+00 0.000000000000e+00 
4.000000000000e+01 0.000000000000e+00 0.000000000000e+00 0.000000000000e+00 0.000000000000e+00 
4.100000000000e+01 0.000000000000e+00 0.000000000000e+00 0.000000000000e+00 0.000000000000e+00 
4.200000000000e+01 0.000000000000e+00 0.000000000000e+00 0.000000000000e+00 0.000000000000e+00 
4.300000000000e+01 0.000000000000e+00 0.000000000000e+00 0.000000000000e+00 0.000000000000e+00 
4.400000000000e+01 0.000000000000e+00 0.000000000000e+00 0.000000000000e+00 0.000000000000e+00 
4.500000000000e+01 0.000000000000e+00 0.000000000000e+00 0.000000000000e+00 0.000000000000e+00 
4.600000000000e+01 0.000000000000e+00 0.000000000000e+00 0.000000000000e+00 0.000000000000e+00 
4.700000000000e+01 0.000000000000e+00 0.000000000000e+00 0.000000000000e+00 0.000000000000e+00 
4.800000000000e+01 0.000000000000e+00 0.000000000000e+00 0.000000000000e+00 0.000000000000e+00 
4.900000000000e+01 0.000000000000e+00 0.000000000000e+00 0.000000000000e+00 0.000000000000e+00 
5.000000000000e+01 0.000000000000e+00 0.000000000000e+00 0.000000000000e+00 0.000000000000e+00 
5.100000000000e+01 0.000000000000e+00 0.000000000000e+00 0.000000000000e+00 0.000000000000e+00 
5.200000000000e+01 0.000000000000e+00 0.000000000000e+00 0.000000000000e+00 0.000000000000e+00 
5.300000000000e+01 0.000000000000e+00 0.000000000000e+00 0.000000000000e+00 0.000000000000e+00 
5.400000000000e+01 0.000000000000e+00 0.000000000000e+00 0.000000000000e+00 0.000000000000e+00 
5.500000000000e+01 0.000000000000e+00 0.000000000000e+00 0.000000000000e+00 0.000000000000e+00 
5.600000000000e+01 0.000000000000e+00 0.000000000000e+00 0.000000000000e+00 0.000000000000e+00 
5.700000000000e+01 0.000000000000e+00 0.000000000000e+00 0.000000000000e+00 0.000000000000e+00 
5.800000000000e+01 0.000000000000e+00 0.000000000000e+00 0.000000000000e+00 0.000000000000e+00 
5.900000000000e+01 0.000000000000e+00 0.000000000000e+00 0.000000000000e+00 0.000000000000e+00 
6.000000000000e+01 0.000000000000e+00 0.000000000000e+00 0.000000000000e+00 0.000000000000e+00 
6.100000000000e+01 0.000000000000e+00 0.000000000000e+00 0.000000000000e+00 0.000000000000e+00 
6.200000000000e+01 0.000000000000e+00 0.000000000000e+00 0.000000000000e+00 0.000000000000e+00 
6.300000000000e+01 0.000000000000e+00 0.000000000000e+00 0.000000000000e+00 0.000000000000e+00 
6.400000000000e+01 0.000000000000e+00 0.000000000000e+00 0.000000000000e+00 0.000000000000e+00 
6.500000000000e+01 0.000000000000e+00 0.000000000000e+00 0.000000000000e+00 0.000000000000e+00 
6.600000000000e+01 0.000000000000e+00 0.000000000000e+00 0.000000000000e+00 0.000000000000e+00 
6.700000000000e+01 0.000000000000e+00 0.000000000000e+00 0.000000000000e+00 0.000000000000e+00 
6.800000000000e+01 0.000000000000e+00 0.000000000000e+00 0.000000000000e+00 0.000000000000e+00 
6.900000000000e+01 0.000000000000e+00 0.000000000000e+00 0.000000000000e+00 0.000000000000e+00 
7.000000000000e+01 0.000000000000e+00 0.000000000000e+00 0.000000000000e+00 0.000000000000e+00 
7.100000000000e+01 0.000000000000e+00 0.000000000000e+00 0.000000000000e+00 0.000000000000e+00 
7.200000000000e+01 0.000000000000e+00 0.000000000000e+00 0.000000000000e+00 0.000000000000e+00 
7.300000000000e+01 0.000000000000e+00 0.000000000000e+00 0.000000000000e+00 0.000000000000e+00 
7.400000000000e+01 0.000000000000e+00 0.000000000000e+00 0.000000000000e+00 0.000000000000e+00 
7.500000000000e+01 0.000000000000e+00 0.000000000000e+00 0.000000000000e+00 0.000000000000e+00 
7.600000000000e+01 0.000000000000e+00 0.000000000000e+00 0.000000000000e+00 0.000000000000e+00 
7.700000000000e+01 0.000000000000e+00 0.000000000000e+00 0.000000000000e+00 0.000000000000e+00 
7.800000000000e+01 0.000000000000e+00 0.000000000000e+00 0.000000000000e+00 0.000000000000e+00 
7.900000000000e+01 0.000000000000e+00 0.000000000000e+00 0.000000000000e+00 0.000000000000e+00 
8.000000000000e+01 0.000000000000e+00 0.000000000000e+00 0.000000000000e+00 0.000000000000e+00 
8.100000000000e+01 0.000000000000e+00 0.000000000000e+00 0.000000000000e+00 0.000000000000e+00 
8.200000000000e+01 0.000000000000e+00 0.000000000000e+00 0.000000000000e+00 0.000000000000e+00 
8.300000000000e+01 0.000000000000e+00 0.000000000000e+00 0.000000000000e+00 0.000000000000e+00 
8.400000000000e+01 0.000000000000e+00 0.000000000000e+00 0.000000000000e+00 0.000000000000e+00 
8.500000000000e+01 0.000000000000e+00 0.000000000000e+00 0.000000000000e+00 0.000000000000e+00 
8.600000000000e+01 0.000000000000e+00 0.000000000000e+00 0.000000000000e+00 0.000000000000e+00 
8.700000000000e+01 0.000000000000e+00 0.000000000000e+00 0.000000000000e+00 0.000000000000e+00 
8.800000000000e+01 0.000000000000e+00 0.000000000000e+00 0.000000000000e+00 0.000000000000e+00 
8.900000000000e+01 0.000000000000e+00 0.000000000000e+00 0.000000000000e+00 0.000000000000e+00 
9.000000000000e+01 0.000000000000e+00 0.000000000000e+00 0.000000000000e+00 0.000000000000e+00 
9.100000000000e+01 0.000000000000e+00 0.000000000000e+00 0.000000000000e+00 0.000000000000e+00 
9.200000000000e+01 0.000000000000e+00 0.000000000000e+00 0.000000000000e+00 0.000000000000e+00 
9.300000000000e+01 0.000000000000e+00 0.000000000000e+00 0.000000000000e+00 0.000000000000e+00 
9.400000000000e+01 0.000000000000e+00 0.000000000000e+00 0.000000000000e+00 0.000000000000e+00 
9.500000000000e+01 0.000000000000e+00 0.000000000000e+00 0.000000000000e+00 0.000000000000e+00 
9.600000000000e+01 0.000000000000e+00 0.000000000000e+00 0.000000000000e+00 0.000000000000e+00 
9.700000000000e+01 0.000000000000e+00 0.000000000000e+00 0.000000000000e+00 0.000000000000e+00 
9.800000000000e+01 0.000000000000e+00 0.000000000000e+00 0.000000000000e+00 0.000000000000e+00 
9.900000000000e+01 0.000000000000e+00 0.000000000000e+00 0.000000000000e+00 0.000000000000e+00 
1.000000000000e+02 0.000000000000e+00 0.000000000000e+00 0.000000000000e+00 0.000000000000e+00 
1  2  2  1
2  3  3  2
3  4  4  3
4  5  5  4
5  6  6  5
6  7  7  6
7  8  8  7
8  9  9  8
9  10  10  9
10  11  11  10
11  12  12  11
12  13  13  12
13  14  14  13
14  15  15  14
15  16  16  15
16  17  17  16
17  18  18  17
18  19  19  18
19  20  20  19
20  21  21  20
21  22  22  21
22  23  23  22
23  24  24  23
24  25  25  24
25  26  26  25
26  27  27  26
27  28  28  27
28  29  29  28
29  30  30  29
30  31  31  30
31  32  32  31
32  33  33  32
33  34  34  33
34  35  35  34
35  36  36  35
36  37  37  36
37  38  38  37
38  39  39  38
39  40  40  39
40  41  41  40
41  42  42  41
42  43  43  42
43  44  44  43
44  45  45  44
45  46  46  45
46  47  47  46
47  48  48  47
48  49  49  48
49  50  50  49
50  51  51  50
51  52  52  51
52  53  53  52
53  54  54  53
54  55  55  54
55  56  56  55
56  57  57  56
57  58  58  57
58  59  59  58
59  60  60  59
60  61  61  60
61  62  62  61
62  63  63  62
63  64  64  63
64  65  65  64
65  66  66  65
66  67  67  66
67  68  68  67
68  69  69  68
69  70  70  69
70  71  71  70
71  72  72  71
72  73  73  72
73  74  74  73
74  75  75  74
75  76  76  75
76  77  77  76
77  78  78  77
78  79  79  78
79  80  80  79
80  81  81  80
81  82  82  81
82  83  83  82
83  84  84  83
84  85  85  84
85  86  86  85
86  87  87  86
87  88  88  87
88  89  89  88
89  90  90  89
90  91  91  90
91  92  92  91
92  93  93  92
93  94  94  93
94  95  95  94
95  96  96  95
96  97  97  96
97  98  98  97
98  99  99  98
99  100  100  99
100  101  101  100
VARIABLES  = "X","Y","Z", "PRESSURE1", "SorbDecay"
ZONE T="8.640000000000e+04s", N=101, E=100, F=FEPOINT, ET=QUADRILATERAL
STRANDID=1, SOLUTIONTIME=8.640000000000e+04
0.000000000000e+00 0.000000000000e+00 0.000000000000e+00 1.357407000000e+05 1.000000000000e+00 
1.000000000000e+00 0.000000000000e+00 0.000000000000e+00 1.345832930000e+05 3.442399813774e-01 
2.000000000000e+00 0.000000000000e+00 0.000000000000e+00 1.334258860000e+05 1.185011647787e-01 
3.000000000000e+00 0.000000000000e+00 0.000000000000e+00 1.322684790000e+05 4.079283875663e-02 
4.000000000000e+00 0.000000000000e+00 0.000000000000e+00 1.311110720000e+05 1.404252605391e-02 
5.000000000000e+00 0.000000000000e+00 0.000000000000e+00 1.299536650000e+05 4.833998907290e-03 
6.000000000000e+00 0.000000000000e+00 0.000000000000e+00 1.287962580000e+05 1.664055693824e-03 
7.000000000000e+00 0.000000000000e+00 0.000000000000e+00 1.276388510000e+05 5.728345010529e-04 
8.000000000000e+00 0.000000000000e+00 0.000000000000e+00 1.264814440000e+05 1.971925379748e-04 
9.000000000000e+00 0.000000000000e+00 0.000000000000e+00 1.253240370000e+05 6.788155560018e-05 
1.000000000000e+01 0.000000000000e+00 0.000000000000e+00 1.241666300000e+05 2.336754543563e-05 
1.100000000000e+01 0.000000000000e+00 0.000000000000e+00 1.230092230000e+05 8.044043405539e-06 
1.200000000000e+01 0.000000000000e+00 0.000000000000e+00 1.218518160000e+05 2.769081351963e-06 
1.300000000000e+01 0.000000000000e+00 0.000000000000e+00 1.206944090000e+05 9.532285128786e-07 
1.400000000000e+01 0.000000000000e+00 0.000000000000e+00 1.195370020000e+05 3.281393651099e-07 
1.500000000000e+01 0.000000000000e+00 0.000000000000e+00 1.183795950000e+05 1.129586885935e-07 
1.600000000000e+01 0.000000000000e+00 0.000000000000e+00 1.172221880000e+05 3.888489599511e-08 
1.700000000000e+01 0.000000000000e+00 0.000000000000e+00 1.160647810000e+05 1.338573525942e-08 
1.800000000000e+01 0.000000000000e+00 0.000000000000e+00 1.149073740000e+05 4.607903787885e-09 
1.900000000000e+01 0.000000000000e+00 0.000000000000e+00 1.137499670000e+05 1.586223813908e-09 
2.000000000000e+01 0.000000000000e+00 0.000000000000e+00 1.125925600000e+05 5.460396146233e-10 
2.100000000000e+01 0.000000000000e+00 0.000000000000e+00 1.114351530000e+05 1.879675896255e-10 
2.200000000000e+01 0.000000000000e+00 0.000000000000e+00 1.102777460000e+05 6.470363950381e-11 
2.300000000000e+01 0.000000000000e+00 0.000000000000e+00 1.091203390000e+05 2.227253153005e-11 
2.400000000000e+01 0.000000000000e+00 0.000000000000e+00 1.079629320000e+05 7.664947687258e-12 
2.500000000000e+01 0.000000000000e+00 0.000000000000e+00 1.068055250000e+05 2.637758601094e-12 
2.600000000000e+01 0.000000000000e+00 0.000000000000e+00 1.056481180000e+05 9.064144743327e-13 
2.700000000000e+01 0.000000000000e+00 0.000000000000e+00 1.044907110000e+05 3.115101401539e-13 
2.800000000000e+01 0.000000000000e+00 0.000000000000e+00 1.033333040000e+05 1.062756446192e-13 
2.900000000000e+01 0.000000000000e+00 0.000000000000e+00 1.021758970000e+05 3.633456978625e-14 
3.000000000000e+01 0.000000000000e+00 0.000000000000e+00 1.010184900000e+05 1.206241855607e-14 
3.100000000000e+01 0.000000000000e+00 0.000000000000e+00 9.986108300003e+04 4.061263504069e-15 
3.200000000000e+01 0.000000000000e+00 0.000000000000e+00 9.870367600003e+04 1.242496301702e-15 
3.300000000000e+01 0.000000000000e+00 0.000000000000e+00 9.754626900003e+04 4.042269124708e-16 
3.400000000000e+01 0.000000000000e+00 0.000000000000e+00 9.638886200003e+04 1.007008635922e-16 
3.500000000000e+01 0.000000000000e+00 0.000000000000e+00 9.523145500003e+04 3.084471188314e-17 
3.600000000000e+01 0.000000000000e+00 0.000000000000e+00 9.407404800003e+04 4.615528081658e-18 
3.700000000000e+01 0.000000000000e+00 0.000000000000e+00 9.291664100003e+04 1.293821113054e-18 
3.800000000000e+01 0.000000000000e+00 0.000000000000e+00 9.175923400003e+04 0.000000000000e+00 
3.900000000000e+01 0.000000000000e+00 0.000000000000e+00 9.060182700003e+04 0.000000000000e+00 
4.000000000000e+01 0.000000000000e+00 0.000000000000e+00 8.944442000003e+04 0.000000000000e+00 
4.100000000000e+01 0.000000000000e+00 0.000000000000e+00 8.828701300003e+04 0.000000000000e+00 
4.200000000000e+01 0.000000000000e+00 0.000000000000e+00 8.712960600003e+04 0.000000000000e+00 
4.300000000000e+01 0.000000000000e+00 0.000000000000e+00 8.597219900003e+04 0.000000000000e+00 
4.400000000000e+01 0.000000000000e+00 0.000000000000e+00 8.481479200003e+04 0.000000000000e+00 
4.500000000000e+01 0.000000000000e+00 0.000000000000e+00 8.365738500003e+04 0.000000000000e+00 
4.600000000000e+01 0.000000000000e+00 0.000000000000e+00 8.249997800003e+04 0.000000000000e+00 
4.700000000000e+01 0.000000000000e+00 0.000000000000e+00 8.134257100003e+04 0.000000000000e+00 
4.800000000000e+01 0.000000000000e+00 0.000000000000e+00 8.018516400003e+04 0.000000000000e+00 
4.900000000000e+01 0.000000000000e+00 0.000000000000e+00 7.902775700003e+04 0.000000000000e+00 
5.000000000000e+01 0.000000000000e+00 0.000000000000e+00 7.787035000003e+04 0.000000000000e+00 
5.100000000000e+01 0.000000000000e+00 0.000000000000e+00 7.671294300003e+04 0.000000000000e+00 
5.200000000000e+01 0.000000000000e+00 0.000000000000e+00 7.555553600003e+04 0.000000000000e+00 
5.300000000000e+01 0.000000000000e+00 0.000000000000e+00 7.439812900003e+04 0.000000000000e+00 
5.400000000000e+01 0.000000000000e+00 0.000000000000e+00 7.324072200003e+04 0.000000000000e+00 
5.500000000000e+01 0.000000000000e+00 0.000000000000e+00 7.208331500003e+04 0.000000000000e+00 
5.600000000000e+01 0.000000000000e+00 0.000000000000e+00 7.092590800003e+04 0.000000000000e+00 
5.700000000000e+01 0.000000000000e+00 0.000000000000e+00 6.976850100003e+04 0.000000000000e+00 
5.800000000000e+01 0.000000000000e+00 0.000000000000e+00 6.861109400003e+04 0.000000000000e+00 
5.900000000000e+01 0.000000000000e+00 0.000000000000e+00 6.745368700003e+04 0.000000000000e+00 
6.000000000000e+01 0.000000000000e+00 0.000000000000e+00 6.629628000003e+04 0.000000000000e+00 
6.100000000000e+01 0.000000000000e+00 0.000000000000e+00 6.513887300003e+04 0.000000000000e+00 
6.200000000000e+01 0.000000000000e+00 0.000000000000e+00 6.398146600003e+04 0.000000000000e+00 
6.300000000000e+01 0.000000000000e+00 0.000000000000e+00 6.282405900003e+04 0.000000000000e+00 
6.400000000000e+01 0.000000000000e+00 0.000000000000e+00 6.166665200003e+04 0.000000000000e+00 
6.500000000000e+01 0.000000000000e+00 0.000000000000e+00 6.050924500003e+04 0.000000000000e+00 
6.600000000000e+01 0.000000000000e+00 0.000000000000e+00 5.935183800003e+04 0.000000000000e+00 
6.700000000000e+01 0.000000000000e+00 0.000000000000e+00 5.819443100003e+04 0.000000000000e+00 
6.800000000000e+01 0.000000000000e+00 0.000000000000e+00 5.703702400003e+04 0.000000000000e+00 
6.900000000000e+01 0.000000000000e+00 0.000000000000e+00 5.587961700003e+04 0.000000000000e+00 
7.000000000000e+01 0.000000000000e+00 0.000000000000e+00 5.472221000003e+04 0.000000000000e+00 
7.100000000000e+01 0.000000000000e+00 0.000000000000e+00 5.356480300002e+04 0.000000000000e+00 
7.200000000000e+01 0.000000000000e+00 0.000000000000e+00 5.240739600002e+04 0.000000000000e+00 
7.300000000000e+01 0.000000000000e+00 0.000000000000e+00 5.124998900002e+04 0.000000000000e+00 
7.400000000000e+01 0.000000000000e+00 0.000000000000e+00 5.009258200002e+04 0.000000000000e+00 
7.500000000000e+01 0.000000000000e+00 0.000000000000e+00 4.893517500002e+04 0.000000000000e+00 
7.600000000000e+01 0.000000000000e+00 0.000000000000e+00 4.777776800002e+04 0.000000000000e+00 
7.700000000000e+01 0.000000000000e+00 0.000000000000e+00 4.662036100002e+04 0.000000000000e+00 
7.800000000000e+01 0.000000000000e+00 0.000000000000e+00 4.546295400002e+04 0.000000000000e+00 
7.900000000000e+01 0.000000000000e+00 0.000000000000e+00 4.430554700002e+04 0.000000000000e+00 
8.000000000000e+01 0.000000000000e+00 0.000000000000e+00 4.314814000002e+04 0.000000000000e+00 
8.100000000000e+01 0.000000000000e+00 0.000000000000e+00 4.199073300002e+04 0.000000000000e+00 
8.200000000000e+01 0.000000000000e+00 0.000000000000e+00 4.083332600002e+04 0.000000000000e+00 
8.300000000000e+01 0.000000000000e+00 0.000000000000e+00 3.967591900002e+04 0.000000000000e+00 
8.400000000000e+01 0.000000000000e+00 0.000000000000e+00 3.851851200002e+04 0.000000000000e+00 
8.500000000000e+01 0.000000000000e+00 0.000000000000e+00 3.736110500002e+04 0.000000000000e+00 
8.600000000000e+01 0.000000000000e+00 0.000000000000e+00 3.620369800001e+04 0.000000000000e+00 
8.700000000000e+01 0.000000000000e+00 0.000000000000e+00 3.504629100001e+04 0.000000000000e+00 
8.800000000000e+01 0.000000000000e+00 0.000000000000e+00 3.388888400001e+04 0.000000000000e+00 
8.900000000000e+01 0.000000000000e+00 0.000000000000e+00 3.273147700001e+04 0.000000000000e+00 
9.000000000000e+01 0.000000000000e+00 0.000000000000e+00 3.157407000001e+04 0.000000000000e+00 
9.100000000000e+01 0.000000000000e+00 0.000000000000e+00 3.041666300001e+04 0.000000000000e+00 
9.200000000000e+01 0.000000000000e+00 0.000000000000e+00 2.925925600001e+04 0.000000000000e+00 
9.300000000000e+01 0.000000000000e+00 0.000000000000e+00 2.810184900001e+04 0.000000000000e+00 
9.400000000000e+01 0.000000000000e+00 0.000000000000e+00 2.694444200001e+04 0.000000000000e+00 
9.500000000000e+01 0.000000000000e+00 0.000000000000e+00 2.578703500001e+04 0.000000000000e+00 
9.600000000000e+01 0.000000000000e+00 0.000000000000e+00 2.462962800000e+04 0.000000000000e+00 
9.700000000000e+01 0.000000000000e+00 0.000000000000e+00 2.347222100000e+04 0.000000000000e+00 
9.800000000000e+01 0.000000000000e+00 0.000000000000e+00 2.231481400000e+04 0.000000000000e+00 
9.900000000000e+01 0.000000000000e+00 0.000000000000e+00 2.115740700000e+04 0.000000000000e+00 
1.000000000000e+02 0.000000000000e+00 0.000000000000e+00 2.000000000000e+04 0.000000000000e+00 
1  2  2  1
2  3  3  2
3  4  4  3
4  5  5  4
5  6  6  5
6  7  7  6
7  8  8  7
8  9  9  8
9  10  10  9
10  11  11  10
11  12  12  11
12  13  13  12
13  14  14  13
14  15  15  14
15  16  16  15
16  17  17  16
17  18  18  17
18  19  19  18
19  20  20  19
20  21  21  20
21  22  22  21
22  23  23  22
23  24  24  23
24  25  25  24
25  26  26  25
26  27  27  26
27  28  28  27
28  29  29  28
29  30  30  29
30  31  31  30
31  32  32  31
32  33  33  32
33  34  34  33
34  35  35  34
35  36  36  35
36  37  37  36
37  38  38  37
38  39  39  38
39  40  40  39
40  41  41  40
41  42  42  41
42  43  43  42
43  44  44  43
44  45  45  44
45  46  46  45
46  47  47  46
47  48  48  47
48  49  49  48
49  50  50  49
50  51  51  50
51  52  52  51
52  53  53  52
53  54  54  53
54  55  55  54
55  56  56  55
56  57  57  56
57  58  58  57
58  59  59  58
59  60  60  59
60  61  61  60
61  62  62  61
62  63  63  62
63  64  64  63
64  65  65  64
65  66  66  65
66  67  67  66
67  68  68  67
68  69  69  68
69  70  70  69
70  71  71  70
71  72  72  71
72  73  73  72
73  74  74  73
74  75  75  74
75  76  76  75
76  77  77  76
77  78  78  77
78  79  79  78
79  80  80  79
80  81  81  80
81  82  82  81
82  83  83  82
83  84  84  83
84  85  85  84
85  86  86  85
86  87  87  86
87  88  88  87
88  89  89  88
89  90  90  89
90  91  91  90
91  92  92  91
92  93  93  92
93  94  94  93
94  95  95  94
95  96  96  95
96  97  97  96
97  98  98  97
98  99  99  98
99  100  100  99
100  101  101  100
VARIABLES  = "X","Y","Z", "PRESSURE1", "SorbDecay"
ZONE T="1.728000000000e+05s", N=101, E=100, F=FEPOINT, ET=QUADRILATERAL
STRANDID=1, SOLUTIONTIME=1.728000000000e+05
0.000000000000e+00 0.000000000000e+00 0.000000000000e+00 1.357407000000e+05 1.000000000000e+00 
1.000000000000e+00 0.000000000000e+00 0.000000000000e+00 1.345832930000e+05 7.807329271060e-01 
2.000000000000e+00 0.000000000000e+00 0.000000000000e+00 1.334258860000e+05 4.190178117966e-01 
3.000000000000e+00 0.000000000000e+00 0.000000000000e+00 1.322684790000e+05 1.959676062162e-01 
4.000000000000e+00 0.000000000000e+00 0.000000000000e+00 1.311110720000e+05 8.526567146795e-02 
5.000000000000e+00 0.000000000000e+00 0.000000000000e+00 1.299536650000e+05 3.548131672100e-02 
6.000000000000e+00 0.000000000000e+00 0.000000000000e+00 1.287962580000e+05 1.432409422997e-02 
7.000000000000e+00 0.000000000000e+00 0.000000000000e+00 1.276388510000e+05 5.657274502628e-03 
8.000000000000e+00 0.000000000000e+00 0.000000000000e+00 1.264814440000e+05 2.197498288211e-03 
9.000000000000e+00 0.000000000000e+00 0.000000000000e+00 1.253240370000e+05 8.425399215868e-04 
1.000000000000e+01 0.000000000000e+00 0.000000000000e+00 1.241666300000e+05 3.196657470812e-04 
1.100000000000e+01 0.000000000000e+00 0.000000000000e+00 1.230092230000e+05 1.202414995638e-04 
1.200000000000e+01 0.000000000000e+00 0.000000000000e+00 1.218518160000e+05 4.490309977202e-05 
1.300000000000e+01 0.000000000000e+00 0.000000000000e+00 1.206944090000e+05 1.666612670532e-05 
1.400000000000e+01 0.000000000000e+00 0.000000000000e+00 1.195370020000e+05 6.153224667580e-06 
1.500000000000e+01 0.000000000000e+00 0.000000000000e+00 1.183795950000e+05 2.261416462460e-06 
1.600000000000e+01 0.000000000000e+00 0.000000000000e+00 1.172221880000e+05 8.277756303398e-07 
1.700000000000e+01 0.000000000000e+00 0.000000000000e+00 1.160647810000e+05 3.019264492336e-07 
1.800000000000e+01 0.000000000000e+00 0.000000000000e+00 1.149073740000e+05 1.097779320316e-07 
1.900000000000e+01 0.000000000000e+00 0.000000000000e+00 1.137499670000e+05 3.980126900716e-08 
2.000000000000e+01 0.000000000000e+00 0.000000000000e+00 1.125925600000e+05 1.439356045122e-08 
2.100000000000e+01 0.000000000000e+00 0.000000000000e+00 1.114351530000e+05 5.193179140098e-09 
2.200000000000e+01 0.000000000000e+00 0.000000000000e+00 1.102777460000e+05 1.869742764531e-09 
2.300000000000e+01 0.000000000000e+00 0.000000000000e+00 1.091203390000e+05 6.718804648450e-10 
2.400000000000e+01 0.000000000000e+00 0.000000000000e+00 1.079629320000e+05 2.410064519820e-10 
2.500000000000e+01 0.000000000000e+00 0.000000000000e+00 1.068055250000e+05 8.630762030774e-11 
2.600000000000e+01 0.000000000000e+00 0.000000000000e+00 1.056481180000e+05 3.085920986064e-11 
2.700000000000e+01 0.000000000000e+00 0.000000000000e+00 1.044907110000e+05 1.101709247015e-11 
2.800000000000e+01 0.000000000000e+00 0.000000000000e+00 1.033333040000e+05 3.926817209420e-12 
2.900000000000e+01 0.000000000000e+00 0.000000000000e+00 1.021758970000e+05 1.397276390811e-12 
3.000000000000e+01 0.000000000000e+00 0.000000000000e+00 1.010184900000e+05 4.960251822465e-13 
3.100000000000e+01 0.000000000000e+00 0.000000000000e+00 9.986108300003e+04 1.756142196765e-13 
3.200000000000e+01 0.000000000000e+00 0.000000000000e+00 9.870367600003e+04 6.190469782089e-14 
3.300000000000e+01 0.000000000000e+00 0.000000000000e+00 9.754626900003e+04 2.170934286734e-14 
3.400000000000e+01 0.000000000000e+00 0.000000000000e+00 9.638886200003e+04 7.555879619454e-15 
3.500000000000e+01 0.000000000000e+00 0.000000000000e+00 9.523145500003e+04 2.606592891338e-15 
3.600000000000e+01 0.000000000000e+00 0.000000000000e+00 9.407404800003e+04 8.907046136022e-16 
3.700000000000e+01 0.000000000000e+00 0.000000000000e+00 9.291664100003e+04 3.010570995720e-16 
3.800000000000e+01 0.000000000000e+00 0.000000000000e+00 9.175923400003e+04 1.010963724434e-16 
3.900000000000e+01 0.000000000000e+00 0.000000000000e+00 9.060182700003e+04 3.370314874676e-17 
4.000000000000e+01 0.000000000000e+00 0.000000000000e+00 8.944442000003e+04 1.122390470463e-17 
4.100000000000e+01 0.000000000000e+00 0.000000000000e+00 8.828701300003e+04 3.733571109614e-18 
4.200000000000e+01 0.000000000000e+00 0.000000000000e+00 8.712960600003e+04 1.240443117805e-18 
4.300000000000e+01 0.000000000000e+00 0.000000000000e+00 8.597219900003e+04 4.115877060985e-19 
4.400000000000e+01 0.000000000000e+00 0.000000000000e+00 8.481479200003e+04 1.363759344235e-19 
4.500000000000e+01 0.000000000000e+00 0.000000000000e+00 8.365738500003e+04 4.511847552375e-20 
4.600000000000e+01 0.000000000000e+00 0.000000000000e+00 8.249997800003e+04 1.490245940373e-20 
4.700000000000e+01 0.000000000000e+00 0.000000000000e+00 8.134257100003e+04 4.913452677804e-21 
4.800000000000e+01 0.000000000000e+00 0.000000000000e+00 8.018516400003e+04 1.616855020107e-21 
4.900000000000e+01 0.000000000000e+00 0.000000000000e+00 7.902775700003e+04 5.309223372202e-22 
5.000000000000e+01 0.000000000000e+00 0.000000000000e+00 7.787035000003e+04 1.739302579610e-22 
5.100000000000e+01 0.000000000000e+00 0.000000000000e+00 7.671294300003e+04 5.683252995335e-23 
5.200000000000e+01 0.000000000000e+00 0.000000000000e+00 7.555553600003e+04 1.851716424607e-23 
5.300000000000e+01 0.000000000000e+00 0.000000000000e+00 7.439812900003e+04 6.013945470657e-24 
5.400000000000e+01 0.000000000000e+00 0.000000000000e+00 7.324072200003e+04 1.946200647641e-24 
5.500000000000e+01 0.000000000000e+00 0.000000000000e+00 7.208331500003e+04 6.272451430918e-25 
5.600000000000e+01 0.000000000000e+00 0.000000000000e+00 7.092590800003e+04 2.012315302383e-25 
5.700000000000e+01 0.000000000000e+00 0.000000000000e+00 6.976850100003e+04 6.420756659558e-26 
5.800000000000e+01 0.000000000000e+00 0.000000000000e+00 6.861109400003e+04 2.036527377235e-26 
5.900000000000e+01 0.000000000000e+00 0.000000000000e+00 6.745368700003e+04 6.409613051813e-27 
6.000000000000e+01 0.000000000000e+00 0.000000000000e+00 6.629628000003e+04 2.001897376391e-27 
6.100000000000e+01 0.000000000000e+00 0.000000000000e+00 6.513887300003e+04 6.177559700391e-28 
6.200000000000e+01 0.000000000000e+00 0.000000000000e+00 6.398146600003e+04 1.888852265228e-28 
6.300000000000e+01 0.000000000000e+00 0.000000000000e+00 6.282405900003e+04 5.655624236495e-29 
6.400000000000e+01 0.000000000000e+00 0.000000000000e+00 6.166665200003e+04 1.679078645513e-29 
6.500000000000e+01 0.000000000000e+00 0.000000000000e+00 6.050924500003e+04 4.788936553868e-30 
6.600000000000e+01 0.000000000000e+00 0.000000000000e+00 5.935183800003e+04 1.365706922755e-30 
6.700000000000e+01 0.000000000000e+00 0.000000000000e+00 5.819443100003e+04 3.590107230334e-31 
6.800000000000e+01 0.000000000000e+00 0.000000000000e+00 5.703702400003e+04 9.707797362960e-32 
6.900000000000e+01 0.000000000000e+00 0.000000000000e+00 5.587961700003e+04 2.216054793559e-32 
7.000000000000e+01 0.000000000000e+00 0.000000000000e+00 5.472221000003e+04 5.601726076538e-33 
7.100000000000e+01 0.000000000000e+00 0.000000000000e+00 5.356480300002e+04 9.888255161622e-34 
7.200000000000e+01 0.000000000000e+00 0.000000000000e+00 5.240739600002e+04 2.303343920634e-34 
7.300000000000e+01 0.000000000000e+00 0.000000000000e+00 5.124998900002e+04 2.356817424048e-35 