<?xml version="1.0"?>
<!-- Time step: 1 | Time: 8.640000000000e+04 -->
<VTKFile type="UnstructuredGrid" version="0.1" byte_order="LittleEndian">
  <UnstructuredGrid>
    <Piece NumberOfPoints="804" NumberOfCells="200">
      <Points>
        <DataArray type="Float64" NumberOfComponents="3" format="ascii">
          0.000000000000e+00 0.000000000000e+00 0.000000000000e+00
          1.000000000000e+02 0.000000000000e+00 0.000000000000e+00
          1.000000000000e+02 5.000000000000e-01 0.000000000000e+00
          0.000000000000e+00 5.000000000000e-01 0.000000000000e+00
          5.000000000000e+01 0.000000000000e+00 0.000000000000e+00
          5.000000000000e+01 5.000000000000e-01 0.000000000000e+00
          5.000000000000e-01 0.000000000000e+00 0.000000000000e+00
          1.000000000000e+00 0.000000000000e+00 0.000000000000e+00
          1.500000000000e+00 0.000000000000e+00 0.000000000000e+00
          2.000000000000e+00 0.000000000000e+00 0.000000000000e+00
          2.500000000000e+00 0.000000000000e+00 0.000000000000e+00
          3.000000000000e+00 0.000000000000e+00 0.000000000000e+00
          3.500000000000e+00 0.000000000000e+00 0.000000000000e+00
          4.000000000000e+00 0.000000000000e+00 0.000000000000e+00
          4.500000000000e+00 0.000000000000e+00 0.000000000000e+00
          5.000000000000e+00 0.000000000000e+00 0.000000000000e+00
          5.500000000000e+00 0.000000000000e+00 0.000000000000e+00
          6.000000000000e+00 0.000000000000e+00 0.000000000000e+00
          6.500000000000e+00 0.000000000000e+00 0.000000000000e+00
          7.000000000000e+00 0.000000000000e+00 0.000000000000e+00
          7.500000000000e+00 0.000000000000e+00 0.000000000000e+00
          8.000000000000e+00 0.000000000000e+00 0.000000000000e+00
          8.500000000000e+00 0.000000000000e+00 0.000000000000e+00
          9.000000000000e+00 0.000000000000e+00 0.000000000000e+00
          9.500000000000e+00 0.000000000000e+00 0.000000000000e+00
          1.000000000000e+01 0.000000000000e+00 0.000000000000e+00
          1.050000000000e+01 0.000000000000e+00 0.000000000000e+00
          1.100000000000e+01 0.000000000000e+00 0.000000000000e+00
          1.150000000000e+01 0.000000000000e+00 0.000000000000e+00
          1.200000000000e+01 0.000000000000e+00 0.000000000000e+00
          1.250000000000e+01 0.000000000000e+00 0.000000000000e+00
          1.300000000000e+01 0.000000000000e+00 0.000000000000e+00
          1.350000000000e+01 0.000000000000e+00 0.000000000000e+00
          1.400000000000e+01 0.000000000000e+00 0.000000000000e+00
          1.450000000000e+01 0.000000000000e+00 0.000000000000e+00
          1.500000000000e+01 0.000000000000e+00 0.000000000000e+00
          1.550000000000e+01 0.000000000000e+00 0.000000000000e+00
          1.600000000000e+01 0.000000000000e+00 0.000000000000e+00
          1.650000000000e+01 0.000000000000e+00 0.000000000000e+00
          1.700000000000e+01 0.000000000000e+00 0.000000000000e+00
          1.750000000000e+01 0.000000000000e+00 0.000000000000e+00
          1.800000000000e+01 0.000000000000e+00 0.000000000000e+00
          1.850000000000e+01 0.000000000000e+00 0.000000000000e+00
          1.900000000000e+01 0.000000000000e+00 0.000000000000e+00
          1.950000000000e+01 0.000000000000e+00 0.000000000000e+00
          2.000000000000e+01 0.000000000000e+00 0.000000000000e+00
          2.050000000000e+01 0.000000000000e+00 0.000000000000e+00
          2.100000000000e+01 0.000000000000e+00 0.000000000000e+00
          2.150000000000e+01 0.000000000000e+00 0.000000000000e+00
          2.200000000000e+01 0.000000000000e+00 0.000000000000e+00
          2.250000000000e+01 0.000000000000e+00 0.000000000000e+00
          2.300000000000e+01 0.000000000000e+00 0.000000000000e+00
          2.350000000000e+01 0.000000000000e+00 0.000000000000e+00
          2.400000000000e+01 0.000000000000e+00 0.000000000000e+00
          2.450000000000e+01 0.000000000000e+00 0.000000000000e+00
          2.500000000000e+01 0.000000000000e+00 0.000000000000e+00
          2.550000000000e+01 0.000000000000e+00 0.000000000000e+00
          2.600000000000e+01 0.000000000000e+00 0.000000000000e+00
          2.650000000000e+01 0.000000000000e+00 0.000000000000e+00
          2.700000000000e+01 0.000000000000e+00 0.000000000000e+00
          2.750000000000e+01 0.000000000000e+00 0.000000000000e+00
          2.800000000000e+01 0.000000000000e+00 0.000000000000e+00
          2.850000000000e+01 0.000000000000e+00 0.000000000000e+00
          2.900000000000e+01 0.000000000000e+00 0.000000000000e+00
          2.950000000000e+01 0.000000000000e+00 0.000000000000e+00
          3.000000000000e+01 0.000000000000e+00 0.000000000000e+00
          3.050000000000e+01 0.000000000000e+00 0.000000000000e+00
          3.100000000000e+01 0.000000000000e+00 0.000000000000e+00
          3.150000000000e+01 0.000000000000e+00 0.000000000000e+00
          3.200000000000e+01 0.000000000000e+00 0.000000000000e+00
          3.250000000000e+01 0.000000000000e+00 0.000000000000e+00
          3.300000000000e+01 0.000000000000e+00 0.000000000000e+00
          3.350000000000e+01 0.000000000000e+00 0.000000000000e+00
          3.400000000000e+01 0.000000000000e+00 0.000000000000e+00
          3.450000000000e+01 0.000000000000e+00 0.000000000000e+00
          3.500000000000e+01 0.000000000000e+00 0.000000000000e+00
          3.550000000000e+01 0.000000000000e+00 0.000000000000e+00
          3.600000000000e+01 0.000000000000e+00 0.000000000000e+00
          3.650000000000e+01 0.000000000000e+00 0.000000000000e+00
          3.700000000000e+01 0.000000000000e+00 0.000000000000e+00
          3.750000000000e+01 0.000000000000e+00 0.000000000000e+00
          3.800000000000e+01 0.000000000000e+00 0.000000000000e+00
          3.850000000000e+01 0.000000000000e+00 0.000000000000e+00
          3.900000000000e+01 0.000000000000e+00 0.000000000000e+00
          3.950000000000e+01 0.000000000000e+00 0.000000000000e+00
          4.000000000000e+01 0.000000000000e+00 0.000000000000e+00
          4.050000000000e+01 0.000000000000e+00 0.000000000000e+00
          4.100000000000e+01 0.000000000000e+00 0.000000000000e+00
          4.150000000000e+01 0.000000000000e+00 0.000000000000e+00
          4.200000000000e+01 0.000000000000e+00 0.000000000000e+00
          4.250000000000e+01 0.000000000000e+00 0.000000000000e+00
          4.300000000000e+01 0.000000000000e+00 0.000000000000e+00
          4.350000000000e+01 0.000000000000e+00 0.000000000000e+00
          4.400000000000e+01 0.000000000000e+00 0.000000000000e+00
          4.450000000000e+01 0.000000000000e+00 0.000000000000e+00
          4.500000000000e+01 0.000000000000e+00 0.000000000000e+00
          4.550000000000e+01 0.000000000000e+00 0.000000000000e+00
          4.600000000000e+01 0.000000000000e+00 0.000000000000e+00
          4.650000000000e+01 0.000000000000e+00 0.000000000000e+00
          4.700000000000e+01 0.000000000000e+00 0.000000000000e+00
          4.750000000000e+01 0.000000000000e+00 0.000000000000e+00
          4.800000000000e+01 0.000000000000e+00 0.000000000000e+00
          4.850000000000e+01 0.000000000000e+00 0.000000000000e+00
          4.900000000000e+01 0.000000000000e+00 0.000000000000e+00
          4.950000000000e+01 0.000000000000e+00 0.000000000000e+00
          5.000000000000e-01 5.000000000000e-01 0.000000000000e+00
          1.000000000000e+00 5.000000000000e-01 0.000000000000e+00
          1.500000000000e+00 5.000000000000e-01 0.000000000000e+00
          2.000000000000e+00 5.000000000000e-01 0.000000000000e+00
          2.500000000000e+00 5.000000000000e-01 0.000000000000e+00
          3.000000000000e+00 5.000000000000e-01 0.000000000000e+00
          3.500000000000e+00 5.000000000000e-01 0.000000000000e+00
          4.000000000000e+00 5.000000000000e-01 0.000000000000e+00
          4.500000000000e+00 5.000000000000e-01 0.000000000000e+00
          5.000000000000e+00 5.000000000000e-01 0.000000000000e+00
          5.500000000000e+00 5.000000000000e-01 0.000000000000e+00
          6.000000000000e+00 5.000000000000e-01 0.000000000000e+00
          6.500000000000e+00 5.000000000000e-01 0.000000000000e+00
          7.000000000000e+00 5.000000000000e-01 0.000000000000e+00
          7.500000000000e+00 5.000000000000e-01 0.000000000000e+00
          8.000000000000e+00 5.000000000000e-01 0.000000000000e+00
          8.500000000000e+00 5.000000000000e-01 0.000000000000e+00
          9.000000000000e+00 5.000000000000e-01 0.000000000000e+00
          9.500000000000e+00 5.000000000000e-01 0.000000000000e+00
          1.000000000000e+01 5.000000000000e-01 0.000000000000e+00
          1.050000000000e+01 5.000000000000e-01 0.000000000000e+00
          1.100000000000e+01 5.000000000000e-01 0.000000000000e+00
          1.150000000000e+01 5.000000000000e-01 0.000000000000e+00
          1.200000000000e+01 5.000000000000e-01 0.000000000000e+00
          1.250000000000e+01 5.000000000000e-01 0.000000000000e+00
          1.300000000000e+01 5.000000000000e-01 0.000000000000e+00
          1.350000000000e+01 5.000000000000e-01 0.000000000000e+00
          1.400000000000e+01 5.000000000000e-01 0.000000000000e+00
          1.450000000000e+01 5.000000000000e-01 0.000000000000e+00
          1.500000000000e+01 5.000000000000e-01 0.000000000000e+00
          1.550000000000e+01 5.000000000000e-01 0.000000000000e+00
          1.600000000000e+01 5.000000000000e-01 0.000000000000e+00
          1.650000000000e+01 5.000000000000e-01 0.000000000000e+00
          1.700000000000e+01 5.000000000000e-01 0.000000000000e+00
          1.750000000000e+01 5.000000000000e-01 0.000000000000e+00
          1.800000000000e+01 5.000000000000e-01 0.000000000000e+00
          1.850000000000e+01 5.000000000000e-01 0.000000000000e+00
          1.900000000000e+01 5.000000000000e-01 0.000000000000e+00
          1.950000000000e+01 5.000000000000e-01 0.000000000000e+00
[...]
      <PointData Scalars="HEAD">
        <DataArray type="Float64" Name="HEAD" format="ascii">
          1.000000000000e+00 0.000000000000e+00 0.000000000000e+00 1.000000000000e+00 5.000000000048e-01 5.000000000048e-01 9.950000000001e-01 9.900000000001e-01 9.850000000002e-01 9.800000000003e-01 9.750000000004e-01 9.700000000004e-01 9.650000000005e-01 9.600000000006e-01 9.550000000006e-01 9.500000000007e-01 9.450000000008e-01 9.400000000008e-01 9.350000000009e-01 9.300000000010e-01 9.250000000010e-01 9.200000000011e-01 9.150000000012e-01 9.100000000012e-01 9.050000000013e-01 9.000000000013e-01 8.950000000014e-01 8.900000000015e-01 8.850000000015e-01 8.800000000016e-01 8.750000000017e-01 8.700000000017e-01 8.650000000018e-01 8.600000000018e-01 8.550000000019e-01 8.500000000020e-01 8.450000000020e-01 8.400000000021e-01 8.350000000021e-01 8.300000000022e-01 8.250000000023e-01 8.200000000023e-01 8.150000000024e-01 8.100000000024e-01 8.050000000025e-01 8.000000000025e-01 7.950000000026e-01 7.900000000026e-01 7.850000000027e-01 7.800000000027e-01 7.750000000028e-01 7.700000000028e-01 7.650000000029e-01 7.600000000029e-01 7.550000000030e-01 7.500000000030e-01 7.450000000031e-01 7.400000000031e-01 7.350000000032e-01 7.300000000032e-01 7.250000000033e-01 7.200000000033e-01 7.150000000034e-01 7.100000000034e-01 7.050000000034e-01 7.000000000035e-01 6.950000000035e-01 6.900000000036e-01 6.850000000036e-01 6.800000000037e-01 6.750000000037e-01 6.700000000037e-01 6.650000000038e-01 6.600000000038e-01 6.550000000039e-01 6.500000000039e-01 6.450000000039e-01 6.400000000040e-01 6.350000000040e-01 6.300000000040e-01 6.250000000041e-01 6.200000000041e-01 6.150000000041e-01 6.100000000042e-01 6.050000000042e-01 6.000000000042e-01 5.950000000043e-01 5.900000000043e-01 5.850000000043e-01 5.800000000044e-01 5.750000000044e-01 5.700000000044e-01 5.650000000045e-01 5.600000000045e-01 5.550000000045e-01 5.500000000045e-01 5.450000000046e-01 5.400000000046e-01 5.350000000046e-01 5.300000000046e-01 5.250000000047e-01 5.200000000047e-01 5.150000000047e-01 5.100000000047e-01 5.050000000047e-01 9.950000000001e-01 9.900000000001e-01 9.850000000002e-01 9.800000000003e-01 9.750000000004e-01 9.700000000004e-01 9.650000000005e-01 9.600000000006e-01 9.550000000006e-01 9.500000000007e-01 9.450000000008e-01 9.400000000008e-01 9.350000000009e-01 9.300000000010e-01 9.250000000010e-01 9.200000000011e-01 9.150000000012e-01 9.100000000012e-01 9.050000000013e-01 9.000000000013e-01 8.950000000014e-01 8.900000000015e-01 8.850000000015e-01 8.800000000016e-01 8.750000000017e-01 8.700000000017e-01 8.650000000018e-01 8.600000000018e-01 8.550000000019e-01 8.500000000020e-01 8.450000000020e-01 8.400000000021e-01 8.350000000021e-01 8.300000000022e-01 8.250000000023e-01 8.200000000023e-01 8.150000000024e-01 8.100000000024e-01 8.050000000025e-01 8.000000000025e-01 7.950000000026e-01 7.900000000026e-01 7.850000000027e-01 7.800000000027e-01 7.750000000028e-01 7.700000000028e-01 7.650000000029e-01 7.600000000029e-01 7.550000000030e-01 7.500000000030e-01 7.450000000031e-01 7.400000000031e-01 7.350000000032e-01 7.300000000032e-01 7.250000000033e-01 7.200000000033e-01 7.150000000034e-01 7.100000000034e-01 7.050000000034e-01 7.000000000035e-01 6.950000000035e-01 6.900000000036e-01 6.850000000036e-01 6.800000000037e-01 6.750000000037e-01 6.700000000037e-01 6.650000000038e-01 6.600000000038e-01 6.550000000039e-01 6.500000000039e-01 6.450000000039e-01 6.400000000040e-01 6.350000000040e-01 6.300000000040e-01 6.250000000041e-01 6.200000000041e-01 6.150000000041e-01 6.100000000042e-01 6.050000000042e-01 6.000000000042e-01 5.950000000043e-01 5.900000000043e-01 5.850000000043e-01 5.800000000044e-01 5.750000000044e-01 5.700000000044e-01 5.650000000045e-01 5.600000000045e-01 5.550000000045e-01 5.500000000045e-01 5.450000000046e-01 5.400000000046e-01 5.350000000046e-01 5.300000000046e-01 5.250000000047e-01 5.200000000047e-01 5.150000000047e-01 5.100000000047e-01 5.050000000047e-01 4.950000000048e-01 4.900000000048e-01 4.850000000048e-01 4.800000000048e-01 4.750000000048e-01 4.700000000048e-01 4.650000000049e-01 4.600000000049e-01 4.550000000049e-01 4.500000000049e-01 4.450000000049e-01 4.400000000049e-01 4.350000000049e-01 4.300000000049e-01 4.250000000049e-01 4.200000000049e-01 4.150000000049e-01 4.100000000049e-01 4.050000000049e-01 4.000000000049e-01 3.950000000049e-01 3.900000000049e-01 3.850000000049e-01 3.800000000049e-01 3.750000000049e-01 3.700000000049e-01 3.650000000048e-01 3.600000000048e-01 3.550000000048e-01 3.500000000048e-01 3.450000000048e-01 3.400000000048e-01 3.350000000047e-01 3.300000000047e-01 3.250000000047e-01 3.200000000047e-01 3.150000000046e-01 3.100000000046e-01 3.050000000046e-01 3.000000000045e-01 2.950000000045e-01 2.900000000045e-01 2.850000000044e-01 2.800000000044e-01 2.750000000043e-01 2.700000000043e-01 2.650000000043e-01 2.600000000042e-01 2.550000000042e-01 2.500000000041e-01 2.450000000041e-01 2.400000000040e-01 2.350000000039e-01 2.300000000039e-01 2.250000000038e-01 2.200000000038e-01 2.150000000037e-01 2.100000000037e-01 2.050000000036e-01 2.000000000035e-01 1.950000000035e-01 1.900000000034e-01 1.850000000033e-01 1.800000000033e-01 1.750000000032e-01 1.700000000031e-01 1.650000000030e-01 1.600000000030e-01 1.550000000029e-01 1.500000000028e-01 1.450000000027e-01 1.400000000026e-01 1.350000000026e-01 1.300000000025e-01 1.250000000024e-01 1.200000000023e-01 1.150000000022e-01 1.100000000021e-01 1.050000000020e-01 1.000000000019e-01 9.500000000185e-02 9.000000000176e-02 8.500000000166e-02 8.000000000157e-02 7.500000000148e-02 7.000000000138e-02 6.500000000129e-02 6.000000000119e-02 5.500000000109e-02 5.000000000099e-02 4.500000000090e-02 4.000000000080e-02 3.500000000070e-02 3.000000000060e-02 2.500000000050e-02 2.000000000040e-02 1.500000000030e-02 1.000000000020e-02 5.000000000100e-03 4.950000000048e-01 4.900000000048e-01 4.850000000048e-01 4.800000000048e-01 4.750000000048e-01 4.700000000048e-01 4.650000000049e-01 4.600000000049e-01 4.550000000049e-01 4.500000000049e-01 4.450000000049e-01 4.400000000049e-01 4.350000000049e-01 4.300000000049e-01 4.250000000049e-01 4.200000000049e-01 4.150000000049e-01 4.100000000049e-01 4.050000000049e-01 4.000000000049e-01 3.950000000049e-01 3.900000000049e-01 3.850000000049e-01 3.800000000049e-01 3.750000000049e-01 3.700000000049e-01 3.650000000048e-01 3.600000000048e-01 3.550000000048e-01 3.500000000048e-01 3.450000000048e-01 3.400000000048e-01 3.350000000047e-01 3.300000000047e-01 3.250000000047e-01 3.200000000047e-01 3.150000000046e-01 3.100000000046e-01 3.050000000046e-01 3.000000000045e-01 2.950000000045e-01 2.900000000045e-01 2.850000000044e-01 2.800000000044e-01 2.750000000043e-01 2.700000000043e-01 2.650000000043e-01 2.600000000042e-01 2.550000000042e-01 2.500000000041e-01 2.450000000041e-01 2.400000000040e-01 2.350000000039e-01 2.300000000039e-01 2.250000000038e-01 2.200000000038e-01 2.150000000037e-01 2.100000000037e-01 2.050000000036e-01 2.000000000035e-01 1.950000000035e-01 1.900000000034e-01 1.850000000033e-01 1.800000000033e-01 1.750000000032e-01 1.700000000031e-01 1.650000000030e-01 1.600000000030e-01 1.550000000029e-01 1.500000000028e-01 1.450000000027e-01 1.400000000026e-01 1.350000000026e-01 1.300000000025e-01 1.250000000024e-01 1.200000000023e-01 1.150000000022e-01 1.100000000021e-01 1.050000000020e-01 1.000000000019e-01 9.500000000185e-02 9.000000000176e-02 8.500000000166e-02 8.000000000157e-02 7.500000000148e-02 7.000000000138e-02 6.500000000129e-02 6.000000000119e-02 5.500000000109e-02 5.000000000099e-02 4.500000000090e-02 4.000000000080e-02 3.500000000070e-02 3.000000000060e-02 2.500000000050e-02 2.000000000040e-02 1.500000000030e-02 1.000000000020e-02 5.000000000100e-03 1.000000000000e+00 0.000000000000e+00 0.000000000000e+00 1.000000000000e+00 5.000000000048e-01 5.000000000048e-01 9.950000000001e-01 9.900000000001e-01 9.850000000002e-01 9.800000000003e-01 9.750000000004e-01 9.700000000004e-01 9.650000000005e-01 9.600000000006e-01 9.550000000006e-01 9.500000000007e-01 9.450000000008e-01 9.400000000008e-01 9.350000000009e-01 9.300000000010e-01 9.250000000010e-01 9.200000000011e-01 9.150000000012e-01 9.100000000012e-01 9.050000000013e-01 9.000000000013e-01 8.950000000014e-01 8.900000000015e-01 8.850000000015e-01 8.800000000016e-01 8.750000000017e-01 8.700000000017e-01 8.650000000018e-01 8.600000000018e-01 8.550000000019e-01 8.500000000020e-01 8.450000000020e-01 8.400000000021e-01 8.350000000021e-01 8.300000000022e-01 8.250000000023e-01 8.200000000023e-01 8.150000000024e-01 8.100000000024e-01 8.050000000025e-01 8.000000000025e-01 7.950000000026e-01 7.900000000026e-01 7.850000000027e-01 7.800000000027e-01 7.750000000028e-01 7.700000000028e-01 7.650000000029e-01 7.600000000029e-01 7.550000000030e-01 7.500000000030e-01 7.450000000031e-01 7.400000000031e-01 7.350000000032e-01 7.300000000032e-01 7.250000000033e-01 7.200000000033e-01 7.150000000034e-01 7.100000000034e-01 7.050000000034e-01 7.000000000035e-01 6.950000000035e-01 6.900000000036e-01 6.850000000036e-01 6.800000000037e-01 6.750000000037e-01 6.700000000037e-01 6.650000000038e-01 6.600000000038e-01 6.550000000039e-01 6.500000000039e-01 6.450000000039e-01 6.400000000040e-01 6.350000000040e-01 6.300000000040e-01 6.250000000041e-01 6.200000000041e-01 6.150000000041e-01 6.100000000042e-01 6.050000000042e-01 6.000000000042e-01 5.950000000043e-01 5.900000000043e-01 5.850000000043e-01 5.800000000044e-01 5.750000000044e-01 5.700000000044e-01 5.650000000045e-01 5.600000000045e-01 5.550000000045e-01 5.500000000045e-01 5.450000000046e-01 5.400000000046e-01 5.350000000046e-01 5.300000000046e-01 5.250000000047e-01 5.200000000047e-01 5.150000000047e-01 5.100000000047e-01 5.050000000047e-01 9.950000000001e-01 9.900000000001e-01 9.850000000002e-01 9.800000000003e-01 9.750000000004e-01 9.700000000004e-01 9.650000000005e-01 9.600000000006e-01 9.550000000006e-01 9.500000000007e-01 9.450000000008e-01 9.400000000008e-01 9.350000000009e-01 9.300000000010e-01 9.250000000010e-01 9.200000000011e-01 9.150000000012e-01 9.100000000012e-01 9.050000000013e-01 9.000000000013e-01 8.950000000014e-01 8.900000000015e-01 8.850000000015e-01 8.800000000016e-01 8.750000000017e-01 8.700000000017e-01 8.650000000018e-01 8.600000000018e-01 8.550000000019e-01 8.500000000020e-01 8.450000000020e-01 8.400000000021e-01 8.350000000021e-01 8.300000000022e-01 8.250000000023e-01 8.200000000023e-01 8.150000000024e-01 8.100000000024e-01 8.050000000025e-01 8.000000000025e-01 7.950000000026e-01 7.900000000026e-01 7.850000000027e-01 7.800000000027e-01 7.750000000028e-01 7.700000000028e-01 7.650000000029e-01 7.600000000029e-01 7.550000000030e-01 7.500000000030e-01 7.450000000031e-01 7.400000000031e-01 7.350000000032e-01 7.300000000032e-01 7.250000000033e-01 7.200000000033e-01 7.150000000034e-01 7.100000000034e-01 7.050000000034e-01 7.000000000035e-01 6.950000000035e-01 6.900000000036e-01 6.850000000036e-01 6.800000000037e-01 6.750000000037e-01 6.700000000037e-01 6.650000000038e-01 6.600000000038e-01 6.550000000039e-01 6.500000000039e-01 6.450000000039e-01 6.400000000040e-01 6.350000000040e-01 6.300000000040e-01 6.250000000041e-01 6.200000000041e-01 6.150000000041e-01 6.100000000042e-01 6.050000000042e-01 6.000000000042e-01 5.950000000043e-01 5.900000000043e-01 5.850000000043e-01 5.800000000044e-01 5.750000000044e-01 5.700000000044e-01 5.650000000045e-01 5.600000000045e-01 5.550000000045e-01 5.500000000045e-01 5.450000000046e-01 5.400000000046e-01 5.350000000046e-01 5.300000000046e-01 5.250000000047e-01 5.200000000047e-01 5.150000000047e-01 5.100000000047e-01 5.050000000047e-01 4.950000000048e-01 4.900000000048e-01 4.850000000048e-01 4.800000000048e-01 4.750000000048e-01 4.700000000048e-01 4.650000000049e-01 4.600000000049e-01 4.550000000049e-01 4.500000000049e-01 4.450000000049e-01 4.400000000049e-01 4.350000000049e-01 4.300000000049e-01 4.250000000049e-01 4.200000000049e-01 4.150000000049e-01 4.100000000049e-01 4.050000000049e-01 4.000000000049e-01 3.950000000049e-01 3.900000000049e-01 3.850000000049e-01 3.800000000049e-01 3.750000000049e-01 3.700000000049e-01 3.650000000048e-01 3.600000000048e-01 3.550000000048e-01 3.500000000048e-01 3.450000000048e-01 3.400000000048e-01 3.350000000047e-01 3.300000000047e-01 3.250000000047e-01 3.200000000047e-01 3.150000000046e-01 3.100000000046e-01 3.050000000046e-01 3.000000000045e-01 2.950000000045e-01 2.900000000045e-01 2.850000000044e-01 2.800000000044e-01 2.750000000043e-01 2.700000000043e-01 2.650000000043e-01 2.600000000042e-01 2.550000000042e-01 2.500000000041e-01 2.450000000041e-01 2.400000000040e-01 2.350000000039e-01 2.300000000039e-01 2.250000000038e-01 2.200000000038e-01 2.150000000037e-01 2.100000000037e-01 2.050000000036e-01 2.000000000035e-01 1.950000000035e-01 1.900000000034e-01 1.850000000033e-01 1.800000000033e-01 1.750000000032e-01 1.700000000031e-01 1.650000000030e-01 1.600000000030e-01 1.550000000029e-01 1.500000000028e-01 1.450000000027e-01 1.400000000026e-01 1.350000000026e-01 1.300000000025e-01 1.250000000024e-01 1.200000000023e-01 1.150000000022e-01 1.100000000021e-01 1.050000000020e-01 1.000000000019e-01 9.500000000185e-02 9.000000000176e-02 8.500000000166e-02 8.000000000157e-02 7.500000000148e-02 7.000000000138e-02 6.500000000129e-02 6.000000000119e-02 5.500000000109e-02 5.000000000099e-02 4.500000000090e-02 4.000000000080e-02 3.500000000070e-02 3.000000000060e-02 2.500000000050e-02 2.000000000040e-02 1.500000000030e-02 1.000000000020e-02 5.000000000100e-03 4.950000000048e-01 4.900000000048e-01 4.850000000048e-01 4.800000000048e-01 4.750000000048e-01 4.700000000048e-01 4.650000000049e-01 4.600000000049e-01 4.550000000049e-01 4.500000000049e-01 4.450000000049e-01 4.400000000049e-01 4.350000000049e-01 4.300000000049e-01 4.250000000049e-01 4.200000000049e-01 4.150000000049e-01 4.100000000049e-01 4.050000000049e-01 4.000000000049e-01 3.950000000049e-01 3.900000000049e-01 3.850000000049e-01 3.800000000049e-01 3.750000000049e-01 3.700000000049e-01 3.650000000048e-01 3.600000000048e-01 3.550000000048e-01 3.500000000048e-01 3.450000000048e-01 3.400000000048e-01 3.350000000047e-01 3.300000000047e-01 3.250000000047e-01 3.200000000047e-01 3.150000000046e-01 3.100000000046e-01 3.050000000046e-01 3.000000000045e-01 2.950000000045e-01 2.900000000045e-01 2.850000000044e-01 2.800000000044e-01 2.750000000043e-01 2.700000000043e-01 2.650000000043e-01 2.600000000042e-01 2.550000000042e-01 2.500000000041e-01 2.450000000041e-01 2.400000000040e-01 2.350000000039e-01 2.300000000039e-01 2.250000000038e-01 2.200000000038e-01 2.150000000037e-01 2.100000000037e-01 2.050000000036e-01 2.000000000035e-01 1.950000000035e-01 1.900000000034e-01 1.850000000033e-01 1.800000000033e-01 1.750000000032e-01 1.700000000031e-01 1.650000000030e-01 1.600000000030e-01 1.550000000029e-01 1.500000000028e-01 1.450000000027e-01 1.400000000026e-01 1.350000000026e-01 1.300000000025e-01 1.250000000024e-01 1.200000000023e-01 1.150000000022e-01 1.100000000021e-01 1.050000000020e-01 1.000000000019e-01 9.500000000185e-02 9.000000000176e-02 8.500000000166e-02 8.000000000157e-02 7.500000000148e-02 7.000000000138e-02 6.500000000129e-02 6.000000000119e-02 5.500000000109e-02 5.000000000099e-02 4.500000000090e-02 4.000000000080e-02 3.500000000070e-02 3.000000000060e-02 2.500000000050e-02 2.000000000040e-02 1.500000000030e-02 1.000000000020e-02 5.000000000100e-03 
        </DataArray>
        <DataArray type="Float64" Name="GL_NODAL_VELOCITY1" NumberOfComponents="3" format="ascii">