VARIABLES = "X","Y","Z","VX","VY","VZ"
ZONE T="0.000000000000e+00s", I=100, F=POINT, C=BLACK
5.000000000000e-04 0.000000000000e+00 0.000000000000e+00 0.000000000000e+00 0.000000000000e+00 0.000000000000e+00 
1.500000000000e-03 0.000000000000e+00 0.000000000000e+00 0.000000000000e+00 0.000000000000e+00 0.000000000000e+00 
2.500000000000e-03 0.000000000000e+00 0.000000000000e+00 0.000000000000e+00 0.000000000000e+00 0.000000000000e+00 
3.500000000000e-03 0.000000000000e+00 0.000000000000e+00 0.000000000000e+00 0.000000000000e+00 0.000000000000e+00 
4.500000000000e-03 0.000000000000e+00 0.000000000000e+00 0.000000000000e+00 0.000000000000e+00 0.000000000000e+00 
5.500000000000e-03 0.000000000000e+00 0.000000000000e+00 0.000000000000e+00 0.000000000000e+00 0.000000000000e+00 
6.500000000000e-03 0.000000000000e+00 0.000000000000e+00 0.000000000000e+00 0.000000000000e+00 0.000000000000e+00 
7.500000000000e-03 0.000000000000e+00 0.000000000000e+00 0.000000000000e+00 0.000000000000e+00 0.000000000000e+00 
8.500000000000e-03 0.000000000000e+00 0.000000000000e+00 0.000000000000e+00 0.000000000000e+00 0.000000000000e+00 
9.500000000000e-03 0.000000000000e+00 0.000000000000e+00 0.000000000000e+00 0.000000000000e+00 0.000000000000e+00 
1.050000000000e-02 0.000000000000e+00 0.000000000000e+00 0.000000000000e+00 0.000000000000e+00 0.000000000000e+00 
1.150000000000e-02 0.000000000000e+00 0.000000000000e+00 0.000000000000e+00 0.000000000000e+00 0.000000000000e+00 
1.250000000000e-02 0.000000000000e+00 0.000000000000e+00 0.000000000000e+00 0.000000000000e+00 0.000000000000e+00 
1.350000000000e-02 0.000000000000e+00 0.000000000000e+00 0.000000000000e+00 0.000000000000e+00 0.000000000000e+00 
1.450000000000e-02 0.000000000000e+00 0.000000000000e+00 0.000000000000e+00 0.000000000000e+00 0.000000000000e+00 
1.550000000000e-02 0.000000000000e+00 0.000000000000e+00 0.000000000000e+00 0.000000000000e+00 0.000000000000e+00 
1.650000000000e-02 0.000000000000e+00 0.000000000000e+00 0.000000000000e+00 0.000000000000e+00 0.000000000000e+00 
1.750000000000e-02 0.000000000000e+00 0.000000000000e+00 0.000000000000e+00 0.000000000000e+00 0.000000000000e+00 
1.850000000000e-02 0.000000000000e+00 0.000000000000e+00 0.000000000000e+00 0.000000000000e+00 0.000000000000e+00 
1.950000000000e-02 0.000000000000e+00 0.000000000000e+00 0.000000000000e+00 0.000000000000e+00 0.000000000000e+00 
2.050000000000e-02 0.000000000000e+00 0.000000000000e+00 0.000000000000e+00 0.000000000000e+00 0.000000000000e+00 
2.150000000000e-02 0.000000000000e+00 0.000000000000e+00 0.000000000000e+00 0.000000000000e+00 0.000000000000e+00 
2.250000000000e-02 0.000000000000e+00 0.000000000000e+00 0.000000000000e+00 0.000000000000e+00 0.000000000000e+00 
2.350000000000e-02 0.000000000000e+00 0.000000000000e+00 0.000000000000e+00 0.000000000000e+00 0.000000000000e+00 
2.450000000000e-02 0.000000000000e+00 0.000000000000e+00 0.000000000000e+00 0.000000000000e+00 0.000000000000e+00 
2.550000000000e-02 0.000000000000e+00 0.000000000000e+00 0.000000000000e+00 0.000000000000e+00 0.000000000000e+00 
2.650000000000e-02 0.000000000000e+00 0.000000000000e+00 0.000000000000e+00 0.000000000000e+00 0.000000000000e+00 
2.750000000000e-02 0.000000000000e+00 0.000000000000e+00 0.000000000000e+00 0.000000000000e+00 0.000000000000e+00 
2.850000000000e-02 0.000000000000e+00 0.000000000000e+00 0.000000000000e+00 0.000000000000e+00 0.000000000000e+00 
2.950000000000e-02 0.000000000000e+00 0.000000000000e+00 0.000000000000e+00 0.000000000000e+00 0.000000000000e+00 
3.050000000000e-02 0.000000000000e+00 0.000000000000e+00 0.000000000000e+00 0.000000000000e+00 0.000000000000e+00 
3.150000000000e-02 0.000000000000e+00 0.000000000000e+00 0.000000000000e+00 0.000000000000e+00 0.000000000000e+00 
3.250000000000e-02 0.000000000000e+00 0.000000000000e+00 0.000000000000e+00 0.000000000000e+00 0.000000000000e+00 
3.350000000000e-02 0.000000000000e+00 0.000000000000e+00 0.000000000000e+00 0.000000000000e+00 0.000000000000e+00 
3.450000000000e-02 0.000000000000e+00 0.000000000000e+00 0.000000000000e+00 0.000000000000e+00 0.000000000000e+00 
3.550000000000e-02 0.000000000000e+00 0.000000000000e+00 0.000000000000e+00 0.000000000000e+00 0.000000000000e+00 
3.650000000000e-02 0.000000000000e+00 0.000000000000e+00 0.000000000000e+00 0.000000000000e+00 0.000000000000e+00 
3.750000000000e-02 0.000000000000e+00 0.000000000000e+00 0.000000000000e+00 0.000000000000e+00 0.000000000000e+00 
3.850000000000e-02 0.000000000000e+00 0.000000000000e+00 0.000000000000e+00 0.000000000000e+00 0.000000000000e+00 
3.950000000000e-02 0.000000000000e+00 0.000000000000e+00 0.000000000000e+00 0.000000000000e+00 0.000000000000e+00 
4.050000000000e-02 0.000000000000e+00 0.000000000000e+00 0.000000000000e+00 0.000000000000e+00 0.000000000000e+00 
4.150000000000e-02 0.000000000000e+00 0.000000000000e+00 0.000000000000e+00 0.000000000000e+00 0.000000000000e+00 
4.250000000000e-02 0.000000000000e+00 0.000000000000e+00 0.000000000000e+00 0.000000000000e+00 0.000000000000e+00 
4.350000000000e-02 0.000000000000e+00 0.000000000000e+00 0.000000000000e+00 0.000000000000e+00 0.000000000000e+00 
4.450000000000e-02 0.000000000000e+00 0.000000000000e+00 0.000000000000e+00 0.000000000000e+00 0.000000000000e+00 
4.550000000000e-02 0.000000000000e+00 0.000000000000e+00 0.000000000000e+00 0.000000000000e+00 0.000000000000e+00 
4.650000000000e-02 0.000000000000e+00 0.000000000000e+00 0.000000000000e+00 0.000000000000e+00 0.000000000000e+00 
4.750000000000e-02 0.000000000000e+00 0.000000000000e+00 0.000000000000e+00 0.000000000000e+00 0.000000000000e+00 
4.850000000000e-02 0.000000000000e+00 0.000000000000e+00 0.000000000000e+00 0.000000000000e+00 0.000000000000e+00 
4.950000000000e-02 0.000000000000e+00 0.000000000000e+00 0.000000000000e+00 0.000000000000e+00 0.000000000000e+00 
5.050000000000e-02 0.000000000000e+00 0.000000000000e+00 0.000000000000e+00 0.000000000000e+00 0.000000000000e+00 
5.150000000000e-02 0.000000000000e+00 0.000000000000e+00 0.000000000000e+00 0.000000000000e+00 0.000000000000e+00 
5.250000000000e-02 0.000000000000e+00 0.000000000000e+00 0.000000000000e+00 0.000000000000e+00 0.000000000000e+00 
5.350000000000e-02 0.000000000000e+00 0.000000000000e+00 0.000000000000e+00 0.000000000000e+00 0.000000000000e+00 
5.450000000000e-02 0.000000000000e+00 0.000000000000e+00 0.000000000000e+00 0.000000000000e+00 0.000000000000e+00 
5.550000000000e-02 0.000000000000e+00 0.000000000000e+00 0.000000000000e+00 0.000000000000e+00 0.000000000000e+00 
5.650000000000e-02 0.000000000000e+00 0.000000000000e+00 0.000000000000e+00 0.000000000000e+00 0.000000000000e+00 
5.750000000000e-02 0.000000000000e+00 0.000000000000e+00 0.000000000000e+00 0.000000000000e+00 0.000000000000e+00 
5.850000000000e-02 0.000000000000e+00 0.000000000000e+00 0.000000000000e+00 0.000000000000e+00 0.000000000000e+00 
5.950000000000e-02 0.000000000000e+00 0.000000000000e+00 0.000000000000e+00 0.000000000000e+00 0.000000000000e+00 
6.050000000000e-02 0.000000000000e+00 0.000000000000e+00 0.000000000000e+00 0.000000000000e+00 0.000000000000e+00 
6.150000000000e-02 0.000000000000e+00 0.000000000000e+00 0.000000000000e+00 0.000000000000e+00 0.000000000000e+00 
6.250000000000e-02 0.000000000000e+00 0.000000000000e+00 0.000000000000e+00 0.000000000000e+00 0.000000000000e+00 
6.350000000000e-02 0.000000000000e+00 0.000000000000e+00 0.000000000000e+00 0.000000000000e+00 0.000000000000e+00 
6.450000000000e-02 0.000000000000e+00 0.000000000000e+00 0.000000000000e+00 0.000000000000e+00 0.000000000000e+00 
6.550000000000e-02 0.000000000000e+00 0.000000000000e+00 0.000000000000e+00 0.000000000000e+00 0.000000000000e+00 
6.650000000000e-02 0.000000000000e+00 0.000000000000e+00 0.000000000000e+00 0.000000000000e+00 0.000000000000e+00 
6.750000000000e-02 0.000000000000e+00 0.000000000000e+00 0.000000000000e+00 0.000000000000e+00 0.000000000000e+00 
6.850000000000e-02 0.000000000000e+00 0.000000000000e+00 0.000000000000e+00 0.000000000000e+00 0.000000000000e+00 
6.950000000000e-02 0.000000000000e+00 0.000000000000e+00 0.000000000000e+00 0.000000000000e+00 0.000000000000e+00 
7.050000000000e-02 0.000000000000e+00 0.000000000000e+00 0.000000000000e+00 0.000000000000e+00 0.000000000000e+00 
7.150000000000e-02 0.000000000000e+00 0.000000000000e+00 0.000000000000e+00 0.000000000000e+00 0.000000000000e+00 
7.250000000000e-02 0.000000000000e+00 0.000000000000e+00 0.000000000000e+00 0.000000000000e+00 0.000000000000e+00 
7.350000000000e-02 0.000000000000e+00 0.000000000000e+00 0.000000000000e+00 0.000000000000e+00 0.000000000000e+00 
7.450000000000e-02 0.000000000000e+00 0.000000000000e+00 0.000000000000e+00 0.000000000000e+00 0.000000000000e+00 
7.550000000000e-02 0.000000000000e+00 0.000000000000e+00 0.000000000000e+00 0.000000000000e+00 0.000000000000e+00 
7.650000000000e-02 0.000000000000e+00 0.000000000000e+00 0.000000000000e+00 0.000000000000e+00 0.000000000000e+00 
7.750000000000e-02 0.000000000000e+00 0.000000000000e+00 0.000000000000e+00 0.000000000000e+00 0.000000000000e+00 
7.850000000000e-02 0.000000000000e+00 0.000000000000e+00 0.000000000000e+00 0.000000000000e+00 0.000000000000e+00 
7.950000000000e-02 0.000000000000e+00 0.000000000000e+00 0.000000000000e+00 0.000000000000e+00 0.000000000000e+00 
8.050000000000e-02 0.000000000000e+00 0.000000000000e+00 0.000000000000e+00 0.000000000000e+00 0.000000000000e+00 
8.150000000000e-02 0.000000000000e+00 0.000000000000e+00 0.000000000000e+00 0.000000000000e+00 0.000000000000e+00 
8.250000000000e-02 0.000000000000e+00 0.000000000000e+00 0.000000000000e+00 0.000000000000e+00 0.000000000000e+00 
8.350000000000e-02 0.000000000000e+00 0.000000000000e+00 0.000000000000e+00 0.000000000000e+00 0.000000000000e+00 
8.450000000000e-02 0.000000000000e+00 0.000000000000e+00 0.000000000000e+00 0.000000000000e+00 0.000000000000e+00 
8.550000000000e-02 0.000000000000e+00 0.000000000000e+00 0.000000000000e+00 0.000000000000e+00 0.000000000000e+00 
8.650000000000e-02 0.000000000000e+00 0.000000000000e+00 0.000000000000e+00 0.000000000000e+00 0.000000000000e+00 
8.750000000000e-02 0.000000000000e+00 0.000000000000e+00 0.000000000000e+00 0.000000000000e+00 0.000000000000e+00 
8.850000000000e-02 0.000000000000e+00 0.000000000000e+00 0.000000000000e+00 0.000000000000e+00 0.000000000000e+00 
8.950000000000e-02 0.000000000000e+00 0.000000000000e+00 0.000000000000e+00 0.000000000000e+00 0.000000000000e+00 
9.050000000000e-02 0.000000000000e+00 0.000000000000e+00 0.000000000000e+00 0.000000000000e+00 0.000000000000e+00 
9.150000000000e-02 0.000000000000e+00 0.000000000000e+00 0.000000000000e+00 0.000000000000e+00 0.000000000000e+00 
9.250000000000e-02 0.000000000000e+00 0.000000000000e+00 0.000000000000e+00 0.000000000000e+00 0.000000000000e+00 
9.350000000000e-02 0.000000000000e+00 0.000000000000e+00 0.000000000000e+00 0.000000000000e+00 0.000000000000e+00 
9.450000000000e-02 0.000000000000e+00 0.000000000000e+00 0.000000000000e+00 0.000000000000e+00 0.000000000000e+00 
9.550000000000e-02 0.000000000000e+00 0.000000000000e+00 0.000000000000e+00 0.000000000000e+00 0.000000000000e+00 
9.650000000000e-02 0.000000000000e+00 0.000000000000e+00 0.000000000000e+00 0.000000000000e+00 0.000000000000e+00 
9.750000000000e-02 0.000000000000e+00 0.000000000000e+00 0.000000000000e+00 0.000000000000e+00 0.000000000000e+00 
9.850000000000e-02 0.000000000000e+00 0.000000000000e+00 0.000000000000e+00 0.000000000000e+00 0.000000000000e+00 
9.950000000000e-02 0.000000000000e+00 0.000000000000e+00 0.000000000000e+00 0.000000000000e+00 0.000000000000e+00 
VARIABLES = "X","Y","Z","VX","VY","VZ"
ZONE T="5.100000000000e+01s", I=100, F=POINT, C=BLACK
5.000000000000e-04 0.000000000000e+00 0.000000000000e+00 6.242456337206e-05 0.000000000000e+00 0.000000000000e+00 
1.500000000000e-03 0.000000000000e+00 0.000000000000e+00 6.211648673281e-05 0.000000000000e+00 0.000000000000e+00 
2.500000000000e-03 0.000000000000e+00 0.000000000000e+00 6.181150505744e-05 0.000000000000e+00 0.000000000000e+00 
3.500000000000e-03 0.000000000000e+00 0.000000000000e+00 6.150961728196e-05 0.000000000000e+00 0.000000000000e+00 
4.500000000000e-03 0.000000000000e+00 0.000000000000e+00 6.121082241819e-05 0.000000000000e+00 0.000000000000e+00 
5.500000000000e-03 0.000000000000e+00 0.000000000000e+00 6.091511955277e-05 0.000000000000e+00 0.000000000000e+00 
6.500000000000e-03 0.000000000000e+00 0.000000000000e+00 6.062250784591e-05 0.000000000000e+00 0.000000000000e+00 
7.500000000000e-03 0.000000000000e+00 0.000000000000e+00 6.033298653037e-05 0.000000000000e+00 0.000000000000e+00 
8.500000000000e-03 0.000000000000e+00 0.000000000000e+00 6.004655491023e-05 0.000000000000e+00 0.000000000000e+00 
9.500000000000e-03 0.000000000000e+00 0.000000000000e+00 5.976321235977e-05 0.000000000000e+00 0.000000000000e+00 
1.050000000000e-02 0.000000000000e+00 0.000000000000e+00 5.948295832222e-05 0.000000000000e+00 0.000000000000e+00 
1.150000000000e-02 0.000000000000e+00 0.000000000000e+00 5.920579230860e-05 0.000000000000e+00 0.000000000000e+00 
1.250000000000e-02 0.000000000000e+00 0.000000000000e+00 5.893171389649e-05 0.000000000000e+00 0.000000000000e+00 
1.350000000000e-02 0.000000000000e+00 0.000000000000e+00 5.866072272873e-05 0.000000000000e+00 0.000000000000e+00 
1.450000000000e-02 0.000000000000e+00 0.000000000000e+00 5.839281851225e-05 0.000000000000e+00 0.000000000000e+00 
1.550000000000e-02 0.000000000000e+00 0.000000000000e+00 5.812800101671e-05 0.000000000000e+00 0.000000000000e+00 
1.650000000000e-02 0.000000000000e+00 0.000000000000e+00 5.786627007323e-05 0.000000000000e+00 0.000000000000e+00 
1.750000000000e-02 0.000000000000e+00 0.000000000000e+00 5.760762557310e-05 0.000000000000e+00 0.000000000000e+00 
1.850000000000e-02 0.000000000000e+00 0.000000000000e+00 5.735206746643e-05 0.000000000000e+00 0.000000000000e+00 
1.950000000000e-02 0.000000000000e+00 0.000000000000e+00 5.709959576080e-05 0.000000000000e+00 0.000000000000e+00 
2.050000000000e-02 0.000000000000e+00 0.000000000000e+00 5.685021051993e-05 0.000000000000e+00 0.000000000000e+00 
2.150000000000e-02 0.000000000000e+00 0.000000000000e+00 5.660391186224e-05 0.000000000000e+00 0.000000000000e+00 
2.250000000000e-02 0.000000000000e+00 0.000000000000e+00 5.636069995955e-05 0.000000000000e+00 0.000000000000e+00 
2.350000000000e-02 0.000000000000e+00 0.000000000000e+00 5.612057503559e-05 0.000000000000e+00 0.000000000000e+00 
2.450000000000e-02 0.000000000000e+00 0.000000000000e+00 5.588353736466e-05 0.000000000000e+00 0.000000000000e+00 
2.550000000000e-02 0.000000000000e+00 0.000000000000e+00 5.564958727012e-05 0.000000000000e+00 0.000000000000e+00 
2.650000000000e-02 0.000000000000e+00 0.000000000000e+00 5.541872512301e-05 0.000000000000e+00 0.000000000000e+00 
2.750000000000e-02 0.000000000000e+00 0.000000000000e+00 5.519095134054e-05 0.000000000000e+00 0.000000000000e+00 
2.850000000000e-02 0.000000000000e+00 0.000000000000e+00 5.496626638468e-05 0.000000000000e+00 0.000000000000e+00 
2.950000000000e-02 0.000000000000e+00 0.000000000000e+00 5.474467076059e-05 0.000000000000e+00 0.000000000000e+00 
3.050000000000e-02 0.000000000000e+00 0.000000000000e+00 5.452616501527e-05 0.000000000000e+00 0.000000000000e+00 
3.150000000000e-02 0.000000000000e+00 0.000000000000e+00 5.431074973590e-05 0.000000000000e+00 0.000000000000e+00 
3.250000000000e-02 0.000000000000e+00 0.000000000000e+00 5.409842554842e-05 0.000000000000e+00 0.000000000000e+00 
3.350000000000e-02 0.000000000000e+00 0.000000000000e+00 5.388919311601e-05 0.000000000000e+00 0.000000000000e+00 
3.450000000000e-02 0.000000000000e+00 0.000000000000e+00 5.368305313754e-05 0.000000000000e+00 0.000000000000e+00 
3.550000000000e-02 0.000000000000e+00 0.000000000000e+00 5.348000634603e-05 0.000000000000e+00 0.000000000000e+00 
3.650000000000e-02 0.000000000000e+00 0.000000000000e+00 5.328005350712e-05 0.000000000000e+00 0.000000000000e+00 
3.750000000000e-02 0.000000000000e+00 0.000000000000e+00 5.308319541753e-05 0.000000000000e+00 0.000000000000e+00 
3.850000000000e-02 0.000000000000e+00 0.000000000000e+00 5.288943290350e-05 0.000000000000e+00 0.000000000000e+00 
3.950000000000e-02 0.000000000000e+00 0.000000000000e+00 5.269876681920e-05 0.000000000000e+00 0.000000000000e+00 
4.050000000000e-02 0.000000000000e+00 0.000000000000e+00 5.251119804525e-05 0.000000000000e+00 0.000000000000e+00 
4.150000000000e-02 0.000000000000e+00 0.000000000000e+00 5.232672748705e-05 0.000000000000e+00 0.000000000000e+00 
4.250000000000e-02 0.000000000000e+00 0.000000000000e+00 5.214535607331e-05 0.000000000000e+00 0.000000000000e+00 
4.350000000000e-02 0.000000000000e+00 0.000000000000e+00 5.196708475444e-05 0.000000000000e+00 0.000000000000e+00 
4.450000000000e-02 0.000000000000e+00 0.000000000000e+00 5.179191450095e-05 0.000000000000e+00 0.000000000000e+00 
4.550000000000e-02 0.000000000000e+00 0.000000000000e+00 5.161984630197e-05 0.000000000000e+00 0.000000000000e+00 
4.650000000000e-02 0.000000000000e+00 0.000000000000e+00 5.145088116361e-05 0.000000000000e+00 0.000000000000e+00 
4.750000000000e-02 0.000000000000e+00 0.000000000000e+00 5.128502010742e-05 0.000000000000e+00 0.000000000000e+00 
4.850000000000e-02 0.000000000000e+00 0.000000000000e+00 5.112226416884e-05 0.000000000000e+00 0.000000000000e+00 
4.950000000000e-02 0.000000000000e+00 0.000000000000e+00 5.096261439565e-05 0.000000000000e+00 0.000000000000e+00 
5.050000000000e-02 0.000000000000e+00 0.000000000000e+00 5.080607184641e-05 0.000000000000e+00 0.000000000000e+00 
5.150000000000e-02 0.000000000000e+00 0.000000000000e+00 5.065263758892e-05 0.000000000000e+00 0.000000000000e+00 
5.250000000000e-02 0.000000000000e+00 0.000000000000e+00 5.050231269870e-05 0.000000000000e+00 0.000000000000e+00 
5.350000000000e-02 0.000000000000e+00 0.000000000000e+00 5.035509825742e-05 0.000000000000e+00 0.000000000000e+00 
5.450000000000e-02 0.000000000000e+00 0.000000000000e+00 5.021099535145e-05 0.000000000000e+00 0.000000000000e+00 
5.550000000000e-02 0.000000000000e+00 0.000000000000e+00 5.007000507030e-05 0.000000000000e+00 0.000000000000e+00 
5.650000000000e-02 0.000000000000e+00 0.000000000000e+00 4.993212850516e-05 0.000000000000e+00 0.000000000000e+00 
5.750000000000e-02 0.000000000000e+00 0.000000000000e+00 4.979736674739e-05 0.000000000000e+00 0.000000000000e+00 
5.850000000000e-02 0.000000000000e+00 0.000000000000e+00 4.966572088707e-05 0.000000000000e+00 0.000000000000e+00 
5.950000000000e-02 0.000000000000e+00 0.000000000000e+00 4.953719201154e-05 0.000000000000e+00 0.000000000000e+00 
6.050000000000e-02 0.000000000000e+00 0.000000000000e+00 4.941178120397e-05 0.000000000000e+00 0.000000000000e+00 
6.150000000000e-02 0.000000000000e+00 0.000000000000e+00 4.928948954193e-05 0.000000000000e+00 0.000000000000e+00 
6.250000000000e-02 0.000000000000e+00 0.000000000000e+00 4.917031809599e-05 0.000000000000e+00 0.000000000000e+00 
6.350000000000e-02 0.000000000000e+00 0.000000000000e+00 4.905426792834e-05 0.000000000000e+00 0.000000000000e+00 
6.450000000000e-02 0.000000000000e+00 0.000000000000e+00 4.894134009140e-05 0.000000000000e+00 0.000000000000e+00 
6.550000000000e-02 0.000000000000e+00 0.000000000000e+00 4.883153562653e-05 0.000000000000e+00 0.000000000000e+00 
6.650000000000e-02 0.000000000000e+00 0.000000000000e+00 4.872485556265e-05 0.000000000000e+00 0.000000000000e+00 
6.750000000000e-02 0.000000000000e+00 0.000000000000e+00 4.862130091498e-05 0.000000000000e+00 0.000000000000e+00 
6.850000000000e-02 0.000000000000e+00 0.000000000000e+00 4.852087268374e-05 0.000000000000e+00 0.000000000000e+00 
6.950000000000e-02 0.000000000000e+00 0.000000000000e+00 4.842357185293e-05 0.000000000000e+00 0.000000000000e+00 
7.050000000000e-02 0.000000000000e+00 0.000000000000e+00 4.832939938908e-05 0.000000000000e+00 0.000000000000e+00 
7.150000000000e-02 0.000000000000e+00 0.000000000000e+00 4.823835624005e-05 0.000000000000e+00 0.000000000000e+00 
7.250000000000e-02 0.000000000000e+00 0.000000000000e+00 4.815044333390e-05 0.000000000000e+00 0.000000000000e+00 
7.350000000000e-02 0.000000000000e+00 0.000000000000e+00 4.806566157770e-05 0.000000000000e+00 0.000000000000e+00 
7.450000000000e-02 0.000000000000e+00 0.000000000000e+00 4.798401185645e-05 0.000000000000e+00 0.000000000000e+00 
7.550000000000e-02 0.000000000000e+00 0.000000000000e+00 4.790549503200e-05 0.000000000000e+00 0.000000000000e+00 
7.650000000000e-02 0.000000000000e+00 0.000000000000e+00 4.783011194200e-05 0.000000000000e+00 0.000000000000e+00 
7.750000000000e-02 0.000000000000e+00 0.000000000000e+00 4.775786339885e-05 0.000000000000e+00 0.000000000000e+00 
7.850000000000e-02 0.000000000000e+00 0.000000000000e+00 4.768875018879e-05 0.000000000000e+00 0.000000000000e+00 
7.950000000000e-02 0.000000000000e+00 0.000000000000e+00 4.762277307089e-05 0.000000000000e+00 0.000000000000e+00 
8.050000000000e-02 0.000000000000e+00 0.000000000000e+00 4.755993277616e-05 0.000000000000e+00 0.000000000000e+00 
8.150000000000e-02 0.000000000000e+00 0.000000000000e+00 4.750023000667e-05 0.000000000000e+00 0.000000000000e+00 
8.250000000000e-02 0.000000000000e+00 0.000000000000e+00 4.744366543474e-05 0.000000000000e+00 0.000000000000e+00 
8.350000000000e-02 0.000000000000e+00 0.000000000000e+00 4.739023970206e-05 0.000000000000e+00 0.000000000000e+00 
8.450000000000e-02 0.000000000000e+00 0.000000000000e+00 4.733995341901e-05 0.000000000000e+00 0.000000000000e+00 
8.550000000000e-02 0.000000000000e+00 0.000000000000e+00 4.729280716389e-05 0.000000000000e+00 0.000000000000e+00 
8.650000000000e-02 0.000000000000e+00 0.000000000000e+00 4.724880148224e-05 0.000000000000e+00 0.000000000000e+00 
8.750000000000e-02 0.000000000000e+00 0.000000000000e+00 4.720793688619e-05 0.000000000000e+00 0.000000000000e+00 
8.850000000000e-02 0.000000000000e+00 0.000000000000e+00 4.717021385386e-05 0.000000000000e+00 0.000000000000e+00 
8.950000000000e-02 0.000000000000e+00 0.000000000000e+00 4.713563282880e-05 0.000000000000e+00 0.000000000000e+00 
9.050000000000e-02 0.000000000000e+00 0.000000000000e+00 4.710419421945e-05 0.000000000000e+00 0.000000000000e+00 
9.150000000000e-02 0.000000000000e+00 0.000000000000e+00 4.707589839866e-05 0.000000000000e+00 0.000000000000e+00 
9.250000000000e-02 0.000000000000e+00 0.000000000000e+00 4.705074570326e-05 0.000000000000e+00 0.000000000000e+00 
9.350000000000e-02 0.000000000000e+00 0.000000000000e+00 4.702873643368e-05 0.000000000000e+00 0.000000000000e+00 
9.450000000000e-02 0.000000000000e+00 0.000000000000e+00 4.700987085353e-05 0.000000000000e+00 0.000000000000e+00 
9.550000000000e-02 0.000000000000e+00 0.000000000000e+00 4.699414918938e-05 0.000000000000e+00 0.000000000000e+00 
9.650000000000e-02 0.000000000000e+00 0.000000000000e+00 4.698157163043e-05 0.000000000000e+00 0.000000000000e+00 
9.750000000000e-02 0.000000000000e+00 0.000000000000e+00 4.697213832830e-05 0.000000000000e+00 0.000000000000e+00 
9.850000000000e-02 0.000000000000e+00 0.000000000000e+00 4.696584939690e-05 0.000000000000e+00 0.000000000000e+00 
9.950000000000e-02 0.000000000000e+00 0.000000000000e+00 4.696270491217e-05 0.000000000000e+00 0.000000000000e+00 
VARIABLES = "X","Y","Z","VX","VY","VZ"
ZONE T="1.020000000000e+02s", I=100, F=POINT, C=BLACK
5.000000000000e-04 0.000000000000e+00 0.000000000000e+00 5.564301754930e-05 0.000000000000e+00 0.000000000000e+00 
1.500000000000e-03 0.000000000000e+00 0.000000000000e+00 5.556111401500e-05 0.000000000000e+00 0.000000000000e+00 
2.500000000000e-03 0.000000000000e+00 0.000000000000e+00 5.547894371502e-05 0.000000000000e+00 0.000000000000e+00 
3.500000000000e-03 0.000000000000e+00 0.000000000000e+00 5.539654804873e-05 0.000000000000e+00 0.000000000000e+00 
4.500000000000e-03 0.000000000000e+00 0.000000000000e+00 5.531396750797e-05 0.000000000000e+00 0.000000000000e+00 
5.500000000000e-03 0.000000000000e+00 0.000000000000e+00 5.523124169798e-05 0.000000000000e+00 0.000000000000e+00 
6.500000000000e-03 0.000000000000e+00 0.000000000000e+00 5.514840935784e-05 0.000000000000e+00 0.000000000000e+00 
7.500000000000e-03 0.000000000000e+00 0.000000000000e+00 5.506550838028e-05 0.000000000000e+00 0.000000000000e+00 
8.500000000000e-03 0.000000000000e+00 0.000000000000e+00 5.498257583086e-05 0.000000000000e+00 0.000000000000e+00 
9.500000000000e-03 0.000000000000e+00 0.000000000000e+00 5.489964796666e-05 0.000000000000e+00 0.000000000000e+00 
1.050000000000e-02 0.000000000000e+00 0.000000000000e+00 5.481676025432e-05 0.000000000000e+00 0.000000000000e+00 
1.150000000000e-02 0.000000000000e+00 0.000000000000e+00 5.473394738772e-05 0.000000000000e+00 0.000000000000e+00 
1.250000000000e-02 0.000000000000e+00 0.000000000000e+00 5.465124330492e-05 0.000000000000e+00 0.000000000000e+00 
1.350000000000e-02 0.000000000000e+00 0.000000000000e+00 5.456868120487e-05 0.000000000000e+00 0.000000000000e+00 
1.450000000000e-02 0.000000000000e+00 0.000000000000e+00 5.448629356347e-05 0.000000000000e+00 0.000000000000e+00 
1.550000000000e-02 0.000000000000e+00 0.000000000000e+00 5.440411214914e-05 0.000000000000e+00 0.000000000000e+00 
1.650000000000e-02 0.000000000000e+00 0.000000000000e+00 5.432216803814e-05 0.000000000000e+00 0.000000000000e+00 
1.750000000000e-02 0.000000000000e+00 0.000000000000e+00 5.424049162923e-05 0.000000000000e+00 0.000000000000e+00 
1.850000000000e-02 0.000000000000e+00 0.000000000000e+00 5.415911265810e-05 0.000000000000e+00 0.000000000000e+00 
1.950000000000e-02 0.000000000000e+00 0.000000000000e+00 5.407806021121e-05 0.000000000000e+00 0.000000000000e+00 
2.050000000000e-02 0.000000000000e+00 0.000000000000e+00 5.399736273944e-05 0.000000000000e+00 0.000000000000e+00 
2.150000000000e-02 0.000000000000e+00 0.000000000000e+00 5.391704807120e-05 0.000000000000e+00 0.000000000000e+00 
2.250000000000e-02 0.000000000000e+00 0.000000000000e+00 5.383714342521e-05 0.000000000000e+00 0.000000000000e+00 
2.350000000000e-02 0.000000000000e+00 0.000000000000e+00 5.375767542295e-05 0.000000000000e+00 0.000000000000e+00 
2.450000000000e-02 0.000000000000e+00 0.000000000000e+00 5.367867010081e-05 0.000000000000e+00 0.000000000000e+00 
2.550000000000e-02 0.000000000000e+00 0.000000000000e+00 5.360015292173e-05 0.000000000000e+00 0.000000000000e+00 
2.650000000000e-02 0.000000000000e+00 0.000000000000e+00 5.352214878669e-05 0.000000000000e+00 0.000000000000e+00 
2.750000000000e-02 0.000000000000e+00 0.000000000000e+00 5.344468204580e-05 0.000000000000e+00 0.000000000000e+00 
2.850000000000e-02 0.000000000000e+00 0.000000000000e+00 5.336777650912e-05 0.000000000000e+00 0.000000000000e+00 
2.950000000000e-02 0.000000000000e+00 0.000000000000e+00 5.329145545709e-05 0.000000000000e+00 0.000000000000e+00 
3.050000000000e-02 0.000000000000e+00 0.000000000000e+00 5.321574165080e-05 0.000000000000e+00 0.000000000000e+00 
3.150000000000e-02 0.000000000000e+00 0.000000000000e+00 5.314065734187e-05 0.000000000000e+00 0.000000000000e+00 
3.250000000000e-02 0.000000000000e+00 0.000000000000e+00 5.306622428211e-05 0.000000000000e+00 0.000000000000e+00 
3.350000000000e-02 0.000000000000e+00 0.000000000000e+00 5.299246373287e-05 0.000000000000e+00 0.000000000000e+00 
3.450000000000e-02 0.000000000000e+00 0.000000000000e+00 5.291939647423e-05 0.000000000000e+00 0.000000000000e+00 
3.550000000000e-02 0.000000000000e+00 0.000000000000e+00 5.284704281374e-05 0.000000000000e+00 0.000000000000e+00 
3.650000000000e-02 0.000000000000e+00 0.000000000000e+00 5.277542259515e-05 0.000000000000e+00 0.000000000000e+00 
3.750000000000e-02 0.000000000000e+00 0.000000000000e+00 5.270455520673e-05 0.000000000000e+00 0.000000000000e+00 
3.850000000000e-02 0.000000000000e+00 0.000000000000e+00 5.263445958941e-05 0.000000000000e+00 0.000000000000e+00 
3.950000000000e-02 0.000000000000e+00 0.000000000000e+00 5.256515424470e-05 0.000000000000e+00 0.000000000000e+00 
4.050000000000e-02 0.000000000000e+00 0.000000000000e+00 5.249665724242e-05 0.000000000000e+00 0.000000000000e+00 
4.150000000000e-02 0.000000000000e+00 0.000000000000e+00 5.242898622811e-05 0.000000000000e+00 0.000000000000e+00 
4.250000000000e-02 0.000000000000e+00 0.000000000000e+00 5.236215843035e-05 0.000000000000e+00 0.000000000000e+00 
4.350000000000e-02 0.000000000000e+00 0.000000000000e+00 5.229619066778e-05 0.000000000000e+00 0.000000000000e+00 
4.450000000000e-02 0.000000000000e+00 0.000000000000e+00 5.223109935603e-05 0.000000000000e+00 0.000000000000e+00 
4.550000000000e-02 0.000000000000e+00 0.000000000000e+00 5.216690051431e-05 0.000000000000e+00 0.000000000000e+00 
4.650000000000e-02 0.000000000000e+00 0.000000000000e+00 5.210360977193e-05 0.000000000000e+00 0.000000000000e+00 
4.750000000000e-02 0.000000000000e+00 0.000000000000e+00 5.204124237458e-05 0.000000000000e+00 0.000000000000e+00 
4.850000000000e-02 0.000000000000e+00 0.000000000000e+00 5.197981319046e-05 0.000000000000e+00 0.000000000000e+00 
4.950000000000e-02 0.000000000000e+00 0.000000000000e+00 5.191933671617e-05 0.000000000000e+00 0.000000000000e+00 
5.050000000000e-02 0.000000000000e+00 0.000000000000e+00 5.185982708253e-05 0.000000000000e+00 0.000000000000e+00 
5.150000000000e-02 0.000000000000e+00 0.000000000000e+00 5.180129806013e-05 0.000000000000e+00 0.000000000000e+00 
5.250000000000e-02 0.000000000000e+00 0.000000000000e+00 5.174376306481e-05 0.000000000000e+00 0.000000000000e+00 
5.350000000000e-02 0.000000000000e+00 0.000000000000e+00 5.168723516283e-05 0.000000000000e+00 0.000000000000e+00 
5.450000000000e-02 0.000000000000e+00 0.000000000000e+00 5.163172707611e-05 0.000000000000e+00 0.000000000000e+00 
5.550000000000e-02 0.000000000000e+00 0.000000000000e+00 5.157725118708e-05 0.000000000000e+00 0.000000000000e+00 
5.650000000000e-02 0.000000000000e+00 0.000000000000e+00 5.152381954358e-05 0.000000000000e+00 0.000000000000e+00 
5.750000000000e-02 0.000000000000e+00 0.000000000000e+00 5.147144386341e-05 0.000000000000e+00 0.000000000000e+00 