<?xml version="1.0"?>
<!-- Time step: 60 | Time: 3.060000000000e+03 -->
<VTKFile type="UnstructuredGrid" version="0.1" byte_order="LittleEndian">
  <UnstructuredGrid>
    <Piece NumberOfPoints="101" NumberOfCells="100">
      <Points>
        <DataArray type="Float64" NumberOfComponents="3" format="ascii">
          0.000000000000e+00 0.000000000000e+00 0.000000000000e+00
          1.000000000000e-03 0.000000000000e+00 0.000000000000e+00
          2.000000000000e-03 0.000000000000e+00 0.000000000000e+00
          3.000000000000e-03 0.000000000000e+00 0.000000000000e+00
          4.000000000000e-03 0.000000000000e+00 0.000000000000e+00
          5.000000000000e-03 0.000000000000e+00 0.000000000000e+00
          6.000000000000e-03 0.000000000000e+00 0.000000000000e+00
          7.000000000000e-03 0.000000000000e+00 0.000000000000e+00
          8.000000000000e-03 0.000000000000e+00 0.000000000000e+00
          9.000000000000e-03 0.000000000000e+00 0.000000000000e+00
          1.000000000000e-02 0.000000000000e+00 0.000000000000e+00
          1.100000000000e-02 0.000000000000e+00 0.000000000000e+00
          1.200000000000e-02 0.000000000000e+00 0.000000000000e+00
          1.300000000000e-02 0.000000000000e+00 0.000000000000e+00
          1.400000000000e-02 0.000000000000e+00 0.000000000000e+00
          1.500000000000e-02 0.000000000000e+00 0.000000000000e+00
          1.600000000000e-02 0.000000000000e+00 0.000000000000e+00
          1.700000000000e-02 0.000000000000e+00 0.000000000000e+00
          1.800000000000e-02 0.000000000000e+00 0.000000000000e+00
          1.900000000000e-02 0.000000000000e+00 0.000000000000e+00
          2.000000000000e-02 0.000000000000e+00 0.000000000000e+00
          2.100000000000e-02 0.000000000000e+00 0.000000000000e+00
          2.200000000000e-02 0.000000000000e+00 0.000000000000e+00
          2.300000000000e-02 0.000000000000e+00 0.000000000000e+00
          2.400000000000e-02 0.000000000000e+00 0.000000000000e+00
          2.500000000000e-02 0.000000000000e+00 0.000000000000e+00
          2.600000000000e-02 0.000000000000e+00 0.000000000000e+00
          2.700000000000e-02 0.000000000000e+00 0.000000000000e+00
          2.800000000000e-02 0.000000000000e+00 0.000000000000e+00
          2.900000000000e-02 0.000000000000e+00 0.000000000000e+00
          3.000000000000e-02 0.000000000000e+00 0.000000000000e+00
          3.100000000000e-02 0.000000000000e+00 0.000000000000e+00
          3.200000000000e-02 0.000000000000e+00 0.000000000000e+00
          3.300000000000e-02 0.000000000000e+00 0.000000000000e+00
          3.400000000000e-02 0.000000000000e+00 0.000000000000e+00
          3.500000000000e-02 0.000000000000e+00 0.000000000000e+00
          3.600000000000e-02 0.000000000000e+00 0.000000000000e+00
          3.700000000000e-02 0.000000000000e+00 0.000000000000e+00
          3.800000000000e-02 0.000000000000e+00 0.000000000000e+00
          3.900000000000e-02 0.000000000000e+00 0.000000000000e+00
          4.000000000000e-02 0.000000000000e+00 0.000000000000e+00
          4.100000000000e-02 0.000000000000e+00 0.000000000000e+00
          4.200000000000e-02 0.000000000000e+00 0.000000000000e+00
          4.300000000000e-02 0.000000000000e+00 0.000000000000e+00
          4.400000000000e-02 0.000000000000e+00 0.000000000000e+00
          4.500000000000e-02 0.000000000000e+00 0.000000000000e+00
          4.600000000000e-02 0.000000000000e+00 0.000000000000e+00
          4.700000000000e-02 0.000000000000e+00 0.000000000000e+00
          4.800000000000e-02 0.000000000000e+00 0.000000000000e+00
          4.900000000000e-02 0.000000000000e+00 0.000000000000e+00
          5.000000000000e-02 0.000000000000e+00 0.000000000000e+00
          5.100000000000e-02 0.000000000000e+00 0.000000000000e+00
          5.200000000000e-02 0.000000000000e+00 0.000000000000e+00
          5.300000000000e-02 0.000000000000e+00 0.000000000000e+00
          5.400000000000e-02 0.000000000000e+00 0.000000000000e+00
          5.500000000000e-02 0.000000000000e+00 0.000000000000e+00
          5.600000000000e-02 0.000000000000e+00 0.000000000000e+00
          5.700000000000e-02 0.000000000000e+00 0.000000000000e+00
          5.800000000000e-02 0.000000000000e+00 0.000000000000e+00
          5.900000000000e-02 0.000000000000e+00 0.000000000000e+00
          6.000000000000e-02 0.000000000000e+00 0.000000000000e+00
          6.100000000000e-02 0.000000000000e+00 0.000000000000e+00
          6.200000000000e-02 0.000000000000e+00 0.000000000000e+00
          6.300000000000e-02 0.000000000000e+00 0.000000000000e+00
          6.400000000000e-02 0.000000000000e+00 0.000000000000e+00
          6.500000000000e-02 0.000000000000e+00 0.000000000000e+00
          6.600000000000e-02 0.000000000000e+00 0.000000000000e+00
          6.700000000000e-02 0.000000000000e+00 0.000000000000e+00
          6.800000000000e-02 0.000000000000e+00 0.000000000000e+00
          6.900000000000e-02 0.000000000000e+00 0.000000000000e+00
          7.000000000000e-02 0.000000000000e+00 0.000000000000e+00
          7.100000000000e-02 0.000000000000e+00 0.000000000000e+00
          7.200000000000e-02 0.000000000000e+00 0.000000000000e+00
          7.300000000000e-02 0.000000000000e+00 0.000000000000e+00
          7.400000000000e-02 0.000000000000e+00 0.000000000000e+00
          7.500000000000e-02 0.000000000000e+00 0.000000000000e+00
          7.600000000000e-02 0.000000000000e+00 0.000000000000e+00
          7.700000000000e-02 0.000000000000e+00 0.000000000000e+00
          7.800000000000e-02 0.000000000000e+00 0.000000000000e+00
          7.900000000000e-02 0.000000000000e+00 0.000000000000e+00
          8.000000000000e-02 0.000000000000e+00 0.000000000000e+00
          8.100000000000e-02 0.000000000000e+00 0.000000000000e+00
          8.200000000000e-02 0.000000000000e+00 0.000000000000e+00
          8.300000000000e-02 0.000000000000e+00 0.000000000000e+00
          8.400000000000e-02 0.000000000000e+00 0.000000000000e+00
          8.500000000000e-02 0.000000000000e+00 0.000000000000e+00
          8.600000000000e-02 0.000000000000e+00 0.000000000000e+00
          8.700000000000e-02 0.000000000000e+00 0.000000000000e+00
          8.800000000000e-02 0.000000000000e+00 0.000000000000e+00
          8.900000000000e-02 0.000000000000e+00 0.000000000000e+00
          9.000000000000e-02 0.000000000000e+00 0.000000000000e+00
          9.100000000000e-02 0.000000000000e+00 0.000000000000e+00
          9.200000000000e-02 0.000000000000e+00 0.000000000000e+00
          9.300000000000e-02 0.000000000000e+00 0.000000000000e+00
          9.400000000000e-02 0.000000000000e+00 0.000000000000e+00
          9.500000000000e-02 0.000000000000e+00 0.000000000000e+00
          9.600000000000e-02 0.000000000000e+00 0.000000000000e+00
          9.700000000000e-02 0.000000000000e+00 0.000000000000e+00
          9.800000000000e-02 0.000000000000e+00 0.000000000000e+00
          9.900000000000e-02 0.000000000000e+00 0.000000000000e+00
          1.000000000000e-01 0.000000000000e+00 0.000000000000e+00
        </DataArray>
      </Points>
      <Cells>
        <DataArray type="Int64" Name="connectivity" format="ascii">
          0 1 
          1 2 
          2 3 
          3 4 
          4 5 
          5 6 
          6 7 
          7 8 
          8 9 
          9 10 
          10 11 
          11 12 
          12 13 
          13 14 
          14 15 
          15 16 
          16 17 
          17 18 
          18 19 
          19 20 
          20 21 
          21 22 
          22 23 
          23 24 
          24 25 
          25 26 
          26 27 
          27 28 
          28 29 
          29 30 
          30 31 
          31 32 
          32 33 
          33 34 
          34 35 
          35 36 
          36 37 
          37 38 
          38 39 
          39 40 
          40 41 
          41 42 
          42 43 
          43 44 
          44 45 
          45 46 
          46 47 
          47 48 
          48 49 
          49 50 
          50 51 
          51 52 
          52 53 
          53 54 
          54 55 
          55 56 
          56 57 
          57 58 
          58 59 
          59 60 
          60 61 
          61 62 
          62 63 
          63 64 
          64 65 
          65 66 
          66 67 
          67 68 
          68 69 
          69 70 
          70 71 
          71 72 
          72 73 
          73 74 
          74 75 
          75 76 
          76 77 
          77 78 
          78 79 
          79 80 
          80 81 
          81 82 
          82 83 
          83 84 
          84 85 
          85 86 
          86 87 
          87 88 
          88 89 
          89 90 
          90 91 
          91 92 
          92 93 
          93 94 
          94 95 
          95 96 
          96 97 
          97 98 
          98 99 
          99 100 
        </DataArray>
        <DataArray type="Int64" Name="offsets" format="ascii">
          2 4 6 8 10 12 14 16 18 20 22 24 26 28 30 32 34 36 38 40 42 44 46 48 50 52 54 56 58 60 62 64 66 68 70 72 74 76 78 80 82 84 86 88 90 92 94 96 98 100 102 104 106 108 110 112 114 116 118 120 122 124 126 128 130 132 134 136 138 140 142 144 146 148 150 152 154 156 158 160 162 164 166 168 170 172 174 176 178 180 182 184 186 188 190 192 194 196 198 200 
        </DataArray>
        <DataArray type="UInt8" Name="types" format="ascii">
          3 3 3 3 3 3 3 3 3 3 3 3 3 3 3 3 3 3 3 3 3 3 3 3 3 3 3 3 3 3 3 3 3 3 3 3 3 3 3 3 3 3 3 3 3 3 3 3 3 3 3 3 3 3 3 3 3 3 3 3 3 3 3 3 3 3 3 3 3 3 3 3 3 3 3 3 3 3 3 3 3 3 3 3 3 3 3 3 3 3 3 3 3 3 3 3 3 3 3 3 
        </DataArray>
      </Cells>
      <PointData Scalars="HEAD">
        <DataArray type="Float64" Name="HEAD" format="ascii">
          9.555000000000e-02 9.479829996267e-02 9.404659992538e-02 9.329489988817e-02 9.254319985106e-02 9.179149981411e-02 9.103979977735e-02 9.028809974081e-02 8.953639970454e-02 8.878469966856e-02 8.803299963292e-02 8.728129959765e-02 8.652959956278e-02 8.577789952835e-02 8.502619949440e-02 8.427449946095e-02 8.352279942805e-02 8.277109939572e-02 8.201939936400e-02 8.126769933292e-02 8.051599930251e-02 7.976429927279e-02 7.901259924380e-02 7.826089921557e-02 7.750919918813e-02 7.675749916149e-02 7.600579913570e-02 7.525409911076e-02 7.450239908671e-02 7.375069906358e-02 7.299899904137e-02 7.224729902012e-02 7.149559899985e-02 7.074389898057e-02 6.999219896230e-02 6.924049894507e-02 6.848879892888e-02 6.773709891376e-02 6.698539889971e-02 6.623369888676e-02 6.548199887490e-02 6.473029886417e-02 6.397859885455e-02 6.322689884607e-02 6.247519883873e-02 6.172349883254e-02 6.097179882750e-02 6.022009882362e-02 5.946839882090e-02 5.871669881934e-02 5.796499881895e-02 5.721329881972e-02 5.646159882165e-02 5.570989882475e-02 5.495819882900e-02 5.420649883440e-02 5.345479884095e-02 5.270309884864e-02 5.195139885746e-02 5.119969886740e-02 5.044799887846e-02 4.969629889062e-02 4.894459890386e-02 4.819289891818e-02 4.744119893356e-02 4.668949894999e-02 4.593779896744e-02 4.518609898591e-02 4.443439900537e-02 4.368269902580e-02 4.293099904719e-02 4.217929906951e-02 4.142759909274e-02 4.067589911686e-02 3.992419914184e-02 3.917249916766e-02 3.842079919429e-02 3.766909922171e-02 3.691739924989e-02 3.616569927880e-02 3.541399930842e-02 3.466229933871e-02 3.391059936965e-02 3.315889940120e-02 3.240719943334e-02 3.165549946603e-02 3.090379949924e-02 3.015209953294e-02 2.940039956709e-02 2.864869960167e-02 2.789699963664e-02 2.714529967195e-02 2.639359970759e-02 2.564189974352e-02 2.489019977969e-02 2.413849981608e-02 2.338679985265e-02 2.263509988936e-02 2.188339992618e-02 2.113169996307e-02 2.038000000000e-02 
        </DataArray>
        <DataArray type="Float64" Name="NODAL_VELOCITY1" NumberOfComponents="3" format="ascii">
          5.228994137081e-05 0.000000000000e+00 0.000000000000e+00 5.228994136984e-05 0.000000000000e+00 0.000000000000e+00 5.228994136695e-05 0.000000000000e+00 0.000000000000e+00 5.228994136213e-05 0.000000000000e+00 0.000000000000e+00 5.228994135540e-05 0.000000000000e+00 0.000000000000e+00 5.228994134675e-05 0.000000000000e+00 0.000000000000e+00 5.228994133622e-05 0.000000000000e+00 0.000000000000e+00 5.228994132380e-05 0.000000000000e+00 0.000000000000e+00 5.228994130951e-05 0.000000000000e+00 0.000000000000e+00 5.228994129337e-05 0.000000000000e+00 0.000000000000e+00 5.228994127540e-05 0.000000000000e+00 0.000000000000e+00 5.228994125562e-05 0.000000000000e+00 0.000000000000e+00 5.228994123405e-05 0.000000000000e+00 0.000000000000e+00 5.228994121071e-05 0.000000000000e+00 0.000000000000e+00 5.228994118564e-05 0.000000000000e+00 0.000000000000e+00 5.228994115885e-05 0.000000000000e+00 0.000000000000e+00 5.228994113038e-05 0.000000000000e+00 0.000000000000e+00 5.228994110026e-05 0.000000000000e+00 0.000000000000e+00 5.228994106852e-05 0.000000000000e+00 0.000000000000e+00 5.228994103519e-05 0.000000000000e+00 0.000000000000e+00 5.228994100031e-05 0.000000000000e+00 0.000000000000e+00 5.228994096392e-05 0.000000000000e+00 0.000000000000e+00 5.228994092605e-05 0.000000000000e+00 0.000000000000e+00 5.228994088674e-05 0.000000000000e+00 0.000000000000e+00 5.228994084604e-05 0.000000000000e+00 0.000000000000e+00 5.228994080399e-05 0.000000000000e+00 0.000000000000e+00 5.228994076062e-05 0.000000000000e+00 0.000000000000e+00 5.228994071600e-05 0.000000000000e+00 0.000000000000e+00 5.228994067015e-05 0.000000000000e+00 0.000000000000e+00 5.228994062313e-05 0.000000000000e+00 0.000000000000e+00 5.228994057498e-05 0.000000000000e+00 0.000000000000e+00 5.228994052577e-05 0.000000000000e+00 0.000000000000e+00 5.228994047552e-05 0.000000000000e+00 0.000000000000e+00 5.228994042430e-05 0.000000000000e+00 0.000000000000e+00 5.228994037216e-05 0.000000000000e+00 0.000000000000e+00 5.228994031915e-05 0.000000000000e+00 0.000000000000e+00 5.228994026532e-05 0.000000000000e+00 0.000000000000e+00 5.228994021073e-05 0.000000000000e+00 0.000000000000e+00 5.228994015543e-05 0.000000000000e+00 0.000000000000e+00 5.228994009947e-05 0.000000000000e+00 0.000000000000e+00 5.228994004292e-05 0.000000000000e+00 0.000000000000e+00 5.228993998583e-05 0.000000000000e+00 0.000000000000e+00 5.228993992826e-05 0.000000000000e+00 0.000000000000e+00 5.228993987025e-05 0.000000000000e+00 0.000000000000e+00 5.228993981188e-05 0.000000000000e+00 0.000000000000e+00 5.228993975319e-05 0.000000000000e+00 0.000000000000e+00 5.228993969425e-05 0.000000000000e+00 0.000000000000e+00 5.228993963511e-05 0.000000000000e+00 0.000000000000e+00 5.228993957583e-05 0.000000000000e+00 0.000000000000e+00 5.228993951648e-05 0.000000000000e+00 0.000000000000e+00 5.228993945710e-05 0.000000000000e+00 0.000000000000e+00 5.228993939776e-05 0.000000000000e+00 0.000000000000e+00 5.228993933851e-05 0.000000000000e+00 0.000000000000e+00 5.228993927941e-05 0.000000000000e+00 0.000000000000e+00 5.228993922052e-05 0.000000000000e+00 0.000000000000e+00 5.228993916190e-05 0.000000000000e+00 0.000000000000e+00 5.228993910360e-05 0.000000000000e+00 0.000000000000e+00 5.228993904568e-05 0.000000000000e+00 0.000000000000e+00 5.228993898820e-05 0.000000000000e+00 0.000000000000e+00 5.228993893121e-05 0.000000000000e+00 0.000000000000e+00 5.228993887476e-05 0.000000000000e+00 0.000000000000e+00 5.228993881892e-05 0.000000000000e+00 0.000000000000e+00 5.228993876374e-05 0.000000000000e+00 0.000000000000e+00 5.228993870926e-05 0.000000000000e+00 0.000000000000e+00 5.228993865554e-05 0.000000000000e+00 0.000000000000e+00 5.228993860263e-05 0.000000000000e+00 0.000000000000e+00 5.228993855059e-05 0.000000000000e+00 0.000000000000e+00 5.228993849946e-05 0.000000000000e+00 0.000000000000e+00 5.228993844930e-05 0.000000000000e+00 0.000000000000e+00 5.228993840014e-05 0.000000000000e+00 0.000000000000e+00 5.228993835205e-05 0.000000000000e+00 0.000000000000e+00 5.228993830505e-05 0.000000000000e+00 0.000000000000e+00 5.228993825921e-05 0.000000000000e+00 0.000000000000e+00 5.228993821456e-05 0.000000000000e+00 0.000000000000e+00 5.228993817114e-05 0.000000000000e+00 0.000000000000e+00 5.228993812900e-05 0.000000000000e+00 0.000000000000e+00 5.228993808818e-05 0.000000000000e+00 0.000000000000e+00 5.228993804871e-05 0.000000000000e+00 0.000000000000e+00 5.228993801064e-05 0.000000000000e+00 0.000000000000e+00 5.228993797399e-05 0.000000000000e+00 0.000000000000e+00 5.228993793881e-05 0.000000000000e+00 0.000000000000e+00 5.228993790513e-05 0.000000000000e+00 0.000000000000e+00 5.228993787298e-05 0.000000000000e+00 0.000000000000e+00 5.228993784239e-05 0.000000000000e+00 0.000000000000e+00 5.228993781339e-05 0.000000000000e+00 0.000000000000e+00 5.228993778601e-05 0.000000000000e+00 0.000000000000e+00 5.228993776026e-05 0.000000000000e+00 0.000000000000e+00 5.228993773619e-05 0.000000000000e+00 0.000000000000e+00 5.228993771381e-05 0.000000000000e+00 0.000000000000e+00 5.228993769314e-05 0.000000000000e+00 0.000000000000e+00 5.228993767420e-05 0.000000000000e+00 0.000000000000e+00 5.228993765701e-05 0.000000000000e+00 0.000000000000e+00 5.228993764158e-05 0.000000000000e+00 0.000000000000e+00 5.228993762794e-05 0.000000000000e+00 0.000000000000e+00 5.228993761609e-05 0.000000000000e+00 0.000000000000e+00 5.228993760604e-05 0.000000000000e+00 0.000000000000e+00 5.228993759780e-05 0.000000000000e+00 0.000000000000e+00 5.228993759139e-05 0.000000000000e+00 0.000000000000e+00 5.228993758681e-05 0.000000000000e+00 0.000000000000e+00 5.228993758406e-05 0.000000000000e+00 0.000000000000e+00 5.228993758314e-05 0.000000000000e+00 0.000000000000e+00 
        </DataArray>
      </PointData>
      <CellData>
      </CellData>
    </Piece>
  </UnstructuredGrid>
</VTKFile>
