VARIABLES = "X","Y","Z","VX","VY","VZ"
ZONE T="0.000000000000e+00s", I=100, F=POINT, C=BLACK
5.000000000000e-04 0.000000000000e+00 0.000000000000e+00 0.000000000000e+00 0.000000000000e+00 0.000000000000e+00 
1.500000000000e-03 0.000000000000e+00 0.000000000000e+00 0.000000000000e+00 0.000000000000e+00 0.000000000000e+00 
2.500000000000e-03 0.000000000000e+00 0.000000000000e+00 0.000000000000e+00 0.000000000000e+00 0.000000000000e+00 
3.500000000000e-03 0.000000000000e+00 0.000000000000e+00 0.000000000000e+00 0.000000000000e+00 0.000000000000e+00 
4.500000000000e-03 0.000000000000e+00 0.000000000000e+00 0.000000000000e+00 0.000000000000e+00 0.000000000000e+00 
5.500000000000e-03 0.000000000000e+00 0.000000000000e+00 0.000000000000e+00 0.000000000000e+00 0.000000000000e+00 
6.500000000000e-03 0.000000000000e+00 0.000000000000e+00 0.000000000000e+00 0.000000000000e+00 0.000000000000e+00 
7.500000000000e-03 0.000000000000e+00 0.000000000000e+00 0.000000000000e+00 0.000000000000e+00 0.000000000000e+00 
8.500000000000e-03 0.000000000000e+00 0.000000000000e+00 0.000000000000e+00 0.000000000000e+00 0.000000000000e+00 
9.500000000000e-03 0.000000000000e+00 0.000000000000e+00 0.000000000000e+00 0.000000000000e+00 0.000000000000e+00 
1.050000000000e-02 0.000000000000e+00 0.000000000000e+00 0.000000000000e+00 0.000000000000e+00 0.000000000000e+00 
1.150000000000e-02 0.000000000000e+00 0.000000000000e+00 0.000000000000e+00 0.000000000000e+00 0.000000000000e+00 
1.250000000000e-02 0.000000000000e+00 0.000000000000e+00 0.000000000000e+00 0.000000000000e+00 0.000000000000e+00 
1.350000000000e-02 0.000000000000e+00 0.000000000000e+00 0.000000000000e+00 0.000000000000e+00 0.000000000000e+00 
1.450000000000e-02 0.000000000000e+00 0.000000000000e+00 0.000000000000e+00 0.000000000000e+00 0.000000000000e+00 
1.550000000000e-02 0.000000000000e+00 0.000000000000e+00 0.000000000000e+00 0.000000000000e+00 0.000000000000e+00 
1.650000000000e-02 0.000000000000e+00 0.000000000000e+00 0.000000000000e+00 0.000000000000e+00 0.000000000000e+00 
1.750000000000e-02 0.000000000000e+00 0.000000000000e+00 0.000000000000e+00 0.000000000000e+00 0.000000000000e+00 
1.850000000000e-02 0.000000000000e+00 0.000000000000e+00 0.000000000000e+00 0.000000000000e+00 0.000000000000e+00 
1.950000000000e-02 0.000000000000e+00 0.000000000000e+00 0.000000000000e+00 0.000000000000e+00 0.000000000000e+00 
2.050000000000e-02 0.000000000000e+00 0.000000000000e+00 0.000000000000e+00 0.000000000000e+00 0.000000000000e+00 
2.150000000000e-02 0.000000000000e+00 0.000000000000e+00 0.000000000000e+00 0.000000000000e+00 0.000000000000e+00 
2.250000000000e-02 0.000000000000e+00 0.000000000000e+00 0.000000000000e+00 0.000000000000e+00 0.000000000000e+00 
2.350000000000e-02 0.000000000000e+00 0.000000000000e+00 0.000000000000e+00 0.000000000000e+00 0.000000000000e+00 
2.450000000000e-02 0.000000000000e+00 0.000000000000e+00 0.000000000000e+00 0.000000000000e+00 0.000000000000e+00 
2.550000000000e-02 0.000000000000e+00 0.000000000000e+00 0.000000000000e+00 0.000000000000e+00 0.000000000000e+00 
2.650000000000e-02 0.000000000000e+00 0.000000000000e+00 0.000000000000e+00 0.000000000000e+00 0.000000000000e+00 
2.750000000000e-02 0.000000000000e+00 0.000000000000e+00 0.000000000000e+00 0.000000000000e+00 0.000000000000e+00 
2.850000000000e-02 0.000000000000e+00 0.000000000000e+00 0.000000000000e+00 0.000000000000e+00 0.000000000000e+00 
2.950000000000e-02 0.000000000000e+00 0.000000000000e+00 0.000000000000e+00 0.000000000000e+00 0.000000000000e+00 
3.050000000000e-02 0.000000000000e+00 0.000000000000e+00 0.000000000000e+00 0.000000000000e+00 0.000000000000e+00 
3.150000000000e-02 0.000000000000e+00 0.000000000000e+00 0.000000000000e+00 0.000000000000e+00 0.000000000000e+00 
3.250000000000e-02 0.000000000000e+00 0.000000000000e+00 0.000000000000e+00 0.000000000000e+00 0.000000000000e+00 
3.350000000000e-02 0.000000000000e+00 0.000000000000e+00 0.000000000000e+00 0.000000000000e+00 0.000000000000e+00 
3.450000000000e-02 0.000000000000e+00 0.000000000000e+00 0.000000000000e+00 0.000000000000e+00 0.000000000000e+00 
3.550000000000e-02 0.000000000000e+00 0.000000000000e+00 0.000000000000e+00 0.000000000000e+00 0.000000000000e+00 
3.650000000000e-02 0.000000000000e+00 0.000000000000e+00 0.000000000000e+00 0.000000000000e+00 0.000000000000e+00 
3.750000000000e-02 0.000000000000e+00 0.000000000000e+00 0.000000000000e+00 0.000000000000e+00 0.000000000000e+00 
3.850000000000e-02 0.000000000000e+00 0.000000000000e+00 0.000000000000e+00 0.000000000000e+00 0.000000000000e+00 
3.950000000000e-02 0.000000000000e+00 0.000000000000e+00 0.000000000000e+00 0.000000000000e+00 0.000000000000e+00 
4.050000000000e-02 0.000000000000e+00 0.000000000000e+00 0.000000000000e+00 0.000000000000e+00 0.000000000000e+00 
4.150000000000e-02 0.000000000000e+00 0.000000000000e+00 0.000000000000e+00 0.000000000000e+00 0.000000000000e+00 
4.250000000000e-02 0.000000000000e+00 0.000000000000e+00 0.000000000000e+00 0.000000000000e+00 0.000000000000e+00 
4.350000000000e-02 0.000000000000e+00 0.000000000000e+00 0.000000000000e+00 0.000000000000e+00 0.000000000000e+00 
4.450000000000e-02 0.000000000000e+00 0.000000000000e+00 0.000000000000e+00 0.000000000000e+00 0.000000000000e+00 
4.550000000000e-02 0.000000000000e+00 0.000000000000e+00 0.000000000000e+00 0.000000000000e+00 0.000000000000e+00 
4.650000000000e-02 0.000000000000e+00 0.000000000000e+00 0.000000000000e+00 0.000000000000e+00 0.000000000000e+00 
4.750000000000e-02 0.000000000000e+00 0.000000000000e+00 0.000000000000e+00 0.000000000000e+00 0.000000000000e+00 
4.850000000000e-02 0.000000000000e+00 0.000000000000e+00 0.000000000000e+00 0.000000000000e+00 0.000000000000e+00 
4.950000000000e-02 0.000000000000e+00 0.000000000000e+00 0.000000000000e+00 0.000000000000e+00 0.000000000000e+00 
5.050000000000e-02 0.000000000000e+00 0.000000000000e+00 0.000000000000e+00 0.000000000000e+00 0.000000000000e+00 
5.150000000000e-02 0.000000000000e+00 0.000000000000e+00 0.000000000000e+00 0.000000000000e+00 0.000000000000e+00 
5.250000000000e-02 0.000000000000e+00 0.000000000000e+00 0.000000000000e+00 0.000000000000e+00 0.000000000000e+00 
5.350000000000e-02 0.000000000000e+00 0.000000000000e+00 0.000000000000e+00 0.000000000000e+00 0.000000000000e+00 
5.450000000000e-02 0.000000000000e+00 0.000000000000e+00 0.000000000000e+00 0.000000000000e+00 0.000000000000e+00 
5.550000000000e-02 0.000000000000e+00 0.000000000000e+00 0.000000000000e+00 0.000000000000e+00 0.000000000000e+00 
5.650000000000e-02 0.000000000000e+00 0.000000000000e+00 0.000000000000e+00 0.000000000000e+00 0.000000000000e+00 
5.750000000000e-02 0.000000000000e+00 0.000000000000e+00 0.000000000000e+00 0.000000000000e+00 0.000000000000e+00 
5.850000000000e-02 0.000000000000e+00 0.000000000000e+00 0.000000000000e+00 0.000000000000e+00 0.000000000000e+00 
5.950000000000e-02 0.000000000000e+00 0.000000000000e+00 0.000000000000e+00 0.000000000000e+00 0.000000000000e+00 
6.050000000000e-02 0.000000000000e+00 0.000000000000e+00 0.000000000000e+00 0.000000000000e+00 0.000000000000e+00 
6.150000000000e-02 0.000000000000e+00 0.000000000000e+00 0.000000000000e+00 0.000000000000e+00 0.000000000000e+00 
6.250000000000e-02 0.000000000000e+00 0.000000000000e+00 0.000000000000e+00 0.000000000000e+00 0.000000000000e+00 
6.350000000000e-02 0.000000000000e+00 0.000000000000e+00 0.000000000000e+00 0.000000000000e+00 0.000000000000e+00 
6.450000000000e-02 0.000000000000e+00 0.000000000000e+00 0.000000000000e+00 0.000000000000e+00 0.000000000000e+00 
6.550000000000e-02 0.000000000000e+00 0.000000000000e+00 0.000000000000e+00 0.000000000000e+00 0.000000000000e+00 
6.650000000000e-02 0.000000000000e+00 0.000000000000e+00 0.000000000000e+00 0.000000000000e+00 0.000000000000e+00 
6.750000000000e-02 0.000000000000e+00 0.000000000000e+00 0.000000000000e+00 0.000000000000e+00 0.000000000000e+00 
6.850000000000e-02 0.000000000000e+00 0.000000000000e+00 0.000000000000e+00 0.000000000000e+00 0.000000000000e+00 
6.950000000000e-02 0.000000000000e+00 0.000000000000e+00 0.000000000000e+00 0.000000000000e+00 0.000000000000e+00 
7.050000000000e-02 0.000000000000e+00 0.000000000000e+00 0.000000000000e+00 0.000000000000e+00 0.000000000000e+00 
7.150000000000e-02 0.000000000000e+00 0.000000000000e+00 0.000000000000e+00 0.000000000000e+00 0.000000000000e+00 
7.250000000000e-02 0.000000000000e+00 0.000000000000e+00 0.000000000000e+00 0.000000000000e+00 0.000000000000e+00 
7.350000000000e-02 0.000000000000e+00 0.000000000000e+00 0.000000000000e+00 0.000000000000e+00 0.000000000000e+00 
7.450000000000e-02 0.000000000000e+00 0.000000000000e+00 0.000000000000e+00 0.000000000000e+00 0.000000000000e+00 
7.550000000000e-02 0.000000000000e+00 0.000000000000e+00 0.000000000000e+00 0.000000000000e+00 0.000000000000e+00 
7.650000000000e-02 0.000000000000e+00 0.000000000000e+00 0.000000000000e+00 0.000000000000e+00 0.000000000000e+00 
7.750000000000e-02 0.000000000000e+00 0.000000000000e+00 0.000000000000e+00 0.000000000000e+00 0.000000000000e+00 
7.850000000000e-02 0.000000000000e+00 0.000000000000e+00 0.000000000000e+00 0.000000000000e+00 0.000000000000e+00 
7.950000000000e-02 0.000000000000e+00 0.000000000000e+00 0.000000000000e+00 0.000000000000e+00 0.000000000000e+00 
8.050000000000e-02 0.000000000000e+00 0.000000000000e+00 0.000000000000e+00 0.000000000000e+00 0.000000000000e+00 
8.150000000000e-02 0.000000000000e+00 0.000000000000e+00 0.000000000000e+00 0.000000000000e+00 0.000000000000e+00 
8.250000000000e-02 0.000000000000e+00 0.000000000000e+00 0.000000000000e+00 0.000000000000e+00 0.000000000000e+00 
8.350000000000e-02 0.000000000000e+00 0.000000000000e+00 0.000000000000e+00 0.000000000000e+00 0.000000000000e+00 
8.450000000000e-02 0.000000000000e+00 0.000000000000e+00 0.000000000000e+00 0.000000000000e+00 0.000000000000e+00 
8.550000000000e-02 0.000000000000e+00 0.000000000000e+00 0.000000000000e+00 0.000000000000e+00 0.000000000000e+00 
8.650000000000e-02 0.000000000000e+00 0.000000000000e+00 0.000000000000e+00 0.000000000000e+00 0.000000000000e+00 
8.750000000000e-02 0.000000000000e+00 0.000000000000e+00 0.000000000000e+00 0.000000000000e+00 0.000000000000e+00 
8.850000000000e-02 0.000000000000e+00 0.000000000000e+00 0.000000000000e+00 0.000000000000e+00 0.000000000000e+00 
8.950000000000e-02 0.000000000000e+00 0.000000000000e+00 0.000000000000e+00 0.000000000000e+00 0.000000000000e+00 
9.050000000000e-02 0.000000000000e+00 0.000000000000e+00 0.000000000000e+00 0.000000000000e+00 0.000000000000e+00 
9.150000000000e-02 0.000000000000e+00 0.000000000000e+00 0.000000000000e+00 0.000000000000e+00 0.000000000000e+00 
9.250000000000e-02 0.000000000000e+00 0.000000000000e+00 0.000000000000e+00 0.000000000000e+00 0.000000000000e+00 
9.350000000000e-02 0.000000000000e+00 0.000000000000e+00 0.000000000000e+00 0.000000000000e+00 0.000000000000e+00 
9.450000000000e-02 0.000000000000e+00 0.000000000000e+00 0.000000000000e+00 0.000000000000e+00 0.000000000000e+00 
9.550000000000e-02 0.000000000000e+00 0.000000000000e+00 0.000000000000e+00 0.000000000000e+00 0.000000000000e+00 
9.650000000000e-02 0.000000000000e+00 0.000000000000e+00 0.000000000000e+00 0.000000000000e+00 0.000000000000e+00 
9.750000000000e-02 0.000000000000e+00 0.000000000000e+00 0.000000000000e+00 0.000000000000e+00 0.000000000000e+00 
9.850000000000e-02 0.000000000000e+00 0.000000000000e+00 0.000000000000e+00 0.000000000000e+00 0.000000000000e+00 
9.950000000000e-02 0.000000000000e+00 0.000000000000e+00 0.000000000000e+00 0.000000000000e+00 0.000000000000e+00 
VARIABLES = "X","Y","Z","VX","VY","VZ"
ZONE T="5.100000000000e+01s", I=100, F=POINT, C=BLACK
5.000000000000e-04 0.000000000000e+00 0.000000000000e+00 6.242456337208e-05 0.000000000000e+00 0.000000000000e+00 
1.500000000000e-03 0.000000000000e+00 0.000000000000e+00 6.211648673283e-05 0.000000000000e+00 0.000000000000e+00 
2.500000000000e-03 0.000000000000e+00 0.000000000000e+00 6.181150505746e-05 0.000000000000e+00 0.000000000000e+00 
3.500000000000e-03 0.000000000000e+00 0.000000000000e+00 6.150961728197e-05 0.000000000000e+00 0.000000000000e+00 
4.500000000000e-03 0.000000000000e+00 0.000000000000e+00 6.121082241821e-05 0.000000000000e+00 0.000000000000e+00 
5.500000000000e-03 0.000000000000e+00 0.000000000000e+00 6.091511955278e-05 0.000000000000e+00 0.000000000000e+00 
6.500000000000e-03 0.000000000000e+00 0.000000000000e+00 6.062250784593e-05 0.000000000000e+00 0.000000000000e+00 
7.500000000000e-03 0.000000000000e+00 0.000000000000e+00 6.033298653039e-05 0.000000000000e+00 0.000000000000e+00 
8.500000000000e-03 0.000000000000e+00 0.000000000000e+00 6.004655491025e-05 0.000000000000e+00 0.000000000000e+00 
9.500000000000e-03 0.000000000000e+00 0.000000000000e+00 5.976321235979e-05 0.000000000000e+00 0.000000000000e+00 
1.050000000000e-02 0.000000000000e+00 0.000000000000e+00 5.948295832224e-05 0.000000000000e+00 0.000000000000e+00 
1.150000000000e-02 0.000000000000e+00 0.000000000000e+00 5.920579230862e-05 0.000000000000e+00 0.000000000000e+00 
1.250000000000e-02 0.000000000000e+00 0.000000000000e+00 5.893171389650e-05 0.000000000000e+00 0.000000000000e+00 
1.350000000000e-02 0.000000000000e+00 0.000000000000e+00 5.866072272875e-05 0.000000000000e+00 0.000000000000e+00 
1.450000000000e-02 0.000000000000e+00 0.000000000000e+00 5.839281851226e-05 0.000000000000e+00 0.000000000000e+00 
1.550000000000e-02 0.000000000000e+00 0.000000000000e+00 5.812800101672e-05 0.000000000000e+00 0.000000000000e+00 
1.650000000000e-02 0.000000000000e+00 0.000000000000e+00 5.786627007324e-05 0.000000000000e+00 0.000000000000e+00 
1.750000000000e-02 0.000000000000e+00 0.000000000000e+00 5.760762557311e-05 0.000000000000e+00 0.000000000000e+00 
1.850000000000e-02 0.000000000000e+00 0.000000000000e+00 5.735206746644e-05 0.000000000000e+00 0.000000000000e+00 
1.950000000000e-02 0.000000000000e+00 0.000000000000e+00 5.709959576082e-05 0.000000000000e+00 0.000000000000e+00 
2.050000000000e-02 0.000000000000e+00 0.000000000000e+00 5.685021051994e-05 0.000000000000e+00 0.000000000000e+00 
2.150000000000e-02 0.000000000000e+00 0.000000000000e+00 5.660391186225e-05 0.000000000000e+00 0.000000000000e+00 
2.250000000000e-02 0.000000000000e+00 0.000000000000e+00 5.636069995956e-05 0.000000000000e+00 0.000000000000e+00 
2.350000000000e-02 0.000000000000e+00 0.000000000000e+00 5.612057503560e-05 0.000000000000e+00 0.000000000000e+00 
2.450000000000e-02 0.000000000000e+00 0.000000000000e+00 5.588353736467e-05 0.000000000000e+00 0.000000000000e+00 
2.550000000000e-02 0.000000000000e+00 0.000000000000e+00 5.564958727013e-05 0.000000000000e+00 0.000000000000e+00 
2.650000000000e-02 0.000000000000e+00 0.000000000000e+00 5.541872512302e-05 0.000000000000e+00 0.000000000000e+00 
2.750000000000e-02 0.000000000000e+00 0.000000000000e+00 5.519095134055e-05 0.000000000000e+00 0.000000000000e+00 
2.850000000000e-02 0.000000000000e+00 0.000000000000e+00 5.496626638468e-05 0.000000000000e+00 0.000000000000e+00 
2.950000000000e-02 0.000000000000e+00 0.000000000000e+00 5.474467076061e-05 0.000000000000e+00 0.000000000000e+00 
3.050000000000e-02 0.000000000000e+00 0.000000000000e+00 5.452616501528e-05 0.000000000000e+00 0.000000000000e+00 
3.150000000000e-02 0.000000000000e+00 0.000000000000e+00 5.431074973591e-05 0.000000000000e+00 0.000000000000e+00 
3.250000000000e-02 0.000000000000e+00 0.000000000000e+00 5.409842554843e-05 0.000000000000e+00 0.000000000000e+00 
3.350000000000e-02 0.000000000000e+00 0.000000000000e+00 5.388919311602e-05 0.000000000000e+00 0.000000000000e+00 
3.450000000000e-02 0.000000000000e+00 0.000000000000e+00 5.368305313755e-05 0.000000000000e+00 0.000000000000e+00 
3.550000000000e-02 0.000000000000e+00 0.000000000000e+00 5.348000634603e-05 0.000000000000e+00 0.000000000000e+00 
3.650000000000e-02 0.000000000000e+00 0.000000000000e+00 5.328005350713e-05 0.000000000000e+00 0.000000000000e+00 
3.750000000000e-02 0.000000000000e+00 0.000000000000e+00 5.308319541754e-05 0.000000000000e+00 0.000000000000e+00 
3.850000000000e-02 0.000000000000e+00 0.000000000000e+00 5.288943290350e-05 0.000000000000e+00 0.000000000000e+00 
3.950000000000e-02 0.000000000000e+00 0.000000000000e+00 5.269876681921e-05 0.000000000000e+00 0.000000000000e+00 
4.050000000000e-02 0.000000000000e+00 0.000000000000e+00 5.251119804525e-05 0.000000000000e+00 0.000000000000e+00 
4.150000000000e-02 0.000000000000e+00 0.000000000000e+00 5.232672748705e-05 0.000000000000e+00 0.000000000000e+00 
4.250000000000e-02 0.000000000000e+00 0.000000000000e+00 5.214535607332e-05 0.000000000000e+00 0.000000000000e+00 
4.350000000000e-02 0.000000000000e+00 0.000000000000e+00 5.196708475444e-05 0.000000000000e+00 0.000000000000e+00 
4.450000000000e-02 0.000000000000e+00 0.000000000000e+00 5.179191450096e-05 0.000000000000e+00 0.000000000000e+00 
4.550000000000e-02 0.000000000000e+00 0.000000000000e+00 5.161984630198e-05 0.000000000000e+00 0.000000000000e+00 
4.650000000000e-02 0.000000000000e+00 0.000000000000e+00 5.145088116361e-05 0.000000000000e+00 0.000000000000e+00 
4.750000000000e-02 0.000000000000e+00 0.000000000000e+00 5.128502010742e-05 0.000000000000e+00 0.000000000000e+00 
4.850000000000e-02 0.000000000000e+00 0.000000000000e+00 5.112226416884e-05 0.000000000000e+00 0.000000000000e+00 
4.950000000000e-02 0.000000000000e+00 0.000000000000e+00 5.096261439565e-05 0.000000000000e+00 0.000000000000e+00 
5.050000000000e-02 0.000000000000e+00 0.000000000000e+00 5.080607184641e-05 0.000000000000e+00 0.000000000000e+00 
5.150000000000e-02 0.000000000000e+00 0.000000000000e+00 5.065263758893e-05 0.000000000000e+00 0.000000000000e+00 
5.250000000000e-02 0.000000000000e+00 0.000000000000e+00 5.050231269870e-05 0.000000000000e+00 0.000000000000e+00 
5.350000000000e-02 0.000000000000e+00 0.000000000000e+00 5.035509825742e-05 0.000000000000e+00 0.000000000000e+00 
5.450000000000e-02 0.000000000000e+00 0.000000000000e+00 5.021099535145e-05 0.000000000000e+00 0.000000000000e+00 
5.550000000000e-02 0.000000000000e+00 0.000000000000e+00 5.007000507030e-05 0.000000000000e+00 0.000000000000e+00 
5.650000000000e-02 0.000000000000e+00 0.000000000000e+00 4.993212850516e-05 0.000000000000e+00 0.000000000000e+00 
5.750000000000e-02 0.000000000000e+00 0.000000000000e+00 4.979736674739e-05 0.000000000000e+00 0.000000000000e+00 
5.850000000000e-02 0.000000000000e+00 0.000000000000e+00 4.966572088706e-05 0.000000000000e+00 0.000000000000e+00 
5.950000000000e-02 0.000000000000e+00 0.000000000000e+00 4.953719201154e-05 0.000000000000e+00 0.000000000000e+00 
6.050000000000e-02 0.000000000000e+00 0.000000000000e+00 4.941178120397e-05 0.000000000000e+00 0.000000000000e+00 
6.150000000000e-02 0.000000000000e+00 0.000000000000e+00 4.928948954193e-05 0.000000000000e+00 0.000000000000e+00 
6.250000000000e-02 0.000000000000e+00 0.000000000000e+00 4.917031809599e-05 0.000000000000e+00 0.000000000000e+00 
6.350000000000e-02 0.000000000000e+00 0.000000000000e+00 4.905426792833e-05 0.000000000000e+00 0.000000000000e+00 
6.450000000000e-02 0.000000000000e+00 0.000000000000e+00 4.894134009140e-05 0.000000000000e+00 0.000000000000e+00 
6.550000000000e-02 0.000000000000e+00 0.000000000000e+00 4.883153562652e-05 0.000000000000e+00 0.000000000000e+00 
6.650000000000e-02 0.000000000000e+00 0.000000000000e+00 4.872485556264e-05 0.000000000000e+00 0.000000000000e+00 
6.750000000000e-02 0.000000000000e+00 0.000000000000e+00 4.862130091497e-05 0.000000000000e+00 0.000000000000e+00 
6.850000000000e-02 0.000000000000e+00 0.000000000000e+00 4.852087268373e-05 0.000000000000e+00 0.000000000000e+00 
6.950000000000e-02 0.000000000000e+00 0.000000000000e+00 4.842357185292e-05 0.000000000000e+00 0.000000000000e+00 
7.050000000000e-02 0.000000000000e+00 0.000000000000e+00 4.832939938907e-05 0.000000000000e+00 0.000000000000e+00 
7.150000000000e-02 0.000000000000e+00 0.000000000000e+00 4.823835624004e-05 0.000000000000e+00 0.000000000000e+00 
7.250000000000e-02 0.000000000000e+00 0.000000000000e+00 4.815044333389e-05 0.000000000000e+00 0.000000000000e+00 
7.350000000000e-02 0.000000000000e+00 0.000000000000e+00 4.806566157769e-05 0.000000000000e+00 0.000000000000e+00 
7.450000000000e-02 0.000000000000e+00 0.000000000000e+00 4.798401185644e-05 0.000000000000e+00 0.000000000000e+00 
7.550000000000e-02 0.000000000000e+00 0.000000000000e+00 4.790549503199e-05 0.000000000000e+00 0.000000000000e+00 
7.650000000000e-02 0.000000000000e+00 0.000000000000e+00 4.783011194198e-05 0.000000000000e+00 0.000000000000e+00 
7.750000000000e-02 0.000000000000e+00 0.000000000000e+00 4.775786339884e-05 0.000000000000e+00 0.000000000000e+00 
7.850000000000e-02 0.000000000000e+00 0.000000000000e+00 4.768875018878e-05 0.000000000000e+00 0.000000000000e+00 
7.950000000000e-02 0.000000000000e+00 0.000000000000e+00 4.762277307088e-05 0.000000000000e+00 0.000000000000e+00 
8.050000000000e-02 0.000000000000e+00 0.000000000000e+00 4.755993277615e-05 0.000000000000e+00 0.000000000000e+00 
8.150000000000e-02 0.000000000000e+00 0.000000000000e+00 4.750023000666e-05 0.000000000000e+00 0.000000000000e+00 
8.250000000000e-02 0.000000000000e+00 0.000000000000e+00 4.744366543472e-05 0.000000000000e+00 0.000000000000e+00 
8.350000000000e-02 0.000000000000e+00 0.000000000000e+00 4.739023970204e-05 0.000000000000e+00 0.000000000000e+00 
8.450000000000e-02 0.000000000000e+00 0.000000000000e+00 4.733995341899e-05 0.000000000000e+00 0.000000000000e+00 
8.550000000000e-02 0.000000000000e+00 0.000000000000e+00 4.729280716387e-05 0.000000000000e+00 0.000000000000e+00 
8.650000000000e-02 0.000000000000e+00 0.000000000000e+00 4.724880148222e-05 0.000000000000e+00 0.000000000000e+00 
8.750000000000e-02 0.000000000000e+00 0.000000000000e+00 4.720793688617e-05 0.000000000000e+00 0.000000000000e+00 
8.850000000000e-02 0.000000000000e+00 0.000000000000e+00 4.717021385385e-05 0.000000000000e+00 0.000000000000e+00 
8.950000000000e-02 0.000000000000e+00 0.000000000000e+00 4.713563282879e-05 0.000000000000e+00 0.000000000000e+00 
9.050000000000e-02 0.000000000000e+00 0.000000000000e+00 4.710419421943e-05 0.000000000000e+00 0.000000000000e+00 
9.150000000000e-02 0.000000000000e+00 0.000000000000e+00 4.707589839864e-05 0.000000000000e+00 0.000000000000e+00 
9.250000000000e-02 0.000000000000e+00 0.000000000000e+00 4.705074570324e-05 0.000000000000e+00 0.000000000000e+00 
9.350000000000e-02 0.000000000000e+00 0.000000000000e+00 4.702873643365e-05 0.000000000000e+00 0.000000000000e+00 
9.450000000000e-02 0.000000000000e+00 0.000000000000e+00 4.700987085351e-05 0.000000000000e+00 0.000000000000e+00 
9.550000000000e-02 0.000000000000e+00 0.000000000000e+00 4.699414918936e-05 0.000000000000e+00 0.000000000000e+00 
9.650000000000e-02 0.000000000000e+00 0.000000000000e+00 4.698157163041e-05 0.000000000000e+00 0.000000000000e+00 
9.750000000000e-02 0.000000000000e+00 0.000000000000e+00 4.697213832829e-05 0.000000000000e+00 0.000000000000e+00 
9.850000000000e-02 0.000000000000e+00 0.000000000000e+00 4.696584939687e-05 0.000000000000e+00 0.000000000000e+00 
9.950000000000e-02 0.000000000000e+00 0.000000000000e+00 4.696270491215e-05 0.000000000000e+00 0.000000000000e+00 
VARIABLES = "X","Y","Z","VX","VY","VZ"
ZONE T="1.020000000000e+02s", I=100, F=POINT, C=BLACK
5.000000000000e-04 0.000000000000e+00 0.000000000000e+00 5.564301754931e-05 0.000000000000e+00 0.000000000000e+00 
1.500000000000e-03 0.000000000000e+00 0.000000000000e+00 5.556111401501e-05 0.000000000000e+00 0.000000000000e+00 
2.500000000000e-03 0.000000000000e+00 0.000000000000e+00 5.547894371502e-05 0.000000000000e+00 0.000000000000e+00 
3.500000000000e-03 0.000000000000e+00 0.000000000000e+00 5.539654804874e-05 0.000000000000e+00 0.000000000000e+00 
4.500000000000e-03 0.000000000000e+00 0.000000000000e+00 5.531396750798e-05 0.000000000000e+00 0.000000000000e+00 
5.500000000000e-03 0.000000000000e+00 0.000000000000e+00 5.523124169798e-05 0.000000000000e+00 0.000000000000e+00 
6.500000000000e-03 0.000000000000e+00 0.000000000000e+00 5.514840935784e-05 0.000000000000e+00 0.000000000000e+00 
7.500000000000e-03 0.000000000000e+00 0.000000000000e+00 5.506550838029e-05 0.000000000000e+00 0.000000000000e+00 
8.500000000000e-03 0.000000000000e+00 0.000000000000e+00 5.498257583087e-05 0.000000000000e+00 0.000000000000e+00 
9.500000000000e-03 0.000000000000e+00 0.000000000000e+00 5.489964796667e-05 0.000000000000e+00 0.000000000000e+00 
1.050000000000e-02 0.000000000000e+00 0.000000000000e+00 5.481676025434e-05 0.000000000000e+00 0.000000000000e+00 
1.150000000000e-02 0.000000000000e+00 0.000000000000e+00 5.473394738772e-05 0.000000000000e+00 0.000000000000e+00 
1.250000000000e-02 0.000000000000e+00 0.000000000000e+00 5.465124330493e-05 0.000000000000e+00 0.000000000000e+00 
1.350000000000e-02 0.000000000000e+00 0.000000000000e+00 5.456868120488e-05 0.000000000000e+00 0.000000000000e+00 
1.450000000000e-02 0.000000000000e+00 0.000000000000e+00 5.448629356347e-05 0.000000000000e+00 0.000000000000e+00 
1.550000000000e-02 0.000000000000e+00 0.000000000000e+00 5.440411214915e-05 0.000000000000e+00 0.000000000000e+00 
1.650000000000e-02 0.000000000000e+00 0.000000000000e+00 5.432216803814e-05 0.000000000000e+00 0.000000000000e+00 
1.750000000000e-02 0.000000000000e+00 0.000000000000e+00 5.424049162924e-05 0.000000000000e+00 0.000000000000e+00 
1.850000000000e-02 0.000000000000e+00 0.000000000000e+00 5.415911265810e-05 0.000000000000e+00 0.000000000000e+00 
1.950000000000e-02 0.000000000000e+00 0.000000000000e+00 5.407806021122e-05 0.000000000000e+00 0.000000000000e+00 
2.050000000000e-02 0.000000000000e+00 0.000000000000e+00 5.399736273945e-05 0.000000000000e+00 0.000000000000e+00 
2.150000000000e-02 0.000000000000e+00 0.000000000000e+00 5.391704807120e-05 0.000000000000e+00 0.000000000000e+00 
2.250000000000e-02 0.000000000000e+00 0.000000000000e+00 5.383714342521e-05 0.000000000000e+00 0.000000000000e+00 
2.350000000000e-02 0.000000000000e+00 0.000000000000e+00 5.375767542296e-05 0.000000000000e+00 0.000000000000e+00 
2.450000000000e-02 0.000000000000e+00 0.000000000000e+00 5.367867010081e-05 0.000000000000e+00 0.000000000000e+00 
2.550000000000e-02 0.000000000000e+00 0.000000000000e+00 5.360015292173e-05 0.000000000000e+00 0.000000000000e+00 
2.650000000000e-02 0.000000000000e+00 0.000000000000e+00 5.352214878668e-05 0.000000000000e+00 0.000000000000e+00 
2.750000000000e-02 0.000000000000e+00 0.000000000000e+00 5.344468204580e-05 0.000000000000e+00 0.000000000000e+00 
2.850000000000e-02 0.000000000000e+00 0.000000000000e+00 5.336777650911e-05 0.000000000000e+00 0.000000000000e+00 
2.950000000000e-02 0.000000000000e+00 0.000000000000e+00 5.329145545708e-05 0.000000000000e+00 0.000000000000e+00 
3.050000000000e-02 0.000000000000e+00 0.000000000000e+00 5.321574165079e-05 0.000000000000e+00 0.000000000000e+00 
3.150000000000e-02 0.000000000000e+00 0.000000000000e+00 5.314065734185e-05 0.000000000000e+00 0.000000000000e+00 
3.250000000000e-02 0.000000000000e+00 0.000000000000e+00 5.306622428209e-05 0.000000000000e+00 0.000000000000e+00 
3.350000000000e-02 0.000000000000e+00 0.000000000000e+00 5.299246373285e-05 0.000000000000e+00 0.000000000000e+00 
3.450000000000e-02 0.000000000000e+00 0.000000000000e+00 5.291939647420e-05 0.000000000000e+00 0.000000000000e+00 
3.550000000000e-02 0.000000000000e+00 0.000000000000e+00 5.284704281371e-05 0.000000000000e+00 0.000000000000e+00 
3.650000000000e-02 0.000000000000e+00 0.000000000000e+00 5.277542259512e-05 0.000000000000e+00 0.000000000000e+00 
3.750000000000e-02 0.000000000000e+00 0.000000000000e+00 5.270455520670e-05 0.000000000000e+00 0.000000000000e+00 
3.850000000000e-02 0.000000000000e+00 0.000000000000e+00 5.263445958937e-05 0.000000000000e+00 0.000000000000e+00 
3.950000000000e-02 0.000000000000e+00 0.000000000000e+00 5.256515424466e-05 0.000000000000e+00 0.000000000000e+00 
4.050000000000e-02 0.000000000000e+00 0.000000000000e+00 5.249665724237e-05 0.000000000000e+00 0.000000000000e+00 
4.150000000000e-02 0.000000000000e+00 0.000000000000e+00 5.242898622806e-05 0.000000000000e+00 0.000000000000e+00 
4.250000000000e-02 0.000000000000e+00 0.000000000000e+00 5.236215843029e-05 0.000000000000e+00 0.000000000000e+00 
4.350000000000e-02 0.000000000000e+00 0.000000000000e+00 5.229619066772e-05 0.000000000000e+00 0.000000000000e+00 
4.450000000000e-02 0.000000000000e+00 0.000000000000e+00 5.223109935597e-05 0.000000000000e+00 0.000000000000e+00 
4.550000000000e-02 0.000000000000e+00 0.000000000000e+00 5.216690051425e-05 0.000000000000e+00 0.000000000000e+00 
4.650000000000e-02 0.000000000000e+00 0.000000000000e+00 5.210360977186e-05 0.000000000000e+00 0.000000000000e+00 
4.750000000000e-02 0.000000000000e+00 0.000000000000e+00 5.204124237451e-05 0.000000000000e+00 0.000000000000e+00 
4.850000000000e-02 0.000000000000e+00 0.000000000000e+00 5.197981319038e-05 0.000000000000e+00 0.000000000000e+00 
4.950000000000e-02 0.000000000000e+00 0.000000000000e+00 5.191933671609e-05 0.000000000000e+00 0.000000000000e+00 
5.050000000000e-02 0.000000000000e+00 0.000000000000e+00 5.185982708245e-05 0.000000000000e+00 0.000000000000e+00 
5.150000000000e-02 0.000000000000e+00 0.000000000000e+00 5.180129806006e-05 0.000000000000e+00 0.000000000000e+00 
5.250000000000e-02 0.000000000000e+00 0.000000000000e+00 5.174376306473e-05 0.000000000000e+00 0.000000000000e+00 
5.350000000000e-02 0.000000000000e+00 0.000000000000e+00 5.168723516275e-05 0.000000000000e+00 0.000000000000e+00 
5.450000000000e-02 0.000000000000e+00 0.000000000000e+00 5.163172707603e-05 0.000000000000e+00 0.000000000000e+00 
5.550000000000e-02 0.000000000000e+00 0.000000000000e+00 5.157725118701e-05 0.000000000000e+00 0.000000000000e+00 
5.650000000000e-02 0.000000000000e+00 0.000000000000e+00 5.152381954350e-05 0.000000000000e+00 0.000000000000e+00 
5.750000000000e-02 0.000000000000e+00 0.000000000000e+00 5.147144386334e-05 0.000000000000e+00 0.000000000000e+00 