 TITLE = "Time curves in points"
 VARIABLES = "TIME"  "DISPLACEMENT_X1"  "DISPLACEMENT_Y1"  "DISPLACEMENT_Z1"  "STRESS_XX"  "STRESS_XY"  "STRESS_YY"  "STRESS_ZZ"  "STRESS_XZ"  "STRESS_YZ"  "STRAIN_XX"  "STRAIN_XY"  "STRAIN_YY"  "STRAIN_ZZ"  "STRAIN_XZ"  "STRAIN_YZ"  "STRAIN_PLS"  p_(1st_Invariant)  q_(2nd_Invariant)   Effective_Strain
 ZONE T="POINT=POINT2"
0.000000000000e+00 0.000000000000e+00 0.000000000000e+00 0.000000000000e+00 0.000000000000e+00 0.000000000000e+00 0.000000000000e+00 0.000000000000e+00 0.000000000000e+00 0.000000000000e+00 0.000000000000e+00 0.000000000000e+00 0.000000000000e+00 0.000000000000e+00 0.000000000000e+00 0.000000000000e+00 0.000000000000e+00 -0.000000000000e+00 0.000000000000e+00  0.000000000000e+00
1.000000000000e+01 1.408809291990e-06 -1.000682908798e-06 0.000000000000e+00 2.000000000012e+05 1.778121296960e-07 -1.417245221583e-06 3.768440942319e+04 -4.064329102181e-07 7.849307742049e-07 1.408809291958e-04 4.508201486022e-06 -1.045764923488e-04 -4.992593579970e-16 -8.486717512285e-16 4.330406055863e-15 0.000000000000e+00 -7.922813647432e+04 1.840739873793e+05  2.134888381605e-04
