 TITLE = "Time curves in points"
 VARIABLES = "TIME"  "DISPLACEMENT_X1"  "DISPLACEMENT_Y1"  "DISPLACEMENT_Z1"  "STRESS_XX"  "STRESS_XY"  "STRESS_YY"  "STRESS_ZZ"  "STRESS_XZ"  "STRESS_YZ"  "STRAIN_XX"  "STRAIN_XY"  "STRAIN_YY"  "STRAIN_ZZ"  "STRAIN_XZ"  "STRAIN_YZ"  "STRAIN_PLS"  p_(1st_Invariant)  q_(2nd_Invariant)   Effective_Strain
 ZONE T="POINT=POINT1"
0.000000000000e+00 0.000000000000e+00 0.000000000000e+00 0.000000000000e+00 0.000000000000e+00 0.000000000000e+00 0.000000000000e+00 0.000000000000e+00 0.000000000000e+00 0.000000000000e+00 0.000000000000e+00 0.000000000000e+00 0.000000000000e+00 0.000000000000e+00 0.000000000000e+00 0.000000000000e+00 0.000000000000e+00 -0.000000000000e+00 0.000000000000e+00  0.000000000000e+00
1.000000000000e+01 1.408809291910e-06 4.508201467598e-08 0.000000000000e+00 1.999999999997e+05 -3.663101377762e-07 8.352089063150e-07 3.768440942418e+04 4.026245292112e-08 -3.443737644916e-07 1.408809291935e-04 4.508201484687e-06 -1.045764923455e-04 -5.425422820499e-16 -3.977728478229e-19 -1.943623004443e-15 0.000000000000e+00 -7.922813647490e+04 1.840739873760e+05  2.134888381557e-04
