 TITLE = "Time curves in points"
 VARIABLES = "TIME"  "DISPLACEMENT_X1"  "DISPLACEMENT_Y1"  "TEMPERATURE1"  "STRESS_XX"  "STRESS_XY"  "STRESS_YY"  "STRESS_ZZ"  "STRAIN_XX"  "STRAIN_XY"  "STRAIN_YY"  "STRAIN_ZZ"  p_(1st_Invariant)  q_(2nd_Invariant)   Effective_Strain
 ZONE T="POINT=POINTpoint_top"
0.000000000000e+00 0.000000000000e+00 0.000000000000e+00 3.000000000000e+02 0.000000000000e+00 0.000000000000e+00 0.000000000000e+00 0.000000000000e+00 0.000000000000e+00 0.000000000000e+00 0.000000000000e+00 0.000000000000e+00 -0.000000000000e+00 0.000000000000e+00  0.000000000000e+00
1.000000000000e-03 -5.582817584401e-06 -4.008398002299e-01 3.000000000000e+02 -4.640691385017e+06 -1.584250881706e+04 7.072920369050e+04 -1.233889902742e+06 -5.655736548347e-04 -5.260125424928e-06 2.165838563155e-04 0.000000000000e+00 1.934617361356e+06 4.213509061739e+06  6.995421758640e-04
9.100000000000e-02 -5.567319312569e-06 -4.014623319475e-01 3.000000000000e+02 -4.648783952963e+06 -1.591189750849e+04 7.058362190765e+04 -1.236124568845e+06 -5.665530101269e-04 -5.283013806238e-06 2.169334736623e-04 0.000000000000e+00 1.938108299967e+06 4.220644489022e+06  7.007356766174e-04
1.910000000000e-01 -5.550860163679e-06 -4.021348129752e-01 3.000000000000e+02 -4.657775463647e+06 -1.598818002207e+04 7.042717993782e+04 -1.238606188543e+06 -5.676414648560e-04 -5.308175878728e-06 2.173226338448e-04 0.000000000000e+00 1.941984824084e+06 4.228576643612e+06  7.020625529257e-04
5.955000000000e-01 -5.493805368664e-06 -4.046212133919e-01 3.000000000000e+02 -4.694380866041e+06 -1.628828177664e+04 6.985830868133e+04 -1.248693030346e+06 -5.720767754990e-04 -5.407169998440e-06 2.189160996370e-04 0.000000000000e+00 1.957738529235e+06 4.260921793310e+06  7.074748225859e-04
1.000000000000e+00 -5.443649957110e-06 -4.069338226702e-01 3.000000000000e+02 -4.731339181271e+06 -1.658319808503e+04 6.933638727871e+04 -1.258865137245e+06 -5.765581974490e-04 -5.504464729768e-06 2.205321519106e-04 0.000000000000e+00 1.973622643746e+06 4.293619172994e+06  7.129476155041e-04
2.000000000000e+00 -5.344292756571e-06 -4.119710684053e-01 3.000000000000e+02 -4.824764501766e+06 -1.729678703638e+04 6.822374852635e+04 -1.284537318899e+06 -5.879024908915e-04 -5.739982762343e-06 2.246481231550e-04 0.000000000000e+00 2.013692690713e+06 4.376431200328e+06  7.268192013264e-04
3.000000000000e+00 -5.259632965404e-06 -4.165520734403e-01 3.000000000000e+02 -4.919867681243e+06 -1.800236778259e+04 6.722581476647e+04 -1.310650403507e+06 -5.994640796207e-04 -5.972982753517e-06 2.288608843015e-04 0.000000000000e+00 2.054430756661e+06 4.460831664623e+06  7.409692274695e-04
4.000000000000e+00 -5.184518962169e-06 -4.208004898907e-01 3.000000000000e+02 -5.016229900528e+06 -1.870285618773e+04 6.630808141951e+04 -1.337102294069e+06 -6.111914416859e-04 -6.204444044787e-06 2.331481616778e-04 0.000000000000e+00 2.095674704392e+06 4.546417916643e+06  7.553321720434e-04
5.000000000000e+00 -5.116015905216e-06 -4.247926749338e-01 3.000000000000e+02 -5.113491962132e+06 -1.939944384228e+04 6.544952321888e+04 -1.363803435562e+06 -6.230409206023e-04 -6.434776162414e-06 2.374920183463e-04 0.000000000000e+00 2.137281958159e+06 4.632851228223e+06  7.698531758083e-04
6.000000000000e+00 -5.052288502736e-06 -4.285795240919e-01 3.000000000000e+02 -5.211361757127e+06 -2.009259346642e+04 6.463636066534e+04 -1.390680507169e+06 -6.349773486103e-04 -6.664148741696e-06 2.418784315293e-04 0.000000000000e+00 2.179135301210e+06 4.719858621421e+06  7.844883470525e-04
7.000000000000e+00 -4.992141220717e-06 -4.321969080892e-01 3.000000000000e+02 -5.309604194576e+06 -2.078243879539e+04 6.385907006741e+04 -1.417674507058e+06 -6.469726912378e-04 -6.892623955356e-06 2.462964780978e-04 0.000000000000e+00 2.221139877189e+06 4.807221512880e+06  7.992028768737e-04
8.000000000000e+00 -4.934740591603e-06 -4.356712062888e-01 3.000000000000e+02 -5.408029580456e+06 -2.146896087059e+04 6.311079713745e+04 -1.444738040795e+06 -6.590045672658e-04 -7.120214825168e-06 2.507376209792e-04 0.000000000000e+00 2.263218941371e+06 4.894764063539e+06  8.139691050891e-04
9.000000000000e+00 -4.879503864937e-06 -4.390224783234e-01 3.000000000000e+02 -5.506483794116e+06 -2.215207116638e+04 6.238644924231e+04 -1.471832912238e+06 -6.710550170409e-04 -7.346912669931e-06 2.551951584433e-04 0.000000000000e+00 2.305310085704e+06 4.982343668430e+06  8.287649410803e-04
1.000000000000e+01 -4.825989743301e-06 -4.422663961229e-01 3.000000000000e+02 -5.604840593372e+06 -2.283165211054e+04 6.168214434478e+04 -1.498928192906e+06 -6.831095447103e-04 -7.572700448203e-06 2.596638119927e-04 0.000000000000e+00 2.347362213978e+06 5.069843632112e+06  8.435726471960e-04
1.100000000000e+01 -4.773860517593e-06 -4.454154797136e-01 3.000000000000e+02 -5.702995721638e+06 -2.350757746325e+04 6.099486031985e+04 -1.525998723693e+06 -6.951563877498e-04 -7.797559439049e-06 2.641394192393e-04 0.000000000000e+00 2.389333195004e+06 5.157167615205e+06  8.583779159355e-04
1.200000000000e+01 -4.722870905558e-06 -4.484799200139e-01 3.000000000000e+02 -5.800862403620e+06 -2.417972217038e+04 6.032220284224e+04 -1.553023959311e+06 -7.071859599948e-04 -8.021472443958e-06 2.686187033097e-04 0.000000000000e+00 2.431188053363e+06 5.244235417709e+06  8.731691688411e-04
1.300000000000e+01 -4.672821817912e-06 -4.514681453048e-01 3.000000000000e+02 -5.898367882470e+06 -2.484796721595e+04 5.966224690757e+04 -1.579987073866e+06 -7.191904240929e-04 -8.244425338702e-06 2.730990977743e-04 0.000000000000e+00 2.472897569809e+06 5.330979753040e+06  8.879370196739e-04
1.400000000000e+01 -4.623550650370e-06 -4.543872224577e-01 3.000000000000e+02 -5.995450747169e+06 -2.551220155057e+04 5.901342528701e+04 -1.606874266915e+06 -7.311633617367e-04 -8.466407660848e-06 2.775786126065e-04 0.000000000000e+00 2.514437196266e+06 5.417343766837e+06  9.026738610585e-04
1.500000000000e+01 -4.574936748869e-06 -4.572431481040e-01 3.000000000000e+02 -6.092058835530e+06 -2.617232251489e+04 5.837444853278e+04 -1.633674216229e+06 -7.430995149822e-04 -8.687412701661e-06 2.820557296903e-04 0.000000000000e+00 2.555786201075e+06 5.503279096231e+06  9.173735406949e-04
1.600000000000e+01 -4.526869984832e-06 -4.600410644731e-01 3.000000000000e+02 -6.188147586683e+06 -2.682823568636e+04 5.774424614230e+04 -1.660377646007e+06 -7.549945829060e-04 -8.907437408992e-06 2.865293209698e-04 0.000000000000e+00 2.596926995516e+06 5.588744348452e+06  9.320311070411e-04
1.700000000000e+01 -4.479277242553e-06 -4.627854223724e-01 3.000000000000e+02 -6.283678732958e+06 -2.747985419349e+04 5.712192240055e+04 -1.686976982576e+06 -7.668450599727e-04 -9.126482114652e-06 2.909985835229e-04 0.000000000000e+00 2.637844597711e+06 5.673703895059e+06  9.466426072589e-04
1.800000000000e+01 -4.432081405518e-06 -4.654801062869e-01 3.000000000000e+02 -6.378619243647e+06 -2.812709801251e+04 5.650672317626e+04 -1.713466074955e+06 -7.786481053456e-04 -9.344550256455e-06 2.954629871893e-04 0.000000000000e+00 2.678526198475e+06 5.758126900486e+06  9.612049239315e-04
1.900000000000e+01 -4.385228740950e-06 -4.681285318045e-01 3.000000000000e+02 -6.472940477756e+06 -2.876989316938e+04 5.589801005434e+04 -1.739839969691e+06 -7.904014377813e-04 -9.561648068802e-06 2.999222323956e-04 0.000000000000e+00 2.718960812464e+06 5.841986543624e+06  9.757156437105e-04
2.000000000000e+01 -4.338677442786e-06 -4.707337224910e-01 3.000000000000e+02 -6.566617490867e+06 -2.940817095442e+04 5.529524016577e+04 -1.766094725602e+06 -8.021032493915e-04 -9.777784277021e-06 3.043762155223e-04 0.000000000000e+00 2.759138992101e+06 5.925259381991e+06  9.901729495214e-04
2.100000000000e+01 -4.292384771469e-06 -4.732983712669e-01 3.000000000000e+02 -6.659628468727e+06 -3.004186721711e+04 5.469795050402e+04 -1.792227261358e+06 -8.137521349006e-04 -9.992969817639e-06 3.088250004421e-04 0.000000000000e+00 2.799052593194e+06 6.007924833019e+06  1.004575532109e-03
2.200000000000e+01 -4.246314331843e-06 -4.758248899355e-01 3.000000000000e+02 -6.751954259495e+06 -3.067092185260e+04 5.410574492015e+04 -1.818235228835e+06 -8.253470329207e-04 -1.020721762147e-05 3.132687947549e-04 0.000000000000e+00 2.838694581137e+06 6.089964745870e+06  1.018922516510e-03
2.300000000000e+01 -4.200446983521e-06 -4.783154495214e-01 3.000000000000e+02 -6.843577988754e+06 -3.129527810134e+04 5.351828417017e+04 -1.844116907839e+06 -8.368871773394e-04 -1.042054233365e-05 3.177079300565e-04 0.000000000000e+00 2.878058870808e+06 6.171363049850e+06  1.033213401155e-03
2.400000000000e+01 -4.154757537460e-06 -4.807720134584e-01 3.000000000000e+02 -6.934484732844e+06 -3.191488218490e+04 5.293527741169e+04 -1.869871116062e+06 -8.483720557876e-04 -1.063296014427e-05 3.221428449526e-04 0.000000000000e+00 2.917140190498e+06 6.252105456245e+06  1.047448005750e-03
2.500000000000e+01 -4.109224890341e-06 -4.831963650712e-01 3.000000000000e+02 -7.024661253290e+06 -3.252968283998e+04 5.235647538185e+04 -1.895497134947e+06 -8.598013755398e-04 -1.084448858417e-05 3.265740709760e-04 0.000000000000e+00 2.955933970952e+06 6.332179216261e+06  1.061626428388e-03
2.600000000000e+01 -4.063828903255e-06 -4.855901305283e-01 3.000000000000e+02 -7.114095768210e+06 -3.313963109212e+04 5.178166467889e+04 -1.920994645135e+06 -8.711750339016e-04 -1.105514639929e-05 3.310022202563e-04 0.000000000000e+00 2.994436249555e+06 6.411572912988e+06  1.075749008248e-03
2.700000000000e+01 -4.018568945853e-06 -4.879547981395e-01 3.000000000000e+02 -7.202777763104e+06 -3.374467961313e+04 5.121066321826e+04 -1.946363672120e+06 -8.824930933823e-04 -1.126495328570e-05 3.354279750656e-04 0.000000000000e+00 3.032643590669e+06 6.490276289601e+06  1.089816294228e-03
2.800000000000e+01 -3.973417881805e-06 -4.902917346911e-01 3.000000000000e+02 -7.290697830213e+06 -3.434478319927e+04 5.064331580326e+04 -1.971604539500e+06 -8.937557602993e-04 -1.147392999606e-05 3.398520786263e-04 0.000000000000e+00 3.070553017970e+06 6.568280103291e+06  1.103829017804e-03
2.900000000000e+01 -3.928374200476e-06 -4.926021993520e-01 3.000000000000e+02 -7.377847530550e+06 -3.493989775662e+04 5.007949127784e+04 -1.996717827836e+06 -9.049633661684e-04 -1.168209794922e-05 3.442753271004e-04 0.000000000000e+00 3.108161955703e+06 6.645576000743e+06  1.117788069401e-03
3.000000000000e+01 -3.883435446656e-06 -4.948873555629e-01 3.000000000000e+02 -7.464219280705e+06 -3.552998091968e+04 4.951907911762e+04 -2.021704340290e+06 -9.161163520441e-04 -1.188947938165e-05 3.486985625979e-04 0.000000000000e+00 3.145468180626e+06 6.722156415425e+06  1.131694478351e-03
3.100000000000e+01 -3.838579094307e-06 -4.971482812967e-01 3.000000000000e+02 -7.549806253584e+06 -3.611499125212e+04 4.896198748527e+04 -2.046565071571e+06 -9.272152545914e-04 -1.209609702717e-05 3.531226669668e-04 0.000000000000e+00 3.182469779223e+06 6.798014478496e+06  1.145549395057e-03
3.200000000000e+01 -3.793804879008e-06 -4.993859778993e-01 3.000000000000e+02 -7.634602295848e+06 -3.669488869181e+04 4.840814058491e+04 -2.071301181537e+06 -9.382606941292e-04 -1.230197420945e-05 3.575485562302e-04 0.000000000000e+00 3.219165112266e+06 6.873143944159e+06  1.159354075540e-03
3.300000000000e+01 -3.749112367904e-06 -5.016013777902e-01 3.000000000000e+02 -7.718601856987e+06 -3.726963425149e+04 4.785747711441e+04 -2.095913971609e+06 -9.492533641207e-04 -1.250713468679e-05 3.619771756656e-04 0.000000000000e+00 3.255552783827e+06 6.947539126295e+06  1.173109867824e-03
3.400000000000e+01 -3.704487897632e-06 -5.037953511755e-01 3.000000000000e+02 -7.801799929232e+06 -3.783919006420e+04 4.730994839213e+04 -2.120404864189e+06 -9.601940219504e-04 -1.271160261118e-05 3.664094953212e-04 0.000000000000e+00 3.291631615010e+06 7.021194844563e+06  1.186818199880e-03
3.500000000000e+01 -3.659934485036e-06 -5.059687119353e-01 3.000000000000e+02 -7.884191996466e+06 -3.840351936075e+04 4.676551720630e+04 -2.144775384301e+06 -9.710834808208e-04 -1.291540246453e-05 3.708465060184e-04 0.000000000000e+00 3.327400621187e+06 7.094106379117e+06  1.200480568991e-03
3.600000000000e+01 -3.615437089378e-06 -5.081222227911e-01 3.000000000000e+02 -7.965773991810e+06 -3.896258646590e+04 4.622415618463e+04 -2.169027143718e+06 -9.819226026763e-04 -1.311855900113e-05 3.752892156830e-04 0.000000000000e+00 3.362858993115e+06 7.166269432729e+06  1.214098532346e-03
3.700000000000e+01 -3.571005257827e-06 -5.102565998725e-01 3.000000000000e+02 -8.046542258604e+06 -3.951635687101e+04 4.568584700423e+04 -2.193161825806e+06 -9.927122915812e-04 -1.332109721562e-05 3.797386459333e-04 0.000000000000e+00 3.398006079135e+06 7.237680096587e+06  1.227673698249e-03
3.800000000000e+01 -3.526623704639e-06 -5.123725167659e-01 3.000000000000e+02 -8.126493522910e+06 -4.006479719832e+04 4.515057904373e+04 -2.217181173658e+06 -1.003453488478e-03 -1.352304227525e-05 3.841958291238e-04 0.000000000000e+00 3.432841372508e+06 7.308334825976e+06  1.241207718984e-03
3.900000000000e+01 -3.482285589195e-06 -5.144706081083e-01 3.000000000000e+02 -8.205624864087e+06 -4.060787530365e+04 4.461834871222e+04 -2.241086977590e+06 -1.014147165755e-03 -1.372441949843e-05 3.886618053937e-04 0.000000000000e+00 3.467364497655e+06 7.378230414730e+06  1.254702283504e-03
4.000000000000e+01 -3.437998885860e-06 -5.165514727874e-01 3.000000000000e+02 -8.283933695211e+06 -4.114556032126e+04 4.408915848359e+04 -2.264881065425e+06 -1.024794323011e-03 -1.392525431478e-05 3.931376201366e-04 0.000000000000e+00 3.501575200718e+06 7.447363978264e+06  1.268159111564e-03
4.100000000000e+01 -3.393756418835e-06 -5.186156768173e-01 3.000000000000e+02 -8.361417743218e+06 -4.167782270767e+04 4.356301619347e+04 -2.288565292725e+06 -1.035395982825e-03 -1.412557222540e-05 3.976243215065e-04 0.000000000000e+00 3.535473339917e+06 7.515732936522e+06  1.281579947891e-03
4.200000000000e+01 -3.349542174526e-06 -5.206637559023e-01 3.000000000000e+02 -8.438075034961e+06 -4.220463432805e+04 4.303993436905e+04 -2.312141534693e+06 -1.045953187265e-03 -1.432539877828e-05 4.021229582151e-04 0.000000000000e+00 3.569058878428e+06 7.583335002223e+06  1.294966557268e-03
4.300000000000e+01 -3.305367117581e-06 -5.226962177460e-01 3.000000000000e+02 -8.513903883092e+06 -4.272596849537e+04 4.251992945330e+04 -2.335611678168e+06 -1.056466994410e-03 -1.452475952886e-05 4.066345773340e-04 0.000000000000e+00 3.602331877269e+06 7.650168168831e+06  1.308320719632e-03
4.400000000000e+01 -3.261218178003e-06 -5.247135441397e-01 3.000000000000e+02 -8.588902877863e+06 -4.324180007195e+04 4.200302147839e+04 -2.358977615218e+06 -1.066938475641e-03 -1.472368002267e-05 4.111602224465e-04 0.000000000000e+00 3.635292490534e+06 7.716230704135e+06  1.321644226169e-03
4.500000000000e+01 -3.217092751767e-06 -5.267161928437e-01 3.000000000000e+02 -8.663070875802e+06 -4.375210553899e+04 4.148923338152e+04 -2.382241236114e+06 -1.077368712579e-03 -1.492218576843e-05 4.157009316473e-04 0.000000000000e+00 3.667940959512e+06 7.781521140702e+06  1.334938874948e-03
4.600000000000e+01 -3.172984736450e-06 -5.287045992919e-01 3.000000000000e+02 -8.736406995404e+06 -4.425686305488e+04 4.097859050336e+04 -2.405404424292e+06 -1.087758794927e-03 -1.512030220898e-05 4.202577359170e-04 0.000000000000e+00 3.700277609731e+06 7.846038272714e+06  1.348206467696e-03
4.700000000000e+01 -3.128892200051e-06 -5.306791781407e-01 3.000000000000e+02 -8.808910610534e+06 -4.475605253579e+04 4.047112018674e+04 -2.428469050835e+06 -1.098109818091e-03 -1.531805470111e-05 4.248316574449e-04 0.000000000000e+00 3.732302847061e+06 7.909781150774e+06  1.361448806320e-03
4.800000000000e+01 -3.084806596696e-06 -5.326403246807e-01 3.000000000000e+02 -8.880581345895e+06 -4.524965569916e+04 3.996685137177e+04 -2.451436969669e+06 -1.108422881097e-03 -1.551546848480e-05 4.294237080866e-04 0.000000000000e+00 3.764017154731e+06 7.972749078507e+06  1.374667689815e-03
4.900000000000e+01 -3.040727048447e-06 -5.345884161169e-01 3.000000000000e+02 -8.951419074573e+06 -4.573765621717e+04 3.946581419074e+04 -2.474310013509e+06 -1.118699084824e-03 -1.571256869074e-05 4.340348879621e-04 0.000000000000e+00 3.795421091297e+06 8.034941610958e+06  1.387864911561e-03
5.000000000000e+01 -2.996643828597e-06 -5.365238127511e-01 3.000000000000e+02 -9.021423914013e+06 -4.622003964458e+04 3.896803960716e+04 -2.497089989552e+06 -1.128939530104e-03 -1.590938027483e-05 4.386661840360e-04 0.000000000000e+00 3.826515287986e+06 8.096358551557e+06  1.401042256489e-03
