<?xml version="1.0"?>
<!-- Time step: 5 | Time: 1.000000000000e+00 -->
<VTKFile type="UnstructuredGrid" version="0.1" byte_order="LittleEndian">
  <UnstructuredGrid>
    <Piece NumberOfPoints="1235" NumberOfCells="2320">
      <Points>
        <DataArray type="Float64" NumberOfComponents="3" format="ascii">
          0.000000000000e+00 -8.000000000000e+02 0.000000000000e+00
          3.000000000000e+02 -8.000000000000e+02 0.000000000000e+00
          3.000000000000e+02 -5.000000000000e+02 0.000000000000e+00
          0.000000000000e+00 -5.000000000000e+02 0.000000000000e+00
          2.000000000000e+02 -6.500000000000e+02 0.000000000000e+00
          1.500000000000e+02 -6.000000000000e+02 0.000000000000e+00
          3.000000000000e+02 -4.600000000000e+02 0.000000000000e+00
          0.000000000000e+00 -4.600000000000e+02 0.000000000000e+00
          1.000000000000e+02 -6.500000000000e+02 0.000000000000e+00
          1.500000000000e+02 -7.000000000000e+02 0.000000000000e+00
          1.500000000000e+01 -8.000000000000e+02 0.000000000000e+00
          3.000000000000e+01 -8.000000000000e+02 0.000000000000e+00
          4.500000000000e+01 -8.000000000000e+02 0.000000000000e+00
          6.000000000000e+01 -8.000000000000e+02 0.000000000000e+00
          7.500000000000e+01 -8.000000000000e+02 0.000000000000e+00
          9.000000000000e+01 -8.000000000000e+02 0.000000000000e+00
          1.050000000000e+02 -8.000000000000e+02 0.000000000000e+00
          1.200000000000e+02 -8.000000000000e+02 0.000000000000e+00
          1.350000000000e+02 -8.000000000000e+02 0.000000000000e+00
          1.500000000000e+02 -8.000000000000e+02 0.000000000000e+00
          1.650000000000e+02 -8.000000000000e+02 0.000000000000e+00
          1.800000000000e+02 -8.000000000000e+02 0.000000000000e+00
          1.950000000000e+02 -8.000000000000e+02 0.000000000000e+00
          2.100000000000e+02 -8.000000000000e+02 0.000000000000e+00
          2.250000000000e+02 -8.000000000000e+02 0.000000000000e+00
          2.400000000000e+02 -8.000000000000e+02 0.000000000000e+00
          2.550000000000e+02 -8.000000000000e+02 0.000000000000e+00
          2.700000000000e+02 -8.000000000000e+02 0.000000000000e+00
          2.850000000000e+02 -8.000000000000e+02 0.000000000000e+00
          3.000000000000e+02 -7.850000000000e+02 0.000000000000e+00
          3.000000000000e+02 -7.700000000000e+02 0.000000000000e+00
          3.000000000000e+02 -7.550000000000e+02 0.000000000000e+00
          3.000000000000e+02 -7.400000000000e+02 0.000000000000e+00
          3.000000000000e+02 -7.250000000000e+02 0.000000000000e+00
          3.000000000000e+02 -7.100000000000e+02 0.000000000000e+00
          3.000000000000e+02 -6.950000000000e+02 0.000000000000e+00
          3.000000000000e+02 -6.800000000000e+02 0.000000000000e+00
          3.000000000000e+02 -6.650000000000e+02 0.000000000000e+00
          3.000000000000e+02 -6.500000000000e+02 0.000000000000e+00
          3.000000000000e+02 -6.350000000000e+02 0.000000000000e+00
          3.000000000000e+02 -6.200000000000e+02 0.000000000000e+00
          3.000000000000e+02 -6.050000000000e+02 0.000000000000e+00
          3.000000000000e+02 -5.900000000000e+02 0.000000000000e+00
          3.000000000000e+02 -5.750000000000e+02 0.000000000000e+00
          3.000000000000e+02 -5.600000000000e+02 0.000000000000e+00
          3.000000000000e+02 -5.450000000000e+02 0.000000000000e+00
          3.000000000000e+02 -5.300000000000e+02 0.000000000000e+00
          3.000000000000e+02 -5.150000000000e+02 0.000000000000e+00
          3.000000000000e+02 -4.866666666700e+02 0.000000000000e+00
          3.000000000000e+02 -4.733333333300e+02 0.000000000000e+00
          2.850000000000e+02 -4.600000000000e+02 0.000000000000e+00
          2.700000000000e+02 -4.600000000000e+02 0.000000000000e+00
          2.550000000000e+02 -4.600000000000e+02 0.000000000000e+00
          2.400000000000e+02 -4.600000000000e+02 0.000000000000e+00
          2.250000000000e+02 -4.600000000000e+02 0.000000000000e+00
          2.100000000000e+02 -4.600000000000e+02 0.000000000000e+00
          1.950000000000e+02 -4.600000000000e+02 0.000000000000e+00
          1.800000000000e+02 -4.600000000000e+02 0.000000000000e+00
          1.650000000000e+02 -4.600000000000e+02 0.000000000000e+00
          1.500000000000e+02 -4.600000000000e+02 0.000000000000e+00
          1.350000000000e+02 -4.600000000000e+02 0.000000000000e+00
          1.200000000000e+02 -4.600000000000e+02 0.000000000000e+00
          1.050000000000e+02 -4.600000000000e+02 0.000000000000e+00
          9.000000000000e+01 -4.600000000000e+02 0.000000000000e+00
          7.500000000000e+01 -4.600000000000e+02 0.000000000000e+00
          6.000000000000e+01 -4.600000000000e+02 0.000000000000e+00
          4.500000000000e+01 -4.600000000000e+02 0.000000000000e+00
          3.000000000000e+01 -4.600000000000e+02 0.000000000000e+00
          1.500000000000e+01 -4.600000000000e+02 0.000000000000e+00
          0.000000000000e+00 -4.733333333300e+02 0.000000000000e+00
          0.000000000000e+00 -4.866666666700e+02 0.000000000000e+00
          0.000000000000e+00 -5.150000000000e+02 0.000000000000e+00
          0.000000000000e+00 -5.300000000000e+02 0.000000000000e+00
          0.000000000000e+00 -5.450000000000e+02 0.000000000000e+00
          0.000000000000e+00 -5.600000000000e+02 0.000000000000e+00
          0.000000000000e+00 -5.750000000000e+02 0.000000000000e+00
          0.000000000000e+00 -5.900000000000e+02 0.000000000000e+00
          0.000000000000e+00 -6.050000000000e+02 0.000000000000e+00
          0.000000000000e+00 -6.200000000000e+02 0.000000000000e+00
          0.000000000000e+00 -6.350000000000e+02 0.000000000000e+00
          0.000000000000e+00 -6.500000000000e+02 0.000000000000e+00
          0.000000000000e+00 -6.650000000000e+02 0.000000000000e+00
          0.000000000000e+00 -6.800000000000e+02 0.000000000000e+00
          0.000000000000e+00 -6.950000000000e+02 0.000000000000e+00
          0.000000000000e+00 -7.100000000000e+02 0.000000000000e+00
          0.000000000000e+00 -7.250000000000e+02 0.000000000000e+00
          0.000000000000e+00 -7.400000000000e+02 0.000000000000e+00
          0.000000000000e+00 -7.550000000000e+02 0.000000000000e+00
          0.000000000000e+00 -7.700000000000e+02 0.000000000000e+00
          0.000000000000e+00 -7.850000000000e+02 0.000000000000e+00
          1.500000000000e+01 -5.000000000000e+02 0.000000000000e+00
          3.000000000000e+01 -5.000000000000e+02 0.000000000000e+00
          4.500000000000e+01 -5.000000000000e+02 0.000000000000e+00
          6.000000000000e+01 -5.000000000000e+02 0.000000000000e+00
          7.500000000000e+01 -5.000000000000e+02 0.000000000000e+00
          9.000000000000e+01 -5.000000000000e+02 0.000000000000e+00
          1.050000000000e+02 -5.000000000000e+02 0.000000000000e+00
          1.200000000000e+02 -5.000000000000e+02 0.000000000000e+00
          1.350000000000e+02 -5.000000000000e+02 0.000000000000e+00
          1.500000000000e+02 -5.000000000000e+02 0.000000000000e+00
          1.650000000000e+02 -5.000000000000e+02 0.000000000000e+00
          1.800000000000e+02 -5.000000000000e+02 0.000000000000e+00
          1.950000000000e+02 -5.000000000000e+02 0.000000000000e+00
          2.100000000000e+02 -5.000000000000e+02 0.000000000000e+00
          2.250000000000e+02 -5.000000000000e+02 0.000000000000e+00
          2.400000000000e+02 -5.000000000000e+02 0.000000000000e+00
          2.550000000000e+02 -5.000000000000e+02 0.000000000000e+00
          2.700000000000e+02 -5.000000000000e+02 0.000000000000e+00
          2.850000000000e+02 -5.000000000000e+02 0.000000000000e+00
          1.549008570200e+02 -6.002407636700e+02 0.000000000000e+00
          1.597545161000e+02 -6.009607359800e+02 0.000000000000e+00
          1.645142338600e+02 -6.021529832100e+02 0.000000000000e+00
          1.691341716200e+02 -6.038060233700e+02 0.000000000000e+00
          1.735698368400e+02 -6.059039367800e+02 0.000000000000e+00
          1.777785116500e+02 -6.084265193800e+02 0.000000000000e+00
          1.817196642100e+02 -6.113494773300e+02 0.000000000000e+00
          1.853553390600e+02 -6.146446609400e+02 0.000000000000e+00
          1.886505226700e+02 -6.182803357900e+02 0.000000000000e+00
          1.915734806200e+02 -6.222214883500e+02 0.000000000000e+00
          1.940960632200e+02 -6.264301631600e+02 0.000000000000e+00
          1.961939766300e+02 -6.308658283800e+02 0.000000000000e+00
          1.978470167900e+02 -6.354857661400e+02 0.000000000000e+00
          1.990392640200e+02 -6.402454839000e+02 0.000000000000e+00
          1.997592363300e+02 -6.450991429800e+02 0.000000000000e+00
          1.997592363300e+02 -6.549008570200e+02 0.000000000000e+00
          1.990392640200e+02 -6.597545161000e+02 0.000000000000e+00
          1.978470167900e+02 -6.645142338600e+02 0.000000000000e+00
          1.961939766300e+02 -6.691341716200e+02 0.000000000000e+00
          1.940960632200e+02 -6.735698368400e+02 0.000000000000e+00
          1.915734806200e+02 -6.777785116500e+02 0.000000000000e+00
          1.886505226700e+02 -6.817196642100e+02 0.000000000000e+00
          1.853553390600e+02 -6.853553390600e+02 0.000000000000e+00
          1.817196642100e+02 -6.886505226700e+02 0.000000000000e+00
          1.777785116500e+02 -6.915734806200e+02 0.000000000000e+00
          1.735698368400e+02 -6.940960632200e+02 0.000000000000e+00
          1.691341716200e+02 -6.961939766300e+02 0.000000000000e+00
          1.645142338600e+02 -6.978470167900e+02 0.000000000000e+00
          1.597545161000e+02 -6.990392640200e+02 0.000000000000e+00
          1.549008570200e+02 -6.997592363300e+02 0.000000000000e+00
          1.450991429800e+02 -6.997592363300e+02 0.000000000000e+00
          1.402454839000e+02 -6.990392640200e+02 0.000000000000e+00
          1.354857661400e+02 -6.978470167900e+02 0.000000000000e+00
[...]
      <PointData Scalars="TEMPERATURE1">
        <DataArray type="Float64" Name="TEMPERATURE1" format="ascii">
          3.200000000000e+02 3.200000000000e+02 3.082841677364e+02 3.082849650975e+02 3.000000000000e+02 3.000000000000e+02 3.100000000000e+02 3.100000000000e+02 3.000000000000e+02 3.000000000000e+02 3.200000000000e+02 3.200000000000e+02 3.200000000000e+02 3.200000000000e+02 3.200000000000e+02 3.200000000000e+02 3.200000000000e+02 3.200000000000e+02 3.200000000000e+02 3.200000000000e+02 3.200000000000e+02 3.200000000000e+02 3.200000000000e+02 3.200000000000e+02 3.200000000000e+02 3.200000000000e+02 3.200000000000e+02 3.200000000000e+02 3.200000000000e+02 3.181448931516e+02 3.163182777702e+02 3.145438557321e+02 3.128510500618e+02 3.112662264105e+02 3.098288163681e+02 3.085657988404e+02 3.074824829294e+02 3.066276306719e+02 3.059828082425e+02 3.055724370787e+02 3.053592012056e+02 3.053365061796e+02 3.054652987888e+02 3.057367439479e+02 3.061092464852e+02 3.065713654311e+02 3.070986976315e+02 3.076746835966e+02 3.088461739659e+02 3.094201017847e+02 3.100000000000e+02 3.100000000000e+02 3.100000000000e+02 3.100000000000e+02 3.100000000000e+02 3.100000000000e+02 3.100000000000e+02 3.100000000000e+02 3.100000000000e+02 3.100000000000e+02 3.100000000000e+02 3.100000000000e+02 3.100000000000e+02 3.100000000000e+02 3.100000000000e+02 3.100000000000e+02 3.100000000000e+02 3.100000000000e+02 3.100000000000e+02 3.094202329179e+02 3.088466050316e+02 3.076738155330e+02 3.070987248897e+02 3.065722459227e+02 3.061110777003e+02 3.057327332874e+02 3.054670023931e+02 3.053380993719e+02 3.053557593597e+02 3.055719312960e+02 3.059826288564e+02 3.066282787300e+02 3.074866153957e+02 3.085638186508e+02 3.098266939646e+02 3.112719388577e+02 3.128488092150e+02 3.145430526718e+02 3.163190146976e+02 3.181474672714e+02 3.082736794598e+02 3.082385412886e+02 3.081842206419e+02 3.081155096269e+02 3.080375017348e+02 3.079564863640e+02 3.078810278534e+02 3.078208900012e+02 3.077799103267e+02 3.077665157079e+02 3.077797964266e+02 3.078204753082e+02 3.078818401017e+02 3.079552329988e+02 3.080359123859e+02 3.081170895215e+02 3.081853988944e+02 3.082389773218e+02 3.082725278400e+02 3.000000000000e+02 3.000000000000e+02 3.000000000000e+02 3.000000000000e+02 3.000000000000e+02 3.000000000000e+02 3.000000000000e+02 3.000000000000e+02 3.000000000000e+02 3.000000000000e+02 3.000000000000e+02 3.000000000000e+02 3.000000000000e+02 3.000000000000e+02 3.000000000000e+02 3.000000000000e+02 3.000000000000e+02 3.000000000000e+02 3.000000000000e+02 3.000000000000e+02 3.000000000000e+02 3.000000000000e+02 3.000000000000e+02 3.000000000000e+02 3.000000000000e+02 3.000000000000e+02 3.000000000000e+02 3.000000000000e+02 3.000000000000e+02 3.000000000000e+02 3.000000000000e+02 3.000000000000e+02 3.000000000000e+02 3.000000000000e+02 3.000000000000e+02 3.000000000000e+02 3.000000000000e+02 3.000000000000e+02 3.000000000000e+02 3.000000000000e+02 3.000000000000e+02 3.000000000000e+02 3.000000000000e+02 3.000000000000e+02 3.000000000000e+02 3.000000000000e+02 3.000000000000e+02 3.000000000000e+02 3.000000000000e+02 3.000000000000e+02 3.000000000000e+02 3.000000000000e+02 3.000000000000e+02 3.000000000000e+02 3.000000000000e+02 3.000000000000e+02 3.000000000000e+02 3.000000000000e+02 3.000000000000e+02 3.000000000000e+02 3.048647010935e+02 3.102248671572e+02 3.109747888141e+02 3.049996930390e+02 3.037875820999e+02 3.050257716874e+02 3.057557863703e+02 3.041757696052e+02 3.041168132550e+02 3.043818249441e+02 3.096137092363e+02 3.106982737990e+02 3.032432901395e+02 3.057747932310e+02 3.080609607385e+02 3.034777878147e+02 3.029958024728e+02 3.059704928278e+02 3.053442328621e+02 3.025667999937e+02 3.029305234688e+02 3.031275902002e+02 3.065061556071e+02 3.027277282202e+02 3.033008400557e+02 3.024877340753e+02 3.023472919150e+02 3.034473281752e+02 3.059722528423e+02 3.025085403737e+02 3.052754613875e+02 3.023121977091e+02 3.093799264713e+02 3.050374524877e+02 3.060670626810e+02 3.143344645256e+02 3.140925385241e+02 3.058515351411e+02 3.065088274521e+02 3.147918976592e+02 3.050900005454e+02 3.091667120997e+02 3.137666355359e+02 3.062028071626e+02 3.057306782819e+02 3.141750169720e+02 3.019194737514e+02 3.033469551856e+02 3.045049695216e+02 3.019803027527e+02 3.051097484287e+02 3.059168888654e+02 3.018089644147e+02 3.037356970952e+02 3.017337988508e+02 3.030921801440e+02 3.154046202114e+02 3.065300681222e+02 3.069386252622e+02 3.043544120653e+02 3.040034492618e+02 3.074201699708e+02 3.041805613452e+02 3.091964862270e+02 3.030354062435e+02 3.015513939258e+02 3.122869391628e+02 3.050591240543e+02 3.030677663564e+02 3.067185048567e+02 3.067587114026e+02 3.051698291243e+02 3.016718187216e+02 3.019802875713e+02 3.037006659708e+02 3.015788865358e+02 3.079934050092e+02 3.038769809190e+02 3.159962739325e+02 3.063665746906e+02 3.016241534547e+02 3.015725486953e+02 3.033298711148e+02 3.014038488435e+02 3.012598259645e+02 3.026743836237e+02 3.043686473616e+02 3.105607593906e+02 3.030974957111e+02 3.053462354796e+02 3.042030854524e+02 3.049272115173e+02 3.056611677071e+02 3.118673523360e+02 3.107835954231e+02 3.046845732913e+02 3.013320786411e+02 3.029428537938e+02 3.020425257538e+02 3.014065405263e+02 3.033297418343e+02 3.014218108433e+02 3.056346697721e+02 3.135959055832e+02 3.081993371992e+02 3.043520400440e+02 3.052049844310e+02 3.035326734091e+02 3.047734007195e+02 3.071191866549e+02 3.089953078771e+02 3.037545140332e+02 3.011369265789e+02 3.017882421087e+02 3.082511702671e+02 3.037338882783e+02 3.058405990650e+02 3.069736685200e+02 3.132076244388e+02 3.166017157273e+02 3.112485971818e+02 3.053768636840e+02 3.033371949013e+02 3.078905568332e+02 3.157976514716e+02 3.063578247837e+02 3.032790402912e+02 3.042201412158e+02 3.120960074069e+02 3.058373323807e+02 3.168676340452e+02 3.072284045405e+02 3.080927720221e+02 3.050192045154e+02 3.040287827827e+02 3.082533839516e+02 3.010543801618e+02 3.020584998440e+02 3.038452707798e+02 3.033397432280e+02 3.080528354826e+02 3.033386204578e+02 3.051511205771e+02 3.026990595644e+02 3.044302494859e+02 3.075412474249e+02 3.049655054643e+02 3.115378781557e+02 3.061928338725e+02 3.027879752381e+02 3.042110213800e+02 3.026850300767e+02 3.130923908820e+02 3.056340098487e+02 3.068079311883e+02 3.167567572432e+02 3.010489425141e+02 3.017862420153e+02 3.010621133578e+02 3.024027813800e+02 3.054543813187e+02 3.050607965632e+02 3.048176579756e+02 3.093184753588e+02 3.134632293844e+02 3.054307449069e+02 3.063226400781e+02 3.026969077452e+02 3.072403578182e+02 3.168854155434e+02 3.011233373824e+02 3.025701310615e+02 3.011127474965e+02 3.015234670640e+02 3.062465635225e+02 3.135514478942e+02 3.169551671424e+02 3.069451034771e+02 3.051881130027e+02 3.117188924877e+02 3.130277604305e+02 3.058015485982e+02 3.055775883002e+02 3.109018195161e+02 3.014388428352e+02 3.011531113291e+02 3.026303373663e+02 3.011118167311e+02 3.171250628430e+02 3.072151941476e+02 3.051901978982e+02 3.083345589446e+02 3.022192451106e+02 3.048408175738e+02 3.009609212466e+02 3.020121721749e+02 3.066615927747e+02 3.168192836624e+02 3.098007487719e+02 3.053698419293e+02 3.052450674306e+02 3.070231713463e+02 3.107949520728e+02 3.045658325050e+02 3.059048214462e+02 3.057205285888e+02 3.021634356014e+02 3.042224718487e+02 3.040111340999e+02 3.040201869631e+02 3.062600272197e+02 3.045947246592e+02 3.091698529619e+02 3.037912598922e+02 3.032510526399e+02 3.074252251558e+02 3.095302108871e+02 3.046033748784e+02 3.010304925467e+02 3.018317945651e+02 3.067790942687e+02 3.169566829945e+02 3.031384699600e+02 3.047797149997e+02 3.025060526757e+02 3.058733183959e+02 3.048433155655e+02 3.116429675029e+02 3.010467605017e+02 3.010972216158e+02 3.017821043201e+02 3.008701505423e+02 3.022041355698e+02 3.009341491431e+02 3.129553995921e+02 3.052552706844e+02 3.028293561895e+02 3.025152438352e+02 3.138650049755e+02 3.063450561395e+02 3.025198161641e+02 3.031950276078e+02 3.044630837777e+02 3.061167244021e+02 3.056891365468e+02 3.023807657048e+02 3.038684159730e+02 3.087376539628e+02 3.035924696797e+02 3.076475641355e+02 3.070767272313e+02 3.171819686530e+02 3.034470414139e+02 3.065365325644e+02 3.097838319545e+02 3.044891116679e+02 3.064087178898e+02 3.038407492884e+02 3.024240020206e+02 3.040016729552e+02 3.168717923754e+02 3.068037158722e+02 3.027008905077e+02 3.056804234929e+02 3.073876588918e+02 3.175788839705e+02 3.048229640819e+02 3.048405118584e+02 3.017765756547e+02 3.009411130750e+02 3.026461734039e+02 3.048507892082e+02 3.037708629337e+02 3.063992914189e+02 3.069185901853e+02 3.033998100778e+02 3.071756006918e+02 3.038010092792e+02 3.054927049217e+02 3.118134306401e+02 3.117361701739e+02 3.047853865077e+02 3.008542959040e+02 3.010442984789e+02 3.153174603354e+02 3.066268920077e+02 3.175639049898e+02 3.072589969416e+02 3.077453420616e+02 3.052375487444e+02 3.042111219741e+02 3.031726747235e+02 3.019129154350e+02 3.008690398048e+02 3.046366368526e+02 3.021006945396e+02 3.019100581899e+02 3.008209363218e+02 3.006406652046e+02 3.010214625834e+02 3.006497192617e+02 3.014933501866e+02 3.078648103558e+02 3.032779528768e+02 3.029029971130e+02 3.018299252411e+02 3.094503992372e+02 3.041406179367e+02 3.081916117909e+02 3.046230981075e+02 3.044768682414e+02 3.019309727347e+02 3.176983350928e+02 3.069983081803e+02 3.022237747176e+02 3.023205041382e+02 3.047669517049e+02 3.027308288896e+02 3.067454939448e+02 3.029187112540e+02 3.047752588000e+02 3.020119103427e+02 3.038895156012e+02 3.018762523168e+02 3.100613608068e+02 3.049835192651e+02 3.056705507208e+02 3.040414011461e+02 3.038420515726e+02 3.020412106332e+02 3.126382420984e+02 3.052460260813e+02 3.044120774100e+02 3.088185878718e+02 3.045395918358e+02 3.097280755709e+02 3.095577970553e+02 3.040313406347e+02 3.006662522409e+02 3.014660563888e+02 3.018711532562e+02 3.043278333518e+02 3.038596874802e+02 3.051764952545e+02 3.113942320926e+02 3.055516896275e+02 3.109032251148e+02 3.044788640882e+02 3.067896759198e+02 3.153406887339e+02 3.018580654680e+02 3.024429325857e+02 3.007100197852e+02 3.007470342517e+02 3.014997470709e+02 3.006339372345e+02 3.016010948869e+02 3.034263627956e+02 3.041570618759e+02 3.098996007360e+02 3.016767031630e+02 3.024688256269e+02 3.051691591902e+02 3.099515389817e+02 3.012735574213e+02 3.020330906146e+02 3.112597975057e+02 3.049795767604e+02 3.013082139222e+02 3.030156800569e+02 3.069122120764e+02 3.175461673982e+02 3.065163484594e+02 3.054770909800e+02 3.147600065755e+02 3.061726066256e+02 3.052978293904e+02 3.094860888041e+02 3.035914000682e+02 3.040533510665e+02 3.053383144316e+02 3.032850182246e+02 3.062799423294e+02 3.146713973676e+02 3.011018540844e+02 3.007986968359e+02 3.033944018555e+02 3.081278371069e+02 3.018608867567e+02 3.007926398235e+02 3.025227149032e+02 3.013926458472e+02 3.014853310150e+02 3.032946433039e+02 3.007231625742e+02 3.010778529219e+02 3.138294119553e+02 3.056099199384e+02 3.043431152556e+02 3.066585764550e+02 3.060225609552e+02 3.148304243188e+02 3.061877013804e+02 3.032210833100e+02 3.016656391347e+02 3.031666045301e+02 3.005768354087e+02 3.013017110629e+02 3.059884927104e+02 3.131066072736e+02 3.066902440037e+02 3.030895654277e+02 3.048614473844e+02 3.115116499675e+02 3.056633866781e+02 3.134441186843e+02 3.131707157416e+02 3.055779192749e+02 3.021164351379e+02 3.018159200392e+02 3.153088804673e+02 3.067823907309e+02 3.053394530088e+02 3.117205208234e+02 3.040947761313e+02 3.017216922058e+02 3.054919638463e+02 3.064863149781e+02 3.016111790247e+02 3.036453445576e+02 3.070729445912e+02 3.047042722782e+02 3.064260822261e+02 3.148328528358e+02 3.106876063104e+02 3.050459533395e+02 3.007211940783e+02 3.012065959097e+02 3.155117642227e+02 3.067559528152e+02 3.049546439974e+02 3.121184929711e+02 3.078613579620e+02 3.034774741024e+02 3.072079023966e+02 3.181462563691e+02 3.180474964508e+02 3.075739842247e+02 3.018333137637e+02 3.029972814811e+02 3.077060797306e+02 3.036227655281e+02 3.076499262950e+02 3.181121464515e+02 3.023099100804e+02 3.017469683492e+02 3.086945404738e+02 3.052557505702e+02 3.027012900260e+02 3.060451662125e+02 3.041000616943e+02 3.017320872529e+02 3.028228088127e+02 3.065581130123e+02 3.046428319906e+02 3.048322115562e+02 3.056146535899e+02 3.064007489171e+02 3.047923097837e+02 3.078815281777e+02 3.059646925537e+02 3.123856822653e+02 3.006979938040e+02 3.014082301951e+02 3.006902085379e+02 3.005876797013e+02 3.013043193448e+02 3.005512448145e+02 3.050733571950e+02 3.104124487604e+02 3.028145164838e+02 3.039061929340e+02 3.125110881505e+02 3.050736774303e+02 3.071597537404e+02 3.181618958296e+02 3.056252105603e+02 3.046693408012e+02 3.127313322541e+02 3.058145321202e+02 3.044258180302e+02 3.080814189655e+02 3.006048434185e+02 3.011207145200e+02 3.075634563236e+02 3.184728634595e+02 3.011356513404e+02 3.005342810748e+02 3.005135433501e+02 3.010954817814e+02 3.044645904834e+02 3.022461281311e+02 3.124760323350e+02 3.055206262416e+02 3.124450197846e+02 3.058654138343e+02 3.057805363506e+02 3.133400048276e+02 3.047833346747e+02 3.108271744852e+02 3.060693757942e+02 3.053462728250e+02 3.044155587299e+02 3.039865975077e+02 3.010135363928e+02 3.005176872184e+02 3.097201956811e+02 3.043431937098e+02 3.062197434317e+02 3.156130707290e+02 3.054054704929e+02 3.125289851249e+02 3.035157873803e+02 3.070878929892e+02 3.079614120602e+02 3.033838961500e+02 3.119920800496e+02 3.050774567839e+02 3.096377368442e+02 3.039660104386e+02 3.058205881537e+02 3.120697708048e+02 3.107407314561e+02 3.055957168413e+02 3.051250161463e+02 3.023817098830e+02 3.050038712057e+02 3.038066606287e+02 3.043485077173e+02 3.100399209927e+02 3.011633100079e+02 3.005069675339e+02 3.060657431298e+02 3.039582291558e+02 3.061779974478e+02 3.149858832184e+02 3.005336088642e+02 3.006988113324e+02 3.071632693535e+02 3.039788472720e+02 3.091630689085e+02 3.037842027078e+02 3.038528590589e+02 3.026747297017e+02 3.032790786034e+02 3.031121047267e+02 3.106156866588e+02 3.043979337299e+02 3.019221751874e+02 3.042733484345e+02 3.034617218076e+02 3.080535115372e+02 3.030673199331e+02 3.058790087602e+02 3.034478017456e+02 3.028254479616e+02 3.090675303273e+02 3.043240179940e+02 3.085321166962e+02 3.049180225888e+02 3.066830736505e+02 3.151429507533e+02 3.004902419798e+02 3.008404473606e+02 3.004892075092e+02 3.011001018577e+02 3.069768039114e+02 3.029064363164e+02 3.067732109329e+02 3.028504409276e+02 3.052795389976e+02 3.077649881749e+02 3.022583115355e+02 3.026158458598e+02 3.147268056085e+02 3.060147711646e+02 3.067101953086e+02 3.027998062026e+02 3.103507050435e+02 3.053823441655e+02 3.047798157454e+02 3.086354852391e+02 3.021612174579e+02 3.050972922620e+02 3.077163675005e+02 3.183074559307e+02 3.034594112069e+02 3.048974661130e+02 3.125068612273e+02 3.060053111918e+02 3.059593750798e+02 3.148717244290e+02 3.054902269248e+02 3.055808358281e+02 3.034863446158e+02 3.062011816232e+02 3.053369026525e+02 3.090506147601e+02 3.013802906612e+02 3.023569059743e+02 3.053451063968e+02 3.130526761015e+02 3.073486827599e+02 3.042557192048e+02 3.076504106028e+02 3.185367381744e+02 3.057776453360e+02 3.025468410942e+02 3.179588909819e+02 3.072698842789e+02 3.035959394497e+02 3.078966763050e+02 3.026756779181e+02 3.041658283596e+02 3.039528909506e+02 3.077208792821e+02 3.072250009921e+02 3.180594494309e+02 3.051671690288e+02 3.021923390159e+02 3.029424169612e+02 3.020488730093e+02 3.065246417491e+02 3.157743806363e+02 3.040638186980e+02 3.086462601979e+02 3.040829119179e+02 3.066352071316e+02 3.184352867623e+02 3.076121680679e+02 3.055210937278e+02 3.103011998302e+02 3.072869928678e+02 3.050077194094e+02 3.083419682331e+02 3.041775349361e+02 3.022258917602e+02 3.047141820759e+02 3.077077900323e+02 3.184046482229e+02 3.138139398975e+02 3.059798499127e+02 3.013025481576e+02 3.026486432386e+02 3.038367561295e+02 3.091893350311e+02 3.064555666077e+02 3.161800388945e+02 3.050296179099e+02 3.074332917980e+02 3.050079727645e+02 3.053537699925e+02 3.062723283587e+02 3.138585693742e+02 3.016169044612e+02 3.017349564277e+02 3.021959452271e+02 3.044795842117e+02 3.149516912088e+02 3.066349024900e+02 3.157004102430e+02 3.062832604955e+02 3.034637728795e+02 3.014667297224e+02 3.029405463071e+02 3.034632557050e+02 3.068704059728e+02 3.160547814999e+02 3.178931933890e+02 3.072227157891e+02 3.158664176087e+02 3.065061964515e+02 3.033659833028e+02 3.055266239950e+02 3.037684833811e+02 3.046422720141e+02 3.031096750042e+02 3.064540673545e+02 3.021916562637e+02 3.010143569413e+02 3.042974949864e+02 3.023853766307e+02 3.027557508085e+02 3.013499967000e+02 3.163735975107e+02 3.069136661244e+02 3.057477062076e+02 3.028641774818e+02 3.053310416273e+02 3.100976627755e+02 3.007314784430e+02 3.004947957772e+02 3.061442905112e+02 3.049488955664e+02 3.011794819896e+02 3.005067082693e+02 3.090611778649e+02 3.047593110824e+02 3.010623256381e+02 3.023849804579e+02 3.039890447711e+02 3.024027062759e+02 3.159707394768e+02 3.066589642205e+02 3.068244792171e+02 3.028761992674e+02 3.055531241152e+02 3.024073717556e+02 3.064618663305e+02 3.159206557203e+02 3.022984124633e+02 3.021805561477e+02 3.050738026950e+02 3.085251716116e+02 3.041385964649e+02 3.072366291720e+02 3.052909266923e+02 3.028872879890e+02 3.053851318349e+02 3.070728240385e+02 3.072713200302e+02 3.168997497820e+02 3.047306313142e+02 3.019864128896e+02 3.007711633197e+02 3.004201091550e+02 3.063169281596e+02 3.136655487732e+02 3.050160516619e+02 3.045412291945e+02 3.090669779393e+02 3.051578709837e+02 3.012853067459e+02 3.011401785409e+02 3.070186602466e+02 3.030843728852e+02 3.033852876420e+02 3.076027438049e+02 3.044633815917e+02 3.092593200843e+02 3.043127636539e+02 3.097461721967e+02 3.025028908120e+02 3.010557104794e+02 3.004221208202e+02 3.008219646305e+02 3.017041225508e+02 3.033935356082e+02 3.077171787477e+02 3.046592916040e+02 3.093889607717e+02 3.040403916914e+02 3.046505152982e+02 3.030773420841e+02 3.138568294977e+02 3.056587510231e+02 3.007704636225e+02 3.004871641266e+02 3.183453201693e+02 3.074580361595e+02 3.012612572843e+02 3.005382884259e+02 3.008941245910e+02 3.005081607372e+02 3.054322239466e+02 3.060871338100e+02 3.012986712864e+02 3.030127790424e+02 3.118832639011e+02 3.054722257279e+02 3.053685185552e+02 3.071072036763e+02 3.005091385503e+02 3.006540347524e+02 3.146268489682e+02 3.063305525123e+02 3.005836986046e+02 3.006626344684e+02 3.185038824713e+02 3.072529601323e+02 3.011637443863e+02 3.004935272432e+02 3.065875504184e+02 3.157189115770e+02 3.111292355037e+02 3.046417771689e+02 3.037412904807e+02 3.085844380958e+02 3.102545357905e+02 3.051854739000e+02 3.012086203667e+02 3.022630232601e+02 3.076919508182e+02 3.032389082153e+02 3.013426651542e+02 3.016906579647e+02 3.063572325311e+02 3.043556082485e+02 3.115546636126e+02 3.047088796725e+02 3.141499463286e+02 3.056875801004e+02 3.035224676136e+02 3.035882744766e+02 3.021812852763e+02 3.040547362236e+02 3.026334519022e+02 3.053120706041e+02 3.061558386040e+02 3.057715027623e+02 3.078391078866e+02 3.032613141318e+02 3.003764283148e+02 3.007692422445e+02 3.026036679666e+02 3.056412689293e+02 3.070646725961e+02 3.164775326880e+02 3.095113123981e+02 3.039355483168e+02 3.043039501606e+02 3.045677249486e+02 3.054948464318e+02 3.109854343999e+02 3.064830266197e+02 3.031093236745e+02 3.047336590280e+02 3.114544222557e+02 3.051518143443e+02 3.065137014827e+02 3.020809288570e+02 3.010497039705e+02 3.168523013332e+02 3.071769536113e+02 3.095119045697e+02 3.039433396295e+02 3.105840362133e+02 3.045428608717e+02 3.120573016096e+02 3.049343424242e+02 3.094862690806e+02 3.053891675302e+02 3.025140479145e+02 3.014879863482e+02 3.003712293329e+02 3.008168716422e+02 3.168897546980e+02 3.072690023133e+02 3.056386141091e+02 3.043271698053e+02 3.034904527120e+02 3.015336036375e+02 3.052681602379e+02 3.124822599878e+02 3.060599389147e+02 3.135933548476e+02 3.134181422569e+02 3.061722404335e+02 3.039807181896e+02 3.018539377966e+02 3.117868944578e+02 3.053565094095e+02 3.022380905174e+02 3.039170589499e+02 3.049856910514e+02 3.109264815693e+02 3.117550501600e+02 3.047