<?xml version="1.0"?>
<!-- Time step: 0 | Time: 0.000000000000e+00 -->
<VTKFile type="UnstructuredGrid" version="0.1" byte_order="LittleEndian">
  <UnstructuredGrid>
    <Piece NumberOfPoints="1235" NumberOfCells="2320">
      <Points>
        <DataArray type="Float64" NumberOfComponents="3" format="ascii">
          0.000000000000e+00 -8.000000000000e+02 0.000000000000e+00
          3.000000000000e+02 -8.000000000000e+02 0.000000000000e+00
          3.000000000000e+02 -5.000000000000e+02 0.000000000000e+00
          0.000000000000e+00 -5.000000000000e+02 0.000000000000e+00
          2.000000000000e+02 -6.500000000000e+02 0.000000000000e+00
          1.500000000000e+02 -6.000000000000e+02 0.000000000000e+00
          3.000000000000e+02 -4.600000000000e+02 0.000000000000e+00
          0.000000000000e+00 -4.600000000000e+02 0.000000000000e+00
          1.000000000000e+02 -6.500000000000e+02 0.000000000000e+00
          1.500000000000e+02 -7.000000000000e+02 0.000000000000e+00
          1.500000000000e+01 -8.000000000000e+02 0.000000000000e+00
          3.000000000000e+01 -8.000000000000e+02 0.000000000000e+00
          4.500000000000e+01 -8.000000000000e+02 0.000000000000e+00
          6.000000000000e+01 -8.000000000000e+02 0.000000000000e+00
          7.500000000000e+01 -8.000000000000e+02 0.000000000000e+00
          9.000000000000e+01 -8.000000000000e+02 0.000000000000e+00
          1.050000000000e+02 -8.000000000000e+02 0.000000000000e+00
          1.200000000000e+02 -8.000000000000e+02 0.000000000000e+00
          1.350000000000e+02 -8.000000000000e+02 0.000000000000e+00
          1.500000000000e+02 -8.000000000000e+02 0.000000000000e+00
          1.650000000000e+02 -8.000000000000e+02 0.000000000000e+00
          1.800000000000e+02 -8.000000000000e+02 0.000000000000e+00
          1.950000000000e+02 -8.000000000000e+02 0.000000000000e+00
          2.100000000000e+02 -8.000000000000e+02 0.000000000000e+00
          2.250000000000e+02 -8.000000000000e+02 0.000000000000e+00
          2.400000000000e+02 -8.000000000000e+02 0.000000000000e+00
          2.550000000000e+02 -8.000000000000e+02 0.000000000000e+00
          2.700000000000e+02 -8.000000000000e+02 0.000000000000e+00
          2.850000000000e+02 -8.000000000000e+02 0.000000000000e+00
          3.000000000000e+02 -7.850000000000e+02 0.000000000000e+00
          3.000000000000e+02 -7.700000000000e+02 0.000000000000e+00
          3.000000000000e+02 -7.550000000000e+02 0.000000000000e+00
          3.000000000000e+02 -7.400000000000e+02 0.000000000000e+00
          3.000000000000e+02 -7.250000000000e+02 0.000000000000e+00
          3.000000000000e+02 -7.100000000000e+02 0.000000000000e+00
          3.000000000000e+02 -6.950000000000e+02 0.000000000000e+00
          3.000000000000e+02 -6.800000000000e+02 0.000000000000e+00
          3.000000000000e+02 -6.650000000000e+02 0.000000000000e+00
          3.000000000000e+02 -6.500000000000e+02 0.000000000000e+00
          3.000000000000e+02 -6.350000000000e+02 0.000000000000e+00
          3.000000000000e+02 -6.200000000000e+02 0.000000000000e+00
          3.000000000000e+02 -6.050000000000e+02 0.000000000000e+00
          3.000000000000e+02 -5.900000000000e+02 0.000000000000e+00
          3.000000000000e+02 -5.750000000000e+02 0.000000000000e+00
          3.000000000000e+02 -5.600000000000e+02 0.000000000000e+00
          3.000000000000e+02 -5.450000000000e+02 0.000000000000e+00
          3.000000000000e+02 -5.300000000000e+02 0.000000000000e+00
          3.000000000000e+02 -5.150000000000e+02 0.000000000000e+00
          3.000000000000e+02 -4.866666666700e+02 0.000000000000e+00
          3.000000000000e+02 -4.733333333300e+02 0.000000000000e+00
          2.850000000000e+02 -4.600000000000e+02 0.000000000000e+00
          2.700000000000e+02 -4.600000000000e+02 0.000000000000e+00
          2.550000000000e+02 -4.600000000000e+02 0.000000000000e+00
          2.400000000000e+02 -4.600000000000e+02 0.000000000000e+00
          2.250000000000e+02 -4.600000000000e+02 0.000000000000e+00
          2.100000000000e+02 -4.600000000000e+02 0.000000000000e+00
          1.950000000000e+02 -4.600000000000e+02 0.000000000000e+00
          1.800000000000e+02 -4.600000000000e+02 0.000000000000e+00
          1.650000000000e+02 -4.600000000000e+02 0.000000000000e+00
          1.500000000000e+02 -4.600000000000e+02 0.000000000000e+00
          1.350000000000e+02 -4.600000000000e+02 0.000000000000e+00
          1.200000000000e+02 -4.600000000000e+02 0.000000000000e+00
          1.050000000000e+02 -4.600000000000e+02 0.000000000000e+00
          9.000000000000e+01 -4.600000000000e+02 0.000000000000e+00
          7.500000000000e+01 -4.600000000000e+02 0.000000000000e+00
          6.000000000000e+01 -4.600000000000e+02 0.000000000000e+00
          4.500000000000e+01 -4.600000000000e+02 0.000000000000e+00
          3.000000000000e+01 -4.600000000000e+02 0.000000000000e+00
          1.500000000000e+01 -4.600000000000e+02 0.000000000000e+00
          0.000000000000e+00 -4.733333333300e+02 0.000000000000e+00
          0.000000000000e+00 -4.866666666700e+02 0.000000000000e+00
          0.000000000000e+00 -5.150000000000e+02 0.000000000000e+00
          0.000000000000e+00 -5.300000000000e+02 0.000000000000e+00
          0.000000000000e+00 -5.450000000000e+02 0.000000000000e+00
          0.000000000000e+00 -5.600000000000e+02 0.000000000000e+00
          0.000000000000e+00 -5.750000000000e+02 0.000000000000e+00
          0.000000000000e+00 -5.900000000000e+02 0.000000000000e+00
          0.000000000000e+00 -6.050000000000e+02 0.000000000000e+00
          0.000000000000e+00 -6.200000000000e+02 0.000000000000e+00
          0.000000000000e+00 -6.350000000000e+02 0.000000000000e+00
          0.000000000000e+00 -6.500000000000e+02 0.000000000000e+00
          0.000000000000e+00 -6.650000000000e+02 0.000000000000e+00
          0.000000000000e+00 -6.800000000000e+02 0.000000000000e+00
          0.000000000000e+00 -6.950000000000e+02 0.000000000000e+00
          0.000000000000e+00 -7.100000000000e+02 0.000000000000e+00
          0.000000000000e+00 -7.250000000000e+02 0.000000000000e+00
          0.000000000000e+00 -7.400000000000e+02 0.000000000000e+00
          0.000000000000e+00 -7.550000000000e+02 0.000000000000e+00
          0.000000000000e+00 -7.700000000000e+02 0.000000000000e+00
          0.000000000000e+00 -7.850000000000e+02 0.000000000000e+00
          1.500000000000e+01 -5.000000000000e+02 0.000000000000e+00
          3.000000000000e+01 -5.000000000000e+02 0.000000000000e+00
          4.500000000000e+01 -5.000000000000e+02 0.000000000000e+00
          6.000000000000e+01 -5.000000000000e+02 0.000000000000e+00
          7.500000000000e+01 -5.000000000000e+02 0.000000000000e+00
          9.000000000000e+01 -5.000000000000e+02 0.000000000000e+00
          1.050000000000e+02 -5.000000000000e+02 0.000000000000e+00
          1.200000000000e+02 -5.000000000000e+02 0.000000000000e+00
          1.350000000000e+02 -5.000000000000e+02 0.000000000000e+00
          1.500000000000e+02 -5.000000000000e+02 0.000000000000e+00
          1.650000000000e+02 -5.000000000000e+02 0.000000000000e+00
          1.800000000000e+02 -5.000000000000e+02 0.000000000000e+00
          1.950000000000e+02 -5.000000000000e+02 0.000000000000e+00
          2.100000000000e+02 -5.000000000000e+02 0.000000000000e+00
          2.250000000000e+02 -5.000000000000e+02 0.000000000000e+00
          2.400000000000e+02 -5.000000000000e+02 0.000000000000e+00
          2.550000000000e+02 -5.000000000000e+02 0.000000000000e+00
          2.700000000000e+02 -5.000000000000e+02 0.000000000000e+00
          2.850000000000e+02 -5.000000000000e+02 0.000000000000e+00
          1.549008570200e+02 -6.002407636700e+02 0.000000000000e+00
          1.597545161000e+02 -6.009607359800e+02 0.000000000000e+00
          1.645142338600e+02 -6.021529832100e+02 0.000000000000e+00
          1.691341716200e+02 -6.038060233700e+02 0.000000000000e+00
          1.735698368400e+02 -6.059039367800e+02 0.000000000000e+00
          1.777785116500e+02 -6.084265193800e+02 0.000000000000e+00
          1.817196642100e+02 -6.113494773300e+02 0.000000000000e+00
          1.853553390600e+02 -6.146446609400e+02 0.000000000000e+00
          1.886505226700e+02 -6.182803357900e+02 0.000000000000e+00
          1.915734806200e+02 -6.222214883500e+02 0.000000000000e+00
          1.940960632200e+02 -6.264301631600e+02 0.000000000000e+00
          1.961939766300e+02 -6.308658283800e+02 0.000000000000e+00
          1.978470167900e+02 -6.354857661400e+02 0.000000000000e+00
          1.990392640200e+02 -6.402454839000e+02 0.000000000000e+00
          1.997592363300e+02 -6.450991429800e+02 0.000000000000e+00
          1.997592363300e+02 -6.549008570200e+02 0.000000000000e+00
          1.990392640200e+02 -6.597545161000e+02 0.000000000000e+00
          1.978470167900e+02 -6.645142338600e+02 0.000000000000e+00
          1.961939766300e+02 -6.691341716200e+02 0.000000000000e+00
          1.940960632200e+02 -6.735698368400e+02 0.000000000000e+00
          1.915734806200e+02 -6.777785116500e+02 0.000000000000e+00
          1.886505226700e+02 -6.817196642100e+02 0.000000000000e+00
          1.853553390600e+02 -6.853553390600e+02 0.000000000000e+00
          1.817196642100e+02 -6.886505226700e+02 0.000000000000e+00
          1.777785116500e+02 -6.915734806200e+02 0.000000000000e+00
          1.735698368400e+02 -6.940960632200e+02 0.000000000000e+00
          1.691341716200e+02 -6.961939766300e+02 0.000000000000e+00
          1.645142338600e+02 -6.978470167900e+02 0.000000000000e+00
          1.597545161000e+02 -6.990392640200e+02 0.000000000000e+00
          1.549008570200e+02 -6.997592363300e+02 0.000000000000e+00
          1.450991429800e+02 -6.997592363300e+02 0.000000000000e+00
          1.402454839000e+02 -6.990392640200e+02 0.000000000000e+00
          1.354857661400e+02 -6.978470167900e+02 0.000000000000e+00
[...]
      <PointData Scalars="TEMPERATURE1">
        <DataArray type="Float64" Name="TEMPERATURE1" format="ascii">
          3.000000000000e+02 3.000000000000e+02 3.000000000000e+02 3.000000000000e+02 3.000000000000e+02 3.000000000000e+02 3.000000000000e+02 3.000000000000e+02 3.000000000000e+02 3.000000000000e+02 3.000000000000e+02 3.000000000000e+02 3.000000000000e+02 3.000000000000e+02 3.000000000000e+02 3.000000000000e+02 3.000000000000e+02 3.000000000000e+02 3.000000000000e+02 3.000000000000e+02 3.000000000000e+02 3.000000000000e+02 3.000000000000e+02 3.000000000000e+02 3.000000000000e+02 3.000000000000e+02 3.000000000000e+02 3.000000000000e+02 3.000000000000e+02 3.000000000000e+02 3.000000000000e+02 3.000000000000e+02 3.000000000000e+02 3.000000000000e+02 3.000000000000e+02 3.000000000000e+02 3.000000000000e+02 3.000000000000e+02 3.000000000000e+02 3.000000000000e+02 3.000000000000e+02 3.000000000000e+02 3.000000000000e+02 3.000000000000e+02 3.000000000000e+02 3.000000000000e+02 3.000000000000e+02 3.000000000000e+02 3.000000000000e+02 3.000000000000e+02 3.000000000000e+02 3.000000000000e+02 3.000000000000e+02 3.000000000000e+02 3.000000000000e+02 3.000000000000e+02 3.000000000000e+02 3.000000000000e+02 3.000000000000e+02 3.000000000000e+02 3.000000000000e+02 3.000000000000e+02 3.000000000000e+02 3.000000000000e+02 3.000000000000e+02 3.000000000000e+02 3.000000000000e+02 3.000000000000e+02 3.000000000000e+02 3.000000000000e+02 3.000000000000e+02 3.000000000000e+02 3.000000000000e+02 3.000000000000e+02 3.000000000000e+02 3.000000000000e+02 3.000000000000e+02 3.000000000000e+02 3.000000000000e+02 3.000000000000e+02 3.000000000000e+02 3.000000000000e+02 3.000000000000e+02 3.000000000000e+02 3.000000000000e+02 3.000000000000e+02 3.000000000000e+02 3.000000000000e+02 3.000000000000e+02 3.000000000000e+02 3.000000000000e+02 3.000000000000e+02 3.000000000000e+02 3.000000000000e+02 3.000000000000e+02 3.000000000000e+02 3.000000000000e+02 3.000000000000e+02 3.000000000000e+02 3.000000000000e+02 3.000000000000e+02 3.000000000000e+02 3.000000000000e+02 3.000000000000e+02 3.000000000000e+02 3.000000000000e+02 3.000000000000e+02 3.000000000000e+02 3.000000000000e+02 3.000000000000e+02 3.000000000000e+02 3.000000000000e+02 3.000000000000e+02 3.000000000000e+02 3.000000000000e+02 3.000000000000e+02 3.000000000000e+02 3.000000000000e+02 3.000000000000e+02 3.000000000000e+02 3.000000000000e+02 3.000000000000e+02 3.000000000000e+02 3.000000000000e+02 3.000000000000e+02 3.000000000000e+02 3.000000000000e+02 3.000000000000e+02 3.000000000000e+02 3.000000000000e+02 3.000000000000e+02 3.000000000000e+02 3.000000000000e+02 3.000000000000e+02 3.000000000000e+02 3.000000000000e+02 3.000000000000e+02 3.000000000000e+02 3.000000000000e+02 3.000000000000e+02 3.000000000000e+02 3.000000000000e+02 3.000000000000e+02 3.000000000000e+02 3.000000000000e+02 3.000000000000e+02 3.000000000000e+02 3.000000000000e+02 3.000000000000e+02 3.000000000000e+02 3.000000000000e+02 3.000000000000e+02 3.000000000000e+02 3.000000000000e+02 3.000000000000e+02 3.000000000000e+02 3.000000000000e+02 3.000000000000e+02 3.000000000000e+02 3.000000000000e+02 3.000000000000e+02 3.000000000000e+02 3.000000000000e+02 3.000000000000e+02 3.000000000000e+02 3.000000000000e+02 3.000000000000e+02 3.000000000000e+02 3.000000000000e+02 3.000000000000e+02 3.000000000000e+02 3.000000000000e+02 3.000000000000e+02 3.000000000000e+02 3.000000000000e+02 3.000000000000e+02 3.000000000000e+02 3.000000000000e+02 3.000000000000e+02 3.000000000000e+02 3.000000000000e+02 3.000000000000e+02 3.000000000000e+02 3.000000000000e+02 3.000000000000e+02 3.000000000000e+02 3.000000000000e+02 3.000000000000e+02 3.000000000000e+02 3.000000000000e+02 3.000000000000e+02 3.000000000000e+02 3.000000000000e+02 3.000000000000e+02 3.000000000000e+02 3.000000000000e+02 3.000000000000e+02 3.000000000000e+02 3.000000000000e+02 3.000000000000e+02 3.000000000000e+02 3.000000000000e+02 3.000000000000e+02 3.000000000000e+02 3.000000000000e+02 3.000000000000e+02 3.000000000000e+02 3.000000000000e+02 3.000000000000e+02 3.000000000000e+02 3.000000000000e+02 3.000000000000e+02 3.000000000000e+02 3.000000000000e+02 3.000000000000e+02 3.000000000000e+02 3.000000000000e+02 3.000000000000e+02 3.000000000000e+02 3.000000000000e+02 3.000000000000e+02 3.000000000000e+02 3.000000000000e+02 3.000000000000e+02 3.000000000000e+02 3.000000000000e+02 3.000000000000e+02 3.000000000000e+02 3.000000000000e+02 3.000000000000e+02 3.000000000000e+02 3.000000000000e+02 3.000000000000e+02 3.000000000000e+02 3.000000000000e+02 3.000000000000e+02 3.000000000000e+02 3.000000000000e+02 3.000000000000e+02 3.000000000000e+02 3.000000000000e+02 3.000000000000e+02 3.000000000000e+02 3.000000000000e+02 3.000000000000e+02 3.000000000000e+02 3.000000000000e+02 3.000000000000e+02 3.000000000000e+02 3.000000000000e+02 3.000000000000e+02 3.000000000000e+02 3.000000000000e+02 3.000000000000e+02 3.000000000000e+02 3.000000000000e+02 3.000000000000e+02 3.000000000000e+02 3.000000000000e+02 3.000000000000e+02 3.000000000000e+02 3.000000000000e+02 3.000000000000e+02 3.000000000000e+02 3.000000000000e+02 3.000000000000e+02 3.000000000000e+02 3.000000000000e+02 3.000000000000e+02 3.000000000000e+02 3.000000000000e+02 3.000000000000e+02 3.000000000000e+02 3.000000000000e+02 3.000000000000e+02 3.000000000000e+02 3.000000000000e+02 3.000000000000e+02 3.000000000000e+02 3.000000000000e+02 3.000000000000e+02 3.000000000000e+02 3.000000000000e+02 3.000000000000e+02 3.000000000000e+02 3.000000000000e+02 3.000000000000e+02 3.000000000000e+02 3.000000000000e+02 3.000000000000e+02 3.000000000000e+02 3.000000000000e+02 3.000000000000e+02 3.000000000000e+02 3.000000000000e+02 3.000000000000e+02 3.000000000000e+02 3.000000000000e+02 3.000000000000e+02 3.000000000000e+02 3.000000000000e+02 3.000000000000e+02 3.000000000000e+02 3.000000000000e+02 3.000000000000e+02 3.000000000000e+02 3.000000000000e+02 3.000000000000e+02 3.000000000000e+02 3.000000000000e+02 3.000000000000e+02 3.000000000000e+02 3.000000000000e+02 3.000000000000e+02 3.000000000000e+02 3.000000000000e+02 3.000000000000e+02 3.000000000000e+02 3.000000000000e+02 3.000000000000e+02 3.000000000000e+02 3.000000000000e+02 3.000000000000e+02 3.000000000000e+02 3.000000000000e+02 3.000000000000e+02 3.000000000000e+02 3.000000000000e+02 3.000000000000e+02 3.000000000000e+02 3.000000000000e+02 3.000000000000e+02 3.000000000000e+02 3.000000000000e+02 3.000000000000e+02 3.000000000000e+02 3.000000000000e+02 3.000000000000e+02 3.000000000000e+02 3.000000000000e+02 3.000000000000e+02 3.000000000000e+02 3.000000000000e+02 3.000000000000e+02 3.000000000000e+02 3.000000000000e+02 3.000000000000e+02 3.000000000000e+02 3.000000000000e+02 3.000000000000e+02 3.000000000000e+02 3.000000000000e+02 3.000000000000e+02 3.000000000000e+02 3.000000000000e+02 3.000000000000e+02 3.000000000000e+02 3.000000000000e+02 3.000000000000e+02 3.000000000000e+02 3.000000000000e+02 3.000000000000e+02 3.000000000000e+02 3.000000000000e+02 3.000000000000e+02 3.000000000000e+02 3.000000000000e+02 3.000000000000e+02 3.000000000000e+02 3.000000000000e+02 3.000000000000e+02 3.000000000000e+02 3.000000000000e+02 3.000000000000e+02 3.000000000000e+02 3.000000000000e+02 3.000000000000e+02 3.000000000000e+02 3.000000000000e+02 3.000000000000e+02 3.000000000000e+02 3.000000000000e+02 3.000000000000e+02 3.000000000000e+02 3.000000000000e+02 3.000000000000e+02 3.000000000000e+02 3.000000000000e+02 3.000000000000e+02 3.000000000000e+02 3.000000000000e+02 3.000000000000e+02 3.000000000000e+02 3.000000000000e+02 3.000000000000e+02 3.000000000000e+02 3.000000000000e+02 3.000000000000e+02 3.000000000000e+02 3.000000000000e+02 3.000000000000e+02 3.000000000000e+02 3.000000000000e+02 3.000000000000e+02 3.000000000000e+02 3.000000000000e+02 3.000000000000e+02 3.000000000000e+02 3.000000000000e+02 3.000000000000e+02 3.000000000000e+02 3.000000000000e+02 3.000000000000e+02 3.000000000000e+02 3.000000000000e+02 3.000000000000e+02 3.000000000000e+02 3.000000000000e+02 3.000000000000e+02 3.000000000000e+02 3.000000000000e+02 3.000000000000e+02 3.000000000000e+02 3.000000000000e+02 3.000000000000e+02 3.000000000000e+02 3.000000000000e+02 3.000000000000e+02 3.000000000000e+02 3.000000000000e+02 3.000000000000e+02 3.000000000000e+02 3.000000000000e+02 3.000000000000e+02 3.000000000000e+02 3.000000000000e+02 3.000000000000e+02 3.000000000000e+02 3.000000000000e+02 3.000000000000e+02 3.000000000000e+02 3.000000000000e+02 3.000000000000e+02 3.000000000000e+02 3.000000000000e+02 3.000000000000e+02 3.000000000000e+02 3.000000000000e+02 3.000000000000e+02 3.000000000000e+02 3.000000000000e+02 3.000000000000e+02 3.000000000000e+02 3.000000000000e+02 3.000000000000e+02 3.000000000000e+02 3.000000000000e+02 3.000000000000e+02 3.000000000000e+02 3.000000000000e+02 3.000000000000e+02 3.000000000000e+02 3.000000000000e+02 3.000000000000e+02 3.000000000000e+02 3.000000000000e+02 3.000000000000e+02 3.000000000000e+02 3.000000000000e+02 3.000000000000e+02 3.000000000000e+02 3.000000000000e+02 3.000000000000e+02 3.000000000000e+02 3.000000000000e+02 3.000000000000e+02 3.000000000000e+02 3.000000000000e+02 3.000000000000e+02 3.000000000000e+02 3.000000000000e+02 3.000000000000e+02 3.000000000000e+02 3.000000000000e+02 3.000000000000e+02 3.000000000000e+02 3.000000000000e+02 3.000000000000e+02 3.000000000000e+02 3.000000000000e+02 3.000000000000e+02 3.000000000000e+02 3.000000000000e+02 3.000000000000e+02 3.000000000000e+02 3.000000000000e+02 3.000000000000e+02 3.000000000000e+02 3.000000000000e+02 3.000000000000e+02 3.000000000000e+02 3.000000000000e+02 3.000000000000e+02 3.000000000000e+02 3.000000000000e+02 3.000000000000e+02 3.000000000000e+02 3.000000000000e+02 3.000000000000e+02 3.000000000000e+02 3.000000000000e+02 3.000000000000e+02 3.000000000000e+02 3.000000000000e+02 3.000000000000e+02 3.000000000000e+02 3.000000000000e+02 3.000000000000e+02 3.000000000000e+02 3.000000000000e+02 3.000000000000e+02 3.000000000000e+02 3.000000000000e+02 3.000000000000e+02 3.000000000000e+02 3.000000000000e+02 3.000000000000e+02 3.000000000000e+02 3.000000000000e+02 3.000000000000e+02 3.000000000000e+02 3.000000000000e+02 3.000000000000e+02 3.000000000000e+02 3.000000000000e+02 3.000000000000e+02 3.000000000000e+02 3.000000000000e+02 3.000000000000e+02 3.000000000000e+02 3.000000000000e+02 3.000000000000e+02 3.000000000000e+02 3.000000000000e+02 3.000000000000e+02 3.000000000000e+02 3.000000000000e+02 3.000000000000e+02 3.000000000000e+02 3.000000000000e+02 3.000000000000e+02 3.000000000000e+02 3.000000000000e+02 3.000000000000e+02 3.000000000000e+02 3.000000000000e+02 3.000000000000e+02 3.000000000000e+02 3.000000000000e+02 3.000000000000e+02 3.000000000000e+02 3.000000000000e+02 3.000000000000e+02 3.000000000000e+02 3.000000000000e+02 3.000000000000e+02 3.000000000000e+02 3.000000000000e+02 3.000000000000e+02 3.000000000000e+02 3.000000000000e+02 3.000000000000e+02 3.000000000000e+02 3.000000000000e+02 3.000000000000e+02 3.000000000000e+02 3.000000000000e+02 3.000000000000e+02 3.000000000000e+02 3.000000000000e+02 3.000000000000e+02 3.000000000000e+02 3.000000000000e+02 3.000000000000e+02 3.000000000000e+02 3.000000000000e+02 3.000000000000e+02 3.000000000000e+02 3.000000000000e+02 3.000000000000e+02 3.000000000000e+02 3.000000000000e+02 3.000000000000e+02 3.000000000000e+02 3.000000000000e+02 3.000000000000e+02 3.000000000000e+02 3.000000000000e+02 3.000000000000e+02 3.000000000000e+02 3.000000000000e+02 3.000000000000e+02 3.000000000000e+02 3.000000000000e+02 3.000000000000e+02 3.000000000000e+02 3.000000000000e+02 3.000000000000e+02 3.000000000000e+02 3.000000000000e+02 3.000000000000e+02 3.000000000000e+02 3.000000000000e+02 3.000000000000e+02 3.000000000000e+02 3.000000000000e+02 3.000000000000e+02 3.000000000000e+02 3.000000000000e+02 3.000000000000e+02 3.000000000000e+02 3.000000000000e+02 3.000000000000e+02 3.000000000000e+02 3.000000000000e+02 3.000000000000e+02 3.000000000000e+02 3.000000000000e+02 3.000000000000e+02 3.000000000000e+02 3.000000000000e+02 3.000000000000e+02 3.000000000000e+02 3.000000000000e+02 3.000000000000e+02 3.000000000000e+02 3.000000000000e+02 3.000000000000e+02 3.000000000000e+02 3.000000000000e+02 3.000000000000e+02 3.000000000000e+02 3.000000000000e+02 3.000000000000e+02 3.000000000000e+02 3.000000000000e+02 3.000000000000e+02 3.000000000000e+02 3.000000000000e+02 3.000000000000e+02 3.000000000000e+02 3.000000000000e+02 3.000000000000e+02 3.000000000000e+02 3.000000000000e+02 3.000000000000e+02 3.000000000000e+02 3.000000000000e+02 3.000000000000e+02 3.000000000000e+02 3.000000000000e+02 3.000000000000e+02 3.000000000000e+02 3.000000000000e+02 3.000000000000e+02 3.000000000000e+02 3.000000000000e+02 3.000000000000e+02 3.000000000000e+02 3.000000000000e+02 3.000000000000e+02 3.000000000000e+02 3.000000000000e+02 3.000000000000e+02 3.000000000000e+02 3.000000000000e+02 3.000000000000e+02 3.000000000000e+02 3.000000000000e+02 3.000000000000e+02 3.000000000000e+02 3.000000000000e+02 3.000000000000e+02 3.000000000000e+02 3.000000000000e+02 3.000000000000e+02 3.000000000000e+02 3.000000000000e+02 3.000000000000e+02 3.000000000000e+02 3.000000000000e+02 3.000000000000e+02 3.000000000000e+02 3.000000000000e+02 3.000000000000e+02 3.000000000000e+02 3.000000000000e+02 3.000000000000e+02 3.000000000000e+02 3.000000000000e+02 3.000000000000e+02 3.000000000000e+02 3.000000000000e+02 3.000000000000e+02 3.000000000000e+02 3.000000000000e+02 3.000000000000e+02 3.000000000000e+02 3.000000000000e+02 3.000000000000e+02 3.000000000000e+02 3.000000000000e+02 3.000000000000e+02 3.000000000000e+02 3.000000000000e+02 3.000000000000e+02 3.000000000000e+02 3.000000000000e+02 3.000000000000e+02 3.000000000000e+02 3.000000000000e+02 3.000000000000e+02 3.000000000000e+02 3.000000000000e+02 3.000000000000e+02 3.000000000000e+02 3.000000000000e+02 3.000000000000e+02 3.000000000000e+02 3.000000000000e+02 3.000000000000e+02 3.000000000000e+02 3.000000000000e+02 3.000000000000e+02 3.000000000000e+02 3.000000000000e+02 3.000000000000e+02 3.000000000000e+02 3.000000000000e+02 3.000000000000e+02 3.000000000000e+02 3.000000000000e+02 3.000000000000e+02 3.000000000000e+02 3.000000000000e+02 3.000000000000e+02 3.000000000000e+02 3.000000000000e+02 3.000000000000e+02 3.000000000000e+02 3.000000000000e+02 3.000000000000e+02 3.000000000000e+02 3.000000000000e+02 3.000000000000e+02 3.000000000000e+02 3.000000000000e+02 3.000000000000e+02 3.000000000000e+02 3.000000000000e+02 3.000000000000e+02 3.000000000000e+02 3.000000000000e+02 3.000000000000e+02 3.000000000000e+02 3.000000000000e+02 3.000000000000e+02 3.000000000000e+02 3.000000000000e+02 3.000000000000e+02 3.000000000000e+02 3.000000000000e+02 3.000000000000e+02 3.000000000000e+02 3.000000000000e+02 3.000000000000e+02 3.000000000000e+02 3.000000000000e+02 3.000000000000e+02 3.000000000000e+02 3.000000000000e+02 3.000000000000e+02 3.000000000000e+02 3.000000000000e+02 3.000000000000e+02 3.000000000000e+02 3.000000000000e+02 3.000000000000e+02 3.000000000000e+02 3.000000000000e+02 3.000000000000e+02 3.000000000000e+02 3.000000000000e+02 3.000000000000e+02 3.000000000000e+02 3.000000000000e+02 3.000000000000e+02 3.000000000000e+02 3.000000000000e+02 3.000000000000e+02 3.000000000000e+02 3.000000000000e+02 3.000000000000e+02 3.000000000000e+02 3.000000000000e+02 3.000000000000e+02 3.000000000000e+02 3.000000000000e+02 3.000000000000e+02 3.000000000000e+02 3.000000000000e+02 3.000000000000e+02 3.000000000000e+02 3.000000000000e+02 3.000000000000e+02 3.000000000000e+02 3.000000000000e+02 3.000000000000e+02 3.000000000000e+02 3.000000000000e+02 3.000000000000e+02 3.000000000000e+02 3.000000000000e+02 3.000000000000e+02 3.000000000000e+02 3.000000000000e+02 3.000000000000e+02 3.000000000000e+02 3.000000000000e+02 3.000000000000e+02 3.000000000000e+02 3.000000000000e+02 3.000000000000e+02 3.000000000000e+02 3.000000000000e+02 3.000000000000e+02 3.000000000000e+02 3.000000000000e+02 3.000000000000e+02 3.000000000000e+02 3.000000000000e+02 3.000000000000e+02 3.000000000000e+02 3.000000000000e+02 3.000000000000e+02 3.000000000000e+02 3.000000000000e+02 3.000000000000e+02 3.000000000000e+02 3.000000000000e+02 3.000000000000e+02 3.000000000000e+02 3.000000000000e+02 3.000000000000e+02 3.000000000000e+02 3.000000000000e+02 3.000000000000e+02 3.000000000000e+02 3.000000000000e+02 3.000000000000e+02 3.000000000000e+02 3.000000000000e+02 3.000000000000e+02 3.000000000000e+02 3.000000000000e+02 3.000000000000e+02 3.000000000000e+02 3.000000000000e+02 3.000000000000e+02 3.000000000000e+02 3.000000000000e+02 3.000000000000e+02 3.000000000000e+02 3.000000000000e+02 3.000000000000e+02 3.000000000000e+02 3.000000000000e+02 3.000000000000e+02 3.000000000000e+02 3.000000000000e+02 3.000000000000e+02 3.000000000000e+02 3.000000000000e+02 3.000000000000e+02 3.000000000000e+02 3.000000000000e+02 3.000000000000e+02 3.000000000000e+02 3.000000000000e+02 3.000000000000e+02 3.000000000000e+02 3.000000000000e+02 3.000000000000e+02 3.000000000000e+02 3.000000000000e+02 3.000000000000e+02 3.000000000000e+02 3.000000000000e+02 3.000000000000e+02 3.000000000000e+02 3.000000000000e+02 3.000000000000e+02 3.000000000000e+02 3.000000000000e+02 3.000000000000e+02 3.000000000000e+02 3.000000000000e+02 3.000000000000e+02 3.000000000000e+02 3.000000000000e+02 3.000000000000e+02 3.000000000000e+02 3.000000000000e+02 3.000000000000e+02 3.000000000000e+02 3.000000000000e+02 3.000000000000e+02 3.000000000000e+02 3.000000000000e+02 3.000000000000e+02 3.000000000000e+02 3.000000000000e+02 3.000000000000e+02 3.000000000000e+02 3.000000000000e+02 3.000000000000e+02 3.000000000000e+02 3.000000000000e+02 3.000000000000e+02 3.000000000000e+02 3.000000000000e+02 3.000000000000e+02 3.000000000000e+02 3.000000000000e+02 3.000000000000e+02 3.000000000000e+02 3.000000000000e+02 3.000000000000e+02 3.000000000000e+02 3.000000000000e+02 3.000000000000e+02 3.000000000000e+02 3.000000000000e+02 3.000000000000e+02 3.000000000000e+02 3.000000000000e+02 3.000000000000e+02 3.000000000000e+02 3.000000000000e+02 3.000000000000e+02 3.000000000000e+02 3.000000000000e+02 3.000000000000e+02 3.000000000000e+02 3.000000000000e+02 3.000000000000e+02 3.000000000000e+02 3.000000000000e+02 3.000000000000e+02 3.000000000000e+02 3.000000000000e+02 3.000000000000e+02 3.000000000000e+02 3.000000000000e+02 3.000000000000e+02 3.000000000000e+02 3.000000000000e+02 3.000000000000e+02 3.000000000000e+02 3.000000000000e+02 3.000000000000e+02 3.000000000000e+02 3.000000000000e+02 3.000000000000e+02 3.000000000000e+02 3.000000000000e+02 3.000000000000e+02 3.000000000000e+02 3.000000000000e+02 3.000000000000e+02 3.000000000000e+02 3.000000000000e+02 3.000000000000e+02 3.000000000000e+02 3.000000000000e+02 3.000000000000e+02 3.000000000000e+02 3.000000000000e+02 3.000000000000e+02 3.000000000000e+02 3.000000000000e+02 3.000000000000e+02 3.000000000000e+02 3.000000000000e+02 3.000000000000e+02 3.000000000000e+02 3.000000000000e+02 3.000000000000e+02 3.000000000000e+02 3.000000000000e+02 3.000000000000e+02 3.000000000000e+02 3.000000000000e+02 3.000000000000e+02 3.000000000000e+02 3.000000000000e+02 3.000000000000e+02 3.000000000000e+02 3.000000000000e+02 3.000000000000e+02 3.000000000000e+02 3.000000000000e+02 3.000000000000e+02 3.000000000000e+02 3.000000000000e+02 3.000000000000e+02 3.000000000000e+02 3.000000000000e+02 3.000000000000e+02 3.000000000000e+02 3.000000000000e+02 3.000000000000e+02 3.000000000000e+02 3.000000000000e+02 3.000000000000e+02 3.000000000000e+02 3.000000000000e+02 3.000000000000e+02 3.000000000000e+02 3.000000000000e+02 3.000000000000e+02 3.000000000000e+02 3.000000000000e+02 3.000000000000e+02 3.000000000000e+02 3.000000000000e+02 3.000000000000e+02 3.000000000000e+02 3.000000000000e+02 3.000000000000e+02 3.000000000000e+02 3.000000000000e+02 3.000000000000e+02 3.000000000000e+02 3.000000000000e+02 3.000000000000e+02 3.000