 TITLE = "Time curves in points"
 VARIABLES = "TIME"  "Tracer" 
 ZONE T="POINT=POINT8"
0.000000000000e+00 0.000000000000e+00 
2.160000000000e+04 0.000000000000e+00 
4.320000000000e+04 8.735068882305e-25 
6.480000000000e+04 4.614905071180e-23 
8.640000000000e+04 9.404151103510e-22 
1.080000000000e+05 1.180250407853e-20 
1.296000000000e+05 1.086323526326e-19 
1.512000000000e+05 7.985349048837e-19 
1.728000000000e+05 4.939561068192e-18 
1.944000000000e+05 2.658850066519e-17 
2.160000000000e+05 1.272120526879e-16 
2.376000000000e+05 5.502089267514e-16 
2.592000000000e+05 2.176879321532e-15 
2.808000000000e+05 7.952632147164e-15 
3.024000000000e+05 2.703255192827e-14 
3.240000000000e+05 8.604964594053e-14 
3.456000000000e+05 2.579188343667e-13 
3.672000000000e+05 7.313719905276e-13 
3.888000000000e+05 1.970290571765e-12 
4.104000000000e+05 5.061294581849e-12 
4.320000000000e+05 1.243833504607e-11 
4.536000000000e+05 2.933028958313e-11 
4.752000000000e+05 6.654044150274e-11 
4.968000000000e+05 1.455873397978e-10 
5.184000000000e+05 3.078864386777e-10 
5.400000000000e+05 6.306165653151e-10 
5.616000000000e+05 1.253299589571e-09 
5.832000000000e+05 2.421040711509e-09 
6.048000000000e+05 4.552948666534e-09 
6.264000000000e+05 8.347600764291e-09 
6.480000000000e+05 1.494161399044e-08 
6.696000000000e+05 2.614251525247e-08 
6.912000000000e+05 4.476314766539e-08 
7.128000000000e+05 7.509175946463e-08 
7.344000000000e+05 1.235395616008e-07 
7.560000000000e+05 1.995156555655e-07 
7.776000000000e+05 3.165875238485e-07 
7.992000000000e+05 4.939933245797e-07 
8.208000000000e+05 7.585795674240e-07 
8.424000000000e+05 1.147243835176e-06 
8.640000000000e+05 1.709966514365e-06 
8.856000000000e+05 2.513517455672e-06 
9.072000000000e+05 3.645922607741e-06 
9.288000000000e+05 5.221771531786e-06 
9.504000000000e+05 7.388438993687e-06 
9.720000000000e+05 1.033328236186e-05 
9.936000000000e+05 1.429186129875e-05 
1.015200000000e+06 1.955720733576e-05 
1.036800000000e+06 2.649014870255e-05 
1.058400000000e+06 3.553067068526e-05 
1.080000000000e+06 4.721026443664e-05 
1.101600000000e+06 6.216518828536e-05 
1.123200000000e+06 8.115053601940e-05 
1.144800000000e+06 1.050549772306e-04 
1.166400000000e+06 1.349160065125e-04 
1.188000000000e+06 1.719355119963e-04 
1.209600000000e+06 2.174954502342e-04 
1.231200000000e+06 2.731733945582e-04 
1.252800000000e+06 3.407577084177e-04 
1.274400000000e+06 4.222620843546e-04 
1.296000000000e+06 5.199391835989e-04 
1.317600000000e+06 6.362931109861e-04 
1.339200000000e+06 7.740904650878e-04 
1.360800000000e+06 9.363697140252e-04 
1.382400000000e+06 1.126448663176e-03 
1.404000000000e+06 1.347929801527e-03 
1.425600000000e+06 1.604703338314e-03 
1.447200000000e+06 1.900947770189e-03 
1.468800000000e+06 2.241127850949e-03 
1.490400000000e+06 2.629989869967e-03 
1.512000000000e+06 3.072554181337e-03 
1.533600000000e+06 3.574104962498e-03 
1.555200000000e+06 4.140177218106e-03 
1.576800000000e+06 4.776541081380e-03 
1.598400000000e+06 5.489183500526e-03 
1.620000000000e+06 6.284287431359e-03 
1.641600000000e+06 7.168208688569e-03 
1.663200000000e+06 8.147450636562e-03 
1.684800000000e+06 9.228636926210e-03 
1.706400000000e+06 1.041848250576e-02 
1.728000000000e+06 1.172376315249e-02 
1.749600000000e+06 1.315128378605e-02 
1.771200000000e+06 1.470784583537e-02 
1.792800000000e+06 1.640021393741e-02 
1.814400000000e+06 1.823508224946e-02 
1.836000000000e+06 2.021904065599e-02 
1.857600000000e+06 2.235854114692e-02 
1.879200000000e+06 2.465986463735e-02 
1.900800000000e+06 2.712908848837e-02 
1.922400000000e+06 2.977205497610e-02 
1.944000000000e+06 3.259434094091e-02 
1.965600000000e+06 3.560122883197e-02 
1.987200000000e+06 3.879767934357e-02 
2.008800000000e+06 4.218830581966e-02 
2.030400000000e+06 4.577735058229e-02 
2.052000000000e+06 4.956866331809e-02 
2.073600000000e+06 5.356568163481e-02 
2.095200000000e+06 5.777141387822e-02 
2.116800000000e+06 6.218842427777e-02 
2.138400000000e+06 6.681882046790e-02 
2.160000000000e+06 7.166424341153e-02 
2.181600000000e+06 7.672585973193e-02 
2.203200000000e+06 8.200435644072e-02 
2.224800000000e+06 8.749993803154e-02 
2.246400000000e+06 9.321232589282e-02 
2.268000000000e+06 9.914075997761e-02 
2.289600000000e+06 1.052840026547e-01 
2.311200000000e+06 1.116403446532e-01 
2.332800000000e+06 1.182076130007e-01 
2.354400000000e+06 1.249831808481e-01 
2.376000000000e+06 1.319639790631e-01 
2.397600000000e+06 1.391465094700e-01 
2.419200000000e+06 1.465268596080e-01 
2.440800000000e+06 1.541007188750e-01 
2.462400000000e+06 1.618633959230e-01 
2.484000000000e+06 1.698098371685e-01 
2.505600000000e+06 1.779346462820e-01 
2.527200000000e+06 1.862321045204e-01 
2.548800000000e+06 1.946961917685e-01 
2.570400000000e+06 2.033206081589e-01 
2.592000000000e+06 2.120987961412e-01 
2.613600000000e+06 2.210239628771e-01 
2.635200000000e+06 2.300891028420e-01 
2.656800000000e+06 2.392870205190e-01 
2.678400000000e+06 2.486103530764e-01 
2.700000000000e+06 2.580515929262e-01 
2.721600000000e+06 2.676031100676e-01 
2.743200000000e+06 2.772571741249e-01 
2.764800000000e+06 2.870059759971e-01 
2.786400000000e+06 2.968416490428e-01 
2.808000000000e+06 3.067562897297e-01 
2.829600000000e+06 3.167419776864e-01 
2.851200000000e+06 3.267907951002e-01 
2.872800000000e+06 3.368948454105e-01 
2.894400000000e+06 3.470462712542e-01 
2.916000000000e+06 3.572372716268e-01 
2.937600000000e+06 3.674601182273e-01 
2.959200000000e+06 3.777071709609e-01 
2.980800000000e+06 3.879708925817e-01 
3.002400000000e+06 3.982438624576e-01 
3.024000000000e+06 4.085187894513e-01 
3.045600000000e+06 4.187885239091e-01 
3.067200000000e+06 4.290460687598e-01 
3.088800000000e+06 4.392845897249e-01 
3.110400000000e+06 4.494974246489e-01 
3.132000000000e+06 4.596780919598e-01 
3.153600000000e+06 4.698202982741e-01 
3.175200000000e+06 4.799179451625e-01 
3.196800000000e+06 4.899651350964e-01 
3.218400000000e+06 4.999561765969e-01 
3.240000000000e+06 5.098855886091e-01 
3.261600000000e+06 5.197481041282e-01 
3.283200000000e+06 5.295386731045e-01 
3.304800000000e+06 5.392524646547e-01 
3.326400000000e+06 5.488848686095e-01 
3.348000000000e+06 5.584314964278e-01 
3.369600000000e+06 5.678881815081e-01 
3.391200000000e+06 5.772509789282e-01 
3.412800000000e+06 5.865161646450e-01 
3.434400000000e+06 5.956802341864e-01 
3.456000000000e+06 6.047399008655e-01 
3.477600000000e+06 6.136920935508e-01 
3.499200000000e+06 6.225339540207e-01 
3.520800000000e+06 6.312628339360e-01 
3.542400000000e+06 6.398762914574e-01 
3.564000000000e+06 6.483720875400e-01 
3.585600000000e+06 6.567481819326e-01 
3.607200000000e+06 6.650027289092e-01 
3.628800000000e+06 6.731340727614e-01 
3.650400000000e+06 6.811407430760e-01 
3.672000000000e+06 6.890214498253e-01 
3.693600000000e+06 6.967750782928e-01 
3.715200000000e+06 7.044006838580e-01 
3.736800000000e+06 7.118974866638e-01 
3.758400000000e+06 7.192648661857e-01 
3.780000000000e+06 7.265023557251e-01 
3.801600000000e+06 7.336096368445e-01 
3.823200000000e+06 7.405865337637e-01 
3.844800000000e+06 7.474330077333e-01 
3.866400000000e+06 7.541491514018e-01 
3.888000000000e+06 7.607351831919e-01 
3.909600000000e+06 7.671914416995e-01 
3.931200000000e+06 7.735183801281e-01 
3.952800000000e+06 7.797165607716e-01 
3.974400000000e+06 7.857866495566e-01 
3.996000000000e+06 7.917294106528e-01 
4.017600000000e+06 7.975457011636e-01 
4.039200000000e+06 8.032364659033e-01 
4.060800000000e+06 8.088027322693e-01 
4.082400000000e+06 8.142456052165e-01 
4.104000000000e+06 8.195662623395e-01 
4.125600000000e+06 8.247659490688e-01 
4.147200000000e+06 8.298459739852e-01 
4.168800000000e+06 8.348077042566e-01 
4.190400000000e+06 8.396525612009e-01 
4.212000000000e+06 8.443820159777e-01 
4.233600000000e+06 8.489975854119e-01 
4.255200000000e+06 8.535008279491e-01 
4.276800000000e+06 8.578933397472e-01 
4.298400000000e+06 8.621767509023e-01 
4.320000000000e+06 8.663527218103e-01 
4.341600000000e+06 8.704229396656e-01 
4.363200000000e+06 8.743891150944e-01 
4.384800000000e+06 8.782529789234e-01 
4.406400000000e+06 8.820162790827e-01 
4.428000000000e+06 8.856807776411e-01 
4.449600000000e+06 8.892482479737e-01 
4.471200000000e+06 8.927204720577e-01 
4.492800000000e+06 8.960992378972e-01 
4.514400000000e+06 8.993863370723e-01 
4.536000000000e+06 9.025835624123e-01 
4.557600000000e+06 9.056927057891e-01 
4.579200000000e+06 9.087155560282e-01 
4.600800000000e+06 9.116538969360e-01 
4.622400000000e+06 9.145095054386e-01 
4.644000000000e+06 9.172841498305e-01 
4.665600000000e+06 9.199795881295e-01 
4.687200000000e+06 9.225975665356e-01 
4.708800000000e+06 9.251398179894e-01 
4.730400000000e+06 9.276080608282e-01 
4.752000000000e+06 9.300039975357e-01 
4.773600000000e+06 9.323293135827e-01 
4.795200000000e+06 9.345856763556e-01 
4.816800000000e+06 9.367747341686e-01 
4.838400000000e+06 9.388981153580e-01 
4.860000000000e+06 9.409574274540e-01 
4.881600000000e+06 9.429542564275e-01 
4.903200000000e+06 9.448901660097e-01 
4.924800000000e+06 9.467666970789e-01 
4.946400000000e+06 9.485853671149e-01 
4.968000000000e+06 9.503476697155e-01 
4.989600000000e+06 9.520550741727e-01 
5.011200000000e+06 9.537090251072e-01 
5.032800000000e+06 9.553109421562e-01 
5.054400000000e+06 9.568622197138e-01 
5.076000000000e+06 9.583642267201e-01 
5.097600000000e+06 9.598183064970e-01 
5.119200000000e+06 9.612257766279e-01 
5.140800000000e+06 9.625879288794e-01 
5.162400000000e+06 9.639060291617e-01 
5.184000000000e+06 9.651813175262e-01 
5.205600000000e+06 9.664150081984e-01 
5.227200000000e+06 9.676082896425e-01 
5.248800000000e+06 9.687623246575e-01 
5.270400000000e+06 9.698782505011e-01 
5.292000000000e+06 9.709571790406e-01 
5.313600000000e+06 9.720001969288e-01 
5.335200000000e+06 9.730083658029e-01 
5.356800000000e+06 9.739827225040e-01 
5.378400000000e+06 9.749242793177e-01 
5.400000000000e+06 9.758340242313e-01 
5.421600000000e+06 9.767129212089e-01 
5.443200000000e+06 9.775619104809e-01 
5.464800000000e+06 9.783819088476e-01 
5.486400000000e+06 9.791738099955e-01 
5.508000000000e+06 9.799384848246e-01 
5.529600000000e+06 9.806767817856e-01 
5.551200000000e+06 9.813895272271e-01 
5.572800000000e+06 9.820775257491e-01 
5.594400000000e+06 9.827415605648e-01 
5.616000000000e+06 9.833823938675e-01 
5.637600000000e+06 9.840007672027e-01 
5.659200000000e+06 9.845974018445e-01 
5.680800000000e+06 9.851729991754e-01 
5.702400000000e+06 9.857282410679e-01 
5.724000000000e+06 9.862637902692e-01 
5.745600000000e+06 9.867802907860e-01 
5.767200000000e+06 9.872783682702e-01 
5.788800000000e+06 9.877586304047e-01 
5.810400000000e+06 9.882216672886e-01 
5.832000000000e+06 9.886680518208e-01 
5.853600000000e+06 9.890983400824e-01 
5.875200000000e+06 9.895130717170e-01 
5.896800000000e+06 9.899127703084e-01 
5.918400000000e+06 9.902979437554e-01 
5.940000000000e+06 9.906690846437e-01 
5.961600000000e+06 9.910266706134e-01 
5.983200000000e+06 9.913711647240e-01 
6.004800000000e+06 9.917030158139e-01 
6.026400000000e+06 9.920226588566e-01 
6.048000000000e+06 9.923305153114e-01 
6.069600000000e+06 9.926269934700e-01 
6.091200000000e+06 9.929124887979e-01 
6.112800000000e+06 9.931873842704e-01 
6.134400000000e+06 9.934520507036e-01 
6.156000000000e+06 9.937068470798e-01 
6.177600000000e+06 9.939521208676e-01 
6.199200000000e+06 9.941882083363e-01 
6.220800000000e+06 9.944154348641e-01 
6.242400000000e+06 9.946341152415e-01 
6.264000000000e+06 9.948445539679e-01 
6.285600000000e+06 9.950470455433e-01 
6.307200000000e+06 9.952418747532e-01 
6.328800000000e+06 9.954293169482e-01 
6.350400000000e+06 9.956096383174e-01 
6.372000000000e+06 9.957830961564e-01 
6.393600000000e+06 9.959499391286e-01 
6.415200000000e+06 9.961104075213e-01 
6.436800000000e+06 9.962647334959e-01 
6.458400000000e+06 9.964131413319e-01 
6.480000000000e+06 9.965558476655e-01 
6.501600000000e+06 9.966930617223e-01 
6.523200000000e+06 9.968249855447e-01 
6.544800000000e+06 9.969518142132e-01 
6.566400000000e+06 9.970737360624e-01 
6.588000000000e+06 9.971909328917e-01 
6.609600000000e+06 9.973035801704e-01 
6.631200000000e+06 9.974118472374e-01 
6.652800000000e+06 9.975158974959e-01 
6.674400000000e+06 9.976158886026e-01 
6.696000000000e+06 9.977119726525e-01 
6.717600000000e+06 9.978042963579e-01 
6.739200000000e+06 9.978930012226e-01 
6.760800000000e+06 9.979782237120e-01 
6.782400000000e+06 9.980600954178e-01 
6.804000000000e+06 9.981387432181e-01 
6.825600000000e+06 9.982142894329e-01 
6.847200000000e+06 9.982868519760e-01 
6.868800000000e+06 9.983565445009e-01 
6.890400000000e+06 9.984234765443e-01 
6.912000000000e+06 9.984877536635e-01 
6.933600000000e+06 9.985494775716e-01 
6.955200000000e+06 9.986087462671e-01 
6.976800000000e+06 9.986656541607e-01 
6.998400000000e+06 9.987202921975e-01 
7.020000000000e+06 9.987727479760e-01 
7.041600000000e+06 9.988231058631e-01 
7.063200000000e+06 9.988714471061e-01 
7.084800000000e+06 9.989178499403e-01 
7.106400000000e+06 9.989623896943e-01 
7.128000000000e+06 9.990051388911e-01 
7.149600000000e+06 9.990461673465e-01 
7.171200000000e+06 9.990855422642e-01 
7.192800000000e+06 9.991233283282e-01 
7.214400000000e+06 9.991595877915e-01 
7.236000000000e+06 9.991943805627e-01 
7.257600000000e+06 9.992277642893e-01 
7.279200000000e+06 9.992597944386e-01 
7.300800000000e+06 9.992905243755e-01 
7.322400000000e+06 9.993200054384e-01 
7.344000000000e+06 9.993482870121e-01 
7.365600000000e+06 9.993754165982e-01 
7.387200000000e+06 9.994014398836e-01 
7.408800000000e+06 9.994264008062e-01 
7.430400000000e+06 9.994503416189e-01 
7.452000000000e+06 9.994733029509e-01 
7.473600000000e+06 9.994953238676e-01 
7.495200000000e+06 9.995164419273e-01 
7.516800000000e+06 9.995366932376e-01 
7.538400000000e+06 9.995561125081e-01 
7.560000000000e+06 9.995747331029e-01 
7.581600000000e+06 9.995925870898e-01 
7.603200000000e+06 9.996097052892e-01 
7.624800000000e+06 9.996261173199e-01 
7.646400000000e+06 9.996418516448e-01 
7.668000000000e+06 9.996569356133e-01 
7.689600000000e+06 9.996713955038e-01 
7.711200000000e+06 9.996852565636e-01 
7.732800000000e+06 9.996985430481e-01 
7.754400000000e+06 9.997112782579e-01 
7.776000000000e+06 9.997234845751e-01 
7.797600000000e+06 9.997351834983e-01 
7.819200000000e+06 9.997463956762e-01 
7.840800000000e+06 9.997571409395e-01 
7.862400000000e+06 9.997674383327e-01 
7.884000000000e+06 9.997773061441e-01 
7.905600000000e+06 9.997867619345e-01 
7.927200000000e+06 9.997958225651e-01 
7.948800000000e+06 9.998045042250e-01 
7.970400000000e+06 9.998128224564e-01 
7.992000000000e+06 9.998207921800e-01 
8.013600000000e+06 9.998284277190e-01 
8.035200000000e+06 9.998357428220e-01 
8.056800000000e+06 9.998427506859e-01 
8.078400000000e+06 9.998494639764e-01 
8.100000000000e+06 9.998558948499e-01 
8.121600000000e+06 9.998620549722e-01 
8.143200000000e+06 9.998679555386e-01 
8.164800000000e+06 9.998736072917e-01 
8.186400000000e+06 9.998790205396e-01 
8.208000000000e+06 9.998842051728e-01 
8.229600000000e+06 9.998891706803e-01 
8.251200000000e+06 9.998939261662e-01 
8.272800000000e+06 9.998984803641e-01 
8.294400000000e+06 9.999028416522e-01 
8.316000000000e+06 9.999070180672e-01 
8.337600000000e+06 9.999110173181e-01 
8.359200000000e+06 9.999148467988e-01 
8.380800000000e+06 9.999185136008e-01 
8.402400000000e+06 9.999220245256e-01 
8.424000000000e+06 9.999253860957e-01 
8.445600000000e+06 9.999286045660e-01 
8.467200000000e+06 9.999316859347e-01 
8.488800000000e+06 9.999346359533e-01 
8.510400000000e+06 9.999374601365e-01 
8.532000000000e+06 9.999401637720e-01 
8.553600000000e+06 9.999427519291e-01 
8.575200000000e+06 9.999452294682e-01 
8.596800000000e+06 9.999476010486e-01 
8.618400000000e+06 9.999498711370e-01 
8.640000000000e+06 9.999520440151e-01 
8.661600000000e+06 9.999541237870e-01 
8.683200000000e+06 9.999561143867e-01 
8.704800000000e+06 9.999580195850e-01 
8.726400000000e+06 9.999598429955e-01 
8.748000000000e+06 9.999615880820e-01 
8.769600000000e+06 9.999632581636e-01 
8.791200000000e+06 9.999648564213e-01 
8.812800000000e+06 9.999663859034e-01 
8.834400000000e+06 9.999678495309e-01 
8.856000000000e+06 9.999692501027e-01 
8.877600000000e+06 9.999705903006e-01 
8.899200000000e+06 9.999718726942e-01 
8.920800000000e+06 9.999730997454e-01 
8.942400000000e+06 9.999742738127e-01 
8.964000000000e+06 9.999753971560e-01 
8.985600000000e+06 9.999764719399e-01 
9.007200000000e+06 9.999775002382e-01 
9.028800000000e+06 9.999784840374e-01 
9.050400000000e+06 9.999794252403e-01 
9.072000000000e+06 9.999803256695e-01 
9.093600000000e+06 9.999811870708e-01 
9.115200000000e+06 9.999820111164e-01 
9.136800000000e+06 9.999827994076e-01 
9.158400000000e+06 9.999835534783e-01 
9.180000000000e+06 9.999842747972e-01 
9.201600000000e+06 9.999849647712e-01 
9.223200000000e+06 9.999856247472e-01 
9.244800000000e+06 9.999862560153e-01 
9.266400000000e+06 9.999868598107e-01 
9.288000000000e+06 9.999874373161e-01 
9.309600000000e+06 9.999879896641e-01 
9.331200000000e+06 9.999885179390e-01 
9.352800000000e+06 9.999890231790e-01 
9.374400000000e+06 9.999895063783e-01 
9.396000000000e+06 9.999899684883e-01 
9.417600000000e+06 9.999904104202e-01 
9.439200000000e+06 9.999908330463e-01 
9.460800000000e+06 9.999912372013e-01 
9.482400000000e+06 9.999916236847e-01 
9.504000000000e+06 9.999919932615e-01 
9.525600000000e+06 9.999923466641e-01 
9.547200000000e+06 9.999926845936e-01 
9.568800000000e+06 9.999930077208e-01 
9.590400000000e+06 9.999933166881e-01 
9.612000000000e+06 9.999936121100e-01 
9.633600000000e+06 9.999938945750e-01 
9.655200000000e+06 9.999941646461e-01 
9.676800000000e+06 9.999944228620e-01 
9.698400000000e+06 9.999946697385e-01 
9.720000000000e+06 9.999949057691e-01 
9.741600000000e+06 9.999951314259e-01 
9.763200000000e+06 9.999953471608e-01 
9.784800000000e+06 9.999955534064e-01 
9.806400000000e+06 9.999957505764e-01 
9.828000000000e+06 9.999959390666e-01 
9.849600000000e+06 9.999961192560e-01 
9.871200000000e+06 9.999962915069e-01 
9.892800000000e+06 9.999964561662e-01 
9.914400000000e+06 9.999966135657e-01 
9.936000000000e+06 9.999967640228e-01 
9.957600000000e+06 9.999969078412e-01 
9.979200000000e+06 9.999970453114e-01 
1.000080000000e+07 9.999971767114e-01 
1.002240000000e+07 9.999973023071e-01 
1.004400000000e+07 9.999974223528e-01 
1.006560000000e+07 9.999975370919e-01 
1.008720000000e+07 9.999976467572e-01 
1.010880000000e+07 9.999977515712e-01 
1.013040000000e+07 9.999978517468e-01 
1.015200000000e+07 9.999979474879e-01 
1.017360000000e+07 9.999980389893e-01 
1.019520000000e+07 9.999981264372e-01 
1.021680000000e+07 9.999982100099e-01 
1.023840000000e+07 9.999982898779e-01 
1.026000000000e+07 9.999983662042e-01 
1.028160000000e+07 9.999984391447e-01 
1.030320000000e+07 9.999985088486e-01 
1.032480000000e+07 9.999985754584e-01 
1.034640000000e+07 9.999986391105e-01 
1.036800000000e+07 9.999986999353e-01 
1.038960000000e+07 9.999987580575e-01 
1.041120000000e+07 9.999988135964e-01 
1.043280000000e+07 9.999988666660e-01 
1.045440000000e+07 9.999989173754e-01 
1.047600000000e+07 9.999989658287e-01 
1.049760000000e+07 9.999990121258e-01 
1.051920000000e+07 9.999990563619e-01 
1.054080000000e+07 9.999990986282e-01 
1.056240000000e+07 9.999991390118e-01 
1.058400000000e+07 9.999991775961e-01 
1.060560000000e+07 9.999992144606e-01 
1.062720000000e+07 9.999992496817e-01 
1.064880000000e+07 9.999992833319e-01 
1.067040000000e+07 9.999993154811e-01 
1.069200000000e+07 9.999993461957e-01 
1.071360000000e+07 9.999993755393e-01 
1.073520000000e+07 9.999994035728e-01 
1.075680000000e+07 9.999994303543e-01 
1.077840000000e+07 9.999994559394e-01 
1.080000000000e+07 9.999994803811e-01 
