 TITLE = "Profiles along polylines"
 VARIABLES = "DIST" "PRESSURE1" "SATURATION1" "SATURATION2" 
 ZONE T="TIME=0.000000000000e+00"
0.000000000000e+00 9.806700000000e+04 1.000000000000e+00 0.000000000000e+00 
3.333333330000e-01 9.806700000000e+04 1.000000000000e+00 0.000000000000e+00 
6.666666670000e-01 9.806700000000e+04 1.000000000000e+00 0.000000000000e+00 
1.000000000000e+00 9.806700000000e+04 1.000000000000e+00 0.000000000000e+00 
1.333333333000e+00 9.806700000000e+04 1.000000000000e+00 0.000000000000e+00 
1.666666667000e+00 9.806700000000e+04 1.000000000000e+00 0.000000000000e+00 
2.000000000000e+00 9.806700000000e+04 1.000000000000e+00 0.000000000000e+00 
2.333333333000e+00 9.806700000000e+04 1.000000000000e+00 0.000000000000e+00 
2.666666667000e+00 9.806700000000e+04 1.000000000000e+00 0.000000000000e+00 
3.000000000000e+00 9.806700000000e+04 1.000000000000e+00 0.000000000000e+00 
3.333333333000e+00 9.806700000000e+04 1.000000000000e+00 0.000000000000e+00 
3.666666667000e+00 9.806700000000e+04 1.000000000000e+00 0.000000000000e+00 
4.000000000000e+00 9.806700000000e+04 1.000000000000e+00 0.000000000000e+00 
4.333333333000e+00 9.806700000000e+04 1.000000000000e+00 0.000000000000e+00 
4.666666667000e+00 9.806700000000e+04 1.000000000000e+00 0.000000000000e+00 
5.000000000000e+00 9.806700000000e+04 8.999977480000e-01 1.000022520000e-01 
5.333333333000e+00 9.806700000000e+04 8.999977480000e-01 1.000022520000e-01 
5.666666667000e+00 9.806700000000e+04 8.999977480000e-01 1.000022520000e-01 
6.000000000000e+00 9.806700000000e+04 8.999977480000e-01 1.000022520000e-01 
6.333333333000e+00 9.806700000000e+04 8.999977480000e-01 1.000022520000e-01 
6.666666667000e+00 9.806700000000e+04 8.999977480000e-01 1.000022520000e-01 
7.000000000000e+00 9.806700000000e+04 8.999977480000e-01 1.000022520000e-01 
7.333333333000e+00 9.806700000000e+04 8.999977480000e-01 1.000022520000e-01 
7.666666667000e+00 9.806700000000e+04 8.999977480000e-01 1.000022520000e-01 
8.000000000000e+00 9.806700000000e+04 8.999977480000e-01 1.000022520000e-01 
8.333333333000e+00 9.806700000000e+04 8.999977480000e-01 1.000022520000e-01 
8.666666667000e+00 9.806700000000e+04 8.999977480000e-01 1.000022520000e-01 
9.000000000000e+00 9.806700000000e+04 8.999977480000e-01 1.000022520000e-01 
9.333333333000e+00 9.806700000000e+04 8.999977480000e-01 1.000022520000e-01 
9.666666667000e+00 9.806700000000e+04 8.999977480000e-01 1.000022520000e-01 
1.000000000000e+01 9.806700000000e+04 8.999977480000e-01 1.000022520000e-01 
1.033333333000e+01 9.806700000000e+04 1.000000000000e+00 0.000000000000e+00 
1.066666667000e+01 9.806700000000e+04 1.000000000000e+00 0.000000000000e+00 
1.100000000000e+01 9.806700000000e+04 1.000000000000e+00 0.000000000000e+00 
1.133333333000e+01 9.806700000000e+04 1.000000000000e+00 0.000000000000e+00 
1.166666667000e+01 9.806700000000e+04 1.000000000000e+00 0.000000000000e+00 
1.200000000000e+01 9.806700000000e+04 1.000000000000e+00 0.000000000000e+00 
1.233333333000e+01 9.806700000000e+04 1.000000000000e+00 0.000000000000e+00 
1.266666667000e+01 9.806700000000e+04 1.000000000000e+00 0.000000000000e+00 
1.300000000000e+01 9.806700000000e+04 1.000000000000e+00 0.000000000000e+00 
1.333333333000e+01 9.806700000000e+04 1.000000000000e+00 0.000000000000e+00 
1.366666667000e+01 9.806700000000e+04 1.000000000000e+00 0.000000000000e+00 
1.400000000000e+01 9.806700000000e+04 1.000000000000e+00 0.000000000000e+00 
1.433333333000e+01 9.806700000000e+04 1.000000000000e+00 0.000000000000e+00 
1.466666667000e+01 9.806700000000e+04 1.000000000000e+00 0.000000000000e+00 
1.500000000000e+01 9.806700000000e+04 1.000000000000e+00 0.000000000000e+00 
1.533333333000e+01 9.806700000000e+04 1.000000000000e+00 0.000000000000e+00 
1.566666667000e+01 9.806700000000e+04 1.000000000000e+00 0.000000000000e+00 
1.600000000000e+01 9.806700000000e+04 1.000000000000e+00 0.000000000000e+00 
1.633333333000e+01 9.806700000000e+04 1.000000000000e+00 0.000000000000e+00 
1.666666667000e+01 9.806700000000e+04 1.000000000000e+00 0.000000000000e+00 
1.700000000000e+01 9.806700000000e+04 1.000000000000e+00 0.000000000000e+00 
1.733333333000e+01 9.806700000000e+04 1.000000000000e+00 0.000000000000e+00 
1.766666667000e+01 9.806700000000e+04 1.000000000000e+00 0.000000000000e+00 
1.800000000000e+01 9.806700000000e+04 1.000000000000e+00 0.000000000000e+00 
1.833333333000e+01 9.806700000000e+04 1.000000000000e+00 0.000000000000e+00 
1.866666667000e+01 9.806700000000e+04 1.000000000000e+00 0.000000000000e+00 
1.900000000000e+01 9.806700000000e+04 1.000000000000e+00 0.000000000000e+00 
1.933333333000e+01 9.806700000000e+04 1.000000000000e+00 0.000000000000e+00 
1.966666667000e+01 9.806700000000e+04 1.000000000000e+00 0.000000000000e+00 
2.000000000000e+01 9.806700000000e+04 1.000000000000e+00 0.000000000000e+00 
2.033333333000e+01 9.806700000000e+04 1.000000000000e+00 0.000000000000e+00 
2.066666667000e+01 9.806700000000e+04 1.000000000000e+00 0.000000000000e+00 
2.100000000000e+01 9.806700000000e+04 1.000000000000e+00 0.000000000000e+00 
2.133333333000e+01 9.806700000000e+04 1.000000000000e+00 0.000000000000e+00 
2.166666667000e+01 9.806700000000e+04 1.000000000000e+00 0.000000000000e+00 
2.200000000000e+01 9.806700000000e+04 1.000000000000e+00 0.000000000000e+00 
2.233333333000e+01 9.806700000000e+04 1.000000000000e+00 0.000000000000e+00 
2.266666667000e+01 9.806700000000e+04 1.000000000000e+00 0.000000000000e+00 
2.300000000000e+01 9.806700000000e+04 1.000000000000e+00 0.000000000000e+00 
2.333333333000e+01 9.806700000000e+04 1.000000000000e+00 0.000000000000e+00 
2.366666667000e+01 9.806700000000e+04 1.000000000000e+00 0.000000000000e+00 
2.400000000000e+01 9.806700000000e+04 1.000000000000e+00 0.000000000000e+00 
2.433333333000e+01 9.806700000000e+04 1.000000000000e+00 0.000000000000e+00 
2.466666667000e+01 9.806700000000e+04 1.000000000000e+00 0.000000000000e+00 
2.500000000000e+01 9.806700000000e+04 1.000000000000e+00 0.000000000000e+00 
2.533333333000e+01 9.806700000000e+04 1.000000000000e+00 0.000000000000e+00 
2.566666667000e+01 9.806700000000e+04 1.000000000000e+00 0.000000000000e+00 
2.600000000000e+01 9.806700000000e+04 1.000000000000e+00 0.000000000000e+00 
2.633333333000e+01 9.806700000000e+04 1.000000000000e+00 0.000000000000e+00 
2.666666667000e+01 9.806700000000e+04 1.000000000000e+00 0.000000000000e+00 
2.700000000000e+01 9.806700000000e+04 1.000000000000e+00 0.000000000000e+00 
2.733333333000e+01 9.806700000000e+04 1.000000000000e+00 0.000000000000e+00 
2.766666667000e+01 9.806700000000e+04 1.000000000000e+00 0.000000000000e+00 
2.800000000000e+01 9.806700000000e+04 1.000000000000e+00 0.000000000000e+00 
2.833333333000e+01 9.806700000000e+04 1.000000000000e+00 0.000000000000e+00 
2.866666667000e+01 9.806700000000e+04 1.000000000000e+00 0.000000000000e+00 
2.900000000000e+01 9.806700000000e+04 1.000000000000e+00 0.000000000000e+00 
2.933333333000e+01 9.806700000000e+04 1.000000000000e+00 0.000000000000e+00 
2.966666667000e+01 9.806700000000e+04 1.000000000000e+00 0.000000000000e+00 
3.000000000000e+01 9.806700000000e+04 1.000000000000e+00 0.000000000000e+00 
3.033333333000e+01 9.806700000000e+04 1.000000000000e+00 0.000000000000e+00 
3.066666667000e+01 9.806700000000e+04 1.000000000000e+00 0.000000000000e+00 
3.100000000000e+01 9.806700000000e+04 1.000000000000e+00 0.000000000000e+00 
3.133333333000e+01 9.806700000000e+04 1.000000000000e+00 0.000000000000e+00 
3.166666667000e+01 9.806700000000e+04 1.000000000000e+00 0.000000000000e+00 
3.200000000000e+01 9.806700000000e+04 1.000000000000e+00 0.000000000000e+00 
3.233333333000e+01 9.806700000000e+04 1.000000000000e+00 0.000000000000e+00 
3.266666667000e+01 9.806700000000e+04 1.000000000000e+00 0.000000000000e+00 
3.300000000000e+01 9.806700000000e+04 1.000000000000e+00 0.000000000000e+00 
3.333333333000e+01 9.806700000000e+04 1.000000000000e+00 0.000000000000e+00 
3.366666667000e+01 9.806700000000e+04 1.000000000000e+00 0.000000000000e+00 
3.400000000000e+01 9.806700000000e+04 1.000000000000e+00 0.000000000000e+00 
3.433333333000e+01 9.806700000000e+04 1.000000000000e+00 0.000000000000e+00 
3.466666667000e+01 9.806700000000e+04 1.000000000000e+00 0.000000000000e+00 
3.500000000000e+01 9.806700000000e+04 1.000000000000e+00 0.000000000000e+00 
3.533333333000e+01 9.806700000000e+04 1.000000000000e+00 0.000000000000e+00 
3.566666667000e+01 9.806700000000e+04 1.000000000000e+00 0.000000000000e+00 
3.600000000000e+01 9.806700000000e+04 1.000000000000e+00 0.000000000000e+00 
3.633333333000e+01 9.806700000000e+04 1.000000000000e+00 0.000000000000e+00 
3.666666667000e+01 9.806700000000e+04 1.000000000000e+00 0.000000000000e+00 
3.700000000000e+01 9.806700000000e+04 1.000000000000e+00 0.000000000000e+00 
3.733333333000e+01 9.806700000000e+04 1.000000000000e+00 0.000000000000e+00 
3.766666667000e+01 9.806700000000e+04 1.000000000000e+00 0.000000000000e+00 
3.800000000000e+01 9.806700000000e+04 1.000000000000e+00 0.000000000000e+00 
3.833333333000e+01 9.806700000000e+04 1.000000000000e+00 0.000000000000e+00 
3.866666667000e+01 9.806700000000e+04 1.000000000000e+00 0.000000000000e+00 
3.900000000000e+01 9.806700000000e+04 1.000000000000e+00 0.000000000000e+00 
3.933333333000e+01 9.806700000000e+04 1.000000000000e+00 0.000000000000e+00 
3.966666667000e+01 9.806700000000e+04 1.000000000000e+00 0.000000000000e+00 
4.000000000000e+01 9.806700000000e+04 1.000000000000e+00 0.000000000000e+00 
4.033333333000e+01 9.806700000000e+04 1.000000000000e+00 0.000000000000e+00 
4.066666667000e+01 9.806700000000e+04 1.000000000000e+00 0.000000000000e+00 
4.100000000000e+01 9.806700000000e+04 1.000000000000e+00 0.000000000000e+00 
4.133333333000e+01 9.806700000000e+04 1.000000000000e+00 0.000000000000e+00 
4.166666667000e+01 9.806700000000e+04 1.000000000000e+00 0.000000000000e+00 
4.200000000000e+01 9.806700000000e+04 1.000000000000e+00 0.000000000000e+00 
4.233333333000e+01 9.806700000000e+04 1.000000000000e+00 0.000000000000e+00 
4.266666667000e+01 9.806700000000e+04 1.000000000000e+00 0.000000000000e+00 
4.300000000000e+01 9.806700000000e+04 1.000000000000e+00 0.000000000000e+00 
4.333333333000e+01 9.806700000000e+04 1.000000000000e+00 0.000000000000e+00 
4.366666667000e+01 9.806700000000e+04 1.000000000000e+00 0.000000000000e+00 
4.400000000000e+01 9.806700000000e+04 1.000000000000e+00 0.000000000000e+00 
4.433333333000e+01 9.806700000000e+04 1.000000000000e+00 0.000000000000e+00 
4.466666667000e+01 9.806700000000e+04 1.000000000000e+00 0.000000000000e+00 
4.500000000000e+01 9.806700000000e+04 1.000000000000e+00 0.000000000000e+00 
4.533333333000e+01 9.806700000000e+04 1.000000000000e+00 0.000000000000e+00 
4.566666667000e+01 9.806700000000e+04 1.000000000000e+00 0.000000000000e+00 
4.600000000000e+01 9.806700000000e+04 1.000000000000e+00 0.000000000000e+00 
4.633333333000e+01 9.806700000000e+04 1.000000000000e+00 0.000000000000e+00 
4.666666667000e+01 9.806700000000e+04 1.000000000000e+00 0.000000000000e+00 
4.700000000000e+01 9.806700000000e+04 1.000000000000e+00 0.000000000000e+00 
4.733333333000e+01 9.806700000000e+04 1.000000000000e+00 0.000000000000e+00 
4.766666667000e+01 9.806700000000e+04 1.000000000000e+00 0.000000000000e+00 
4.800000000000e+01 9.806700000000e+04 1.000000000000e+00 0.000000000000e+00 
4.833333333000e+01 9.806700000000e+04 1.000000000000e+00 0.000000000000e+00 
4.866666667000e+01 9.806700000000e+04 1.000000000000e+00 0.000000000000e+00 
4.900000000000e+01 9.806700000000e+04 1.000000000000e+00 0.000000000000e+00 
4.933333333000e+01 9.806700000000e+04 1.000000000000e+00 0.000000000000e+00 
4.966666667000e+01 9.806700000000e+04 1.000000000000e+00 0.000000000000e+00 
5.000000000000e+01 9.806700000000e+04 1.000000000000e+00 0.000000000000e+00 
 TITLE = "Profiles along polylines"
 VARIABLES = "DIST" "PRESSURE1" "SATURATION1" "SATURATION2" 
 ZONE T="TIME=2.160000000000e+04"
0.000000000000e+00 9.810000000000e+04 1.000000000000e+00 0.000000000000e+00 
3.333333330000e-01 9.806924540982e+04 1.000000000000e+00 0.000000000000e+00 
6.666666670000e-01 9.803849081954e+04 1.000000000000e+00 0.000000000000e+00 
1.000000000000e+00 9.800773622935e+04 1.000000000000e+00 0.000000000000e+00 
1.333333333000e+00 9.797698163917e+04 1.000000000000e+00 0.000000000000e+00 
1.666666667000e+00 9.794622704889e+04 1.000000000000e+00 0.000000000000e+00 
2.000000000000e+00 9.791547245871e+04 1.000000000000e+00 0.000000000000e+00 
2.333333333000e+00 9.788471786853e+04 1.000000000000e+00 0.000000000000e+00 
2.666666667000e+00 9.785396327825e+04 1.000000000000e+00 0.000000000000e+00 
3.000000000000e+00 9.782320868807e+04 1.000000000000e+00 0.000000000000e+00 
3.333333333000e+00 9.779245409789e+04 1.000000000000e+00 0.000000000000e+00 
3.666666667000e+00 9.776169950761e+04 1.000000000000e+00 0.000000000000e+00 
4.000000000000e+00 9.773094491743e+04 1.000000000000e+00 0.000000000000e+00 
4.333333333000e+00 9.770019032724e+04 1.000000000000e+00 0.000000000000e+00 
4.666666667000e+00 9.766943573697e+04 1.000000000000e+00 0.000000000000e+00 
5.000000000000e+00 9.763109329560e+04 8.999977480000e-01 1.000022520000e-01 
5.333333333000e+00 9.758189632719e+04 8.999977480000e-01 1.000022520000e-01 
5.666666667000e+00 9.753269935864e+04 8.999977480000e-01 1.000022520000e-01 
6.000000000000e+00 9.748350239024e+04 8.999977480000e-01 1.000022520000e-01 
6.333333333000e+00 9.743430542183e+04 8.999977480000e-01 1.000022520000e-01 
6.666666667000e+00 9.738510845327e+04 8.999977480000e-01 1.000022520000e-01 
7.000000000000e+00 9.733591148485e+04 8.999977480000e-01 1.000022520000e-01 
7.333333333000e+00 9.728671451643e+04 8.999977480000e-01 1.000022520000e-01 
7.666666667000e+00 9.723751754786e+04 8.999977480000e-01 1.000022520000e-01 
8.000000000000e+00 9.718832057942e+04 8.999977480000e-01 1.000022520000e-01 
8.333333333000e+00 9.713912361098e+04 8.999977480000e-01 1.000022520000e-01 
8.666666667000e+00 9.708992664239e+04 8.999977480000e-01 1.000022520000e-01 
9.000000000000e+00 9.704072967393e+04 8.999977480000e-01 1.000022520000e-01 
9.333333333000e+00 9.699153270546e+04 8.999977480000e-01 1.000022520000e-01 
9.666666667000e+00 9.694233573684e+04 8.999977480000e-01 1.000022520000e-01 
1.000000000000e+01 9.689313876835e+04 8.999977480000e-01 1.000022520000e-01 
1.033333333000e+01 9.685479632724e+04 1.000000000000e+00 0.000000000000e+00 
1.066666667000e+01 9.682404173634e+04 1.000000000000e+00 0.000000000000e+00 
1.100000000000e+01 9.679328714634e+04 1.000000000000e+00 0.000000000000e+00 
1.133333333000e+01 9.676253255633e+04 1.000000000000e+00 0.000000000000e+00 
1.166666667000e+01 9.673177796538e+04 1.000000000000e+00 0.000000000000e+00 
1.200000000000e+01 9.670102337534e+04 1.000000000000e+00 0.000000000000e+00 
1.233333333000e+01 9.667026878528e+04 1.000000000000e+00 0.000000000000e+00 
1.266666667000e+01 9.663951419429e+04 1.000000000000e+00 0.000000000000e+00 
1.300000000000e+01 9.660875960420e+04 1.000000000000e+00 0.000000000000e+00 
1.333333333000e+01 9.657800501409e+04 1.000000000000e+00 0.000000000000e+00 
1.366666667000e+01 9.654725042305e+04 1.000000000000e+00 0.000000000000e+00 
1.400000000000e+01 9.651649583291e+04 1.000000000000e+00 0.000000000000e+00 
1.433333333000e+01 9.648574124275e+04 1.000000000000e+00 0.000000000000e+00 
1.466666667000e+01 9.645498665165e+04 1.000000000000e+00 0.000000000000e+00 
1.500000000000e+01 9.642423206145e+04 1.000000000000e+00 0.000000000000e+00 
1.533333333000e+01 9.639347747124e+04 1.000000000000e+00 0.000000000000e+00 
1.566666667000e+01 9.636272288008e+04 1.000000000000e+00 0.000000000000e+00 
1.600000000000e+01 9.633196828983e+04 1.000000000000e+00 0.000000000000e+00 
1.633333333000e+01 9.630121369955e+04 1.000000000000e+00 0.000000000000e+00 
1.666666667000e+01 9.627045910834e+04 1.000000000000e+00 0.000000000000e+00 
1.700000000000e+01 9.623970451803e+04 1.000000000000e+00 0.000000000000e+00 
1.733333333000e+01 9.620894992769e+04 1.000000000000e+00 0.000000000000e+00 
1.766666667000e+01 9.617819533642e+04 1.000000000000e+00 0.000000000000e+00 
1.800000000000e+01 9.614744074605e+04 1.000000000000e+00 0.000000000000e+00 
1.833333333000e+01 9.611668615566e+04 1.000000000000e+00 0.000000000000e+00 
1.866666667000e+01 9.608593156432e+04 1.000000000000e+00 0.000000000000e+00 
1.900000000000e+01 9.605517697389e+04 1.000000000000e+00 0.000000000000e+00 
1.933333333000e+01 9.602442238345e+04 1.000000000000e+00 0.000000000000e+00 
1.966666667000e+01 9.599366779205e+04 1.000000000000e+00 0.000000000000e+00 
2.000000000000e+01 9.596291320157e+04 1.000000000000e+00 0.000000000000e+00 
2.033333333000e+01 9.593215861106e+04 1.000000000000e+00 0.000000000000e+00 
2.066666667000e+01 9.590140401962e+04 1.000000000000e+00 0.000000000000e+00 
2.100000000000e+01 9.587064942908e+04 1.000000000000e+00 0.000000000000e+00 
2.133333333000e+01 9.583989483852e+04 1.000000000000e+00 0.000000000000e+00 
2.166666667000e+01 9.580914024703e+04 1.000000000000e+00 0.000000000000e+00 
2.200000000000e+01 9.577838565644e+04 1.000000000000e+00 0.000000000000e+00 
2.233333333000e+01 9.574763106583e+04 1.000000000000e+00 0.000000000000e+00 
2.266666667000e+01 9.571687647429e+04 1.000000000000e+00 0.000000000000e+00 
2.300000000000e+01 9.568612188365e+04 1.000000000000e+00 0.000000000000e+00 
2.333333333000e+01 9.565536729300e+04 1.000000000000e+00 0.000000000000e+00 
2.366666667000e+01 9.562461270141e+04 1.000000000000e+00 0.000000000000e+00 
2.400000000000e+01 9.559385811073e+04 1.000000000000e+00 0.000000000000e+00 
2.433333333000e+01 9.556310352004e+04 1.000000000000e+00 0.000000000000e+00 
2.466666667000e+01 9.553234892841e+04 1.000000000000e+00 0.000000000000e+00 
2.500000000000e+01 9.550159433770e+04 1.000000000000e+00 0.000000000000e+00 
2.533333333000e+01 9.547083974697e+04 1.000000000000e+00 0.000000000000e+00 
2.566666667000e+01 9.544008515531e+04 1.000000000000e+00 0.000000000000e+00 
2.600000000000e+01 9.540933056456e+04 1.000000000000e+00 0.000000000000e+00 
2.633333333000e+01 9.537857597380e+04 1.000000000000e+00 0.000000000000e+00 
2.666666667000e+01 9.534782138211e+04 1.000000000000e+00 0.000000000000e+00 
2.700000000000e+01 9.531706679134e+04 1.000000000000e+00 0.000000000000e+00 
2.733333333000e+01 9.528631220055e+04 1.000000000000e+00 0.000000000000e+00 
2.766666667000e+01 9.525555760884e+04 1.000000000000e+00 0.000000000000e+00 
2.800000000000e+01 9.522480301804e+04 1.000000000000e+00 0.000000000000e+00 
2.833333333000e+01 9.519404842723e+04 1.000000000000e+00 0.000000000000e+00 
2.866666667000e+01 9.516329383549e+04 1.000000000000e+00 0.000000000000e+00 
2.900000000000e+01 9.513253924467e+04 1.000000000000e+00 0.000000000000e+00 
2.933333333000e+01 9.510178465385e+04 1.000000000000e+00 0.000000000000e+00 
2.966666667000e+01 9.507103006210e+04 1.000000000000e+00 0.000000000000e+00 
3.000000000000e+01 9.504027547126e+04 1.000000000000e+00 0.000000000000e+00 
3.033333333000e+01 9.500952088042e+04 1.000000000000e+00 0.000000000000e+00 
3.066666667000e+01 9.497876628865e+04 1.000000000000e+00 0.000000000000e+00 
3.100000000000e+01 9.494801169780e+04 1.000000000000e+00 0.000000000000e+00 
3.133333333000e+01 9.491725710695e+04 1.000000000000e+00 0.000000000000e+00 
3.166666667000e+01 9.488650251517e+04 1.000000000000e+00 0.000000000000e+00 
3.200000000000e+01 9.485574792431e+04 1.000000000000e+00 0.000000000000e+00 
3.233333333000e+01 9.482499333345e+04 1.000000000000e+00 0.000000000000e+00 
3.266666667000e+01 9.479423874167e+04 1.000000000000e+00 0.000000000000e+00 
3.300000000000e+01 9.476348415080e+04 1.000000000000e+00 0.000000000000e+00 
3.333333333000e+01 9.473272955993e+04 1.000000000000e+00 0.000000000000e+00 
3.366666667000e+01 9.470197496814e+04 1.000000000000e+00 0.000000000000e+00 
3.400000000000e+01 9.467122037727e+04 1.000000000000e+00 0.000000000000e+00 
3.433333333000e+01 9.464046578639e+04 1.000000000000e+00 0.000000000000e+00 
3.466666667000e+01 9.460971119459e+04 1.000000000000e+00 0.000000000000e+00 
3.500000000000e+01 9.457895660372e+04 1.000000000000e+00 0.000000000000e+00 
3.533333333000e+01 9.454820201284e+04 1.000000000000e+00 0.000000000000e+00 
3.566666667000e+01 9.451744742104e+04 1.000000000000e+00 0.000000000000e+00 
3.600000000000e+01 9.448669283016e+04 1.000000000000e+00 0.000000000000e+00 
3.633333333000e+01 9.445593823928e+04 1.000000000000e+00 0.000000000000e+00 
3.666666667000e+01 9.442518364747e+04 1.000000000000e+00 0.000000000000e+00 
3.700000000000e+01 9.439442905659e+04 1.000000000000e+00 0.000000000000e+00 
3.733333333000e+01 9.436367446571e+04 1.000000000000e+00 0.000000000000e+00 
3.766666667000e+01 9.433291987390e+04 1.000000000000e+00 0.000000000000e+00 
3.800000000000e+01 9.430216528302e+04 1.000000000000e+00 0.000000000000e+00 
3.833333333000e+01 9.427141069213e+04 1.000000000000e+00 0.000000000000e+00 
3.866666667000e+01 9.424065610032e+04 1.000000000000e+00 0.000000000000e+00 
3.900000000000e+01 9.420990150944e+04 1.000000000000e+00 0.000000000000e+00 
3.933333333000e+01 9.417914691855e+04 1.000000000000e+00 0.000000000000e+00 
3.966666667000e+01 9.414839232674e+04 1.000000000000e+00 0.000000000000e+00 
4.000000000000e+01 9.411763773586e+04 1.000000000000e+00 0.000000000000e+00 
4.033333333000e+01 9.408688314497e+04 1.000000000000e+00 0.000000000000e+00 
4.066666667000e+01 9.405612855316e+04 1.000000000000e+00 0.000000000000e+00 
4.100000000000e+01 9.402537396227e+04 1.000000000000e+00 0.000000000000e+00 
4.133333333000e+01 9.399461937139e+04 1.000000000000e+00 0.000000000000e+00 
4.166666667000e+01 9.396386477958e+04 1.000000000000e+00 0.000000000000e+00 
4.200000000000e+01 9.393311018869e+04 1.000000000000e+00 0.000000000000e+00 
4.233333333000e+01 9.390235559780e+04 1.000000000000e+00 0.000000000000e+00 
4.266666667000e+01 9.387160100599e+04 1.000000000000e+00 0.000000000000e+00 
4.300000000000e+01 9.384084641511e+04 1.000000000000e+00 0.000000000000e+00 
4.333333333000e+01 9.381009182422e+04 1.000000000000e+00 0.000000000000e+00 
4.366666667000e+01 9.377933723241e+04 1.000000000000e+00 0.000000000000e+00 
4.400000000000e+01 9.374858264152e+04 1.000000000000e+00 0.000000000000e+00 
4.433333333000e+01 9.371782805063e+04 1.000000000000e+00 0.000000000000e+00 
4.466666667000e+01 9.368707345882e+04 1.000000000000e+00 0.000000000000e+00 
4.500000000000e+01 9.365631886793e+04 1.000000000000e+00 0.000000000000e+00 
4.533333333000e+01 9.362556427705e+04 1.000000000000e+00 0.000000000000e+00 
4.566666667000e+01 9.359480968524e+04 1.000000000000e+00 0.000000000000e+00 
4.600000000000e+01 9.356405509435e+04 1.000000000000e+00 0.000000000000e+00 
4.633333333000e+01 9.353330050346e+04 1.000000000000e+00 0.000000000000e+00 
4.666666667000e+01 9.350254591165e+04 1.000000000000e+00 0.000000000000e+00 
4.700000000000e+01 9.347179132076e+04 1.000000000000e+00 0.000000000000e+00 
4.733333333000e+01 9.344103672987e+04 1.000000000000e+00 0.000000000000e+00 
4.766666667000e+01 9.341028213806e+04 1.000000000000e+00 0.000000000000e+00 
4.800000000000e+01 9.337952754717e+04 1.000000000000e+00 0.000000000000e+00 
4.833333333000e+01 9.334877295629e+04 1.000000000000e+00 0.000000000000e+00 
4.866666667000e+01 9.331801836448e+04 1.000000000000e+00 0.000000000000e+00 
4.900000000000e+01 9.328726377359e+04 1.000000000000e+00 0.000000000000e+00 
4.933333333000e+01 9.325650918270e+04 1.000000000000e+00 0.000000000000e+00 
4.966666667000e+01 9.322575459089e+04 1.000000000000e+00 0.000000000000e+00 
5.000000000000e+01 9.319500000000e+04 1.000000000000e+00 0.000000000000e+00 
 TITLE = "Profiles along polylines"
 VARIABLES = "DIST" "PRESSURE1" "SATURATION1" "SATURATION2" 
 ZONE T="TIME=4.320000000000e+04"
0.000000000000e+00 9.810000000000e+04 1.000000000000e+00 0.000000000000e+00 
3.333333330000e-01 9.806924540982e+04 1.000000000000e+00 0.000000000000e+00 
6.666666670000e-01 9.803849081954e+04 1.000000000000e+00 0.000000000000e+00 
1.000000000000e+00 9.800773622935e+04 1.000000000000e+00 0.000000000000e+00 
1.333333333000e+00 9.797698163917e+04 1.000000000000e+00 0.000000000000e+00 
1.666666667000e+00 9.794622704889e+04 1.000000000000e+00 0.000000000000e+00 
2.000000000000e+00 9.791547245871e+04 1.000000000000e+00 0.000000000000e+00 
2.333333333000e+00 9.788471786853e+04 1.000000000000e+00 0.000000000000e+00 
2.666666667000e+00 9.785396327825e+04 1.000000000000e+00 0.000000000000e+00 
3.000000000000e+00 9.782320868807e+04 1.000000000000e+00 0.000000000000e+00 
3.333333333000e+00 9.779245409789e+04 1.000000000000e+00 0.000000000000e+00 
3.666666667000e+00 9.776169950761e+04 1.000000000000e+00 0.000000000000e+00 
4.000000000000e+00 9.773094491743e+04 1.000000000000e+00 0.000000000000e+00 
4.333333333000e+00 9.770019032724e+04 1.000000000000e+00 0.000000000000e+00 
4.666666667000e+00 9.766943573697e+04 1.000000000000e+00 0.000000000000e+00 
5.000000000000e+00 9.763109329560e+04 8.999977480000e-01 1.000022520000e-01 
5.333333333000e+00 9.758189632719e+04 8.999977480000e-01 1.000022520000e-01 
5.666666667000e+00 9.753269935864e+04 8.999977480000e-01 1.000022520000e-01 
6.000000000000e+00 9.748350239024e+04 8.999977480000e-01 1.000022520000e-01 
6.333333333000e+00 9.743430542183e+04 8.999977480000e-01 1.000022520000e-01 
6.666666667000e+00 9.738510845327e+04 8.999977480000e-01 1.000022520000e-01 
7.000000000000e+00 9.733591148485e+04 8.999977480000e-01 1.000022520000e-01 
7.333333333000e+00 9.728671451643e+04 8.999977480000e-01 1.000022520000e-01 
7.666666667000e+00 9.723751754786e+04 8.999977480000e-01 1.000022520000e-01 
8.000000000000e+00 9.718832057942e+04 8.999977480000e-01 1.000022520000e-01 
8.333333333000e+00 9.713912361098e+04 8.999977480000e-01 1.000022520000e-01 
8.666666667000e+00 9.708992664239e+04 8.999977480000e-01 1.000022520000e-01 
9.000000000000e+00 9.704072967393e+04 8.999977480000e-01 1.000022520000e-01 
9.333333333000e+00 9.699153270546e+04 8.999977480000e-01 1.000022520000e-01 
9.666666667000e+00 9.694233573684e+04 8.999977480000e-01 1.000022520000e-01 
1.000000000000e+01 9.689313876835e+04 8.999977480000e-01 1.000022520000e-01 
1.033333333000e+01 9.685479632724e+04 1.000000000000e+00 0.000000000000e+00 
1.066666667000e+01 9.682404173634e+04 1.000000000000e+00 0.000000000000e+00 
1.100000000000e+01 9.679328714634e+04 1.000000000000e+00 0.000000000000e+00 
1.133333333000e+01 9.676253255633e+04 1.000000000000e+00 0.000000000000e+00 
1.166666667000e+01 9.673177796538e+04 1.000000000000e+00 0.000000000000e+00 
1.200000000000e+01 9.670102337534e+04 1.000000000000e+00 0.000000000000e+00 
1.233333333000e+01 9.667026878528e+04 1.000000000000e+00 0.000000000000e+00 
1.266666667000e+01 9.663951419429e+04 1.000000000000e+00 0.000000000000e+00 
1.300000000000e+01 9.660875960420e+04 1.000000000000e+00 0.000000000000e+00 
1.333333333000e+01 9.657800501409e+04 1.000000000000e+00 0.000000000000e+00 
1.366666667000e+01 9.654725042305e+04 1.000000000000e+00 0.000000000000e+00 
1.400000000000e+01 9.651649583291e+04 1.000000000000e+00 0.000000000000e+00 
1.433333333000e+01 9.648574124275e+04 1.000000000000e+00 0.000000000000e+00 
1.466666667000e+01 9.645498665165e+04 1.000000000000e+00 0.000000000000e+00 
1.500000000000e+01 9.642423206145e+04 1.000000000000e+00 0.000000000000e+00 
1.533333333000e+01 9.639347747124e+04 1.000000000000e+00 0.000000000000e+00 
1.566666667000e+01 9.636272288008e+04 1.000000000000e+00 0.000000000000e+00 
1.600000000000e+01 9.633196828983e+04 1.000000000000e+00 0.000000000000e+00 
1.633333333000e+01 9.630121369955e+04 1.000000000000e+00 0.000000000000e+00 
1.666666667000e+01 9.627045910834e+04 1.000000000000e+00 0.000000000000e+00 
1.700000000000e+01 9.623970451803e+04 1.000000000000e+00 0.000000000000e+00 
1.733333333000e+01 9.620894992769e+04 1.000000000000e+00 0.000000000000e+00 
1.766666667000e+01 9.617819533642e+04 1.000000000000e+00 0.000000000000e+00 
1.800000000000e+01 9.614744074605e+04 1.000000000000e+00 0.000000000000e+00 
1.833333333000e+01 9.611668615566e+04 1.000000000000e+00 0.000000000000e+00 
1.866666667000e+01 9.608593156432e+04 1.000000000000e+00 0.000000000000e+00 
1.900000000000e+01 9.605517697389e+04 1.000000000000e+00 0.000000000000e+00 
1.933333333000e+01 9.602442238345e+04 1.000000000000e+00 0.000000000000e+00 
1.966666667000e+01 9.599366779205e+04 1.000000000000e+00 0.000000000000e+00 
2.000000000000e+01 9.596291320157e+04 1.000000000000e+00 0.000000000000e+00 
2.033333333000e+01 9.593215861106e+04 1.000000000000e+00 0.000000000000e+00 
2.066666667000e+01 9.590140401962e+04 1.000000000000e+00 0.000000000000e+00 
2.100000000000e+01 9.587064942908e+04 1.000000000000e+00 0.000000000000e+00 
2.133333333000e+01 9.583989483852e+04 1.000000000000e+00 0.000000000000e+00 
2.166666667000e+01 9.580914024703e+04 1.000000000000e+00 0.000000000000e+00 
2.200000000000e+01 9.577838565644e+04 1.000000000000e+00 0.000000000000e+00 
2.233333333000e+01 9.574763106583e+04 1.000000000000e+00 0.000000000000e+00 
2.266666667000e+01 9.571687647429e+04 1.000000000000e+00 0.000000000000e+00 
2.300000000000e+01 9.568612188365e+04 1.000000000000e+00 0.000000000000e+00 
2.333333333000e+01 9.565536729300e+04 1.000000000000e+00 0.000000000000e+00 
2.366666667000e+01 9.562461270141e+04 1.000000000000e+00 0.000000000000e+00 
2.400000000000e+01 9.559385811073e+04 1.000000000000e+00 0.000000000000e+00 
2.433333333000e+01 9.556310352004e+04 1.000000000000e+00 0.000000000000e+00 
2.466666667000e+01 9.553234892841e+04 1.000000000000e+00 0.000000000000e+00 
2.500000000000e+01 9.550159433770e+04 1.000000000000e+00 0.000000000000e+00 
2.533333333000e+01 9.547083974697e+04 1.000000000000e+00 0.000000000000e+00 
2.566666667000e+01 9.544008515531e+04 1.000000000000e+00 0.000000000000e+00 
2.600000000000e+01 9.540933056456e+04 1.000000000000e+00 0.000000000000e+00 
2.633333333000e+01 9.537857597380e+04 1.000000000000e+00 0.000000000000e+00 
2.666666667000e+01 9.534782138211e+04 1.000000000000e+00 0.000000000000e+00 
2.700000000000e+01 9.531706679134e+04 1.000000000000e+00 0.000000000000e+00 