 TITLE = "Time curves in points"
 VARIABLES = "TIME"  "WATER1"  "PRESSURE1"  "TEMPERATURE1"  "VELOCITY_X1"  "VELOCITY_Y1"  "VELOCITY_Z1" 
 ZONE T="POINT=POINT2"
0.000000000000e+00 0.000000000000e+00 1.013250000000e+05 3.181500000000e+02 0.000000000000e+00 0.000000000000e+00 0.000000000000e+00 
8.640000000000e+04 5.553105319962e-08 1.061353835415e+04 3.181500000000e+02 1.066699999597e-08 0.000000000000e+00 0.000000000000e+00 
1.728000000000e+05 5.972853169939e-07 1.061353835869e+04 3.181500000000e+02 1.066700000028e-08 0.000000000000e+00 0.000000000000e+00 
2.592000000000e+05 3.090740161991e-06 1.061353836187e+04 3.181500000000e+02 1.066700000401e-08 0.000000000000e+00 0.000000000000e+00 
3.456000000000e+05 1.103725335145e-05 1.061353836511e+04 3.181500000000e+02 1.066700000695e-08 0.000000000000e+00 0.000000000000e+00 
4.320000000000e+05 3.099968744321e-05 1.061353836601e+04 3.181500000000e+02 1.066700000798e-08 0.000000000000e+00 0.000000000000e+00 
5.184000000000e+05 7.330944511068e-05 1.061353837047e+04 3.181500000000e+02 1.066700001254e-08 0.000000000000e+00 0.000000000000e+00 
6.048000000000e+05 1.522000375030e-04 1.061353835354e+04 3.181500000000e+02 1.066699999580e-08 0.000000000000e+00 0.000000000000e+00 
6.912000000000e+05 2.853104337852e-04 1.061353836138e+04 3.181500000000e+02 1.066700000291e-08 0.000000000000e+00 0.000000000000e+00 
7.776000000000e+05 4.926827045581e-04 1.061353836099e+04 3.181500000000e+02 1.066700000320e-08 0.000000000000e+00 0.000000000000e+00 
8.640000000000e+05 7.954072440380e-04 -6.084139824033e-33 3.181500000000e+02 -6.175176462022e-45 0.000000000000e+00 0.000000000000e+00 
9.504000000000e+05 1.183741369301e-03 -6.668444771019e-69 3.181500000000e+02 -6.663172651235e-81 0.000000000000e+00 0.000000000000e+00 
1.036800000000e+06 1.686484253170e-03 -3.017935901418e-105 3.181500000000e+02 -2.990598040598e-117 0.000000000000e+00 0.000000000000e+00 
1.123200000000e+06 2.313271255497e-03 1.370168579693e-142 3.181500000000e+02 1.440086077197e-154 0.000000000000e+00 0.000000000000e+00 
1.209600000000e+06 3.068719630695e-03 -2.296638187010e-178 3.181500000000e+02 -2.276682613304e-190 0.000000000000e+00 0.000000000000e+00 
1.296000000000e+06 3.951774237408e-03 -6.355582519220e-214 3.181500000000e+02 -6.362106628385e-226 0.000000000000e+00 0.000000000000e+00 
1.382400000000e+06 4.955690101804e-03 1.628470142497e-249 3.181500000000e+02 1.634626878072e-261 0.000000000000e+00 0.000000000000e+00 
1.468800000000e+06 6.068632756280e-03 4.909869368399e-285 3.181500000000e+02 4.741075883940e-297 0.000000000000e+00 0.000000000000e+00 
1.555200000000e+06 7.274744176612e-03 2.770449108087e-313 3.181500000000e+02 0.000000000000e+00 0.000000000000e+00 0.000000000000e+00 
1.641600000000e+06 8.555456961581e-03 -2.564959634979e-312 3.181500000000e+02 0.000000000000e+00 0.000000000000e+00 0.000000000000e+00 
1.728000000000e+06 9.890843197052e-03 5.546005702746e-312 3.181500000000e+02 0.000000000000e+00 0.000000000000e+00 0.000000000000e+00 
1.814400000000e+06 1.126083336192e-02 -7.205327606881e-313 3.181500000000e+02 0.000000000000e+00 0.000000000000e+00 0.000000000000e+00 
1.900800000000e+06 1.264620609111e-02 -7.331701811377e-314 3.181500000000e+02 0.000000000000e+00 0.000000000000e+00 0.000000000000e+00 
1.987200000000e+06 1.402931036403e-02 7.675783185334e-312 3.181500000000e+02 0.000000000000e+00 0.000000000000e+00 0.000000000000e+00 
2.073600000000e+06 1.539452698329e-02 1.854798766469e-312 3.181500000000e+02 0.000000000000e+00 0.000000000000e+00 0.000000000000e+00 
2.160000000000e+06 1.672850376165e-02 -3.994283015726e-313 3.181500000000e+02 0.000000000000e+00 0.000000000000e+00 0.000000000000e+00 
2.246400000000e+06 1.802021124046e-02 -8.618784024560e-313 3.181500000000e+02 0.000000000000e+00 0.000000000000e+00 0.000000000000e+00 
2.332800000000e+06 1.926086743909e-02 -2.078060804661e-312 3.181500000000e+02 0.000000000000e+00 0.000000000000e+00 0.000000000000e+00 
2.419200000000e+06 2.044377541900e-02 6.500503208046e-313 3.181500000000e+02 0.000000000000e+00 0.000000000000e+00 0.000000000000e+00 
2.505600000000e+06 2.156410974015e-02 8.954796779451e-313 3.181499999999e+02 0.000000000000e+00 0.000000000000e+00 0.000000000000e+00 
2.592000000000e+06 2.261867947654e-02 -2.322582867658e-312 3.181499999999e+02 0.000000000000e+00 0.000000000000e+00 0.000000000000e+00 
2.678400000000e+06 2.360568765986e-02 -2.224963100575e-312 3.181499999999e+02 0.000000000000e+00 0.000000000000e+00 0.000000000000e+00 
2.764800000000e+06 2.452450045647e-02 3.480953757127e-312 3.181499999999e+02 0.000000000000e+00 0.000000000000e+00 0.000000000000e+00 
2.851200000000e+06 2.537543422270e-02 7.872050801731e-313 3.181499999999e+02 0.000000000000e+00 0.000000000000e+00 0.000000000000e+00 
2.937600000000e+06 2.615956474839e-02 2.193872045628e-312 3.181499999999e+02 0.000000000000e+00 0.000000000000e+00 0.000000000000e+00 
3.024000000000e+06 2.687856029217e-02 -6.554451601913e-312 3.181499999999e+02 0.000000000000e+00 0.000000000000e+00 0.000000000000e+00 
3.110400000000e+06 2.753453820559e-02 2.137258886180e-312 3.181499999999e+02 0.000000000000e+00 0.000000000000e+00 0.000000000000e+00 
3.196800000000e+06 2.812994381727e-02 -4.411550748471e-313 3.181499999999e+02 0.000000000000e+00 0.000000000000e+00 0.000000000000e+00 
3.283200000000e+06 2.866744961647e-02 2.457161229583e-312 3.181499999999e+02 0.000000000000e+00 0.000000000000e+00 0.000000000000e+00 
3.369600000000e+06 2.914987248584e-02 4.634333270731e-312 3.181499999999e+02 0.000000000000e+00 0.000000000000e+00 0.000000000000e+00 
3.456000000000e+06 2.958010667206e-02 2.814346653632e-312 3.181499999999e+02 0.000000000000e+00 0.000000000000e+00 0.000000000000e+00 
3.542400000000e+06 2.996107026459e-02 2.544949234572e-312 3.181499999999e+02 0.000000000000e+00 0.000000000000e+00 0.000000000000e+00 
3.628800000000e+06 3.029566311772e-02 2.393921304578e-312 3.181499999999e+02 0.000000000000e+00 0.000000000000e+00 0.000000000000e+00 
3.715200000000e+06 3.058673435759e-02 -5.533397582336e-313 3.181499999999e+02 0.000000000000e+00 0.000000000000e+00 0.000000000000e+00 
3.801600000000e+06 3.083705783665e-02 -2.663674417801e-313 3.181499999999e+02 0.000000000000e+00 0.000000000000e+00 0.000000000000e+00 
3.888000000000e+06 3.104931411608e-02 -2.009321861588e-312 3.181499999999e+02 0.000000000000e+00 0.000000000000e+00 0.000000000000e+00 
3.974400000000e+06 3.122607776153e-02 1.437999664031e-312 3.181499999999e+02 0.000000000000e+00 0.000000000000e+00 0.000000000000e+00 
4.060800000000e+06 3.136980892397e-02 3.057717521293e-312 3.181499999999e+02 0.000000000000e+00 0.000000000000e+00 0.000000000000e+00 
4.147200000000e+06 3.148284834305e-02 1.907610516657e-312 3.181499999999e+02 0.000000000000e+00 0.000000000000e+00 0.000000000000e+00 
4.233600000000e+06 3.156741505488e-02 2.472434632465e-312 3.181499999999e+02 0.000000000000e+00 0.000000000000e+00 0.000000000000e+00 
4.320000000000e+06 3.162560621106e-02 6.357987399074e-312 3.181499999998e+02 0.000000000000e+00 0.000000000000e+00 0.000000000000e+00 
4.406400000000e+06 3.165939852150e-02 3.196728887290e-313 3.181499999998e+02 0.000000000000e+00 0.000000000000e+00 0.000000000000e+00 
4.492800000000e+06 3.167065092373e-02 -2.147039566893e-312 3.181499999998e+02 0.000000000000e+00 0.000000000000e+00 0.000000000000e+00 
4.579200000000e+06 3.166110815633e-02 -7.449697391711e-313 3.181499999998e+02 0.000000000000e+00 0.000000000000e+00 0.000000000000e+00 
4.665600000000e+06 3.163240497695e-02 -1.010962405054e-312 3.181499999998e+02 0.000000000000e+00 0.000000000000e+00 0.000000000000e+00 
4.752000000000e+06 3.158607081715e-02 -5.009083388813e-313 3.181499999998e+02 0.000000000000e+00 0.000000000000e+00 0.000000000000e+00 
4.838400000000e+06 3.152353470942e-02 1.872567604208e-312 3.181499999998e+02 0.000000000000e+00 0.000000000000e+00 0.000000000000e+00 
4.924800000000e+06 3.144613035653e-02 1.926147905834e-312 3.181499999998e+02 0.000000000000e+00 0.000000000000e+00 0.000000000000e+00 
5.011200000000e+06 3.135510124228e-02 -6.457696359217e-312 3.181499999998e+02 0.000000000000e+00 0.000000000000e+00 0.000000000000e+00 
5.097600000000e+06 3.125160570612e-02 2.201838855101e-312 3.181499999998e+02 0.000000000000e+00 0.000000000000e+00 0.000000000000e+00 
5.184000000000e+06 3.113672192287e-02 -6.974721233249e-314 3.181499999998e+02 0.000000000000e+00 0.000000000000e+00 0.000000000000e+00 
5.270400000000e+06 3.101145274415e-02 -1.124924220554e-312 3.181499999998e+02 0.000000000000e+00 0.000000000000e+00 0.000000000000e+00 
5.356800000000e+06 3.087673037012e-02 1.300490921904e-312 3.181499999998e+02 0.000000000000e+00 0.000000000000e+00 0.000000000000e+00 
5.443200000000e+06 3.073342083037e-02 1.677801800212e-312 3.181499999998e+02 0.000000000000e+00 0.000000000000e+00 0.000000000000e+00 
5.529600000000e+06 3.058232825976e-02 4.034178375871e-313 3.181499999998e+02 0.000000000000e+00 0.000000000000e+00 0.000000000000e+00 
5.616000000000e+06 3.042419896185e-02 3.173076796916e-312 3.181499999998e+02 0.000000000000e+00 0.000000000000e+00 0.000000000000e+00 
5.702400000000e+06 3.025972525671e-02 -1.998034780611e-312 3.181499999998e+02 0.000000000000e+00 0.000000000000e+00 0.000000000000e+00 
5.788800000000e+06 3.008954911378e-02 2.654117296186e-313 3.181499999998e+02 0.000000000000e+00 0.000000000000e+00 0.000000000000e+00 
5.875200000000e+06 2.991426557319e-02 -6.952683854578e-313 3.181499999997e+02 0.000000000000e+00 0.000000000000e+00 0.000000000000e+00 
5.961600000000e+06 2.973442596088e-02 8.600791178035e-313 3.181499999997e+02 0.000000000000e+00 0.000000000000e+00 0.000000000000e+00 
6.048000000000e+06 2.955054090450e-02 -1.448216935880e-312 3.181499999997e+02 0.000000000000e+00 0.000000000000e+00 0.000000000000e+00 
6.134400000000e+06 2.936308315795e-02 3.387512600015e-313 3.181499999997e+02 0.000000000000e+00 0.000000000000e+00 0.000000000000e+00 
6.220800000000e+06 2.917249024315e-02 -5.850044225507e-313 3.181499999997e+02 0.000000000000e+00 0.000000000000e+00 0.000000000000e+00 
6.307200000000e+06 2.897916691810e-02 -1.143745847283e-312 3.181499999997e+02 0.000000000000e+00 0.000000000000e+00 0.000000000000e+00 
6.393600000000e+06 2.878348748030e-02 7.220389550165e-313 3.181499999997e+02 0.000000000000e+00 0.000000000000e+00 0.000000000000e+00 
6.480000000000e+06 2.858579791478e-02 -1.707181296353e-312 3.181499999997e+02 0.000000000000e+00 0.000000000000e+00 0.000000000000e+00 
6.566400000000e+06 2.838641789579e-02 -3.550518422895e-312 3.181499999997e+02 0.000000000000e+00 0.000000000000e+00 0.000000000000e+00 
6.652800000000e+06 2.818564265092e-02 2.761765836081e-312 3.181499999997e+02 0.000000000000e+00 0.000000000000e+00 0.000000000000e+00 
6.739200000000e+06 2.798374469626e-02 4.353004631724e-312 3.181499999997e+02 0.000000000000e+00 0.000000000000e+00 0.000000000000e+00 
6.825600000000e+06 2.778097545092e-02 -4.784942038217e-313 3.181499999997e+02 0.000000000000e+00 0.000000000000e+00 0.000000000000e+00 
6.912000000000e+06 2.757756673851e-02 1.105956537125e-312 3.181499999997e+02 0.000000000000e+00 0.000000000000e+00 0.000000000000e+00 
6.998400000000e+06 2.737373218338e-02 2.896288450420e-312 3.181499999997e+02 0.000000000000e+00 0.000000000000e+00 0.000000000000e+00 
7.084800000000e+06 2.716966850849e-02 4.222483521349e-312 3.181499999996e+02 0.000000000000e+00 0.000000000000e+00 0.000000000000e+00 
7.171200000000e+06 2.696555674163e-02 -1.589818910289e-312 3.181499999996e+02 0.000000000000e+00 0.000000000000e+00 0.000000000000e+00 
7.257600000000e+06 2.676156333636e-02 -4.563722866205e-313 3.181499999996e+02 0.000000000000e+00 0.000000000000e+00 0.000000000000e+00 
7.344000000000e+06 2.655784121359e-02 -5.067687348286e-313 3.181499999996e+02 0.000000000000e+00 0.000000000000e+00 0.000000000000e+00 
7.430400000000e+06 2.635453072920e-02 1.329648068929e-312 3.181499999996e+02 0.000000000000e+00 0.000000000000e+00 0.000000000000e+00 
7.516800000000e+06 2.615176057314e-02 4.072751366831e-312 3.181499999996e+02 0.000000000000e+00 0.000000000000e+00 0.000000000000e+00 
7.603200000000e+06 2.594964860460e-02 6.805484121012e-313 3.181499999996e+02 0.000000000000e+00 0.000000000000e+00 0.000000000000e+00 
7.689600000000e+06 2.574830262800e-02 -1.749747067254e-312 3.181499999996e+02 0.000000000000e+00 0.000000000000e+00 0.000000000000e+00 
7.776000000000e+06 2.554782111381e-02 1.203119376657e-312 3.181499999996e+02 0.000000000000e+00 0.000000000000e+00 0.000000000000e+00 
7.862400000000e+06 2.534829386837e-02 -3.681257612195e-312 3.181499999996e+02 0.000000000000e+00 0.000000000000e+00 0.000000000000e+00 
7.948800000000e+06 2.514980265613e-02 1.793933776220e-312 3.181499999996e+02 0.000000000000e+00 0.000000000000e+00 0.000000000000e+00 
8.035200000000e+06 2.495242177785e-02 9.563565955864e-313 3.181499999996e+02 0.000000000000e+00 0.000000000000e+00 0.000000000000e+00 
8.121600000000e+06 2.475621860793e-02 2.013872668355e-312 3.181499999996e+02 0.000000000000e+00 0.000000000000e+00 0.000000000000e+00 
8.208000000000e+06 2.456125409364e-02 -4.257511811850e-312 3.181499999996e+02 0.000000000000e+00 0.000000000000e+00 0.000000000000e+00 
8.294400000000e+06 2.436758321926e-02 -1.640968961327e-313 3.181499999996e+02 0.000000000000e+00 0.000000000000e+00 0.000000000000e+00 
8.380800000000e+06 2.417525543732e-02 -6.812321999728e-313 3.181499999995e+02 0.000000000000e+00 0.000000000000e+00 0.000000000000e+00 
8.467200000000e+06 2.398431506959e-02 -1.980945601634e-313 3.181499999995e+02 0.000000000000e+00 0.000000000000e+00 0.000000000000e+00 
8.553600000000e+06 2.379480167978e-02 -1.423701650996e-312 3.181499999995e+02 0.000000000000e+00 0.000000000000e+00 0.000000000000e+00 
8.640000000000e+06 2.360675042011e-02 4.427778911435e-312 3.181499999995e+02 0.000000000000e+00 0.000000000000e+00 0.000000000000e+00 
8.726400000000e+06 2.342019235352e-02 -5.511137533268e-313 3.181499999995e+02 0.000000000000e+00 0.000000000000e+00 0.000000000000e+00 
8.812800000000e+06 2.323515475332e-02 1.388149238331e-312 3.181499999995e+02 0.000000000000e+00 0.000000000000e+00 0.000000000000e+00 
8.899200000000e+06 2.305166138186e-02 -2.257697296666e-312 3.181499999995e+02 0.000000000000e+00 0.000000000000e+00 0.000000000000e+00 
8.985600000000e+06 2.286973274976e-02 3.878849024413e-313 3.181499999995e+02 0.000000000000e+00 0.000000000000e+00 0.000000000000e+00 
9.072000000000e+06 2.268938635695e-02 -2.762594637413e-312 3.181499999995e+02 0.000000000000e+00 0.000000000000e+00 0.000000000000e+00 
9.158400000000e+06 2.251063691702e-02 1.414572011282e-312 3.181499999995e+02 0.000000000000e+00 0.000000000000e+00 0.000000000000e+00 
9.244800000000e+06 2.233349656587e-02 6.449433302395e-313 3.181499999995e+02 0.000000000000e+00 0.000000000000e+00 0.000000000000e+00 
9.331200000000e+06 2.215797505583e-02 1.520265533387e-312 3.181499999995e+02 0.000000000000e+00 0.000000000000e+00 0.000000000000e+00 
9.417600000000e+06 2.198407993634e-02 -1.086837129328e-312 3.181499999995e+02 0.000000000000e+00 0.000000000000e+00 0.000000000000e+00 
9.504000000000e+06 2.181181672206e-02 5.448229343206e-313 3.181499999995e+02 0.000000000000e+00 0.000000000000e+00 0.000000000000e+00 
9.590400000000e+06 2.164118904927e-02 -1.448235256556e-312 3.181499999995e+02 0.000000000000e+00 0.000000000000e+00 0.000000000000e+00 
9.676800000000e+06 2.147219882152e-02 7.934962592346e-314 3.181499999995e+02 0.000000000000e+00 0.000000000000e+00 0.000000000000e+00 
9.763200000000e+06 2.130484634506e-02 -1.042090056274e-312 3.181499999995e+02 0.000000000000e+00 0.000000000000e+00 0.000000000000e+00 
9.849600000000e+06 2.113913045498e-02 -4.278234462599e-312 3.181499999994e+02 0.000000000000e+00 0.000000000000e+00 0.000000000000e+00 
9.936000000000e+06 2.097504863258e-02 -2.388790610922e-313 3.181499999994e+02 0.000000000000e+00 0.000000000000e+00 0.000000000000e+00 
1.002240000000e+07 2.081259711460e-02 8.931274329468e-313 3.181499999994e+02 0.000000000000e+00 0.000000000000e+00 0.000000000000e+00 
1.010880000000e+07 2.065177099493e-02 -2.695655342194e-313 3.181499999994e+02 0.000000000000e+00 0.000000000000e+00 0.000000000000e+00 
1.019520000000e+07 2.049256431916e-02 -1.651106488931e-313 3.181499999994e+02 0.000000000000e+00 0.000000000000e+00 0.000000000000e+00 
1.028160000000e+07 2.033497017277e-02 -3.062023242809e-312 3.181499999994e+02 0.000000000000e+00 0.000000000000e+00 0.000000000000e+00 
1.036800000000e+07 2.017898076297e-02 -4.098125150428e-312 3.181499999994e+02 0.000000000000e+00 0.000000000000e+00 0.000000000000e+00 
1.045440000000e+07 2.002458749507e-02 3.270246506614e-312 3.181499999994e+02 0.000000000000e+00 0.000000000000e+00 0.000000000000e+00 
1.054080000000e+07 1.987178104340e-02 2.399742198119e-312 3.181499999994e+02 0.000000000000e+00 0.000000000000e+00 0.000000000000e+00 
1.062720000000e+07 1.972055141738e-02 -2.922395170848e-312 3.181499999994e+02 0.000000000000e+00 0.000000000000e+00 0.000000000000e+00 
1.071360000000e+07 1.957088802294e-02 4.881201084555e-313 3.181499999994e+02 0.000000000000e+00 0.000000000000e+00 0.000000000000e+00 
1.080000000000e+07 1.942277971970e-02 1.041401167328e-312 3.181499999994e+02 0.000000000000e+00 0.000000000000e+00 0.000000000000e+00 
1.088640000000e+07 1.927621487408e-02 4.191566627827e-312 3.181499999994e+02 0.000000000000e+00 0.000000000000e+00 0.000000000000e+00 
1.097280000000e+07 1.913118140879e-02 1.230073416322e-312 3.181499999994e+02 0.000000000000e+00 0.000000000000e+00 0.000000000000e+00 
1.105920000000e+07 1.898766684873e-02 1.064879799188e-312 3.181499999994e+02 0.000000000000e+00 0.000000000000e+00 0.000000000000e+00 
1.114560000000e+07 1.884565836377e-02 -2.413719260172e-313 3.181499999994e+02 0.000000000000e+00 0.000000000000e+00 0.000000000000e+00 
1.123200000000e+07 1.870514280841e-02 2.348544741393e-312 3.181499999994e+02 0.000000000000e+00 0.000000000000e+00 0.000000000000e+00 
1.131840000000e+07 1.856610675866e-02 2.284131359763e-312 3.181499999994e+02 0.000000000000e+00 0.000000000000e+00 0.000000000000e+00 
1.140480000000e+07 1.842853654637e-02 -6.306251694550e-314 3.181499999994e+02 0.000000000000e+00 0.000000000000e+00 0.000000000000e+00 
1.149120000000e+07 1.829241829094e-02 8.967140320045e-313 3.181499999994e+02 0.000000000000e+00 0.000000000000e+00 0.000000000000e+00 
1.157760000000e+07 1.815773792893e-02 -4.425938583944e-313 3.181499999993e+02 0.000000000000e+00 0.000000000000e+00 0.000000000000e+00 
1.166400000000e+07 1.802448124139e-02 3.829022773048e-312 3.181499999993e+02 0.000000000000e+00 0.000000000000e+00 0.000000000000e+00 
1.175040000000e+07 1.789263387932e-02 1.338583212755e-312 3.181499999993e+02 0.000000000000e+00 0.000000000000e+00 0.000000000000e+00 
1.183680000000e+07 1.776218138717e-02 1.105072545143e-312 3.181499999993e+02 0.000000000000e+00 0.000000000000e+00 0.000000000000e+00 
1.192320000000e+07 1.763310922467e-02 -2.198297387062e-312 3.181499999993e+02 0.000000000000e+00 0.000000000000e+00 0.000000000000e+00 
1.200960000000e+07 1.750540278703e-02 -4.186443085115e-313 3.181499999993e+02 0.000000000000e+00 0.000000000000e+00 0.000000000000e+00 
1.209600000000e+07 1.737904742365e-02 3.383424282595e-312 3.181499999993e+02 0.000000000000e+00 0.000000000000e+00 0.000000000000e+00 
1.218240000000e+07 1.725402845536e-02 9.081642278256e-313 3.181499999993e+02 0.000000000000e+00 0.000000000000e+00 0.000000000000e+00 
1.226880000000e+07 1.713033119042e-02 -7.983766166311e-313 3.181499999993e+02 0.000000000000e+00 0.000000000000e+00 0.000000000000e+00 
1.235520000000e+07 1.700794093925e-02 -1.691107614634e-312 3.181499999993e+02 0.000000000000e+00 0.000000000000e+00 0.000000000000e+00 
1.244160000000e+07 1.688684302803e-02 -4.334883268813e-312 3.181499999993e+02 0.000000000000e+00 0.000000000000e+00 0.000000000000e+00 
1.252800000000e+07 1.676702281124e-02 2.286447093311e-312 3.181499999993e+02 0.000000000000e+00 0.000000000000e+00 0.000000000000e+00 
1.261440000000e+07 1.664846568318e-02 -2.267304276654e-312 3.181499999993e+02 0.000000000000e+00 0.000000000000e+00 0.000000000000e+00 
1.270080000000e+07 1.653115708858e-02 -5.608296522058e-313 3.181499999993e+02 0.000000000000e+00 0.000000000000e+00 0.000000000000e+00 
1.278720000000e+07 1.641508253234e-02 8.786430534940e-313 3.181499999993e+02 0.000000000000e+00 0.000000000000e+00 0.000000000000e+00 
1.287360000000e+07 1.630022758846e-02 1.726651120308e-312 3.181499999993e+02 0.000000000000e+00 0.000000000000e+00 0.000000000000e+00 
1.296000000000e+07 1.618657790820e-02 1.914832995048e-312 3.181499999993e+02 0.000000000000e+00 0.000000000000e+00 0.000000000000e+00 
1.304640000000e+07 1.607411922755e-02 1.477003981676e-312 3.181499999993e+02 0.000000000000e+00 0.000000000000e+00 0.000000000000e+00 
1.313280000000e+07 1.596283737407e-02 -1.547462077996e-312 3.181499999993e+02 0.000000000000e+00 0.000000000000e+00 0.000000000000e+00 
1.321920000000e+07 1.585271827304e-02 2.484532431200e-313 3.181499999993e+02 0.000000000000e+00 0.000000000000e+00 0.000000000000e+00 
1.330560000000e+07 1.574374795314e-02 -1.216883800083e-313 3.181499999993e+02 0.000000000000e+00 0.000000000000e+00 0.000000000000e+00 
1.339200000000e+07 1.563591255148e-02 -9.249519813782e-313 3.181499999993e+02 0.000000000000e+00 0.000000000000e+00 0.000000000000e+00 
1.347840000000e+07 1.552919831827e-02 3.202724425789e-312 3.181499999992e+02 0.000000000000e+00 0.000000000000e+00 0.000000000000e+00 
1.356480000000e+07 1.542359162091e-02 -1.637735617373e-312 3.181499999992e+02 0.000000000000e+00 0.000000000000e+00 0.000000000000e+00 
1.365120000000e+07 1.531907894771e-02 2.776190288835e-313 3.181499999992e+02 0.000000000000e+00 0.000000000000e+00 0.000000000000e+00 
1.373760000000e+07 1.521564691117e-02 3.445448227008e-314 3.181499999992e+02 0.000000000000e+00 0.000000000000e+00 0.000000000000e+00 
1.382400000000e+07 1.511328225096e-02 4.773057753380e-313 3.181499999992e+02 0.000000000000e+00 0.000000000000e+00 0.000000000000e+00 
1.391040000000e+07 1.501197183644e-02 -5.455006774048e-312 3.181499999992e+02 0.000000000000e+00 0.000000000000e+00 0.000000000000e+00 
1.399680000000e+07 1.491170266897e-02 -7.986774763103e-313 3.181499999992e+02 0.000000000000e+00 0.000000000000e+00 0.000000000000e+00 
1.408320000000e+07 1.481246188386e-02 5.480116747737e-312 3.181499999992e+02 0.000000000000e+00 0.000000000000e+00 0.000000000000e+00 
1.416960000000e+07 1.471423675199e-02 8.282556242418e-313 3.181499999992e+02 0.000000000000e+00 0.000000000000e+00 0.000000000000e+00 
1.425600000000e+07 1.461701468131e-02 1.417270318846e-312 3.181499999992e+02 0.000000000000e+00 0.000000000000e+00 0.000000000000e+00 
1.434240000000e+07 1.452078321797e-02 -1.570122253627e-312 3.181499999992e+02 0.000000000000e+00 0.000000000000e+00 0.000000000000e+00 
1.442880000000e+07 1.442553004726e-02 1.490734138710e-312 3.181499999992e+02 0.000000000000e+00 0.000000000000e+00 0.000000000000e+00 
1.451520000000e+07 1.433124299440e-02 -5.103021217248e-312 3.181499999992e+02 0.000000000000e+00 0.000000000000e+00 0.000000000000e+00 
1.460160000000e+07 1.423791002504e-02 -1.223548939369e-312 3.181499999992e+02 0.000000000000e+00 0.000000000000e+00 0.000000000000e+00 
1.468800000000e+07 1.414551924566e-02 -1.102746423668e-312 3.181499999992e+02 0.000000000000e+00 0.000000000000e+00 0.000000000000e+00 
1.477440000000e+07 1.405405890379e-02 2.096980103935e-312 3.181499999992e+02 0.000000000000e+00 0.000000000000e+00 0.000000000000e+00 
1.486080000000e+07 1.396351738801e-02 -7.367791053965e-313 3.181499999992e+02 0.000000000000e+00 0.000000000000e+00 0.000000000000e+00 
1.494720000000e+07 1.387388322793e-02 -2.675559859192e-312 3.181499999992e+02 0.000000000000e+00 0.000000000000e+00 0.000000000000e+00 
1.503360000000e+07 1.378514509391e-02 5.650459732598e-313 3.181499999992e+02 0.000000000000e+00 0.000000000000e+00 0.000000000000e+00 
1.512000000000e+07 1.369729179678e-02 4.904914410338e-312 3.181499999991e+02 0.000000000000e+00 0.000000000000e+00 0.000000000000e+00 
1.520640000000e+07 1.361031228733e-02 4.015136197798e-313 3.181499999991e+02 0.000000000000e+00 0.000000000000e+00 0.000000000000e+00 
1.529280000000e+07 1.352419565580e-02 -9.579626925971e-313 3.181499999991e+02 0.000000000000e+00 0.000000000000e+00 0.000000000000e+00 
1.537920000000e+07 1.343893113124e-02 3.090665321577e-312 3.181499999991e+02 0.000000000000e+00 0.000000000000e+00 0.000000000000e+00 
1.546560000000e+07 1.335450808072e-02 -2.517161158312e-313 3.181499999991e+02 0.000000000000e+00 0.000000000000e+00 0.000000000000e+00 
1.555200000000e+07 1.327091600859e-02 2.430801123019e-312 3.181499999991e+02 0.000000000000e+00 0.000000000000e+00 0.000000000000e+00 
1.563840000000e+07 1.318814455556e-02 -6.982372090612e-313 3.181499999991e+02 0.000000000000e+00 0.000000000000e+00 0.000000000000e+00 
1.572480000000e+07 1.310618349775e-02 8.786211364356e-313 3.181499999991e+02 0.000000000000e+00 0.000000000000e+00 0.000000000000e+00 
1.581120000000e+07 1.302502274571e-02 3.617840690816e-312 3.181499999991e+02 0.000000000000e+00 0.000000000000e+00 0.000000000000e+00 
1.589760000000e+07 1.294465234333e-02 -2.647631833512e-312 3.181499999991e+02 0.000000000000e+00 0.000000000000e+00 0.000000000000e+00 
1.598400000000e+07 1.286506246672e-02 1.237155483693e-312 3.181499999991e+02 0.000000000000e+00 0.000000000000e+00 0.000000000000e+00 
1.607040000000e+07 1.278624342310e-02 -2.019995398832e-312 3.181499999991e+02 0.000000000000e+00 0.000000000000e+00 0.000000000000e+00 
1.615680000000e+07 1.270818564957e-02 -1.175820356578e-312 3.181499999991e+02 0.000000000000e+00 0.000000000000e+00 0.000000000000e+00 
1.624320000000e+07 1.263087971187e-02 -1.712019467826e-312 3.181499999991e+02 0.000000000000e+00 0.000000000000e+00 0.000000000000e+00 
1.632960000000e+07 1.255431630317e-02 1.029072621033e-312 3.181499999991e+02 0.000000000000e+00 0.000000000000e+00 0.000000000000e+00 
1.641600000000e+07 1.247848624270e-02 1.095314262339e-312 3.181499999991e+02 0.000000000000e+00 0.000000000000e+00 0.000000000000e+00 
1.650240000000e+07 1.240338047451e-02 9.916382636030e-313 3.181499999991e+02 0.000000000000e+00 0.000000000000e+00 0.000000000000e+00 
1.658880000000e+07 1.232899006610e-02 4.159058943745e-312 3.181499999990e+02 0.000000000000e+00 0.000000000000e+00 0.000000000000e+00 
1.667520000000e+07 1.225530620706e-02 2.061981482471e-313 3.181499999990e+02 0.000000000000e+00 0.000000000000e+00 0.000000000000e+00 
1.676160000000e+07 1.218232020771e-02 8.206220141918e-313 3.181499999990e+02 0.000000000000e+00 0.000000000000e+00 0.000000000000e+00 
1.684800000000e+07 1.211002349772e-02 1.601171135264e-312 3.181499999990e+02 0.000000000000e+00 0.000000000000e+00 0.000000000000e+00 
1.693440000000e+07 1.203840762471e-02 -1.262159858488e-312 3.181499999990e+02 0.000000000000e+00 0.000000000000e+00 0.000000000000e+00 
1.702080000000e+07 1.196746425283e-02 2.533249597926e-313 3.181499999990e+02 0.000000000000e+00 0.000000000000e+00 0.000000000000e+00 
1.710720000000e+07 1.189718516139e-02 5.685500068978e-313 3.181499999990e+02 0.000000000000e+00 0.000000000000e+00 0.000000000000e+00 
1.719360000000e+07 1.182756224340e-02 5.054803691630e-312 3.181499999990e+02 0.000000000000e+00 0.000000000000e+00 0.000000000000e+00 
1.728000000000e+07 1.175858750421e-02 -1.252860362715e-312 3.181499999990e+02 0.000000000000e+00 0.000000000000e+00 0.000000000000e+00 
1.736640000000e+07 1.169025306001e-02 -1.531381250091e-312 3.181499999990e+02 0.000000000000e+00 0.000000000000e+00 0.000000000000e+00 
1.745280000000e+07 1.162255113650e-02 -1.214050642978e-312 3.181499999990e+02 0.000000000000e+00 0.000000000000e+00 0.000000000000e+00 
1.753920000000e+07 1.155547406741e-02 -5.401708889540e-312 3.181499999990e+02 0.000000000000e+00 0.000000000000e+00 0.000000000000e+00 
1.762560000000e+07 1.148901429311e-02 3.108860411478e-312 3.181499999990e+02 0.000000000000e+00 0.000000000000e+00 0.000000000000e+00 
1.771200000000e+07 1.142316435922e-02 1.865052620817e-312 3.181499999990e+02 0.000000000000e+00 0.000000000000e+00 0.000000000000e+00 
1.779840000000e+07 1.135791691516e-02 -3.215141467353e-312 3.181499999990e+02 0.000000000000e+00 0.000000000000e+00 0.000000000000e+00 
1.788480000000e+07 1.129326471279e-02 1.265418988919e-312 3.181499999990e+02 0.000000000000e+00 0.000000000000e+00 0.000000000000e+00 
1.797120000000e+07 1.122920060501e-02 -2.829644299806e-312 3.181499999990e+02 0.000000000000e+00 0.000000000000e+00 0.000000000000e+00 
1.805760000000e+07 1.116571754436e-02 4.731335077421e-312 3.181499999990e+02 0.000000000000e+00 0.000000000000e+00 0.000000000000e+00 
1.814400000000e+07 1.110280858167e-02 1.822007599965e-312 3.181499999989e+02 0.000000000000e+00 0.000000000000e+00 0.000000000000e+00 
1.823040000000e+07 1.104046686468e-02 -1.655863476896e-312 3.181499999989e+02 0.000000000000e+00 0.000000000000e+00 0.000000000000e+00 
1.831680000000e+07 1.097868563671e-02 -4.605300091910e-312 3.181499999989e+02 0.000000000000e+00 0.000000000000e+00 0.000000000000e+00 
1.840320000000e+07 1.091745823528e-02 -1.192417837471e-312 3.181499999989e+02 0.000000000000e+00 0.000000000000e+00 0.000000000000e+00 
1.848960000000e+07 1.085677809079e-02 2.335907801111e-312 3.181499999989e+02 0.000000000000e+00 0.000000000000e+00 0.000000000000e+00 
1.857600000000e+07 1.079663872523e-02 2.413639424726e-312 3.181499999989e+02 0.000000000000e+00 0.000000000000e+00 0.000000000000e+00 
1.866240000000e+07 1.073703375082e-02 9.256956847191e-313 3.181499999989e+02 0.000000000000e+00 0.000000000000e+00 0.000000000000e+00 
1.874880000000e+07 1.067795686877e-02 6.282875142547e-314 3.181499999989e+02 0.000000000000e+00 0.000000000000e+00 0.000000000000e+00 
1.883520000000e+07 1.061940186795e-02 -2.399853871748e-313 3.181499999989e+02 0.000000000000e+00 0.000000000000e+00 0.000000000000e+00 
1.892160000000e+07 1.056136262365e-02 2.008446327802e-312 3.181499999989e+02 0.000000000000e+00 0.000000000000e+00 0.000000000000e+00 