 TITLE = "Time curves in points"
 VARIABLES = "TIME"  "WATER1"  "PRESSURE1"  "TEMPERATURE1"  "VELOCITY_X1"  "VELOCITY_Y1"  "VELOCITY_Z1" 
 ZONE T="POINT=POINT3"
0.000000000000e+00 0.000000000000e+00 1.013250000000e+05 3.181500000000e+02 0.000000000000e+00 0.000000000000e+00 0.000000000000e+00 
8.640000000000e+04 2.455023970041e-15 1.056032999638e+04 3.181500000000e+02 1.066699999614e-08 0.000000000000e+00 0.000000000000e+00 
1.728000000000e+05 5.787821008170e-14 1.056033000089e+04 3.181500000000e+02 1.066700000072e-08 0.000000000000e+00 0.000000000000e+00 
2.592000000000e+05 5.769649979818e-13 1.056033000406e+04 3.181500000000e+02 1.066700000417e-08 0.000000000000e+00 0.000000000000e+00 
3.456000000000e+05 3.781185523275e-12 1.056033000728e+04 3.181500000000e+02 1.066700000710e-08 0.000000000000e+00 0.000000000000e+00 
4.320000000000e+05 1.881669122086e-11 1.056033000818e+04 3.181500000000e+02 1.066700000812e-08 0.000000000000e+00 0.000000000000e+00 
5.184000000000e+05 7.648122851160e-11 1.056033001262e+04 3.181500000000e+02 1.066700001259e-08 0.000000000000e+00 0.000000000000e+00 
6.048000000000e+05 2.653904072783e-10 1.056032999577e+04 3.181500000000e+02 1.066699999572e-08 0.000000000000e+00 0.000000000000e+00 
6.912000000000e+05 8.099721620908e-10 1.056033000357e+04 3.181500000000e+02 1.066700000354e-08 0.000000000000e+00 0.000000000000e+00 
7.776000000000e+05 2.221323263408e-09 1.056033000318e+04 3.181500000000e+02 1.066700000325e-08 0.000000000000e+00 0.000000000000e+00 
8.640000000000e+05 5.563099612615e-09 -6.053598276747e-33 3.181500000000e+02 -6.122018158402e-45 0.000000000000e+00 0.000000000000e+00 
9.504000000000e+05 1.227646721628e-08 -6.635053612561e-69 3.181500000000e+02 -6.679049399893e-81 0.000000000000e+00 0.000000000000e+00 
1.036800000000e+06 2.550336087276e-08 -3.002848211593e-105 3.181500000000e+02 -3.024787320232e-117 0.000000000000e+00 0.000000000000e+00 
1.123200000000e+06 5.019936509689e-08 1.362968901187e-142 3.181500000000e+02 1.426483991610e-154 0.000000000000e+00 0.000000000000e+00 
1.209600000000e+06 9.414202771677e-08 -2.285194156538e-178 3.181500000000e+02 -2.295666856668e-190 0.000000000000e+00 0.000000000000e+00 
1.296000000000e+06 1.690163763106e-07 -6.323987420434e-214 3.181500000000e+02 -6.350792103696e-226 0.000000000000e+00 0.000000000000e+00 
1.382400000000e+06 2.916973152637e-07 1.620321642614e-249 3.181500000000e+02 1.628398100650e-261 0.000000000000e+00 0.000000000000e+00 
1.468800000000e+06 4.856918934575e-07 4.885599691226e-285 3.181500000000e+02 5.030782974082e-297 0.000000000000e+00 0.000000000000e+00 
1.555200000000e+06 7.826812028785e-07 2.743490504806e-313 3.181500000000e+02 0.000000000000e+00 0.000000000000e+00 0.000000000000e+00 
1.641600000000e+06 1.224080893481e-06 -2.568520463073e-312 3.181500000000e+02 0.000000000000e+00 0.000000000000e+00 0.000000000000e+00 
1.728000000000e+06 1.862523851244e-06 5.516262729599e-312 3.181500000000e+02 4.940656458412e-324 0.000000000000e+00 0.000000000000e+00 
1.814400000000e+06 2.763160889017e-06 -7.192046717532e-313 3.181500000000e+02 0.000000000000e+00 0.000000000000e+00 0.000000000000e+00 
1.900800000000e+06 4.004676833647e-06 -7.279653165041e-314 3.181500000000e+02 0.000000000000e+00 0.000000000000e+00 0.000000000000e+00 
1.987200000000e+06 5.679930449523e-06 7.661791537757e-312 3.181500000000e+02 0.000000000000e+00 0.000000000000e+00 0.000000000000e+00 
2.073600000000e+06 7.896146252232e-06 1.848542089726e-312 3.181500000000e+02 0.000000000000e+00 0.000000000000e+00 0.000000000000e+00 
2.160000000000e+06 1.077461239050e-05 -4.022085766624e-313 3.181500000000e+02 0.000000000000e+00 0.000000000000e+00 0.000000000000e+00 
2.246400000000e+06 1.444986864380e-05 -8.694226087632e-313 3.181500000000e+02 0.000000000000e+00 0.000000000000e+00 0.000000000000e+00 
2.332800000000e+06 1.906839916161e-05 -2.078365885904e-312 3.181500000000e+02 0.000000000000e+00 0.000000000000e+00 0.000000000000e+00 
2.419200000000e+06 2.478687299423e-05 6.571914707937e-313 3.181500000000e+02 0.000000000000e+00 0.000000000000e+00 0.000000000000e+00 
2.505600000000e+06 3.176999939684e-05 8.903950551448e-313 3.181500000000e+02 0.000000000000e+00 0.000000000000e+00 0.000000000000e+00 
2.592000000000e+06 4.018808272969e-05 -2.308291942623e-312 3.181500000000e+02 0.000000000000e+00 0.000000000000e+00 0.000000000000e+00 
2.678400000000e+06 5.021437274751e-05 -2.216530274378e-312 3.181500000000e+02 0.000000000000e+00 0.000000000000e+00 0.000000000000e+00 
2.764800000000e+06 6.202231015076e-05 3.473542299386e-312 3.181500000000e+02 0.000000000000e+00 0.000000000000e+00 0.000000000000e+00 
2.851200000000e+06 7.578276506665e-05 7.860380349790e-313 3.181500000000e+02 0.000000000000e+00 0.000000000000e+00 0.000000000000e+00 
2.937600000000e+06 9.166135868286e-05 2.189480130644e-312 3.181500000000e+02 0.000000000000e+00 0.000000000000e+00 0.000000000000e+00 
3.024000000000e+06 1.098159468620e-04 -6.526130236127e-312 3.181500000000e+02 -4.940656458412e-324 0.000000000000e+00 0.000000000000e+00 
3.110400000000e+06 1.303943305781e-04 2.138152527966e-312 3.181500000000e+02 0.000000000000e+00 0.000000000000e+00 0.000000000000e+00 
3.196800000000e+06 1.535322427301e-04 -4.399989460433e-313 3.181500000000e+02 0.000000000000e+00 0.000000000000e+00 0.000000000000e+00 
3.283200000000e+06 1.793516454249e-04 2.444215321402e-312 3.181500000000e+02 0.000000000000e+00 0.000000000000e+00 0.000000000000e+00 
3.369600000000e+06 2.079593570897e-04 4.623571809377e-312 3.181500000000e+02 0.000000000000e+00 0.000000000000e+00 0.000000000000e+00 
3.456000000000e+06 2.394460154347e-04 2.809205600684e-312 3.181500000000e+02 0.000000000000e+00 0.000000000000e+00 0.000000000000e+00 
3.542400000000e+06 2.738853707776e-04 2.531177376752e-312 3.181500000000e+02 0.000000000000e+00 0.000000000000e+00 0.000000000000e+00 
3.628800000000e+06 3.113338947832e-04 2.393221769698e-312 3.181500000000e+02 0.000000000000e+00 0.000000000000e+00 0.000000000000e+00 
3.715200000000e+06 3.518306823228e-04 -5.594146118724e-313 3.181500000000e+02 0.000000000000e+00 0.000000000000e+00 0.000000000000e+00 
3.801600000000e+06 3.953976188463e-04 -2.614361475100e-313 3.181500000000e+02 0.000000000000e+00 0.000000000000e+00 0.000000000000e+00 
3.888000000000e+06 4.420397822088e-04 -2.007817134975e-312 3.181500000000e+02 0.000000000000e+00 0.000000000000e+00 0.000000000000e+00 
3.974400000000e+06 4.917460460822e-04 1.434071091325e-312 3.181500000000e+02 0.000000000000e+00 0.000000000000e+00 0.000000000000e+00 
4.060800000000e+06 5.444898516523e-04 3.050741801542e-312 3.181500000000e+02 0.000000000000e+00 0.000000000000e+00 0.000000000000e+00 
4.147200000000e+06 6.002301149901e-04 1.902684721974e-312 3.181500000000e+02 0.000000000000e+00 0.000000000000e+00 0.000000000000e+00 
4.233600000000e+06 6.589122390342e-04 2.468550789479e-312 3.181500000000e+02 0.000000000000e+00 0.000000000000e+00 0.000000000000e+00 
4.320000000000e+06 7.204692013021e-04 6.338791901546e-312 3.181500000000e+02 0.000000000000e+00 0.000000000000e+00 0.000000000000e+00 
4.406400000000e+06 7.848226910518e-04 3.155737104172e-313 3.181500000000e+02 0.000000000000e+00 0.000000000000e+00 0.000000000000e+00 
4.492800000000e+06 8.518842724638e-04 -2.134484585975e-312 3.181500000000e+02 0.000000000000e+00 0.000000000000e+00 0.000000000000e+00 
4.579200000000e+06 9.215565533700e-04 -7.507494147918e-313 3.181500000000e+02 0.000000000000e+00 0.000000000000e+00 0.000000000000e+00 
4.665600000000e+06 9.937343419982e-04 -1.012156450521e-312 3.181500000000e+02 0.000000000000e+00 0.000000000000e+00 0.000000000000e+00 
4.752000000000e+06 1.068305777043e-03 -4.998933086154e-313 3.181500000000e+02 0.000000000000e+00 0.000000000000e+00 0.000000000000e+00 
4.838400000000e+06 1.145153419062e-03 1.875573056554e-312 3.181500000000e+02 0.000000000000e+00 0.000000000000e+00 0.000000000000e+00 
4.924800000000e+06 1.224155293659e-03 1.923390678314e-312 3.181500000000e+02 0.000000000000e+00 0.000000000000e+00 0.000000000000e+00 
5.011200000000e+06 1.305185879186e-03 -6.442048561437e-312 3.181500000000e+02 0.000000000000e+00 0.000000000000e+00 0.000000000000e+00 
5.097600000000e+06 1.388117033662e-03 2.189031897344e-312 3.181500000000e+02 0.000000000000e+00 0.000000000000e+00 0.000000000000e+00 
5.184000000000e+06 1.472818857392e-03 -6.997396839993e-314 3.181500000000e+02 0.000000000000e+00 0.000000000000e+00 0.000000000000e+00 
5.270400000000e+06 1.559160489277e-03 -1.126199326239e-312 3.181500000000e+02 0.000000000000e+00 0.000000000000e+00 0.000000000000e+00 
5.356800000000e+06 1.647010836073e-03 1.291696694424e-312 3.181500000000e+02 0.000000000000e+00 0.000000000000e+00 0.000000000000e+00 
5.443200000000e+06 1.736239234959e-03 1.670754225451e-312 3.181500000000e+02 0.000000000000e+00 0.000000000000e+00 0.000000000000e+00 
5.529600000000e+06 1.826716050650e-03 4.022462633081e-313 3.181500000000e+02 0.000000000000e+00 0.000000000000e+00 0.000000000000e+00 
5.616000000000e+06 1.918313208969e-03 3.171278038434e-312 3.181500000000e+02 0.000000000000e+00 0.000000000000e+00 0.000000000000e+00 
5.702400000000e+06 2.010904669380e-03 -1.994329636163e-312 3.181500000000e+02 0.000000000000e+00 0.000000000000e+00 0.000000000000e+00 
5.788800000000e+06 2.104366839377e-03 2.685352243953e-313 3.181500000000e+02 0.000000000000e+00 0.000000000000e+00 0.000000000000e+00 
5.875200000000e+06 2.198578933923e-03 -6.916625433831e-313 3.181500000000e+02 0.000000000000e+00 0.000000000000e+00 0.000000000000e+00 
5.961600000000e+06 2.293423283330e-03 8.477375886398e-313 3.181500000000e+02 0.000000000000e+00 0.000000000000e+00 0.000000000000e+00 
6.048000000000e+06 2.388785593089e-03 -1.440239982410e-312 3.181500000000e+02 0.000000000000e+00 0.000000000000e+00 0.000000000000e+00 
6.134400000000e+06 2.484555159185e-03 3.364164187076e-313 3.181500000000e+02 0.000000000000e+00 0.000000000000e+00 0.000000000000e+00 
6.220800000000e+06 2.580625042435e-03 -5.840453340780e-313 3.181500000000e+02 0.000000000000e+00 0.000000000000e+00 0.000000000000e+00 
6.307200000000e+06 2.676892205303e-03 -1.125838244607e-312 3.181500000000e+02 0.000000000000e+00 0.000000000000e+00 0.000000000000e+00 
6.393600000000e+06 2.773257614565e-03 7.212993402071e-313 3.181500000000e+02 0.000000000000e+00 0.000000000000e+00 0.000000000000e+00 
6.480000000000e+06 2.869626313047e-03 -1.703387130402e-312 3.181500000000e+02 0.000000000000e+00 0.000000000000e+00 0.000000000000e+00 
6.566400000000e+06 2.965907463546e-03 -3.538349016622e-312 3.181500000000e+02 0.000000000000e+00 0.000000000000e+00 0.000000000000e+00 
6.652800000000e+06 3.062014367835e-03 2.751572743098e-312 3.181500000000e+02 0.000000000000e+00 0.000000000000e+00 0.000000000000e+00 
6.739200000000e+06 3.157864463523e-03 4.338105429779e-312 3.181500000000e+02 0.000000000000e+00 0.000000000000e+00 0.000000000000e+00 
6.825600000000e+06 3.253379301335e-03 -4.720023708034e-313 3.181500000000e+02 0.000000000000e+00 0.000000000000e+00 0.000000000000e+00 
6.912000000000e+06 3.348484505211e-03 1.106266137670e-312 3.181500000000e+02 0.000000000000e+00 0.000000000000e+00 0.000000000000e+00 
6.998400000000e+06 3.443109717449e-03 2.883639472446e-312 3.181500000000e+02 0.000000000000e+00 0.000000000000e+00 0.000000000000e+00 
7.084800000000e+06 3.537188530930e-03 4.202594315719e-312 3.181500000000e+02 0.000000000000e+00 0.000000000000e+00 0.000000000000e+00 
7.171200000000e+06 3.630658410302e-03 -1.585083423458e-312 3.181500000000e+02 0.000000000000e+00 0.000000000000e+00 0.000000000000e+00 
7.257600000000e+06 3.723460603841e-03 -4.474418660078e-313 3.181500000000e+02 0.000000000000e+00 0.000000000000e+00 0.000000000000e+00 
7.344000000000e+06 3.815540047547e-03 -5.136798953080e-313 3.181500000000e+02 0.000000000000e+00 0.000000000000e+00 0.000000000000e+00 
7.430400000000e+06 3.906845262885e-03 1.326103828960e-312 3.181500000000e+02 0.000000000000e+00 0.000000000000e+00 0.000000000000e+00 
7.516800000000e+06 3.997328249450e-03 4.072275175037e-312 3.181500000000e+02 0.000000000000e+00 0.000000000000e+00 0.000000000000e+00 
7.603200000000e+06 4.086944373698e-03 6.762279841133e-313 3.181500000000e+02 0.000000000000e+00 0.000000000000e+00 0.000000000000e+00 
7.689600000000e+06 4.175652254771e-03 -1.749959663138e-312 3.181500000000e+02 0.000000000000e+00 0.000000000000e+00 0.000000000000e+00 
7.776000000000e+06 4.263413648324e-03 1.194260080440e-312 3.181500000000e+02 0.000000000000e+00 0.000000000000e+00 0.000000000000e+00 
7.862400000000e+06 4.350193329176e-03 -3.669706580125e-312 3.181500000000e+02 0.000000000000e+00 0.000000000000e+00 0.000000000000e+00 
7.948800000000e+06 4.435958973477e-03 1.790933250973e-312 3.181500000000e+02 0.000000000000e+00 0.000000000000e+00 0.000000000000e+00 
8.035200000000e+06 4.520681041045e-03 9.517485935817e-313 3.181500000000e+02 0.000000000000e+00 0.000000000000e+00 0.000000000000e+00 
8.121600000000e+06 4.604332658400e-03 2.009697382219e-312 3.181500000000e+02 0.000000000000e+00 0.000000000000e+00 0.000000000000e+00 
8.208000000000e+06 4.686889502974e-03 -4.252047365477e-312 3.181499999999e+02 0.000000000000e+00 0.000000000000e+00 0.000000000000e+00 
8.294400000000e+06 4.768329688912e-03 -1.719429780417e-313 3.181499999999e+02 0.000000000000e+00 0.000000000000e+00 0.000000000000e+00 
8.380800000000e+06 4.848633654807e-03 -6.757732560977e-313 3.181499999999e+02 0.000000000000e+00 0.000000000000e+00 0.000000000000e+00 
8.467200000000e+06 4.927784053655e-03 -1.919653852470e-313 3.181499999999e+02 0.000000000000e+00 0.000000000000e+00 0.000000000000e+00 
8.553600000000e+06 5.005765645295e-03 -1.414264841337e-312 3.181499999999e+02 0.000000000000e+00 0.000000000000e+00 0.000000000000e+00 
8.640000000000e+06 5.082565191515e-03 4.406444595352e-312 3.181499999999e+02 0.000000000000e+00 0.000000000000e+00 0.000000000000e+00 
8.726400000000e+06 5.158171353998e-03 -5.519238909924e-313 3.181499999999e+02 0.000000000000e+00 0.000000000000e+00 0.000000000000e+00 
8.812800000000e+06 5.232574595230e-03 1.381791692859e-312 3.181499999999e+02 0.000000000000e+00 0.000000000000e+00 0.000000000000e+00 
8.899200000000e+06 5.305767082472e-03 -2.248766566131e-312 3.181499999999e+02 0.000000000000e+00 0.000000000000e+00 0.000000000000e+00 
8.985600000000e+06 5.377742594860e-03 3.906207819878e-313 3.181499999999e+02 0.000000000000e+00 0.000000000000e+00 0.000000000000e+00 
9.072000000000e+06 5.448496433680e-03 -2.747129819058e-312 3.181499999999e+02 0.000000000000e+00 0.000000000000e+00 0.000000000000e+00 
9.158400000000e+06 5.518025335839e-03 1.411035135890e-312 3.181499999999e+02 0.000000000000e+00 0.000000000000e+00 0.000000000000e+00 
9.244800000000e+06 5.586327390540e-03 6.372525654355e-313 3.181499999999e+02 0.000000000000e+00 0.000000000000e+00 0.000000000000e+00 
9.331200000000e+06 5.653401959152e-03 1.518148113299e-312 3.181499999999e+02 0.000000000000e+00 0.000000000000e+00 0.000000000000e+00 
9.417600000000e+06 5.719249598243e-03 -1.085684544467e-312 3.181499999999e+02 0.000000000000e+00 0.000000000000e+00 0.000000000000e+00 
9.504000000000e+06 5.783871985742e-03 5.421199269279e-313 3.181499999999e+02 0.000000000000e+00 0.000000000000e+00 0.000000000000e+00 
9.590400000000e+06 5.847271850186e-03 -1.435949950921e-312 3.181499999999e+02 0.000000000000e+00 0.000000000000e+00 0.000000000000e+00 
9.676800000000e+06 5.909452902992e-03 7.339848165348e-314 3.181499999999e+02 0.000000000000e+00 0.000000000000e+00 0.000000000000e+00 
9.763200000000e+06 5.970419773695e-03 -1.036205198840e-312 3.181499999999e+02 0.000000000000e+00 0.000000000000e+00 0.000000000000e+00 
9.849600000000e+06 6.030177948074e-03 -4.272315531201e-312 3.181499999999e+02 0.000000000000e+00 0.000000000000e+00 0.000000000000e+00 
9.936000000000e+06 6.088733709107e-03 -2.412069545386e-313 3.181499999999e+02 0.000000000000e+00 0.000000000000e+00 0.000000000000e+00 
1.002240000000e+07 6.146094080662e-03 8.939920433903e-313 3.181499999999e+02 0.000000000000e+00 0.000000000000e+00 0.000000000000e+00 
1.010880000000e+07 6.202266773854e-03 -2.690746504650e-313 3.181499999999e+02 0.000000000000e+00 0.000000000000e+00 0.000000000000e+00 
1.019520000000e+07 6.257260135981e-03 -1.625740578147e-313 3.181499999999e+02 0.000000000000e+00 0.000000000000e+00 0.000000000000e+00 
1.028160000000e+07 6.311083101959e-03 -3.057753763177e-312 3.181499999999e+02 0.000000000000e+00 0.000000000000e+00 0.000000000000e+00 
1.036800000000e+07 6.363745148162e-03 -4.087978677489e-312 3.181499999999e+02 0.000000000000e+00 0.000000000000e+00 0.000000000000e+00 
1.045440000000e+07 6.415256248594e-03 3.253989763928e-312 3.181499999999e+02 0.000000000000e+00 0.000000000000e+00 0.000000000000e+00 
1.054080000000e+07 6.465626833300e-03 2.386609838802e-312 3.181499999999e+02 0.000000000000e+00 0.000000000000e+00 0.000000000000e+00 
1.062720000000e+07 6.514867748930e-03 -2.914213456959e-312 3.181499999999e+02 0.000000000000e+00 0.000000000000e+00 0.000000000000e+00 
1.071360000000e+07 6.562990221386e-03 4.936819224996e-313 3.181499999999e+02 0.000000000000e+00 0.000000000000e+00 0.000000000000e+00 
1.080000000000e+07 6.610005820447e-03 1.044765696600e-312 3.181499999999e+02 0.000000000000e+00 0.000000000000e+00 0.000000000000e+00 
1.088640000000e+07 6.655926426313e-03 4.171475896659e-312 3.181499999999e+02 0.000000000000e+00 0.000000000000e+00 0.000000000000e+00 
1.097280000000e+07 6.700764197974e-03 1.226134734425e-312 3.181499999999e+02 0.000000000000e+00 0.000000000000e+00 0.000000000000e+00 
1.105920000000e+07 6.744531543341e-03 1.066500415157e-312 3.181499999999e+02 0.000000000000e+00 0.000000000000e+00 0.000000000000e+00 
1.114560000000e+07 6.787241091036e-03 -2.474042446552e-313 3.181499999999e+02 0.000000000000e+00 0.000000000000e+00 0.000000000000e+00 
1.123200000000e+07 6.828905663808e-03 2.343881081683e-312 3.181499999999e+02 0.000000000000e+00 0.000000000000e+00 0.000000000000e+00 
1.131840000000e+07 6.869538253461e-03 2.273106665608e-312 3.181499999999e+02 0.000000000000e+00 0.000000000000e+00 0.000000000000e+00 
1.140480000000e+07 6.909151997256e-03 -6.146648304903e-314 3.181499999999e+02 0.000000000000e+00 0.000000000000e+00 0.000000000000e+00 
1.149120000000e+07 6.947760155706e-03 9.001541951580e-313 3.181499999999e+02 0.000000000000e+00 0.000000000000e+00 0.000000000000e+00 
1.157760000000e+07 6.985376091699e-03 -4.450504772357e-313 3.181499999999e+02 0.000000000000e+00 0.000000000000e+00 0.000000000000e+00 
1.166400000000e+07 7.022013250889e-03 3.814213890761e-312 3.181499999999e+02 0.000000000000e+00 0.000000000000e+00 0.000000000000e+00 
1.175040000000e+07 7.057685143292e-03 1.342346173496e-312 3.181499999999e+02 0.000000000000e+00 0.000000000000e+00 0.000000000000e+00 
1.183680000000e+07 7.092405326040e-03 1.097122375109e-312 3.181499999999e+02 0.000000000000e+00 0.000000000000e+00 0.000000000000e+00 
1.192320000000e+07 7.126187387213e-03 -2.190600328682e-312 3.181499999999e+02 0.000000000000e+00 0.000000000000e+00 0.000000000000e+00 
1.200960000000e+07 7.159044930720e-03 -4.273979356033e-313 3.181499999999e+02 0.000000000000e+00 0.000000000000e+00 0.000000000000e+00 
1.209600000000e+07 7.190991562164e-03 3.361607393357e-312 3.181499999999e+02 0.000000000000e+00 0.000000000000e+00 0.000000000000e+00 
1.218240000000e+07 7.222040875640e-03 8.999187240196e-313 3.181499999999e+02 0.000000000000e+00 0.000000000000e+00 0.000000000000e+00 
1.226880000000e+07 7.252206441432e-03 -7.916864477378e-313 3.181499999999e+02 0.000000000000e+00 0.000000000000e+00 0.000000000000e+00 
1.235520000000e+07 7.281501794542e-03 -1.683511830941e-312 3.181499999999e+02 0.000000000000e+00 0.000000000000e+00 0.000000000000e+00 
1.244160000000e+07 7.309940424026e-03 -4.326810382982e-312 3.181499999999e+02 0.000000000000e+00 0.000000000000e+00 0.000000000000e+00 
1.252800000000e+07 7.337535763089e-03 2.276597434913e-312 3.181499999998e+02 0.000000000000e+00 0.000000000000e+00 0.000000000000e+00 
1.261440000000e+07 7.364301179893e-03 -2.272366726302e-312 3.181499999998e+02 0.000000000000e+00 0.000000000000e+00 0.000000000000e+00 
1.270080000000e+07 7.390249969051e-03 -5.538980583669e-313 3.181499999998e+02 0.000000000000e+00 0.000000000000e+00 0.000000000000e+00 
1.278720000000e+07 7.415395343755e-03 8.743143259789e-313 3.181499999998e+02 0.000000000000e+00 0.000000000000e+00 0.000000000000e+00 
1.287360000000e+07 7.439750428529e-03 1.716282547772e-312 3.181499999998e+02 0.000000000000e+00 0.000000000000e+00 0.000000000000e+00 
1.296000000000e+07 7.463328252539e-03 1.928563468808e-312 3.181499999998e+02 0.000000000000e+00 0.000000000000e+00 0.000000000000e+00 
1.304640000000e+07 7.486141743458e-03 1.477890232268e-312 3.181499999998e+02 0.000000000000e+00 0.000000000000e+00 0.000000000000e+00 
1.313280000000e+07 7.508203721847e-03 -1.536879542318e-312 3.181499999998e+02 0.000000000000e+00 0.000000000000e+00 0.000000000000e+00 
1.321920000000e+07 7.529526896007e-03 2.472050879050e-313 3.181499999998e+02 0.000000000000e+00 0.000000000000e+00 0.000000000000e+00 
1.330560000000e+07 7.550123857307e-03 -1.159405068795e-313 3.181499999998e+02 0.000000000000e+00 0.000000000000e+00 0.000000000000e+00 
1.339200000000e+07 7.570007075925e-03 -9.165663836574e-313 3.181499999998e+02 0.000000000000e+00 0.000000000000e+00 0.000000000000e+00 
1.347840000000e+07 7.589188897014e-03 3.197466278018e-312 3.181499999998e+02 0.000000000000e+00 0.000000000000e+00 0.000000000000e+00 
1.356480000000e+07 7.607681537236e-03 -1.631371519776e-312 3.181499999998e+02 0.000000000000e+00 0.000000000000e+00 0.000000000000e+00 
1.365120000000e+07 7.625497081665e-03 2.845762060936e-313 3.181499999998e+02 0.000000000000e+00 0.000000000000e+00 0.000000000000e+00 
1.373760000000e+07 7.642647481028e-03 3.589698514358e-314 3.181499999998e+02 0.000000000000e+00 0.000000000000e+00 0.000000000000e+00 
1.382400000000e+07 7.659144549262e-03 4.771454620190e-313 3.181499999998e+02 0.000000000000e+00 0.000000000000e+00 0.000000000000e+00 
1.391040000000e+07 7.674999961379e-03 -5.436049653007e-312 3.181499999998e+02 0.000000000000e+00 0.000000000000e+00 0.000000000000e+00 
1.399680000000e+07 7.690225251605e-03 -7.998650978267e-313 3.181499999998e+02 0.000000000000e+00 0.000000000000e+00 0.000000000000e+00 
1.408320000000e+07 7.704831811783e-03 5.462148345930e-312 3.181499999998e+02 0.000000000000e+00 0.000000000000e+00 0.000000000000e+00 
1.416960000000e+07 7.718830890037e-03 8.263764305729e-313 3.181499999998e+02 0.000000000000e+00 0.000000000000e+00 0.000000000000e+00 
1.425600000000e+07 7.732233589650e-03 1.418585010494e-312 3.181499999998e+02 0.000000000000e+00 0.000000000000e+00 0.000000000000e+00 
1.434240000000e+07 7.745050868176e-03 -1.559226227165e-312 3.181499999998e+02 0.000000000000e+00 0.000000000000e+00 0.000000000000e+00 
1.442880000000e+07 7.757293536744e-03 1.495491880713e-312 3.181499999998e+02 0.000000000000e+00 0.000000000000e+00 0.000000000000e+00 
1.451520000000e+07 7.768972259566e-03 -5.083401474656e-312 3.181499999998e+02 0.000000000000e+00 0.000000000000e+00 0.000000000000e+00 
1.460160000000e+07 7.780097553606e-03 -1.219159371088e-312 3.181499999998e+02 0.000000000000e+00 0.000000000000e+00 0.000000000000e+00 
1.468800000000e+07 7.790679788434e-03 -1.094078201974e-312 3.181499999998e+02 0.000000000000e+00 0.000000000000e+00 0.000000000000e+00 
1.477440000000e+07 7.800729186221e-03 2.090999692352e-312 3.181499999998e+02 0.000000000000e+00 0.000000000000e+00 0.000000000000e+00 
1.486080000000e+07 7.810255821882e-03 -7.280554904014e-313 3.181499999998e+02 0.000000000000e+00 0.000000000000e+00 0.000000000000e+00 
1.494720000000e+07 7.819269623363e-03 -2.671438376672e-312 3.181499999998e+02 0.000000000000e+00 0.000000000000e+00 0.000000000000e+00 
1.503360000000e+07 7.827780372035e-03 5.603812700088e-313 3.181499999998e+02 0.000000000000e+00 0.000000000000e+00 0.000000000000e+00 
1.512000000000e+07 7.835797703224e-03 4.879614818722e-312 3.181499999998e+02 0.000000000000e+00 0.000000000000e+00 0.000000000000e+00 
1.520640000000e+07 7.843331106832e-03 4.040699986221e-313 3.181499999998e+02 0.000000000000e+00 0.000000000000e+00 0.000000000000e+00 
1.529280000000e+07 7.850389928066e-03 -9.542981674208e-313 3.181499999998e+02 0.000000000000e+00 0.000000000000e+00 0.000000000000e+00 
1.537920000000e+07 7.856983368259e-03 3.079235627391e-312 3.181499999998e+02 0.000000000000e+00 0.000000000000e+00 0.000000000000e+00 
1.546560000000e+07 7.863120485774e-03 -2.538879716175e-313 3.181499999998e+02 0.000000000000e+00 0.000000000000e+00 0.000000000000e+00 
1.555200000000e+07 7.868810196985e-03 2.418766527583e-312 3.181499999998e+02 0.000000000000e+00 0.000000000000e+00 0.000000000000e+00 
1.563840000000e+07 7.874061277331e-03 -6.942451809301e-313 3.181499999998e+02 0.000000000000e+00 0.000000000000e+00 0.000000000000e+00 
1.572480000000e+07 7.878882362436e-03 8.721561593486e-313 3.181499999998e+02 0.000000000000e+00 0.000000000000e+00 0.000000000000e+00 
1.581120000000e+07 7.883281949292e-03 3.616079298202e-312 3.181499999998e+02 0.000000000000e+00 0.000000000000e+00 0.000000000000e+00 
1.589760000000e+07 7.887268397489e-03 -2.649828082500e-312 3.181499999998e+02 0.000000000000e+00 0.000000000000e+00 0.000000000000e+00 
1.598400000000e+07 7.890849930503e-03 1.225102914386e-312 3.181499999998e+02 0.000000000000e+00 0.000000000000e+00 0.000000000000e+00 
1.607040000000e+07 7.894034637023e-03 -2.015811120272e-312 3.181499999997e+02 0.000000000000e+00 0.000000000000e+00 0.000000000000e+00 
1.615680000000e+07 7.896830472324e-03 -1.173810697697e-312 3.181499999997e+02 0.000000000000e+00 0.000000000000e+00 0.000000000000e+00 
1.624320000000e+07 7.899245259674e-03 -1.710216345104e-312 3.181499999997e+02 0.000000000000e+00 0.000000000000e+00 0.000000000000e+00 
1.632960000000e+07 7.901286691769e-03 1.030710721655e-312 3.181499999997e+02 0.000000000000e+00 0.000000000000e+00 0.000000000000e+00 
1.641600000000e+07 7.902962332206e-03 1.086645533002e-312 3.181499999997e+02 0.000000000000e+00 0.000000000000e+00 0.000000000000e+00 
1.650240000000e+07 7.904279616974e-03 9.990498433087e-313 3.181499999997e+02 0.000000000000e+00 0.000000000000e+00 0.000000000000e+00 
1.658880000000e+07 7.905245855972e-03 4.158842821369e-312 3.181499999997e+02 0.000000000000e+00 0.000000000000e+00 0.000000000000e+00 
1.667520000000e+07 7.905868234541e-03 2.145545008734e-313 3.181499999997e+02 0.000000000000e+00 0.000000000000e+00 0.000000000000e+00 
1.676160000000e+07 7.906153815018e-03 8.235166060228e-313 3.181499999997e+02 0.000000000000e+00 0.000000000000e+00 0.000000000000e+00 
1.684800000000e+07 7.906109538300e-03 1.599077871918e-312 3.181499999997e+02 0.000000000000e+00 0.000000000000e+00 0.000000000000e+00 
1.693440000000e+07 7.905742225417e-03 -1.254121074372e-312 3.181499999997e+02 0.000000000000e+00 0.000000000000e+00 0.000000000000e+00 
1.702080000000e+07 7.905058579123e-03 2.610116268606e-313 3.181499999997e+02 0.000000000000e+00 0.000000000000e+00 0.000000000000e+00 
1.710720000000e+07 7.904065185481e-03 5.660983989295e-313 3.181499999997e+02 0.000000000000e+00 0.000000000000e+00 0.000000000000e+00 
1.719360000000e+07 7.902768515462e-03 5.045488639553e-312 3.181499999997e+02 0.000000000000e+00 0.000000000000e+00 0.000000000000e+00 
1.728000000000e+07 7.901174926543e-03 -1.244418181553e-312 3.181499999997e+02 0.000000000000e+00 0.000000000000e+00 0.000000000000e+00 
1.736640000000e+07 7.899290664308e-03 -1.534833789940e-312 3.181499999997e+02 0.000000000000e+00 0.000000000000e+00 0.000000000000e+00 
1.745280000000e+07 7.897121864041e-03 -1.218572682175e-312 3.181499999997e+02 0.000000000000e+00 0.000000000000e+00 0.000000000000e+00 
1.753920000000e+07 7.894674552329e-03 -5.382162225788e-312 3.181499999997e+02 0.000000000000e+00 0.000000000000e+00 0.000000000000e+00 
1.762560000000e+07 7.891954648651e-03 3.101685755883e-312 3.181499999997e+02 0.000000000000e+00 0.000000000000e+00 0.000000000000e+00 
1.771200000000e+07 7.888967966963e-03 1.864451752402e-312 3.181499999997e+02 0.000000000000e+00 0.000000000000e+00 0.000000000000e+00 
1.779840000000e+07 7.885720217286e-03 -3.212141202780e-312 3.181499999997e+02 0.000000000000e+00 0.000000000000e+00 0.000000000000e+00 
1.788480000000e+07 7.882217007271e-03 1.256220632702e-312 3.181499999997e+02 0.000000000000e+00 0.000000000000e+00 0.000000000000e+00 
1.797120000000e+07 7.878463843770e-03 -2.832456914106e-312 3.181499999997e+02 0.000000000000e+00 0.000000000000e+00 0.000000000000e+00 
1.805760000000e+07 7.874466134391e-03 4.719423427795e-312 3.181499999997e+02 0.000000000000e+00 0.000000000000e+00 0.000000000000e+00 
1.814400000000e+07 7.870229189041e-03 1.817288658178e-312 3.181499999997e+02 0.000000000000e+00 0.000000000000e+00 0.000000000000e+00 
1.823040000000e+07 7.865758221460e-03 -1.652237536142e-312 3.181499999997e+02 0.000000000000e+00 0.000000000000e+00 0.000000000000e+00 
1.831680000000e+07 7.861058350746e-03 -4.605056647580e-312 3.181499999997e+02 0.000000000000e+00 0.000000000000e+00 0.000000000000e+00 
1.840320000000e+07 7.856134602862e-03 -1.179827918543e-312 3.181499999997e+02 0.000000000000e+00 0.000000000000e+00 0.000000000000e+00 
1.848960000000e+07 7.850991912131e-03 2.323998718981e-312 3.181499999997e+02 0.000000000000e+00 0.000000000000e+00 0.000000000000e+00 
1.857600000000e+07 7.845635122723e-03 2.405393152302e-312 3.181499999997e+02 0.000000000000e+00 0.000000000000e+00 0.000000000000e+00 
1.866240000000e+07 7.840068990118e-03 9.252137422486e-313 3.181499999997e+02 0.000000000000e+00 0.000000000000e+00 0.000000000000e+00 
1.874880000000e+07 7.834298182561e-03 6.326826009964e-314 3.181499999997e+02 0.000000000000e+00 0.000000000000e+00 0.000000000000e+00 
1.883520000000e+07 7.828327282503e-03 -2.483806013991e-313 3.181499999997e+02 0.000000000000e+00 0.000000000000e+00 0.000000000000e+00 
1.892160000000e+07 7.822160788016e-03 1.995529520760e-312 3.181499999997e+02 0.000000000000e+00 0.000000000000e+00 0.000000000000e+00 