 TITLE = "Time curves in points"
 VARIABLES = "TIME"  "PRESSURE1"  "PRESSURE2"  "PRESSURE_W"  "SATURATION1" SATURATION2  "VELOCITY_X1"  "VELOCITY_Y1"  "VELOCITY_X2"  "VELOCITY_Y2" 
 ZONE T="POINT=POINT4"
0.000000000000e+00 5.000000000000e+04 0.000000000000e+00 -5.000000000000e+04 1.000000000000e-02 9.900000000000e-01 0.000000000000e+00 0.000000000000e+00 0.000000000000e+00 0.000000000000e+00 
1.000000000000e+01 5.000000000000e+03 2.000000000000e+05 1.950000000000e+05 4.153274421487e-01 5.846725578513e-01 6.594387002550e-04 9.331047254597e-18 -5.606085273568e-05 -1.782213386468e-16 
7.000000000000e+01 5.000000000000e+03 2.000000000000e+05 1.950000000000e+05 8.601041578031e-01 1.398958421969e-01 1.978800321035e-03 6.296590495559e-17 1.064309454091e-04 -6.363065381772e-17 
1.130000000000e+02 5.000000000000e+03 2.000000000000e+05 1.950000000000e+05 9.523964309102e-01 4.760356908982e-02 6.076752141931e-04 -5.151665484879e-17 6.418189312974e-05 1.117872470983e-16 
1.517000000000e+02 5.000000000000e+03 2.000000000000e+05 1.950000000000e+05 9.704541895532e-01 2.954581044684e-02 2.705102963246e-04 1.796528568342e-17 3.568540243063e-05 3.084015752915e-17 
1.865300000000e+02 5.000000000000e+03 2.000000000000e+05 1.950000000000e+05 9.737861057961e-01 2.621389420390e-02 2.170053308280e-04 -7.536813548153e-18 3.012883162272e-05 2.421561621358e-17 
2.185940129892e+02 5.000000000000e+03 2.000000000000e+05 1.950000000000e+05 9.743085743930e-01 2.569142560700e-02 2.089947739779e-04 -5.059505507601e-17 2.926215773438e-05 5.918782792941e-17 
2.497595926382e+02 5.000000000000e+03 2.000000000000e+05 1.950000000000e+05 9.746350251015e-01 2.536497489851e-02 2.040455870376e-04 1.121051636895e-16 2.872174816185e-05 -4.635755384280e-17 
2.820777296934e+02 5.000000000000e+03 2.000000000000e+05 1.950000000000e+05 9.754669901293e-01 2.453300987071e-02 1.916325655924e-04 -2.834836232435e-17 2.734906659062e-05 -1.624876328207e-18 
3.910388648467e+02 5.000000000000e+03 2.000000000000e+05 1.950000000000e+05 9.790024388709e-01 2.099756112913e-02 1.423264402296e-04 9.114930001017e-17 2.162281089900e-05 -1.135403747435e-16 
5.000000000000e+02 5.000000000000e+03 2.000000000000e+05 1.950000000000e+05 9.806441390623e-01 1.935586093768e-02 1.214924650549e-04 -5.640330610989e-17 1.904867840953e-05 -2.148330112775e-17 
6.000000000000e+02 5.000000000000e+03 2.000000000000e+05 1.950000000000e+05 9.814112222844e-01 1.858877771562e-02 1.122410586067e-04 -7.848248498508e-17 1.787046798212e-05 4.385430639096e-17 
6.881340553097e+02 5.000000000000e+03 2.000000000000e+05 1.950000000000e+05 9.822413480426e-01 1.775865195741e-02 1.025893942424e-04 9.131044215659e-18 1.661563884533e-05 1.269530438495e-17 
7.716208697366e+02 5.000000000000e+03 2.000000000000e+05 1.950000000000e+05 9.830927493624e-01 1.690725063756e-02 9.308971643558e-05 -1.923337348581e-17 1.535270225387e-05 2.096821469617e-17 
1.000000000000e+03 5.000000000000e+03 2.000000000000e+05 1.950000000000e+05 9.842113276505e-01 1.578867234946e-02 8.124167139288e-05 2.710616236925e-17 1.373456610483e-05 -3.182886916076e-17 
1.200000000000e+03 5.000000000000e+03 2.000000000000e+05 1.950000000000e+05 9.849846979930e-01 1.501530200702e-02 7.348151944086e-05 4.135685091890e-17 1.264589843521e-05 -1.136910151905e-17 
1.360000000000e+03 5.000000000000e+03 2.000000000000e+05 1.950000000000e+05 9.855771902384e-01 1.442280976161e-02 6.778039237417e-05 1.485718378093e-17 1.182994808166e-05 -2.055303602102e-17 
1.495279778589e+03 5.000000000000e+03 2.000000000000e+05 1.950000000000e+05 9.859998630293e-01 1.400013697073e-02 6.384471065423e-05 1.252037889333e-17 1.125803475291e-05 -2.188670317698e-17 
1.661888532386e+03 5.000000000000e+03 2.000000000000e+05 1.950000000000e+05 9.864437920253e-01 1.355620797469e-02 5.983031362789e-05 2.265952794731e-17 1.066691099068e-05 -1.712475749525e-17 
2.000000000000e+03 5.000000000000e+03 2.000000000000e+05 1.950000000000e+05 9.871508154699e-01 1.284918453007e-02 5.369201696818e-05 1.637547744608e-18 9.746674504603e-06 -5.751831226749e-18 
2.400000000000e+03 5.000000000000e+03 2.000000000000e+05 1.950000000000e+05 9.877509494821e-01 1.224905051787e-02 4.873092260898e-05 1.627987604254e-18 8.987132805991e-06 1.985453119376e-17 
2.720000000000e+03 5.000000000000e+03 2.000000000000e+05 1.950000000000e+05 9.881738490823e-01 1.182615091773e-02 4.537402756307e-05 7.244951015470e-17 8.464425729622e-06 -2.017546732676e-17 
2.976000000000e+03 5.000000000000e+03 2.000000000000e+05 1.950000000000e+05 9.884791362246e-01 1.152086377541e-02 4.302278312957e-05 -6.279984162871e-17 8.093777148267e-06 -1.282519618465e-17 
3.216415770480e+03 5.000000000000e+03 2.000000000000e+05 1.950000000000e+05 9.887473994162e-01 1.125260058384e-02 4.100686704786e-05 8.062117779764e-17 7.772843162977e-06 -7.362748456465e-18 
3.608207885240e+03 5.000000000000e+03 2.000000000000e+05 1.950000000000e+05 9.891268589552e-01 1.087314104483e-02 3.823594391661e-05 1.331218821657e-16 7.326699903160e-06 -4.521385955870e-18 
4.000000000000e+03 5.000000000000e+03 2.000000000000e+05 1.950000000000e+05 9.894487265083e-01 1.055127349173e-02 3.595998879016e-05 3.017220281929e-17 6.955650068601e-06 -4.358911570529e-18 
4.310567134768e+03 5.000000000000e+03 2.000000000000e+05 1.950000000000e+05 9.896815126972e-01 1.031848730276e-02 3.435670724364e-05 3.366933205315e-17 6.691626589838e-06 4.005788175998e-19 
4.611450223897e+03 5.000000000000e+03 2.000000000000e+05 1.950000000000e+05 9.898883671960e-01 1.011163280405e-02 3.296226428613e-05 -7.226081651602e-17 6.460131617450e-06 1.349654793426e-17 
5.053133590226e+03 5.000000000000e+03 2.000000000000e+05 1.950000000000e+05 9.901553068127e-01 9.844693187258e-03 3.120496582056e-05 8.570669398798e-17 6.165814413381e-06 -8.929429987227e-18 
5.442506872181e+03 5.000000000000e+03 2.000000000000e+05 1.950000000000e+05 9.903687684708e-01 9.631231529195e-03 2.983403303412e-05 -3.941109471076e-17 5.934111995021e-06 4.796338229364e-18 
5.820723371617e+03 5.000000000000e+03 2.000000000000e+05 1.950000000000e+05 9.905571919881e-01 9.442808011862e-03 2.864931424646e-05 -2.973601343816e-17 5.732333687473e-06 -2.279904393827e-18 
7.000000000000e+03 5.000000000000e+03 2.000000000000e+05 1.950000000000e+05 9.909955566794e-01 9.004443320623e-03 2.607976627772e-05 -4.078521932584e-17 5.272586453727e-06 -7.156472757575e-18 
7.317354799567e+03 5.000000000000e+03 2.000000000000e+05 1.950000000000e+05 9.910990196663e-01 8.900980333731e-03 2.537580811632e-05 4.457527811796e-18 5.166825754740e-06 -7.407403590339e-18 
7.803934932079e+03 5.000000000000e+03 2.000000000000e+05 1.950000000000e+05 9.912533063601e-01 8.746693639938e-03 2.447995433628e-05 3.898378873972e-17 5.009888676141e-06 -1.150018434103e-17 
8.243147945663e+03 5.000000000000e+03 2.000000000000e+05 1.950000000000e+05 9.913873532147e-01 8.612646785324e-03 2.371471600274e-05 7.885195230424e-18 4.875044969725e-06 -7.184813522193e-18 
9.121573972832e+03 5.000000000000e+03 2.000000000000e+05 1.950000000000e+05 9.916255554360e-01 8.374444563958e-03 2.238497001473e-05 -1.891592195159e-17 4.638930337357e-06 3.138495807742e-18 
1.000000000000e+04 5.000000000000e+03 2.000000000000e+05 1.950000000000e+05 9.918352732926e-01 8.164726707431e-03 2.124616145125e-05 1.744803440952e-17 4.434820090083e-06 3.387803420733e-18 
