 TITLE = "Profiles along polylines"
 VARIABLES = "DIST" "PRESSURE1" "PRESSURE2" "PRESSURE_W" "SATURATION1" SATURATION2 "VELOCITY_X1" "VELOCITY_Y1" "VELOCITY_X2" "VELOCITY_Y2" 
 ZONE T="TIME=0.000000000000e+00"
0.000000000000e+00 5.000000000000e+04 0.000000000000e+00 -5.000000000000e+04 1.000000000000e-02 9.900000000000e-01 0.000000000000e+00 0.000000000000e+00 0.000000000000e+00 0.000000000000e+00 
8.965517241379e-02 5.000000000000e+04 0.000000000000e+00 -5.000000000000e+04 1.000000000000e-02 9.900000000000e-01 0.000000000000e+00 0.000000000000e+00 0.000000000000e+00 0.000000000000e+00 
1.793103448276e-01 5.000000000000e+04 0.000000000000e+00 -5.000000000000e+04 1.000000000000e-02 9.900000000000e-01 0.000000000000e+00 0.000000000000e+00 0.000000000000e+00 0.000000000000e+00 
2.689655172414e-01 5.000000000000e+04 0.000000000000e+00 -5.000000000000e+04 1.000000000000e-02 9.900000000000e-01 0.000000000000e+00 0.000000000000e+00 0.000000000000e+00 0.000000000000e+00 
3.586206896552e-01 5.000000000000e+04 0.000000000000e+00 -5.000000000000e+04 1.000000000000e-02 9.900000000000e-01 0.000000000000e+00 0.000000000000e+00 0.000000000000e+00 0.000000000000e+00 
4.482758620690e-01 5.000000000000e+04 0.000000000000e+00 -5.000000000000e+04 1.000000000000e-02 9.900000000000e-01 0.000000000000e+00 0.000000000000e+00 0.000000000000e+00 0.000000000000e+00 
5.379310344828e-01 5.000000000000e+04 0.000000000000e+00 -5.000000000000e+04 1.000000000000e-02 9.900000000000e-01 0.000000000000e+00 0.000000000000e+00 0.000000000000e+00 0.000000000000e+00 
6.275862068966e-01 5.000000000000e+04 0.000000000000e+00 -5.000000000000e+04 1.000000000000e-02 9.900000000000e-01 0.000000000000e+00 0.000000000000e+00 0.000000000000e+00 0.000000000000e+00 
7.172413793105e-01 5.000000000000e+04 0.000000000000e+00 -5.000000000000e+04 1.000000000000e-02 9.900000000000e-01 0.000000000000e+00 0.000000000000e+00 0.000000000000e+00 0.000000000000e+00 
8.068965517245e-01 5.000000000000e+04 0.000000000000e+00 -5.000000000000e+04 1.000000000000e-02 9.900000000000e-01 0.000000000000e+00 0.000000000000e+00 0.000000000000e+00 0.000000000000e+00 
8.965517241385e-01 5.000000000000e+04 0.000000000000e+00 -5.000000000000e+04 1.000000000000e-02 9.900000000000e-01 0.000000000000e+00 0.000000000000e+00 0.000000000000e+00 0.000000000000e+00 
9.862068965524e-01 5.000000000000e+04 0.000000000000e+00 -5.000000000000e+04 1.000000000000e-02 9.900000000000e-01 0.000000000000e+00 0.000000000000e+00 0.000000000000e+00 0.000000000000e+00 
1.075862068966e+00 5.000000000000e+04 0.000000000000e+00 -5.000000000000e+04 1.000000000000e-02 9.900000000000e-01 0.000000000000e+00 0.000000000000e+00 0.000000000000e+00 0.000000000000e+00 
1.165517241380e+00 5.000000000000e+04 0.000000000000e+00 -5.000000000000e+04 1.000000000000e-02 9.900000000000e-01 0.000000000000e+00 0.000000000000e+00 0.000000000000e+00 0.000000000000e+00 
1.255172413794e+00 5.000000000000e+04 0.000000000000e+00 -5.000000000000e+04 1.000000000000e-02 9.900000000000e-01 0.000000000000e+00 0.000000000000e+00 0.000000000000e+00 0.000000000000e+00 
1.344827586208e+00 5.000000000000e+04 0.000000000000e+00 -5.000000000000e+04 1.000000000000e-02 9.900000000000e-01 0.000000000000e+00 0.000000000000e+00 0.000000000000e+00 0.000000000000e+00 
1.434482758622e+00 5.000000000000e+04 0.000000000000e+00 -5.000000000000e+04 1.000000000000e-02 9.900000000000e-01 0.000000000000e+00 0.000000000000e+00 0.000000000000e+00 0.000000000000e+00 
1.524137931036e+00 5.000000000000e+04 0.000000000000e+00 -5.000000000000e+04 1.000000000000e-02 9.900000000000e-01 0.000000000000e+00 0.000000000000e+00 0.000000000000e+00 0.000000000000e+00 
1.613793103450e+00 5.000000000000e+04 0.000000000000e+00 -5.000000000000e+04 1.000000000000e-02 9.900000000000e-01 0.000000000000e+00 0.000000000000e+00 0.000000000000e+00 0.000000000000e+00 
1.703448275863e+00 5.000000000000e+04 0.000000000000e+00 -5.000000000000e+04 1.000000000000e-02 9.900000000000e-01 0.000000000000e+00 0.000000000000e+00 0.000000000000e+00 0.000000000000e+00 
1.793103448277e+00 5.000000000000e+04 0.000000000000e+00 -5.000000000000e+04 1.000000000000e-02 9.900000000000e-01 0.000000000000e+00 0.000000000000e+00 0.000000000000e+00 0.000000000000e+00 
1.882758620691e+00 5.000000000000e+04 0.000000000000e+00 -5.000000000000e+04 1.000000000000e-02 9.900000000000e-01 0.000000000000e+00 0.000000000000e+00 0.000000000000e+00 0.000000000000e+00 
1.972413793105e+00 5.000000000000e+04 0.000000000000e+00 -5.000000000000e+04 1.000000000000e-02 9.900000000000e-01 0.000000000000e+00 0.000000000000e+00 0.000000000000e+00 0.000000000000e+00 
2.062068965518e+00 5.000000000000e+04 0.000000000000e+00 -5.000000000000e+04 1.000000000000e-02 9.900000000000e-01 0.000000000000e+00 0.000000000000e+00 0.000000000000e+00 0.000000000000e+00 
2.151724137932e+00 5.000000000000e+04 0.000000000000e+00 -5.000000000000e+04 1.000000000000e-02 9.900000000000e-01 0.000000000000e+00 0.000000000000e+00 0.000000000000e+00 0.000000000000e+00 
2.241379310346e+00 5.000000000000e+04 0.000000000000e+00 -5.000000000000e+04 1.000000000000e-02 9.900000000000e-01 0.000000000000e+00 0.000000000000e+00 0.000000000000e+00 0.000000000000e+00 
2.331034482759e+00 5.000000000000e+04 0.000000000000e+00 -5.000000000000e+04 1.000000000000e-02 9.900000000000e-01 0.000000000000e+00 0.000000000000e+00 0.000000000000e+00 0.000000000000e+00 
2.420689655173e+00 5.000000000000e+04 0.000000000000e+00 -5.000000000000e+04 1.000000000000e-02 9.900000000000e-01 0.000000000000e+00 0.000000000000e+00 0.000000000000e+00 0.000000000000e+00 
2.510344827586e+00 5.000000000000e+04 0.000000000000e+00 -5.000000000000e+04 1.000000000000e-02 9.900000000000e-01 0.000000000000e+00 0.000000000000e+00 0.000000000000e+00 0.000000000000e+00 
2.600000000000e+00 5.000000000000e+04 0.000000000000e+00 -5.000000000000e+04 1.000000000000e-02 9.900000000000e-01 0.000000000000e+00 0.000000000000e+00 0.000000000000e+00 0.000000000000e+00 
 TITLE = "Profiles along polylines"
 VARIABLES = "DIST" "PRESSURE1" "PRESSURE2" "PRESSURE_W" "SATURATION1" SATURATION2 "VELOCITY_X1" "VELOCITY_Y1" "VELOCITY_X2" "VELOCITY_Y2" 
 ZONE T="TIME=5.000000000000e+02"
0.000000000000e+00 5.000000000000e+03 2.000000000000e+05 1.950000000000e+05 9.806441390623e-01 1.935586093765e-02 1.214924650534e-04 -2.620942030021e-17 1.904867840950e-05 3.554698429765e-18 
8.965517241379e-02 6.518704490580e+03 2.013910865260e+05 1.948723820354e+05 5.800717785454e-01 4.199282214546e-01 4.520161079887e-05 -2.129158475946e-18 -9.532014849892e-05 -5.307247417567e-17 
1.793103448276e-01 7.433716157484e+03 2.016620372381e+05 1.942283210806e+05 4.249401436887e-01 5.750598563113e-01 9.746337478038e-05 1.103965667857e-17 -4.792370657474e-05 3.497051609095e-16 
2.689655172414e-01 1.488557288256e+04 2.017352676754e+05 1.868496947928e+05 8.603062322877e-02 9.139693767712e-01 -8.872711519891e-06 2.266108135743e-18 -3.315528169011e-05 -4.077472913397e-15 
3.586206896552e-01 4.878582336612e+04 2.017355372204e+05 1.529497138542e+05 7.135452893192e-03 9.928645471068e-01 -7.115377225404e-08 -7.197907493165e-21 -1.491826827834e-07 -6.400134609007e-15 
4.482758620690e-01 4.999984459207e+04 2.017355372338e+05 1.517356926417e+05 9.999148412177e-03 9.900008515878e-01 6.755931424850e-12 -2.691161077283e-23 -7.210287156110e-12 -2.105900095656e-15 
5.379310344828e-01 4.999999998169e+04 2.017355372335e+05 1.517355372519e+05 1.000000000731e-02 9.899999999927e-01 8.667007807741e-16 8.371873090373e-25 2.690359154397e-13 1.453685815986e-17 
6.275862068966e-01 5.000000000000e+04 2.017355372333e+05 1.517355372333e+05 1.000000000000e-02 9.900000000000e-01 1.048747602552e-19 5.088578048710e-24 2.707858950054e-13 5.316700642160e-16 
7.172413793105e-01 5.000000000000e+04 2.017355372330e+05 1.517355372330e+05 1.000000000000e-02 9.900000000000e-01 2.748580413926e-21 -1.419377476916e-23 2.682225432499e-13 -1.403076663247e-15 
8.068965517245e-01 5.000000000000e+04 2.017355372328e+05 1.517355372328e+05 1.000000000000e-02 9.900000000000e-01 2.653414955144e-21 -3.251981769190e-23 2.600000430875e-13 -3.235458205642e-15 
8.965517241385e-01 5.000000000000e+04 2.017355372326e+05 1.517355372326e+05 1.000000000000e-02 9.900000000000e-01 2.562432141009e-21 -5.921715901295e-24 2.511102351511e-13 -5.835548091030e-16 
9.862068965524e-01 5.000000000000e+04 2.017355372323e+05 1.517355372323e+05 1.000000000000e-02 9.900000000000e-01 2.484559079649e-21 -2.697694684684e-24 2.435189294446e-13 -2.231123920841e-16 
1.075862068966e+00 5.000000000000e+04 2.017355372321e+05 1.517355372321e+05 1.000000000000e-02 9.900000000000e-01 2.397039525096e-21 -4.024363892859e-23 2.348916153041e-13 -3.840421660087e-15 
1.165517241380e+00 5.000000000000e+04 2.017355372319e+05 1.517355372319e+05 1.000000000000e-02 9.900000000000e-01 2.273021525638e-21 -6.384636595032e-23 2.227983674794e-13 -6.188104087124e-15 
1.255172413794e+00 5.000000000000e+04 2.017355372317e+05 1.517355372317e+05 1.000000000000e-02 9.900000000000e-01 2.117969214922e-21 -6.526272317753e-23 2.076107968175e-13 -6.240953799530e-15 
1.344827586208e+00 5.000000000000e+04 2.017355372315e+05 1.517355372315e+05 1.000000000000e-02 9.900000000000e-01 1.973629759625e-21 -4.913425793107e-23 1.934371421145e-13 -4.638943282022e-15 
1.434482758622e+00 5.000000000000e+04 2.017355372314e+05 1.517355372314e+05 1.000000000000e-02 9.900000000000e-01 1.875345376398e-21 -2.647178276724e-23 1.837614256387e-13 -2.399948557442e-15 
1.524137931036e+00 5.000000000000e+04 2.017355372312e+05 1.517355372312e+05 1.000000000000e-02 9.900000000000e-01 1.803538311636e-21 -2.217070927275e-23 1.767403002252e-13 -2.125106999133e-15 
1.613793103450e+00 5.000000000000e+04 2.017355372310e+05 1.517355372310e+05 1.000000000000e-02 9.900000000000e-01 1.703043807373e-21 -4.583430278148e-23 1.668807646897e-13 -4.523638835900e-15 
1.703448275863e+00 5.000000000000e+04 2.017355372309e+05 1.517355372309e+05 1.000000000000e-02 9.900000000000e-01 1.550704157496e-21 -5.334319351420e-23 1.519455516828e-13 -5.309624615636e-15 
1.793103448277e+00 5.000000000000e+04 2.017355372308e+05 1.517355372308e+05 1.000000000000e-02 9.900000000000e-01 1.379279451568e-21 -3.841060690811e-23 1.352024833342e-13 -3.793584050115e-15 
1.882758620691e+00 5.000000000000e+04 2.017355372306e+05 1.517355372306e+05 1.000000000000e-02 9.900000000000e-01 1.226400679044e-21 -3.261809439723e-23 1.202609010684e-13 -3.212866207618e-15 
1.972413793105e+00 5.000000000000e+04 2.017355372305e+05 1.517355372305e+05 1.000000000000e-02 9.900000000000e-01 1.083132121139e-21 -5.197047341547e-23 1.060576556274e-13 -4.964621957818e-15 
2.062068965518e+00 5.000000000000e+04 2.017355372305e+05 1.517355372305e+05 1.000000000000e-02 9.900000000000e-01 9.192414882743e-22 -7.221237753809e-23 9.005753829497e-14 -7.146354549978e-15 
2.151724137932e+00 5.000000000000e+04 2.017355372304e+05 1.517355372304e+05 1.000000000000e-02 9.900000000000e-01 7.390202514350e-22 -7.367276191356e-23 7.240829376148e-14 -7.222465424619e-15 
2.241379310346e+00 5.000000000000e+04 2.017355372303e+05 1.517355372303e+05 1.000000000000e-02 9.900000000000e-01 5.728126661048e-22 -5.455090063453e-23 5.614923891492e-14 -5.340377654939e-15 
2.331034482759e+00 5.000000000000e+04 2.017355372303e+05 1.517355372303e+05 1.000000000000e-02 9.900000000000e-01 4.332201045793e-22 -3.803943059490e-23 4.246914010650e-14 -3.646954548277e-15 
2.420689655173e+00 5.000000000000e+04 2.017355372302e+05 1.517355372302e+05 1.000000000000e-02 9.900000000000e-01 3.328682587688e-22 -3.664093004049e-23 3.266545114241e-14 -3.609749590156e-15 
2.510344827586e+00 5.000000000000e+04 2.017355372302e+05 1.517355372302e+05 1.000000000000e-02 9.900000000000e-01 1.669005614428e-22 -2.458034247475e-23 1.635202530114e-14 -2.323486973881e-15 
2.600000000000e+00 5.000000000000e+04 2.017355372302e+05 1.517355372302e+05 1.000000000000e-02 9.900000000000e-01 3.738820414697e-23 -4.964517732784e-23 3.529750719985e-15 -4.898783923404e-15 
 TITLE = "Profiles along polylines"
 VARIABLES = "DIST" "PRESSURE1" "PRESSURE2" "PRESSURE_W" "SATURATION1" SATURATION2 "VELOCITY_X1" "VELOCITY_Y1" "VELOCITY_X2" "VELOCITY_Y2" 
 ZONE T="TIME=1.000000000000e+03"
0.000000000000e+00 5.000000000000e+03 2.000000000000e+05 1.950000000000e+05 9.842113276507e-01 1.578867234935e-02 8.124167139446e-05 1.001710366639e-17 1.373456610463e-05 -1.651455942341e-17 
8.965517241379e-02 6.346915784822e+03 2.012637250997e+05 1.949168093148e+05 6.141296916068e-01 3.858703083932e-01 3.074571930060e-05 7.427529716289e-17 -6.963610551122e-05 1.371105890406e-16 
1.793103448276e-01 6.943964934706e+03 2.015327441664e+05 1.945887792317e+05 5.168569868531e-01 4.831430131469e-01 3.964108203841e-05 5.438513682715e-17 -3.891118201550e-05 3.215611675393e-16 
2.689655172414e-01 7.779381656668e+03 2.016756076086e+05 1.938962259519e+05 4.023229426231e-01 5.976770573769e-01 5.794563935131e-05 6.383189930170e-17 -3.303993826208e-05 1.533759241403e-15 
3.586206896552e-01 1.194978216115e+04 2.017359224289e+05 1.897861402678e+05 1.407389009495e-01 8.592610990505e-01 -2.874039054953e-07 -5.843811050754e-18 -2.319323161634e-05 2.891729783396e-15 
4.482758620690e-01 4.301717712776e+04 2.017370890724e+05 1.587199119447e+05 8.263190225820e-03 9.917368097742e-01 -3.016950181839e-07 2.255346253267e-19 -6.464635935039e-07 4.249440911599e-15 
5.379310344828e-01 4.999717612871e+04 2.017370892088e+05 1.517399130801e+05 9.965444640157e-03 9.900345553598e-01 3.433942807688e-11 2.680798172432e-23 -7.448232294910e-11 6.034553100628e-15 
6.275862068966e-01 4.999999933053e+04 2.017370892087e+05 1.517370898781e+05 1.000000026301e-02 9.899999997370e-01 1.574851479179e-14 5.577869881721e-23 1.156102202587e-13 5.381748713602e-15 
7.172413793105e-01 4.999999999984e+04 2.017370892085e+05 1.517370892087e+05 1.000000000006e-02 9.899999999999e-01 3.735109882295e-18 4.612344986531e-23 1.495881161472e-13 4.544508940048e-15 
8.068965517245e-01 5.000000000000e+04 2.017370892084e+05 1.517370892084e+05 1.000000000000e-02 9.900000000000e-01 2.580335984642e-21 5.474558141102e-23 1.662264319016e-13 5.422668255461e-15 
8.965517241385e-01 5.000000000000e+04 2.017370892082e+05 1.517370892082e+05 1.000000000000e-02 9.900000000000e-01 1.851782897258e-21 6.636093814828e-23 1.814822339057e-13 6.491169458211e-15 
9.862068965524e-01 5.000000000000e+04 2.017370892081e+05 1.517370892081e+05 1.000000000000e-02 9.900000000000e-01 1.987591859612e-21 6.357817285267e-23 1.947652849938e-13 6.352973793513e-15 
1.075862068966e+00 5.000000000000e+04 2.017370892079e+05 1.517370892079e+05 1.000000000000e-02 9.900000000000e-01 2.086147674272e-21 4.595497250960e-23 2.044443851954e-13 4.647469148954e-15 
1.165517241380e+00 5.000000000000e+04 2.017370892077e+05 1.517370892077e+05 1.000000000000e-02 9.900000000000e-01 2.132003042872e-21 2.159076854411e-23 2.089466864184e-13 2.198201718132e-15 
1.255172413794e+00 5.000000000000e+04 2.017370892075e+05 1.517370892075e+05 1.000000000000e-02 9.900000000000e-01 2.120420133851e-21 -2.921267478103e-24 2.078445551014e-13 -1.533679777825e-16 
1.344827586208e+00 5.000000000000e+04 2.017370892073e+05 1.517370892073e+05 1.000000000000e-02 9.900000000000e-01 2.058169445944e-21 -2.243869615810e-23 2.017489062365e-13 -2.120889956835e-15 
1.434482758622e+00 5.000000000000e+04 2.017370892071e+05 1.517370892071e+05 1.000000000000e-02 9.900000000000e-01 1.958391402699e-21 -3.713643362475e-23 1.919061171300e-13 -3.539351721128e-15 
1.524137931036e+00 5.000000000000e+04 2.017370892070e+05 1.517370892070e+05 1.000000000000e-02 9.900000000000e-01 1.831843581052e-21 -4.418877308481e-23 1.794685835274e-13 -4.262569429864e-15 
1.613793103450e+00 5.000000000000e+04 2.017370892068e+05 1.517370892068e+05 1.000000000000e-02 9.900000000000e-01 1.686114266939e-21 -4.910100777041e-23 1.652218700159e-13 -4.864718925150e-15 
1.703448275863e+00 5.000000000000e+04 2.017370892067e+05 1.517370892067e+05 1.000000000000e-02 9.900000000000e-01 1.530675588297e-21 -5.283110957905e-23 1.500053238487e-13 -5.222856469195e-15 
1.793103448277e+00 5.000000000000e+04 2.017370892065e+05 1.517370892065e+05 1.000000000000e-02 9.900000000000e-01 1.368715964779e-21 -5.496038829780e-23 1.341748274845e-13 -5.363187435201e-15 
1.882758620691e+00 5.000000000000e+04 2.017370892064e+05 1.517370892064e+05 1.000000000000e-02 9.900000000000e-01 1.205687699660e-21 -5.688743638484e-23 1.181812780822e-13 -5.606746056251e-15 
1.972413793105e+00 5.000000000000e+04 2.017370892063e+05 1.517370892063e+05 1.000000000000e-02 9.900000000000e-01 1.042624746575e-21 -5.695480746718e-23 1.021439382037e-13 -5.483801344350e-15 
2.062068965518e+00 5.000000000000e+04 2.017370892062e+05 1.517370892062e+05 1.000000000000e-02 9.900000000000e-01 8.785038947184e-22 -5.586314986729e-23 8.608042746311e-14 -5.461564678339e-15 
2.151724137932e+00 5.000000000000e+04 2.017370892062e+05 1.517370892062e+05 1.000000000000e-02 9.900000000000e-01 7.161401670614e-22 -5.569298624062e-23 7.017744966443e-14 -5.427202407754e-15 
2.241379310346e+00 5.000000000000e+04 2.017370892061e+05 1.517370892061e+05 1.000000000000e-02 9.900000000000e-01 5.560004179868e-22 -5.368875337967e-23 5.454702480163e-14 -5.194908745792e-15 
2.331034482759e+00 5.000000000000e+04 2.017370892061e+05 1.517370892061e+05 1.000000000000e-02 9.900000000000e-01 3.992198875538e-22 -5.251050287516e-23 3.915398747725e-14 -5.068416032075e-15 
2.420689655173e+00 5.000000000000e+04 2.017370892060e+05 1.517370892060e+05 1.000000000000e-02 9.900000000000e-01 2.773796638900e-22 -4.837337721943e-23 2.720780769520e-14 -4.700285262434e-15 
2.510344827586e+00 5.000000000000e+04 2.017370892060e+05 1.517370892060e+05 1.000000000000e-02 9.900000000000e-01 1.307830637075e-22 -2.621301207883e-23 1.279767266308e-14 -2.508724393252e-15 
2.600000000000e+00 5.000000000000e+04 2.017370892060e+05 1.517370892060e+05 1.000000000000e-02 9.900000000000e-01 2.888077934637e-23 -2.600789092778e-23 2.767793620339e-15 -2.558044240742e-15 
 TITLE = "Profiles along polylines"
 VARIABLES = "DIST" "PRESSURE1" "PRESSURE2" "PRESSURE_W" "SATURATION1" SATURATION2 "VELOCITY_X1" "VELOCITY_Y1" "VELOCITY_X2" "VELOCITY_Y2" 
 ZONE T="TIME=2.000000000000e+03"
0.000000000000e+00 5.000000000000e+03 2.000000000000e+05 1.950000000000e+05 9.871508154698e-01 1.284918453021e-02 5.369201696826e-05 -2.290917265174e-17 9.746674504784e-06 2.324298348911e-17 
8.965517241379e-02 6.195277600296e+03 2.011414809794e+05 1.949462033791e+05 6.461044801313e-01 3.538955198687e-01 2.116873911787e-05 5.962843094783e-18 -4.965658277491e-05 -2.099401143744e-16 
1.793103448276e-01 6.621957948764e+03 2.013932018103e+05 1.947712438615e+05 5.693938023382e-01 4.306061976618e-01 2.663796792041e-05 -6.679643745608e-17 -2.797627189225e-05 -5.126553582634e-16 
2.689655172414e-01 7.057294487352e+03 2.015445256881e+05 1.944872312008e+05 5.012049206073e-01 4.987950793927e-01 2.615448505832e-05 -6.738319903412e-17 -2.579975839690e-05 -2.998628884727e-16 
3.586206896552e-01 7.623293452431e+03 2.016425268813e+05 1.940192334288e+05 4.289061325224e-01 5.710938674776e-01 2.533308198272e-05 -1.024018607043e-17 -2.342824407041e-05 -6.451109154400e-17 
4.482758620690e-01 8.589993310761e+03 2.017030018272e+05 1.931130085165e+05 3.199020015336e-01 6.800979984664e-01 3.644110788059e-05 -2.238602504106e-17 -1.878262701107e-05 -1.697051857305e-15 
5.379310344828e-01 1.669058447822e+04 2.017263919805e+05 1.850358075023e+05 7.144500936700e-02 9.285549906330e-01 -3.045373602794e-06 1.141244891269e-18 -1.111823975437e-05 -5.954790658683e-15 
6.275862068966e-01 4.811566311413e+04 2.017265264646e+05 1.536108633505e+05 8.160704887929e-03 9.918392951121e-01 -3.495830440520e-08 7.712066519476e-20 -7.417941316152e-08 -6.722579954671e-15 
7.172413793105e-01 4.999924711754e+04 2.017265264871e+05 1.517272793696e+05 9.998060644605e-03 9.900019393554e-01 1.044896741683e-11 -5.667751020163e-23 -1.232096541386e-11 -4.002466830281e-15 
8.068965517245e-01 4.999999973572e+04 2.017265264872e+05 1.517265267514e+05 1.000000010537e-02 9.899999998946e-01 4.198766786132e-15 -3.433872925441e-23 -4.117625002228e-14 -3.332855284910e-15 
8.965517241385e-01 4.999999999991e+04 2.017265264872e+05 1.517265264873e+05 1.000000000004e-02 9.900000000000e-01 1.473319945958e-18 -5.619330138227e-23 -5.205786262108e-14 -5.573803181189e-15 
9.862068965524e-01 5.000000000000e+04 2.017265264873e+05 1.517265264873e+05 1.000000000000e-02 9.900000000000e-01 -1.838408036833e-22 -7.960993835682e-23 -6.864679005456e-14 -7.767631675461e-15 
1.075862068966e+00 5.000000000000e+04 2.017265264873e+05 1.517265264873e+05 1.000000000000e-02 9.900000000000e-01 -8.834263250694e-22 -8.028241695648e-23 -8.659157460687e-14 -7.801919202773e-15 
1.165517241380e+00 5.000000000000e+04 2.017265264874e+05 1.517265264874e+05 1.000000000000e-02 9.900000000000e-01 -1.058689514455e-21 -6.300112824456e-23 -1.037694769662e-13 -6.171085952186e-15 
1.255172413794e+00 5.000000000000e+04 2.017265264875e+05 1.517265264875e+05 1.000000000000e-02 9.900000000000e-01 -1.204811289928e-21 -4.417204552959e-23 -1.179929038728e-13 -4.338002744492e-15 
1.344827586208e+00 5.000000000000e+04 2.017265264876e+05 1.517265264876e+05 1.000000000000e-02 9.900000000000e-01 -1.313287050155e-21 -3.260781550552e-23 -1.286373771973e-13 -3.084499794052e-15 
1.434482758622e+00 5.000000000000e+04 2.017265264878e+05 1.517265264878e+05 1.000000000000e-02 9.900000000000e-01 -1.386075954957e-21 -2.808392006886e-23 -1.358872431609e-13 -2.626473581528e-15 
1.524137931036e+00 5.000000000000e+04 2.017265264879e+05 1.517265264879e+05 1.000000000000e-02 9.900000000000e-01 -1.430062512320e-21 -2.028602506844e-23 -1.401872086668e-13 -1.979051461928e-15 
1.613793103450e+00 5.000000000000e+04 2.017265264880e+05 1.517265264880e+05 1.000000000000e-02 9.900000000000e-01 -1.447158905390e-21 -1.283959080172e-23 -1.418432592538e-13 -1.309444412143e-15 
1.703448275863e+00 5.000000000000e+04 2.017265264881e+05 1.517265264881e+05 1.000000000000e-02 9.900000000000e-01 -1.433337407495e-21 -1.089437230459e-26 -1.404724857642e-13 -1.169087516360e-16 
1.793103448277e+00 5.000000000000e+04 2.017265264883e+05 1.517265264883e+05 1.000000000000e-02 9.900000000000e-01 -1.384460414131e-21 1.285712080136e-23 -1.356536245684e-13 1.227811286514e-15 
1.882758620691e+00 5.000000000000e+04 2.017265264884e+05 1.517265264884e+05 1.000000000000e-02 9.900000000000e-01 -1.298508446154e-21 2.685775010376e-23 -1.272391878924e-13 2.660179351329e-15 
1.972413793105e+00 5.000000000000e+04 2.017265264885e+05 1.517265264885e+05 1.000000000000e-02 9.900000000000e-01 -1.178526276620e-21 3.930571551620e-23 -1.155306961449e-13 3.930651623210e-15 
2.062068965518e+00 5.000000000000e+04 2.017265264886e+05 1.517265264886e+05 1.000000000000e-02 9.900000000000e-01 -1.032876034744e-21 4.782506006926e-23 -1.013315069956e-13 4.755574119791e-15 
2.151724137932e+00 5.000000000000e+04 2.017265264887e+05 1.517265264887e+05 1.000000000000e-02 9.900000000000e-01 -8.686869658939e-22 5.566885043328e-23 -8.519111146893e-14 5.414745205268e-15 
2.241379310346e+00 5.000000000000e+04 2.017265264888e+05 1.517265264888e+05 1.000000000000e-02 9.900000000000e-01 -6.923895297264e-22 6.260570804791e-23 -6.782613347564e-14 6.017542558079e-15 
2.331034482759e+00 5.000000000000e+04 2.017265264888e+05 1.517265264888e+05 1.000000000000e-02 9.900000000000e-01 -5.071172976625e-22 6.008385555367e-23 -4.962319067825e-14 5.962635209968e-15 
2.420689655173e+00 5.000000000000e+04 2.017265264888e+05 1.517265264889e+05 1.000000000000e-02 9.900000000000e-01 -3.557300554277e-22 5.673609769692e-23 -3.482945395364e-14 5.585434187522e-15 
2.510344827586e+00 5.000000000000e+04 2.017265264889e+05 1.517265264889e+05 1.000000000000e-02 9.900000000000e-01 -1.676489963001e-22 3.023205977845e-23 -1.648078161975e-14 3.136077772966e-15 
2.600000000000e+00 5.000000000000e+04 2.017265264889e+05 1.517265264889e+05 1.000000000000e-02 9.900000000000e-01 -3.553749862994e-23 3.763838153385e-23 -3.578953582015e-15 3.718019385840e-15 
 TITLE = "Profiles along polylines"
 VARIABLES = "DIST" "PRESSURE1" "PRESSURE2" "PRESSURE_W" "SATURATION1" SATURATION2 "VELOCITY_X1" "VELOCITY_Y1" "VELOCITY_X2" "VELOCITY_Y2" 
 ZONE T="TIME=4.000000000000e+03"
0.000000000000e+00 5.000000000000e+03 2.000000000000e+05 1.950000000000e+05 9.894487265082e-01 1.055127349179e-02 3.595998879108e-05 -8.450916539192e-18 6.955650068664e-06 6.670862481434e-18 
8.965517241379e-02 6.067993869726e+03 2.010325924218e+05 1.949645985521e+05 6.746107022194e-01 3.253892977806e-01 1.501617344305e-05 6.050906833309e-17 -3.549460862183e-05 -6.154407845564e-17 
1.793103448276e-01 6.399105629983e+03 2.012636717069e+05 1.948645660769e+05 6.100782370398e-01 3.899217629602e-01 1.883430977023e-05 -4.514267084870e-17 -2.005517785134e-05 -1.829461533510e-16 
2.689655172414e-01 6.692064932153e+03 2.014114838023e+05 1.947194188702e+05 5.579014249588e-01 4.420985750412e-01 1.866728930693e-05 -1.587466156992e-16 -1.897431617844e-05 -4.658782946371e-16 
3.586206896552e-01 6.999717408113e+03 2.015171192348e+05 1.945174018267e+05 5.098964266245e-01 4.901035733755e-01 1.824107322892e-05 3.569248391927e-17 -1.816864432512e-05 -5.017859600116e-16 
4.482758620690e-01 7.362223441020e+03 2.015951323468e+05 1.942329089058e+05 4.607839482861e-01 5.392160517139e-01 1.766645896620e-05 2.483731088918e-16 -1.725822565273e-05 -6.746529705032e-16 
5.379310344828e-01 7.843272909213e+03 2.016524843730e+05 1.938092114638e+05 4.056324932946e-01 5.943675067054e-01 1.706055299174e-05 2.051862538111e-16 -1.605613298113e-05 -9.601791217750e-16 
6.275862068966e-01 8.606889941391e+03 2.016928746439e+05 1.930859847026e+05 3.349853905309e-01 6.650146094691e-01 1.781243711869e-05 -1.295719808389e-16 -1.419771559017e-05 -1.041226896290e-15 
7.172413793105e-01 1.059557348881e+04 2.017175881269e+05 1.911220146381e+05 1.935585679127e-01 8.064414320873e-01 8.621063600878e-06 -1.662720926922e-16 -9.288076417397e-06 -9.094589236203e-16 
8.068965517245e-01 3.109967153974e+04 2.017211073876e+05 1.706214358478e+05 1.853512979185e-02 9.814648702082e-01 -8.299860193197e-07 3.734387753796e-18 -1.912126646633e-06 -8.598851807535e-16 
8.965517241385e-01 4.994459387156e+04 2.017211093533e+05 1.517765154817e+05 9.624816614899e-03 9.903751833851e-01 -2.301156716024e-10 -3.161311633752e-21 -1.076429803452e-09 -5.660875302781e-16 
9.862068965524e-01 4.999997670880e+04 2.017211093540e+05 1.517211326452e+05 1.000000747341e-02 9.899999925266e-01 3.089954390387e-13 -9.791485872608e-24 -5.045765836143e-13 -9.666767234733e-16 
1.075862068966e+00 4.999999999025e+04 2.017211093542e+05 1.517211093639e+05 1.000000000390e-02 9.899999999961e-01 1.298911928960e-16 -1.250370436828e-23 -1.970620340122e-13 -1.170419752482e-15 
1.165517241380e+00 5.000000000000e+04 2.017211093544e+05 1.517211093544e+05 1.000000000000e-02 9.900000000000e-01 5.233173034495e-20 -1.088247558807e-23 -1.991034879865e-13 -1.077881994239e-15 
1.255172413794e+00 5.000000000000e+04 2.017211093546e+05 1.517211093546e+05 1.000000000000e-02 9.900000000000e-01 -2.016813087935e-21 -4.961088253854e-24 -1.998633910995e-13 -5.155806229992e-16 
1.344827586208e+00 5.000000000000e+04 2.017211093547e+05 1.517211093547e+05 1.000000000000e-02 9.900000000000e-01 -2.029088244542e-21 3.153697530814e-25 -1.988115855641e-13 7.565851855866e-17 
1.434482758622e+00 5.000000000000e+04 2.017211093549e+05 1.517211093549e+05 1.000000000000e-02 9.900000000000e-01 -1.997307795791e-21 6.129867281007e-24 -1.957286915985e-13 7.278726191992e-16 
1.524137931036e+00 5.000000000000e+04 2.017211093551e+05 1.517211093551e+05 1.000000000000e-02 9.900000000000e-01 -1.942608036457e-21 1.610642745390e-23 -1.903830365565e-13 1.631605762720e-15 
1.613793103450e+00 5.000000000000e+04 2.017211093553e+05 1.517211093553e+05 1.000000000000e-02 9.900000000000e-01 -1.865613544928e-21 2.516607536428e-23 -1.828719376995e-13 2.389313195251e-15 
1.703448275863e+00 5.000000000000e+04 2.017211093554e+05 1.517211093554e+05 1.000000000000e-02 9.900000000000e-01 -1.766540057228e-21 3.460363769009e-23 -1.730258426564e-13 3.201331854195e-15 
1.793103448277e+00 5.000000000000e+04 2.017211093556e+05 1.517211093556e+05 1.000000000000e-02 9.900000000000e-01 -1.643694324180e-21 4.022288242786e-23 -1.611162275823e-13 3.969149374053e-15 
1.882758620691e+00 5.000000000000e+04 2.017211093557e+05 1.517211093557e+05 1.000000000000e-02 9.900000000000e-01 -1.500295130680e-21 4.694701626068e-23 -1.469961462285e-13 4.558570448026e-15 
1.972413793105e+00 5.000000000000e+04 2.017211093559e+05 1.517211093559e+05 1.000000000000e-02 9.900000000000e-01 -1.337960467725e-21 5.237396144301e-23 -1.311125716004e-13 5.237306181481e-15 
2.062068965518e+00 5.000000000000e+04 2.017211093560e+05 1.517211093560e+05 1.000000000000e-02 9.900000000000e-01 -1.159684494664e-21 5.860726159862e-23 -1.137150959061e-13 5.845876918989e-15 
2.151724137932e+00 5.000000000000e+04 2.017211093561e+05 1.517211093561e+05 1.000000000000e-02 9.900000000000e-01 -9.682306034256e-22 6.506900135840e-23 -9.494606082001e-14 6.269698016624e-15 
2.241379310346e+00 5.000000000000e+04 2.017211093561e+05 1.517211093561e+05 1.000000000000e-02 9.900000000000e-01 -7.682916593476e-22 6.998641895676e-23 -7.520574830185e-14 6.725479611531e-15 
2.331034482759e+00 5.000000000000e+04 2.017211093562e+05 1.517211093562e+05 1.000000000000e-02 9.900000000000e-01 -5.612948457126e-22 6.721721806193e-23 -5.489626988260e-14 6.635847718325e-15 
2.420689655173e+00 5.000000000000e+04 2.017211093562e+05 1.517211093562e+05 1.000000000000e-02 9.900000000000e-01 -3.936889120022e-22 6.281225083138e-23 -3.858134302188e-14 6.198901351832e-15 
2.510344827586e+00 5.000000000000e+04 2.017211093563e+05 1.517211093563e+05 1.000000000000e-02 9.900000000000e-01 -1.863238709501e-22 3.359117097517e-23 -1.826233822103e-14 3.429309996483e-15 
2.600000000000e+00 5.000000000000e+04 2.017211093563e+05 1.517211093563e+05 1.000000000000e-02 9.900000000000e-01 -4.052988126406e-23 4.118666265860e-23 -3.952257718214e-15 4.142963704529e-15 