 TITLE = "Time curves in points"
 VARIABLES = "TIME"  "PRESSURE1"  "SATURATION1"  "TEMPERATURE1"  "DISPLACEMENT_X1"  "DISPLACEMENT_Y1"  "STRESS_XX"  "STRESS_XY"  "STRESS_YY"  "STRESS_ZZ"  "STRAIN_XX"  "STRAIN_XY"  "STRAIN_YY"  "STRAIN_PLS"  p_(1st_Invariant)  q_(2nd_Invariant)   Effective_Strain
 ZONE T="POINT=POINT2"
0.000000000000e+00 -7.000000000000e+07 6.684759947500e-01 2.500000000000e+01 0.000000000000e+00 0.000000000000e+00 0.000000000000e+00 0.000000000000e+00 0.000000000000e+00 0.000000000000e+00 0.000000000000e+00 0.000000000000e+00 0.000000000000e+00 0.000000000000e+00 -0.000000000000e+00 0.000000000000e+00  0.000000000000e+00
1.000000000000e-03 -6.999999537629e+07 6.684760111000e-01 3.309920063102e+01 0.000000000000e+00 1.358767647213e-04 2.983040671830e+07 7.245974572378e+05 1.711364304294e+07 1.407246008435e+07 1.421027571212e-04 2.079059416083e-05 -1.700230230054e-05 0.000000000000e+00 -2.033883661520e+07 1.453320341719e+07  1.555477171673e-04
2.000000000000e-03 -7.015897611663e+07 6.679155787534e-01 3.680474757738e+01 0.000000000000e+00 1.356437856005e-04 2.976144243353e+07 7.222980751605e+05 1.703959788453e+07 1.402395645664e+07 1.414130961495e-04 2.028894726282e-05 -3.788437021828e-05 0.000000000000e+00 -2.027499892490e+07 1.452133213378e+07  1.674071668142e-04
3.000000000000e-03 -7.037098644128e+07 6.671689084845e-01 3.938015885731e+01 0.000000000000e+00 1.352623476942e-04 2.968168436113e+07 7.196603366985e+05 1.694888653215e+07 1.396813595383e+07 1.403868117193e-04 1.861574308946e-05 -7.674033352648e-05 0.000000000000e+00 -2.019956894904e+07 1.450917096380e+07  1.934179519094e-04
4.000000000000e-03 -7.061767541777e+07 6.663004323391e-01 4.141326417304e+01 0.000000000000e+00 1.348105126212e-04 2.959499818947e+07 7.168243442519e+05 1.684754481100e+07 1.390745368947e+07 1.391651944750e-04 1.627781762110e-05 -1.259905729036e-04 0.000000000000e+00 -2.011666556331e+07 1.449696138371e+07  2.314497363003e-04
1.000000000000e-02 -7.212436584080e+07 6.610101988942e-01 4.814031443772e+01 0.000000000000e+00 1.318816773009e-04 2.910759658703e+07 7.025152559767e+05 1.625214466164e+07 1.356337372693e+07 1.316560777808e-04 -1.093885643571e-06 -4.532724057414e-04 0.000000000000e+00 -1.964103832520e+07 1.444084768598e+07  5.314779896541e-04
2.000000000000e-02 -7.521838996300e+07 6.501913288293e-01 5.432127419821e+01 0.000000000000e+00 1.297445954948e-04 2.823020370644e+07 6.833678849460e+05 1.510284458180e+07 1.292590954994e+07 1.174049262444e-04 -4.200183926745e-05 -1.141203945299e-03 0.000000000000e+00 -1.875298594606e+07 1.438905787996e+07  1.206402001824e-03
3.000000000000e-02 -7.885304633079e+07 6.375369856498e-01 5.823716280856e+01 0.000000000000e+00 1.297777813089e-04 2.732007978969e+07 6.730784433703e+05 1.382490434166e+07 1.223996320341e+07 1.024563238266e-04 -9.422181676736e-05 -1.939310779265e-03 0.000000000000e+00 -1.779498244492e+07 1.440069308378e+07  1.999187710630e-03
4.000000000000e-02 -8.260242327411e+07 6.245443995564e-01 6.095065630049e+01 0.000000000000e+00 1.321171978598e-04 2.648226546957e+07 6.747148636818e+05 1.256440110156e+07 1.158240840827e+07 8.876525412420e-05 -1.518907928732e-04 -2.748360724390e-03 0.000000000000e+00 -1.687635832647e+07 1.448116776277e+07  2.806160601019e-03
5.000000000000e-02 -8.623995779398e+07 6.178036143255e-01 6.295232042415e+01 0.000000000000e+00 1.354667352456e-04 2.534923434920e+07 6.612444723453e+05 1.102430718264e+07 1.074345923873e+07 6.913295518059e-05 -2.123819896979e-04 -3.705054444662e-03 0.000000000000e+00 -1.570566692352e+07 1.451265906004e+07  3.758146816572e-03
6.000000000000e-02 -8.968091226371e+07 6.112976906321e-01 6.450103477421e+01 0.000000000000e+00 1.410971140626e-04 2.437997753631e+07 6.628425184538e+05 9.574085325297e+06 9.982753440857e+06 5.325087504605e-05 -2.771802628512e-04 -4.624735667920e-03 0.000000000000e+00 -1.464560543416e+07 1.465089889176e+07  4.676299131722e-03
7.000000000000e-02 -9.292392938875e+07 6.047947063201e-01 6.575112486100e+01 0.000000000000e+00 1.468070040077e-04 2.357342704645e+07 6.812491696547e+05 8.225372076712e+06 9.303676833712e+06 4.107369105108e-05 -3.461528352142e-04 -5.500634465174e-03 0.000000000000e+00 -1.370082531896e+07 1.488515882052e+07  5.553743177727e-03
8.000000000000e-02 -9.597684695761e+07 5.987103585852e-01 6.679366742605e+01 0.000000000000e+00 1.532345432454e-04 2.286712358101e+07 7.117898952287e+05 6.948466455642e+06 8.677727107984e+06 3.152888045676e-05 -4.180003992294e-04 -6.343699455372e-03 0.000000000000e+00 -1.283110571488e+07 1.517848524190e+07  6.400601502471e-03
9.000000000000e-02 -9.886346754405e+07 5.929822425977e-01 6.768829038096e+01 0.000000000000e+00 1.591479818188e-04 2.222321941148e+07 7.443310746473e+05 5.754387548983e+06 8.097272403850e+06 2.298127910582e-05 -4.870436083234e-04 -7.138299217211e-03 0.000000000000e+00 -1.202495978811e+07 1.548512324318e+07  7.199411471051e-03
1.000000000000e-01 -1.016032165072e+08 5.873455843141e-01 6.846872345115e+01 0.000000000000e+00 1.644023817763e-04 2.164275236109e+07 7.774290274473e+05 4.656708975207e+06 7.567076117490e+06 1.449314540075e-05 -5.514675440710e-04 -7.875715778694e-03 0.000000000000e+00 -1.128884581793e+07 1.579156331528e+07  7.940629844568e-03
2.000000000000e-01 -1.181504402572e+08 5.520553179435e-01 7.270598302650e+01 0.000000000000e+00 2.574653982895e-04 1.845336099980e+07 9.918249751757e+05 -1.450107989966e+06 4.627161713818e+06 -4.151224160652e-05 -9.159027825976e-04 -1.209621007968e-02 0.000000000000e+00 -7.210138241219e+06 1.775031509950e+07  1.217926576129e-02
3.000000000000e-01 -1.336338813975e+08 5.238622770480e-01 7.551347421724e+01 0.000000000000e+00 3.658198239985e-04 1.536523438264e+07 1.104078472416e+06 -6.564673255111e+06 2.040701558621e+06 -1.032725635556e-04 -1.183413910049e-03 -1.559878013369e-02 0.000000000000e+00 -3.613754228717e+06 1.923318012320e+07  1.568193503099e-02
4.000000000000e-01 -1.468337436515e+08 5.053221643792e-01 7.753845443330e+01 0.000000000000e+00 4.701085573385e-04 1.266693190307e+07 1.207111506277e+06 -1.108641366429e+07 -2.387739375245e+05 -1.515499382744e-04 -1.421636234087e-03 -1.869025971065e-02 0.000000000000e+00 -4.472481004211e+05 2.070256826652e+07  1.877709819104e-02
5.000000000000e-01 -1.576243856302e+08 4.899377762349e-01 7.910019779374e+01 0.000000000000e+00 5.715216461872e-04 1.065885524615e+07 1.301388340199e+06 -1.453016445545e+07 -1.960872477165e+06 -1.851422985678e-04 -1.611055665956e-03 -2.107445473907e-02 0.000000000000e+00 1.944060562154e+06 2.193049260557e+07  2.116723052987e-02
6.000000000000e-01 -1.663707386255e+08 4.767885865080e-01 8.034131145665e+01 0.000000000000e+00 6.705797611360e-04 9.155285241732e+06 1.373460347474e+06 -1.707007474610e+07 -3.237674121855e+06 -2.140246489305e-04 -1.749892713726e-03 -2.285073825828e-02 0.000000000000e+00 3.717487875407e+06 2.284741358737e+07  2.294553982354e-02
7.000000000000e-01 -1.732967288043e+08 4.680998904366e-01 8.134433199461e+01 0.000000000000e+00 7.672102705610e-04 7.762848160548e+06 1.416690506602e+06 -1.924752352135e+07 -4.363824785379e+06 -2.407413851026e-04 -1.861343500689e-03 -2.434517533303e-02 0.000000000000e+00 5.282833382060e+06 2.356037918990e+07  2.443928039168e-02
8.000000000000e-01 -1.786683261392e+08 4.623781740773e-01 8.216160041109e+01 0.000000000000e+00 8.616979669486e-04 6.554704490349e+06 1.445947941563e+06 -2.107171772847e+07 -5.320246556094e+06 -2.642803664914e-04 -1.950468183640e-03 -2.558480288441e-02 0.000000000000e+00 6.612419931405e+06 2.413386732126e+07  2.567690402033e-02
9.000000000000e-01 -1.827329828006e+08 4.580426417477e-01 8.284030409014e+01 0.000000000000e+00 9.539845812140e-04 5.582315035830e+06 1.467917134269e+06 -2.248767553560e+07 -6.073135287118e+06 -2.831409464648e-04 -2.018644942091e-03 -2.654659452154e-02 0.000000000000e+00 7.659498595631e+06 2.455748061955e+07  2.663663274131e-02
1.000000000000e+00 -1.857446764972e+08 4.548262746498e-01 8.340750005277e+01 0.000000000000e+00 1.044039547479e-03 4.825405140176e+06 1.492150478426e+06 -2.362372480749e+07 -6.670451434952e+06 -2.966171582093e-04 -2.077572709836e-03 -2.732200361202e-02 0.000000000000e+00 8.489590367423e+06 2.492268313726e+07  2.741212529410e-02
2.000000000000e+00 -1.865346209102e+08 4.540266981427e-01 8.537368196158e+01 0.000000000000e+00 1.792325289040e-03 2.103002666472e+06 1.520769036081e+06 -2.677569458839e+07 -8.517082012152e+06 -3.385114896648e-04 -2.231601119769e-03 -2.938594495746e-02 0.000000000000e+00 1.106325797802e+07 2.543637865042e+07  2.947271622606e-02
3.000000000000e+00 -1.779756229599e+08 4.632179859253e-01 8.594055503270e+01 0.000000000000e+00 2.427616984098e-03 1.161732336813e+06 1.494514604840e+06 -2.714146082993e+07 -8.922304484652e+06 -3.476104849160e-04 -2.245762181074e-03 -2.953979240410e-02 0.000000000000e+00 1.163401099259e+07 2.498096919065e+07  2.962401340275e-02
4.000000000000e+00 -1.659453122592e+08 4.777255350771e-01 8.593358505496e+01 0.000000000000e+00 2.980903853281e-03 1.037248017435e+06 1.447845602413e+06 -2.628691188549e+07 -8.685645417495e+06 -3.395888702483e-04 -2.199184476812e-03 -2.885746113630e-02 0.000000000000e+00 1.131176976185e+07 2.411976879818e+07  2.894093896710e-02
5.000000000000e+00 -1.534804877826e+08 4.962754146721e-01 8.574019148796e+01 0.000000000000e+00 3.471140345433e-03 1.014683449306e+06 1.368888312156e+06 -2.512846093593e+07 -8.320038204001e+06 -3.325163004300e-04 -2.123222813822e-03 -2.793015620307e-02 0.000000000000e+00 1.081127189688e+07 2.306910523508e+07  2.800787720907e-02
6.000000000000e+00 -1.417531261418e+08 5.128625754617e-01 8.559242980945e+01 0.000000000000e+00 3.913599510578e-03 1.369180154964e+06 1.293241762169e+06 -2.346215392915e+07 -7.675911757836e+06 -3.198014880784e-04 -2.023818123333e-03 -2.670040630593e-02 0.000000000000e+00 9.922961844006e+06 2.188206031812e+07  2.677242349160e-02
7.000000000000e+00 -1.313745199588e+08 5.275460241650e-01 8.532214681570e+01 0.000000000000e+00 4.315862498013e-03 1.961567716290e+06 1.250713642161e+06 -2.176669536261e+07 -6.950935493169e+06 -3.019773115420e-04 -1.937281375506e-03 -2.549519735388e-02 0.000000000000e+00 8.918687713163e+06 2.087289666526e+07  2.556670656615e-02
8.000000000000e+00 -1.218730959906e+08 5.455279995570e-01 8.524103736831e+01 0.000000000000e+00 4.687945631258e-03 2.351018606797e+06 1.205836028461e+06 -2.045079793441e+07 -6.411618799382e+06 -2.851507167611e-04 -1.868804962096e-03 -2.451344558934e-02 0.000000000000e+00 8.170466042331e+06 2.003159311989e+07  2.458612606678e-02
9.000000000000e+00 -1.135456723911e+08 5.638272292629e-01 8.515896216798e+01 0.000000000000e+00 5.032521235061e-03 2.548711641967e+06 1.149249591336e+06 -1.929158866823e+07 -5.980997300916e+06 -2.746521373807e-04 -1.796366729240e-03 -2.362530307827e-02 0.000000000000e+00 7.574624775728e+06 1.916834816275e+07  2.369435459403e-02
1.000000000000e+01 -1.059793814307e+08 5.802612876493e-01 8.507174828328e+01 0.000000000000e+00 5.353532480587e-03 2.840295565903e+06 1.087620514128e+06 -1.799385366462e+07 -5.476438776965e+06 -2.650404150628e-04 -1.716192560470e-03 -2.265480270930e-02 0.000000000000e+00 6.876665625228e+06 1.826216074368e+07  2.271875534926e-02
1.100000000000e+01 -9.909822239385e+07 5.940697235376e-01 8.503712413052e+01 0.000000000000e+00 5.656246844769e-03 3.280466162747e+06 1.028404477834e+06 -1.652637193347e+07 -4.871468494546e+06 -2.578049396386e-04 -1.627175980969e-03 -2.159144329169e-02 0.000000000000e+00 6.039124755091e+06 1.733417639834e+07  2.164794704099e-02
1.200000000000e+01 -9.295714370288e+07 6.064074931299e-01 8.500709436574e+01 0.000000000000e+00 5.939774016153e-03 3.738498405322e+06 9.766688226564e+05 -1.510625402484e+07 -4.275930638251e+06 -2.495217417342e-04 -1.544053118390e-03 -2.056941608285e-02 0.000000000000e+00 5.214562085922e+06 1.646777100341e+07  2.061996417695e-02
1.300000000000e+01 -8.732663386456e+07 6.177177505005e-01 8.495625991997e+01 0.000000000000e+00 6.206682042988e-03 4.316068107884e+06 9.521820858744e+05 -1.376912264422e+07 -3.671327357867e+06 -2.361062240274e-04 -1.479520176328e-03 -1.962615635345e-02 0.000000000000e+00 4.374793964736e+06 1.578413736730e+07  1.967675891875e-02
1.400000000000e+01 -8.200086889634e+07 6.338216818148e-01 8.486705774908e+01 0.000000000000e+00 6.459256638344e-03 4.658462507690e+06 9.199572869861e+05 -1.276024657915e+07 -3.245762424990e+06 -2.249580654753e-04 -1.425214932854e-03 -1.886735565455e-02 0.000000000000e+00 3.782515498815e+06 1.519031821946e+07  1.891763897827e-02
1.500000000000e+01 -7.695663969346e+07 6.518493195536e-01 8.476324701420e+01 0.000000000000e+00 6.697731176243e-03 4.922468304755e+06 8.817603568065e+05 -1.181468599413e+07 -2.865071583986e+06 -2.156034994684e-04 -1.369250052878e-03 -1.813827851419e-02 0.000000000000e+00 3.252429757787e+06 1.458661574174e+07  1.818673948588e-02
1.600000000000e+01 -7.222795146695e+07 6.687652458732e-01 8.464730144316e+01 0.000000000000e+00 6.922839424415e-03 5.256263311282e+06 8.447860243572e+05 -1.078105607774e+07 -2.434368094564e+06 -2.050816815431e-04 -1.309743969879e-03 -1.735975470703e-02 0.000000000000e+00 2.653053620340e+06 1.396944174719e+07  1.740658674461e-02
1.700000000000e+01 -6.776362494508e+07 6.847516233467e-01 8.451638002229e+01 0.000000000000e+00 7.135940048895e-03 5.640421346511e+06 8.070235714476e+05 -9.674484446448e+06 -1.964450873697e+06 -1.946741846945e-04 -1.246267913749e-03 -1.653756849668e-02 0.000000000000e+00 1.999504657878e+06 1.333665551956e+07  1.658219476713e-02
1.800000000000e+01 -6.352441181018e+07 6.999404065213e-01 8.436963525027e+01 0.000000000000e+00 7.337648679584e-03 6.067197709699e+06 7.685515796351e+05 -8.507477957469e+06 -1.461656527313e+06 -1.831251253890e-04 -1.180412197846e-03 -1.567911474641e-02 0.000000000000e+00 1.300645591694e+06 1.269433822092e+07  1.572186544464e-02
1.900000000000e+01 -5.947137322035e+07 7.144609247882e-01 8.420550107586e+01 0.000000000000e+00 7.528723556977e-03 6.526557027432e+06 7.278586489880e+05 -7.273480114413e+06 -9.270330493546e+05 -1.718734413076e-04 -1.109764253714e-03 -1.477937307787e-02 0.000000000000e+00 5.579853787785e+05 1.203023461484e+07  1.481937776831e-02
2.000000000000e+01 -5.570661916702e+07 7.279403840183e-01 8.402769552271e+01 0.000000000000e+00 7.711336923405e-03 6.998907697292e+06 6.867909485681e+05 -6.028207598403e+06 -3.844394122989e+05 -1.608037541333e-04 -1.038540613984e-03 -1.387738582142e-02 0.000000000000e+00 -1.954202288636e+05 1.137764821149e+07  1.391444785706e-02
2.100000000000e+01 -5.208363472869e+07 7.403246089115e-01 8.393963600303e+01 0.000000000000e+00 7.884436483083e-03 7.526788081466e+06 6.454460173096e+05 -4.706410546548e+06 1.999465920098e+05 -1.500495833530e-04 -9.631603706348e-04 -1.293028127710e-02 0.000000000000e+00 -1.006774708976e+06 1.072160665718e+07  1.296370082819e-02
2.200000000000e+01 -4.869859103963e+07 7.518073448756e-01 8.385004954402e+01 0.000000000000e+00 8.050120241517e-03 8.048002691658e+06 6.049080305178e+05 -3.409670775888e+06 7.745772643793e+05 -1.393761417177e-04 -8.895505257810e-04 -1.200271876158e-02 0.000000000000e+00 -1.804303060050e+06 1.009664332216e+07  1.203269259814e-02
2.300000000000e+01 -4.556372566460e+07 7.623569474486e-01 8.375183754585e+01 0.000000000000e+00 8.209330971789e-03 8.580830402504e+06 5.700417517285e+05 -2.156317896798e+06 1.338950898811e+06 -1.281689181189e-04 -8.207639961408e-04 -1.111201567514e-02 0.000000000000e+00 -2.587821134839e+06 9.536712271350e+06  1.113957203940e-02
2.400000000000e+01 -4.249966813182e+07 7.735265781505e-01 8.363904537339e+01 0.000000000000e+00 8.360994370615e-03 9.135232836368e+06 5.364761366005e+05 -8.967537061030e+05 1.911573227078e+06 -1.162177162703e-04 -7.524111815207e-04 -1.021698837036e-02 0.000000000000e+00 -3.383350785781e+06 9.012090550302e+06  1.024262322944e-02
2.500000000000e+01 -3.946992246748e+07 7.878662754900e-01 8.350995262076e+01 0.000000000000e+00 8.505724804868e-03 9.646217192364e+06 5.002360558129e+05 3.170004265327e+05 2.454869832162e+06 -1.048567770834e-04 -6.839745974248e-04 -9.339058043326e-03 0.000000000000e+00 -4.139362483686e+06 8.509455463885e+06  9.362328786294e-03
2.600000000000e+01 -3.648795378571e+07 8.025711787031e-01 8.336809681710e+01 0.000000000000e+00 8.644082819056e-03 1.019074573246e+07 4.636479124424e+05 1.581842499965e+06 3.024680122151e+06 -9.309387670923e-05 -6.128080834173e-04 -8.428002325115e-03 0.000000000000e+00 -4.932422784860e+06 8.026123221149e+06  8.448780710492e-03
2.700000000000e+01 -3.356096605393e+07 8.175875760967e-01 8.321341883346e+01 0.000000000000e+00 8.776011856544e-03 1.076464361245e+07 4.263998566762e+05 2.893690905835e+06 3.618463438296e+06 -8.093923943173e-05 -5.390196549538e-04 -7.486366968392e-03 0.000000000000e+00 -5.758932652192e+06 7.570864674579e+06  7.504527117858e-03
2.800000000000e+01 -3.067654675071e+07 8.329529107597e-01 8.304585324656e+01 0.000000000000e+00 8.902168351522e-03 1.137027906671e+07 3.883568935867e+05 4.256878445715e+06 4.238318513304e+06 -6.831960820502e-05 -4.624178533274e-04 -6.511440158809e-03 0.000000000000e+00 -6.621825341909e+06 7.154390283665e+06  6.526879214705e-03
2.900000000000e+01 -2.782237962270e+07 8.487208743020e-01 8.286538415682e+01 0.000000000000e+00 9.022464498043e-03 1.201138347598e+07 3.494286785920e+05 5.681609895466e+06 4.888651192862e+06 -5.529409396751e-05 -3.823251002613e-04 -5.496663555200e-03 0.000000000000e+00 -7.527214854768e+06 6.788252156116e+06  5.509169818732e-03
3.000000000000e+01 -2.498527270894e+07 8.648790606948e-01 8.267204394571e+01 0.000000000000e+00 9.137008304108e-03 1.269527974181e+07 3.095491081166e+05 7.177431177783e+06 5.574760136323e+06 -4.172957898225e-05 -2.983652128100e-04 -4.436365389416e-03 0.000000000000e+00 -8.482490351971e+06 6.491992398206e+06  4.445786428395e-03
3.100000000000e+01 -2.214934943915e+07 8.814778676295e-01 8.255052594415e+01 0.000000000000e+00 9.247690558288e-03 1.342686182842e+07 2.686298200320e+05 8.755286860517e+06 6.301541737106e+06 -2.760434076602e-05 -2.099001030183e-04 -3.323085234353e-03 0.000000000000e+00 -9.494563475347e+06 6.286797121597e+06  3.329279209820e-03
3.200000000000e+01 -1.935151182058e+07 8.982243904119e-01 8.242766297742e+01 0.000000000000e+00 9.354416691448e-03 1.419053076512e+07 2.271250169610e+05 1.038812666592e+07 7.055731071211e+06 -1.317530816614e-05 -1.184744351666e-04 -2.175738116109e-03 0.000000000000e+00 -1.054479616742e+07 6.195886484010e+06  2.178864955391e-03
3.300000000000e+01 -1.652325329260e+07 9.153678531470e-01 8.229794208306e+01 0.000000000000e+00 9.457252170449e-03 1.501787825083e+07 1.846745217511e+05 1.212788749273e+07 7.863560906391e+06 1.956114486110e-06 -2.150984490215e-05 -9.610665296239e-04 0.000000000000e+00 -1.166977554998e+07 6.242011396804e+06  9.627671978163e-04
3.400000000000e+01 -1.363663608733e+07 9.328905707184e-01 8.215991165291e+01 0.000000000000e+00 9.556085584265e-03 1.592763536484e+07 1.413806925739e+05 1.400283324148e+07 8.739828849835e+06 1.803510748091e-05 8.222363227670e-05 3.383442184104e-04 0.000000000000e+00 -1.289009915205e+07 6.449363222020e+06  3.591408887935e-04
3.500000000000e+01 -1.065694982479e+07 9.506820818212e-01 8.201296658974e+01 0.000000000000e+00 9.651296189772e-03 1.693497324504e+07 9.721965410879e+04 1.604179490839e+07 9.698500478014e+06 3.508014401761e-05 1.941462663528e-04 1.740408792189e-03 0.000000000000e+00 -1.422508954381e+07 6.835875944100e+06  1.755641736679e-03
3.600000000000e+01 -7.548471276709e+06 9.684051340386e-01 8.185688129035e+01 0.000000000000e+00 9.742554712781e-03 1.805912172079e+07 5.254613098665e+04 1.827165446737e+07 1.075423692588e+07 5.365201616257e-05 3.148664923953e-04 3.260872568293e-03 0.000000000000e+00 -1.569500437135e+07 7.413995046653e+06  3.280036399470e-03
3.700000000000e+01 -4.219398421638e+06 9.854151069978e-01 8.169151075588e+01 0.000000000000e+00 9.826493806804e-03 1.932344537855e+07 5.664353599492e+03 2.075543146192e+07 1.193495840021e+07 7.381154218942e-05 4.479221458693e-04 4.941472499718e-03 0.000000000000e+00 -1.733794508023e+07 8.198818863526e+06  4.965960496180e-03
3.800000000000e+01 2.090572734685e+06 1.000000000000e+00 8.151767899883e+01 0.000000000000e+00 9.816290251760e-03 2.124507966587e+07 -1.017469583649e+05 2.510536347143e+07 1.392484362981e+07 1.073579231438e-04 6.835709231392e-04 7.906970832190e-03 0.000000000000e+00 -2.009176225570e+07 9.837524721010e+06  7.942584284648e-03
3.900000000000e+01 2.140131956349e+06 1.000000000000e+00 8.133875720498e+01 0.000000000000e+00 1.000708586567e-02 2.118973854851e+07 -1.021298585181e+05 2.503153270177e+07 1.388442529883e+07 1.076949142856e-04 6.784761222704e-04 7.857481214841e-03 0.000000000000e+00 -2.003523218303e+07 9.809372316633e+06  7.892172578934e-03
4.000000000000e+01 2.169517864080e+06 1.000000000000e+00 8.114888553295e+01 0.000000000000e+00 1.008202499195e-02 2.118116631436e+07 -1.025909365856e+05 2.503539014106e+07 1.388334930224e+07 1.074662254278e-04 6.788345745522e-04 7.859620142561e-03 0.000000000000e+00 -2.003330191922e+07 9.811838225357e+06  7.894490686786e-03
4.200000000000e+01 2.226800933249e+06 1.000000000000e+00 8.087411831808e+01 0.000000000000e+00 1.022228156743e-02 2.116397501558e+07 -1.034923569321e+05 2.504219578996e+07 1.388076784216e+07 1.070368065328e-04 6.795313732580e-04 7.863959000997e-03 0.000000000000e+00 -2.002897954924e+07 9.816502456256e+06  7.899168541744e-03
4.400000000000e+01 2.282566755688e+06 1.000000000000e+00 8.057884030626e+01 0.000000000000e+00 1.035313841340e-02 2.114759881224e+07 -1.043692787511e+05 2.504873574340e+07 1.387836644263e+07 1.066351016106e-04 6.801701909766e-04 7.867922882109e-03 0.000000000000e+00 -2.002490033276e+07 9.820975424893e+06  7.903447300627e-03
5.000000000000e+01 2.434088948783e+06 1.000000000000e+00 7.938388861324e+01 0.000000000000e+00 1.062674462243e-02 2.110732010737e+07 -1.067363842386e+05 2.506569132279e+07 1.387328694905e+07 1.057291218228e-04 6.814144274604e-04 7.875280148534e-03 0.000000000000e+00 -2.001543279307e+07 9.832044802954e+06  7.911481939355e-03
6.500000000000e+01 2.765473785960e+06 1.000000000000e+00 7.672160526678e+01 0.000000000000e+00 1.109084720310e-02 2.102616944140e+07 -1.119260068153e+05 2.510104584041e+07 1.386376135799e+07 1.041718397494e-04 6.835571114313e-04 7.889549981928e-03 0.000000000000e+00 -1.999699221326e+07 9.855364892925e+06  7.926899313533e-03
8.000000000000e+01 3.020527303102e+06 1.000000000000e+00 7.427524819115e+01 0.000000000000e+00 1.131099054229e-02 2.096956558528e+07 -1.159037150910e+05 2.512565668029e+07 1.385779285157e+07 1.033059171917e-04 6.844477228483e-04 7.895785454541e-03 0.000000000000e+00 -1.998433837238e+07 9.871569325484e+06  7.933714436144e-03
1.000000000000e+02 3.321207026676e+06 1.000000000000e+00 7.180475266376e+01 0.000000000000e+00 1.149525586331e-02 2.090116013121e+07 -1.205929129340e+05 2.514847293007e+07 1.384777274747e+07 1.024792226320e-04 6.851695778201e-04 7.901729191324e-03 0.000000000000e+00 -1.996580193625e+07 9.888958997727e+06  7.940178536420e-03
1.860000000000e+02 3.919688121244e+06 1.000000000000e+00 6.658180883606e+01 0.000000000000e+00 1.171410774433e-02 2.077497197618e+07 -1.299436914047e+05 2.519549031370e+07 1.383169498515e+07 1.012620027931e-04 6.860701839363e-04 7.912172918883e-03 0.000000000000e+00 -1.993405242501e+07 9.924395049411e+06  7.951327480815e-03
2.720000000000e+02 4.210009356002e+06 1.000000000000e+00 6.332445349263e+01 0.000000000000e+00 1.154573640710e-02 2.072199478592e+07 -1.344258161315e+05 2.520889777273e+07 1.382412982057e+07 1.013044147497e-04 6.848053240722e-04 7.905466001917e-03 0.000000000000e+00 -1.991834079307e+07 9.935648006493e+06  7.944348411349e-03
3.580000000000e+02 4.351374974385e+06 1.000000000000e+00 6.119532452327e+01 0.000000000000e+00 1.136970195499e-02 2.070350353602e+07 -1.365992847043e+05 2.521649817581e+07 1.382360368564e+07 1.015844415094e-04 6.836450228498e-04 7.898944443573e-03 0.000000000000e+00 -1.991453513249e+07 9.940074034477e+06  7.937464608639e-03
4.440000000000e+02 4.423503819664e+06 1.000000000000e+00 5.963761477377e+01 0.000000000000e+00 1.120505784100e-02 2.069972834044e+07 -1.376980351611e+05 2.522097270148e+07 1.382576225760e+07 1.019272211288e-04 6.825855587070e-04 7.892587798323e-03 0.000000000000e+00 -1.991548776651e+07 9.941268677436e+06  7.930739619084e-03
5.300000000000e+02 4.462468307096e+06 1.000000000000e+00 5.847322533475e+01 0.000000000000e+00 1.106237869201e-02 2.070157210539e+07 -1.382833831152e+05 2.522365598170e+07 1.382854641779e+07 1.022544027500e-04 6.816789010802e-04 7.886980218543e-03 0.000000000000e+00 -1.991792483496e+07 9.941101056337e+06  7.924802385634e-03
6.160000000000e+02 4.484983766297e+06 1.000000000000e+00 5.760610204718e+01 0.000000000000e+00 1.094408474593e-02 2.070497635837e+07 -1.386162900946e+05 2.522518485866e+07 1.383107039492e+07 1.025356583499e-04 6.809353124302e-04 7.882304910111e-03 0.000000000000e+00 -1.992041053731e+07 9.940422509847e+06  7.919851364329e-03
7.020000000000e+02 4.498794050609e+06 1.000000000000e+00 5.697669359629e+01 0.000000000000e+00 1.085340105897e-02 2.070822732135e+07 -1.388179517516e+05 2.522603330917e+07 1.383304906191e+07 1.027559221647e-04 6.803626166107e-04 7.878664143987e-03 0.000000000000e+00 -1.992243656414e+07 9.939677048157e+06  7.915996964628e-03
7.880000000000e+02 4.508412604012e+06 1.000000000000e+00 5.650296308084e+01 0.000000000000e+00 1.077165899334e-02 2.071081535491e+07 -1.389534034499e+05 2.522576665008e+07 1.383428538752e+07 1.029496750173e-04 6.798459236441e-04 7.875281060030e-03 0.000000000000e+00 -1.992362246417e+07 9.938640330436e+06  7.912424674140e-03
8.740000000000e+02 4.516798674396e+06 1.000000000000e+00 5.570721299604e+01 0.000000000000e+00 1.065611530840e-02 2.071775902079e+07 -1.390675692269e+05 2.522722602604e+07 1.383775436452e+07 1.032448244359e-04 6.791289445454e-04 7.870703786116e-03 0.000000000000e+00 -1.992757980378e+07 9.937450885496e+06  7.907570835720e-03
9.370000000000e+02 4.522172520628e+06 1.000000000000e+00 5.519188171238e+01 0.000000000000e+00 1.056114723150e-02 2.072243596135e+07 -1.391368411527e+05 2.522710705978e+07 1.383970897823e+07 1.034809744300e-04 6.785513471810e-04 7.866994625475e-03 0.000000000000e+00 -1.992975066645e+07 9.936120517091e+06  7.903639938151e-03
1.000000000000e+03 4.526362541987e+06 1.000000000000e+00 5.480037704128e+01 0.000000000000e+00 1.048163616769e-02 2.072622208183e+07 -1.391924570005e+05 2.522686236817e+07 1.384121406359e+07 1.036797652632e-04 6.780827619523e-04 7.864061581810e-03 0.000000000000e+00 -1.993143283786e+07 9.934997054715e+06  7.900522684834e-03
1.100000000000e+03 4.530507848734e+06 1.000000000000e+00 5.441729925187e+01 0.000000000000e+00 1.039847927290e-02 2.073007279780e+07 -1.392469884324e+05 2.522644785983e+07 1.384267386928e+07 1.038883808151e-04 6.775987619891e-04 7.861065534698e-03 0.000000000000e+00 -1.993306484230e+07 9.933788333503e+06  7.897334424561e-03
1.200000000000e+03 4.533769219407e+06 1.000000000000e+00 5.407980824842e+01 0.000000000000e+00 1.032932487113e-02 2.073346251179e+07 -1.392890493729e+05 2.522625661843e+07 1.384401517302e+07 1.040613095449e-04 6.771943822045e-04 7.858540043282e-03 0.000000000000e+00 -1.993457810108e+07 9.932812101199e+06  7.894649269845e-03
1.300000000000e+03 4.536674591374e+06 1.000000000000e+00 5.375342288870e+01 0.000000000000e+00 1.026354584677e-02 2.073677506908e+07 -1.393258093347e+05 2.522607187285e+07 1.384532244414e+07 1.042266056212e-04 6.768054379115e-04 7.856093916031e-03 0.000000000000e+00 -1.993605646202e+07 9.931863690164e+06  7.892050278785e-03
1.400000000000e+03 4.539414104015e+06 1.000000000000e+00 5.342073486203e+01 0.000000000000e+00 1.019554097536e-02 2.074023593237e+07 -1.393596759036e+05 2.522588431755e+07 1.384668031908e+07 1.043969412778e-04 6.764070526090e-04 7.853593928402e-03 0.000000000000e+00 -1.993760018967e+07 9.930885176648e+06  7.889393172600e-03
1.500000000000e+03 4.542053989886e+06 1.000000000000e+00 5.307167410396e+01 0.000000000000e+00 1.012218464702e-02 2.074397718864e+07 -1.393915329139e+05 2.522557552724e+07 1.384810144881e+07 1.045816618959e-04 6.759759697534e-04 7.850886890562e-03 0.000000000000e+00 -1.993921805490e+07 9.929786560885e+06  7.886515962647e-03
1.600000000000e+03 4.544615032333e+06 1.000000000000e+00 5.270009877828e+01 0.000000000000e+00 1.004137770744e-02 2.074809922391e+07 -1.394214672123e+05 2.522521841435e+07 1.384964666354e+07 1.047840593899e-04 6.755091516632e-04 7.847974629287e-03 0.000000000000e+00 -1.994098810060e+07 9.928582645682e+06  7.883418083759e-03
1.700000000000e+03 4.547102318795e+06 1.000000000000e+00 5.230221775522e+01 0.000000000000e+00 9.951987861021e-03 2.075265500988e+07 -1.394492410805e+05 2.522472606764e+07 1.385130791621e+07 1.050084255413e-04 6.749945276639e-04 7.844770930772e-03 0.000000000000e+00 -1.994289633124e+07 9.927218347685e+06  7.880009106509e-03
1.800000000000e+03 4.549515724596e+06 1.000000000000e+00 5.187574288738e+01 0.000000000000e+00 9.853262981355e-03 2.075767670335e+07 -1.394752284840e+05 2.522409972200e+07 1.385309789876e+07 1.052563703104e-04 6.744290755272e-04 7.841260221953e-03 0.000000000000e+00 -1.994495810803e+07 9.925687521547e+06  7.876272082401e-03
1.900000000000e+03 4.551855014389e+06 1.000000000000e+00 5.141938747194e+01 0.000000000000e+00 9.744784017888e-03 2.076318904855e+07 -1.394989809078e+05 2.522333524402e+07 1.385502412529e+07 1.055289581325e-04 6.738105833596e-04 7.837429178656e-03 0.000000000000e+00 -1.994718280596e+07 9.923983680411e+06  7.872192760759e-03
2.000000000000e+03 4.554119356722e+06 1.000000000000e+00 5.093254934562e+01 0.000000000000e+00 9.626356355674e-03 2.076920414346e+07 -1.395221766166e+05 2.522243470111e+07 1.385709155365e+07 1.058266483796e-04 6.731382178393e-04 7.833273793058e-03 0.000000000000e+00 -1.994957679941e+07 9.922106286969e+06  7.867766752142e-03