 TITLE = "Time curves in points"
 VARIABLES = "TIME"  "PRESSURE1"  "SATURATION1"  "TEMPERATURE1"  "DISPLACEMENT_X1"  "DISPLACEMENT_Y1"  "STRESS_XX"  "STRESS_XY"  "STRESS_YY"  "STRESS_ZZ"  "STRAIN_XX"  "STRAIN_XY"  "STRAIN_YY"  "STRAIN_PLS"  p_(1st_Invariant)  q_(2nd_Invariant)   Effective_Strain
 ZONE T="POINT=POINT8"
0.000000000000e+00 1.000000000000e+05 1.000000000000e+00 2.500000000000e+01 0.000000000000e+00 0.000000000000e+00 -1.862400571852e+07 -6.140100975330e+03 -1.726483383688e+07 -7.763601866620e+06 0.000000000000e+00 0.000000000000e+00 0.000000000000e+00 0.000000000000e+00 1.455081380734e+07 1.024864271960e+07  0.000000000000e+00
1.000000000000e-03 1.897522717761e+05 1.000000000000e+00 2.500000402545e+01 -8.135926720221e-04 6.276104790135e-05 -8.556586701887e+06 -4.872198322391e+03 -2.678551721727e+07 -7.599583320178e+06 3.678405888929e-04 9.418705421835e-08 -3.597175001396e-04 0.000000000000e+00 1.431389574645e+07 1.872578389735e+07  6.300968992495e-04
2.000000000000e-03 2.084844070581e+05 1.000000000000e+00 2.500004129614e+01 -8.129527863750e-04 6.217472154901e-05 -8.553957996594e+06 -5.122985220627e+03 -2.677411100515e+07 -7.595391011840e+06 3.677825122084e-04 7.555717034938e-08 -3.594495551419e-04 0.000000000000e+00 1.430782000453e+07 1.871785623904e+07  6.298152399767e-04
3.000000000000e-03 2.212358636005e+05 1.000000000000e+00 2.500021259078e+01 -8.122827971851e-04 6.169755732793e-05 -8.555315480881e+06 -5.226882762408e+03 -2.676417895827e+07 -7.592896702305e+06 3.676394455807e-04 6.783906724564e-08 -3.591732963262e-04 0.000000000000e+00 1.430413038048e+07 1.870865022260e+07  6.294525431483e-04
4.000000000000e-03 2.299404161370e+05 1.000000000000e+00 2.500074197247e+01 -8.115337608057e-04 6.118236343963e-05 -8.560253219091e+06 -5.269783875436e+03 -2.675513234392e+07 -7.591893281344e+06 3.674187739544e-04 6.465212742075e-08 -3.588745491434e-04 0.000000000000e+00 1.430242628145e+07 1.869787749090e+07  6.290029863732e-04
1.000000000000e-02 2.422636896225e+05 1.000000000000e+00 2.508100420461e+01 -8.036315110153e-04 5.838876641002e-05 -8.656599679242e+06 -5.325850385568e+03 -2.671440901179e+07 -7.638379426362e+06 3.655668193923e-04 6.048718666806e-08 -3.556353399921e-04 0.000000000000e+00 1.433646270580e+07 1.858784986633e+07  6.245991399069e-04
2.000000000000e-02 2.389194442018e+05 1.000000000000e+00 2.543889432663e+01 -7.864346309583e-04 5.657156286956e-05 -8.877161879693e+06 -5.361380128991e+03 -2.671053483845e+07 -7.832885170632e+06 3.645990081627e-04 5.784783429948e-08 -3.482669430524e-04 0.000000000000e+00 1.447352729626e+07 1.837777916913e+07  6.174140364684e-04
3.000000000000e-02 2.281317474452e+05 1.000000000000e+00 2.593499907333e+01 -7.685092963181e-04 5.692557472574e-05 -9.108294459524e+06 -5.383551630469e+03 -2.676170585797e+07 -8.095280748480e+06 3.657602052319e-04 5.620080847546e-08 -3.404214594573e-04 0.000000000000e+00 1.465509368866e+07 1.818109912857e+07  6.117024849895e-04
4.000000000000e-02 2.144253653967e+05 1.000000000000e+00 2.649268611841e+01 -7.512794844099e-04 5.961170539312e-05 -9.330115774398e+06 -5.405188224935e+03 -2.684433533051e+07 -8.385221480470e+06 3.682903550105e-04 5.459351860084e-08 -3.327213269634e-04 0.000000000000e+00 1.485322419513e+07 1.800527382896e+07  6.073543706753e-04
5.000000000000e-02 1.999260184664e+05 1.000000000000e+00 2.706394563609e+01 -7.352842124211e-04 6.329492404159e-05 -9.536775591973e+06 -5.417037541562e+03 -2.694469587313e+07 -8.680005994307e+06 3.715635580145e-04 5.371328365141e-08 -3.254998651754e-04 0.000000000000e+00 1.505382581980e+07 1.785173402074e+07  6.041138440450e-04
6.000000000000e-02 1.852654330480e+05 1.000000000000e+00 2.762301486876e+01 -7.206762704325e-04 6.929384501665e-05 -9.724220986193e+06 -5.427275238111e+03 -2.704706945105e+07 -8.964795103516e+06 3.751791817141e-04 5.295276905063e-08 -3.187244311559e-04 0.000000000000e+00 1.524536184692e+07 1.771477672621e+07  6.016007489130e-04
7.000000000000e-02 1.713197479364e+05 1.000000000000e+00 2.815767675716e+01 -7.073484109982e-04 7.531189136948e-05 -9.896567633336e+06 -5.436835305943e+03 -2.715176766839e+07 -9.236764806857e+06 3.788794666586e-04 5.224259258312e-08 -3.125114902473e-04 0.000000000000e+00 1.542836670286e+07 1.759438508308e+07  5.996809791293e-04
8.000000000000e-02 1.587386335393e+05 1.000000000000e+00 2.866318602226e+01 -6.951333658538e-04 8.211613206727e-05 -1.005479810600e+07 -5.449434211135e+03 -2.725215877095e+07 -9.492664241577e+06 3.825071709636e-04 5.130667391168e-08 -3.067354664815e-04 0.000000000000e+00 1.559987370618e+07 1.748520849803e+07  5.981027550943e-04
9.000000000000e-02 1.484204296669e+05 1.000000000000e+00 2.913867303407e+01 -6.838654127454e-04 8.830157040373e-05 -1.020267151216e+07 -5.457034676529e+03 -2.735053356290e+07 -9.734084790470e+06 3.859817791223e-04 5.074206791100e-08 -3.014223383663e-04 0.000000000000e+00 1.576242995517e+07 1.738689438131e+07  5.968089292519e-04
1.000000000000e-01 1.413689395457e+05 1.000000000000e+00 2.958516568313e+01 -6.734521161023e-04 9.384131591700e-05 -1.034130762903e+07 -5.464841106028e+03 -2.744650015972e+07 -9.961664975055e+06 3.892854159231e-04 5.016216171965e-08 -2.965338336780e-04 0.000000000000e+00 1.591649092127e+07 1.729814123943e+07  5.957447053005e-04
2.000000000000e-01 1.609113465756e+05 1.000000000000e+00 3.249981870886e+01 -6.099794489614e-04 1.886691544711e-04 -1.118610122762e+07 -5.504035141379e+03 -2.796439417514e+07 -1.139417786967e+07 4.111149897755e-04 4.725060480782e-08 -2.625622753078e-04 0.000000000000e+00 1.684822442414e+07 1.667523103735e+07  5.881307482690e-04
3.000000000000e-01 1.897684167318e+05 1.000000000000e+00 3.456723702577e+01 -5.645864040673e-04 2.983393669571e-04 -1.179709367503e+07 -5.522888376479e+03 -2.821785038616e+07 -1.237875577293e+07 4.249910209926e-04 4.585007877183e-08 -2.354063267392e-04 0.000000000000e+00 1.746456661137e+07 1.613779233574e+07  5.797232857570e-04
4.000000000000e-01 2.191248737762e+05 1.000000000000e+00 3.613366903686e+01 -5.305092850617e-04 4.037683070542e-04 -1.227715605490e+07 -5.530458359777e+03 -2.836137493901e+07 -1.311495044198e+07 4.345045060194e-04 4.528773715544e-08 -2.133928652799e-04 0.000000000000e+00 1.791782714530e+07 1.568211784176e+07  5.718835968735e-04
5.000000000000e-01 2.469765835129e+05 1.000000000000e+00 3.737981490638e+01 -5.034579272383e-04 5.061879784489e-04 -1.267710563179e+07 -5.530123685254e+03 -2.843327408875e+07 -1.369315897425e+07 4.411255529337e-04 4.531259869142e-08 -1.945870882147e-04 0.000000000000e+00 1.826784623160e+07 1.527351279047e+07  5.641748234308e-04
6.000000000000e-01 2.728380511316e+05 1.000000000000e+00 3.840699932436e+01 -4.814534953210e-04 6.060523677846e-04 -1.301942838844e+07 -5.533234337029e+03 -2.845980437780e+07 -1.416363855328e+07 4.458856634790e-04 4.508152170242e-08 -1.780975431581e-04 0.000000000000e+00 1.854762377317e+07 1.490125780892e+07  5.567260610634e-04
7.000000000000e-01 2.968189504268e+05 1.000000000000e+00 3.927684797067e+01 -4.633801727706e-04 7.035415520073e-04 -1.331747631811e+07 -5.533674640388e+03 -2.845794208620e+07 -1.455713938891e+07 4.494310571290e-04 4.504881345287e-08 -1.634126270039e-04 0.000000000000e+00 1.877751926441e+07 1.456027073172e+07  5.496677883660e-04
8.000000000000e-01 3.191955069579e+05 1.000000000000e+00 4.002870654053e+01 -4.487059035320e-04 7.988247770924e-04 -1.357727801456e+07 -5.539136864239e+03 -2.844095909882e+07 -1.489326396544e+07 4.522659069605e-04 4.464304825251e-08 -1.502972032017e-04 0.000000000000e+00 1.897050035961e+07 1.425133435712e+07  5.432384437682e-04
9.000000000000e-01 3.400202934397e+05 1.000000000000e+00 4.068907690810e+01 -4.363164931916e-04 8.918648980261e-04 -1.381254744433e+07 -5.546189086017e+03 -2.840964949590e+07 -1.518566336742e+07 4.543878773571e-04 4.411916892048e-08 -1.382737258767e-04 0.000000000000e+00 1.913595343589e+07 1.396128270127e+07  5.370455073751e-04
1.000000000000e+00 3.594526905246e+05 1.000000000000e+00 4.127662943239e+01 -4.258776834147e-04 9.827214795913e-04 -1.402644951207e+07 -5.556100484149e+03 -2.836838115876e+07 -1.544314586224e+07 4.560065789340e-04 4.338289363067e-08 -1.271772664042e-04 0.000000000000e+00 1.927932551103e+07 1.368868007879e+07  5.311400313839e-04
2.000000000000e+00 4.898300370408e+05 1.000000000000e+00 4.458659385047e+01 -3.851437722185e-04 1.735942712113e-03 -1.544130279719e+07 -5.631706545223e+03 -2.771454972885e+07 -1.682958562573e+07 4.549512195592e-04 3.776644337943e-08 -5.139576493495e-05 0.000000000000e+00 1.999514605059e+07 1.164136060090e+07  4.827056111626e-04
3.000000000000e+00 5.912502393109e+05 1.000000000000e+00 4.679648586261e+01 -3.676516032118e-04 2.378634954687e-03 -1.652415211503e+07 -5.556663800829e+03 -2.702089770083e+07 -1.771917508504e+07 4.477729962424e-04 4.334104724868e-08 7.410347451584e-06 0.000000000000e+00 2.042140830030e+07 9.953189857329e+06  4.441141987902e-04
4.000000000000e+00 6.763376842059e+05 1.000000000000e+00 4.845563679296e+01 -3.595287946014e-04 2.938977460346e-03 -1.741257924643e+07 -5.440666934339e+03 -2.636220274550e+07 -1.836809563072e+07 4.388770373446e-04 5.195795733085e-08 5.597892320355e-05 0.000000000000e+00 2.071429254088e+07 8.512188276334e+06  4.137376437804e-04
5.000000000000e+00 7.512946355432e+05 1.000000000000e+00 4.980826726303e+01 -3.553991355265e-04 3.436309264648e-03 -1.817000802025e+07 -5.295006971751e+03 -2.576314943817e+07 -1.888835751844e+07 4.300679815748e-04 6.277841169449e-08 9.755348759093e-05 0.000000000000e+00 2.094050499229e+07 7.260673341925e+06  3.905387714895e-04
6.000000000000e+00 8.193404637507e+05 1.000000000000e+00 5.098668253450e+01 -3.520461264637e-04 3.885061678934e-03 -1.884558282109e+07 -5.164251381501e+03 -2.521977137721e+07 -1.933988526390e+07 4.217462338038e-04 7.249168411310e-08 1.345071318296e-04 0.000000000000e+00 2.113507982073e+07 6.141979948532e+06  3.731409837273e-04
7.000000000000e+00 8.825714157559e+05 1.000000000000e+00 5.199331978804e+01 -3.504846330818e-04 4.292288929174e-03 -1.943418863231e+07 -5.060367941093e+03 -2.472406418801e+07 -1.971946939713e+07 4.139825714782e-04 8.020873968626e-08 1.670179523768e-04 0.000000000000e+00 2.129257407249e+07 5.153168499788e+06  3.607409926751e-04
8.000000000000e+00 9.416537060918e+05 1.000000000000e+00 5.293566927960e+01 -3.486417402748e-04 4.667717684604e-03 -1.997484086735e+07 -4.989292133193e+03 -2.428059481376e+07 -2.007798634044e+07 4.072175463569e-04 8.548865684448e-08 1.968060156004e-04 0.000000000000e+00 2.144447400718e+07 4.255127693380e+06  3.527263769288e-04
9.000000000000e+00 9.976178889083e+05 1.000000000000e+00 5.379586488110e+01 -3.470114176607e-04 5.015838343448e-03 -2.046959429119e+07 -4.923281152532e+03 -2.387294787081e+07 -2.040474866292e+07 4.009778768780e-04 9.039232969362e-08 2.240840740310e-04 0.000000000000e+00 2.158243027497e+07 3.436245896408e+06  3.480577513073e-04
1.000000000000e+01 1.050959049152e+06 1.000000000000e+00 5.457935807192e+01 -3.454537539586e-04 5.340013588515e-03 -2.092629755992e+07 -4.867125647220e+03 -2.349149604137e+07 -2.070112080968e+07 3.950227209190e-04 9.456388151679e-08 2.492603931469e-04 0.000000000000e+00 2.170630480366e+07 2.684891421004e+06  3.459916209141e-04
1.100000000000e+01 1.101971525748e+06 1.000000000000e+00 5.531115847719e+01 -3.441681724779e-04 5.643853689703e-03 -2.134798010002e+07 -4.859954483521e+03 -2.314021583591e+07 -2.097799056441e+07 3.896439603194e-04 9.509659653440e-08 2.725916773823e-04 0.000000000000e+00 2.182206216678e+07 2.003042813963e+06  3.462874020178e-04
1.200000000000e+01 1.151043677121e+06 1.000000000000e+00 5.598519287632e+01 -3.432925973794e-04 5.929337813354e-03 -2.173694966198e+07 -4.833261754609e+03 -2.281215027780e+07 -2.123179745332e+07 3.846236324631e-04 9.707948496791e-08 2.942040825575e-04 0.000000000000e+00 2.192696579770e+07 1.398014722833e+06  3.483296803276e-04
1.300000000000e+01 1.198431142852e+06 1.000000000000e+00 5.660414097440e+01 -3.427622841414e-04 6.198057650115e-03 -2.209644711194e+07 -4.810657441923e+03 -2.250200409725e+07 -2.146285963543e+07 3.798531796574e-04 9.875866248171e-08 3.143061074563e-04 0.000000000000e+00 2.202043694820e+07 9.071575457989e+05  3.516910892203e-04
1.400000000000e+01 1.244848089696e+06 1.000000000000e+00 5.717202786384e+01 -3.426312356076e-04 6.451554439299e-03 -2.242777310209e+07 -4.805290174071e+03 -2.220791493398e+07 -2.167241676958e+07 3.753303364347e-04 9.915737380785e-08 3.330129699317e-04 0.000000000000e+00 2.210270160188e+07 6.729775747014e+05  3.560627178545e-04
1.500000000000e+01 1.289842830218e+06 1.000000000000e+00 5.769272757371e+01 -3.428597791909e-04 6.690758352700e-03 -2.273379486505e+07 -4.805468364197e+03 -2.192942449386e+07 -2.186254717402e+07 3.710258002608e-04 9.914413682703e-08 3.504188870155e-04 0.000000000000e+00 2.217525551098e+07 8.398497973607e+05  3.611635672983e-04
1.600000000000e+01 1.333555268483e+06 1.000000000000e+00 5.816975980579e+01 -3.432641006602e-04 6.916686320093e-03 -2.301831824185e+07 -4.808478581702e+03 -2.166325852848e+07 -2.203464216202e+07 3.668498886771e-04 9.892052066951e-08 3.666971509984e-04 0.000000000000e+00 2.223873964412e+07 1.212821089215e+06  3.667735837088e-04
1.700000000000e+01 1.376119091317e+06 1.000000000000e+00 5.860621954810e+01 -3.436238408418e-04 7.130222597057e-03 -2.328553052843e+07 -4.811380112479e+03 -2.140607899366e+07 -2.219003969888e+07 3.626967694017e-04 9.870497838324e-08 3.820214422323e-04 0.000000000000e+00 2.229388307366e+07 1.635110319340e+06  3.727350468468e-04
1.800000000000e+01 1.417665494257e+06 1.000000000000e+00 5.900482333236e+01 -3.439115794396e-04 7.332159135490e-03 -2.353688528726e+07 -4.824243760115e+03 -2.115673462452e+07 -2.232978121669e+07 3.585511347352e-04 9.774939313032e-08 3.964732037472e-04 0.000000000000e+00 2.234113370949e+07 2.061358212669e+06  3.789380280186e-04
1.900000000000e+01 1.458284177490e+06 1.000000000000e+00 5.936796184715e+01 -3.441165424469e-04 7.523183644829e-03 -2.377357669541e+07 -4.839796330603e+03 -2.091456179216e+07 -2.245486257528e+07 3.544056186087e-04 9.659405932262e-08 4.101140736967e-04 0.000000000000e+00 2.238100035428e+07 2.478471322394e+06  3.852923460804e-04
2.000000000000e+01 1.498058933073e+06 1.000000000000e+00 5.969774740413e+01 -3.445893853288e-04 7.703917911034e-03 -2.399227138841e+07 -4.889643769133e+03 -2.068336263116e+07 -2.256616367550e+07 3.504167137342e-04 9.289110674607e-08 4.228355119709e-04 0.000000000000e+00 2.241393256502e+07 2.874695079212e+06  3.916798932538e-04
2.100000000000e+01 1.536914098402e+06 1.000000000000e+00 6.002784237796e+01 -3.446645851006e-04 7.876633545579e-03 -2.420374006217e+07 -4.910775749185e+03 -2.046631705865e+07 -2.267971749471e+07 3.467798762794e-04 9.132130251363e-08 4.351149179489e-04 0.000000000000e+00 2.244992487184e+07 3.255016257869e+06  3.983618983025e-04
2.200000000000e+01 1.575000746812e+06 1.000000000000e+00 6.034057872358e+01 -3.445788572647e-04 8.041737256540e-03 -2.440614565504e+07 -4.935607069835e+03 -2.025632750678e+07 -2.278659942539e+07 3.432318545408e-04 8.947669012250e-08 4.468844301580e-04 0.000000000000e+00 2.248302419574e+07 3.622591806774e+06  4.051281922785e-04
2.300000000000e+01 1.612388172488e+06 1.000000000000e+00 6.063232558030e+01 -3.447992620064e-04 8.199513678786e-03 -2.459436560571e+07 -4.974993913866e+03 -2.005628300870e+07 -2.288486385941e+07 3.398906496368e-04 8.655081028021e-08 4.579644762075e-04 0.000000000000e+00 2.251183749127e+07 3.969736012021e+06  4.118243488708e-04
2.400000000000e+01 1.649122696109e+06 1.000000000000e+00 6.090262542673e+01 -3.451537831699e-04 8.350227558412e-03 -2.477089602352e+07 -5.006289236837e+03 -1.986299175307e+07 -2.297414128939e+07 3.366498243743e-04 8.422601485953e-08 4.684598845301e-04 0.000000000000e+00 2.253600968866e+07 4.300886752608e+06  4.184266376484e-04
2.500000000000e+01 1.685258508133e+06 1.000000000000e+00 6.115184454688e+01 -3.455793084526e-04 8.494138670118e-03 -2.493695100237e+07 -5.035001776015e+03 -1.967534191051e+07 -2.305459042260e+07 3.334701786794e-04 8.209308337768e-08 4.784178464874e-04 0.000000000000e+00 2.255562777850e+07 4.617752927655e+06  4.249093213526e-04
2.600000000000e+01 1.720830930678e+06 1.000000000000e+00 6.138059466342e+01 -3.459933028382e-04 8.631491702996e-03 -2.509403334166e+07 -5.062765616671e+03 -1.949231275177e+07 -2.312656992390e+07 3.303092161250e-04 8.003062664325e-08 4.878895967171e-04 0.000000000000e+00 2.257097200578e+07 4.922304584756e+06  4.312609718134e-04
2.700000000000e+01 1.755869154182e+06 1.000000000000e+00 6.158955581002e+01 -3.463761676944e-04 8.762524563545e-03 -2.524270029294e+07 -5.090520061741e+03 -1.931342390414e+07 -2.319034084894e+07 3.271559351509e-04 7.796886786665e-08 4.969026739882e-04 0.000000000000e+00 2.258215501534e+07 5.215320616200e+06  4.374684360853e-04
2.800000000000e+01 1.790413798117e+06 1.000000000000e+00 6.177940892914e+01 -3.466786186774e-04 8.887457743162e-03 -2.538385157992e+07 -5.121473375066e+03 -1.913787337017e+07 -2.324617083467e+07 3.239868582473e-04 7.566947887676e-08 5.054968075767e-04 0.000000000000e+00 2.258929859492e+07 5.498190074878e+06  4.435315111962e-04
2.900000000000e+01 1.824490651884e+06 1.000000000000e+00 6.195081186402e+01 -3.468784545880e-04 9.006496577869e-03 -2.551813446265e+07 -5.153284897487e+03 -1.896536831189e+07 -2.329439644529e+07 3.207904452829e-04 7.330633721119e-08 5.136953752788e-04 0.000000000000e+00 2.259263307328e+07 5.771672154341e+06  4.494450982196e-04
3.000000000000e+01 1.858108449564e+06 1.000000000000e+00 6.210439119759e+01 -3.469901837224e-04 9.119845788618e-03 -2.564553899837e+07 -5.181567117574e+03 -1.879575561560e+07 -2.333518806423e+07 3.175733940884e-04 7.120537229047e-08 5.215103927015e-04 0.000000000000e+00 2.259216089274e+07 6.035886922285e+06  4.552012083426e-04
3.100000000000e+01 1.891186849834e+06 1.000000000000e+00 6.226590502672e+01 -3.465886505300e-04 9.229052655261e-03 -2.577316939291e+07 -5.215602152358e+03 -1.863344386859e+07 -2.338106712332e+07 3.145369159142e-04 6.867705542083e-08 5.292431940706e-04 0.000000000000e+00 2.259589346161e+07 6.294359523201e+06  4.610480691435e-04
3.200000000000e+01 1.923803508599e+06 1.000000000000e+00 6.242060102855e+01 -3.459287664057e-04 9.334225559062e-03 -2.589830597012e+07 -5.250387604484e+03 -1.847362177888e+07 -2.342456322493e+07 3.115045553923e-04 6.609299326282e-08 5.367950126058e-04 0.000000000000e+00 2.259883032464e+07 6.548180094907e+06  4.668724611229e-04
3.300000000000e+01 1.955985196901e+06 1.000000000000e+00 6.256492306584e+01 -3.450745907423e-04 9.435421484726e-03 -2.602037284865e+07 -5.284896785084e+03 -1.831509528361e+07 -2.346389696146e+07 3.084316101181e-04 6.352945413254e-08 5.441441069299e-04 0.000000000000e+00 2.259978836457e+07 6.797690696655e+06  4.726432442106e-04
3.400000000000e+01 1.987757367210e+06 1.000000000000e+00 6.269791394810e+01 -3.440660645067e-04 9.532669634999e-03 -2.613903998096e+07 -5.316955694374e+03 -1.815781598340e+07 -2.349861925750e+07 3.053136590563e-04 6.114793515674e-08 5.512755947903e-04 0.000000000000e+00 2.259849174062e+07 7.042588562768e+06  4.783401028987e-04
3.500000000000e+01 2.019156671974e+06 1.000000000000e+00 6.281934767946e+01 -3.427304090386e-04 9.626030523292e-03 -2.625653475575e+07 -5.352707153807e+03 -1.799954433644e+07 -2.352864724182e+07 3.020648925531e-04 5.849211245596e-08 5.582695810951e-04 0.000000000000e+00 2.259490877800e+07 7.286645727648e+06  4.840191047098e-04
3.600000000000e+01 2.050221244270e+06 1.000000000000e+00 6.292925655316e+01 -3.408714884737e-04 9.715555649452e-03 -2.637537621972e+07 -5.384519276593e+03 -1.783785520187e+07 -2.355402035007e+07 2.985932107693e-04 5.612892619189e-08 5.652176072570e-04 0.000000000000e+00 2.258908392389e+07 7.534057075484e+06  4.897537323880e-04
3.700000000000e+01 2.081022622880e+06 1.000000000000e+00 6.302778449203e+01 -3.377605053714e-04 9.801308347829e-03 -2.650478330181e+07 -5.347391517870e+03 -1.766426355215e+07 -2.357500912588e+07 2.945662451076e-04 5.888698826846e-08 5.724448802051e-04 0.000000000000e+00 2.258135199328e+07 7.799854196424e+06  4.958220297040e-04
3.800000000000e+01 2.113330364229e+06 1.000000000000e+00 6.311537564157e+01 -3.106769535042e-04 9.883304771749e-03 -2.692833205542e+07 -3.277313543916e+03 -1.721390539791e+07 -2.359738302718e+07 2.796654648792e-04 2.126642091908e-07 5.900034994109e-04 0.000000000000e+00 2.257987349350e+07 8.550267767757e+06  5.111882571992e-04
3.900000000000e+01 2.143157947788e+06 1.000000000000e+00 6.319159883550e+01 -3.150497005385e-04 9.961885941638e-03 -2.695365721069e+07 -5.746355696137e+03 -1.713099173215e+07 -2.360654368590e+07 2.790650692926e-04 2.924964931151e-08 5.934234028915e-04 0.000000000000e+00 2.256373087625e+07 8.649303361555e+06  5.142226244707e-04
4.000000000000e+01 2.172544101843e+06 1.000000000000e+00 6.325687785189e+01 -3.207926157551e-04 1.003682850439e-02 -2.695803236939e+07 -5.744150806153e+03 -1.706858242387e+07 -2.361174013613e+07 2.790955744069e-04 2.941344113886e-08 5.959344739222e-04 0.000000000000e+00 2.254611830980e+07 8.712405028303e+06  5.164393141016e-04
4.200000000000e+01 2.229827605392e+06 1.000000000000e+00 6.339719070174e+01 -3.309964165000e-04 1.017717417162e-02 -2.696921848512e+07 -5.745056087933e+03 -1.695423357113e+07 -2.362950571917e+07 2.793399546212e-04 2.934619163523e-08 6.008415815366e-04 0.000000000000e+00 2.251765259181e+07 8.832130560368e+06  5.207709273892e-04
4.400000000000e+01 2.285593809495e+06 1.000000000000e+00 6.351556358873e+01 -3.405902412262e-04 1.030801348774e-02 -2.697517781491e+07 -5.745159901541e+03 -1.684211225358e+07 -2.363869684619e+07 2.794599928041e-04 2.933847976722e-08 6.053474723352e-04 0.000000000000e+00 2.248532897156e+07 8.944408395485e+06  5.247599948168e-04
5.000000000000e+01 2.437116678573e+06 1.000000000000e+00 6.356115187483e+01 -3.637687904036e-04 1.058171347397e-02 -2.693412689836e+07 -5.743311036179e+03 -1.654145333837e+07 -2.355096812282e+07 2.777262456937e-04 2.947582405127e-08 6.132563080322e-04 0.000000000000e+00 2.234218278652e+07 9.181147053942e+06  5.318813753245e-04
6.500000000000e+01 2.768502507756e+06 1.000000000000e+00 6.327264371380e+01 -4.018759592497e-04 1.104605229872e-02 -2.671776727623e+07 -5.741860422743e+03 -1.583683343882e+07 -2.317145539275e+07 2.716662731125e-04 2.958358390648e-08 6.253317171839e-04 0.000000000000e+00 2.190868536927e+07 9.611657665822e+06  5.431029239676e-04
8.000000000000e+01 3.023556374630e+06 1.000000000000e+00 6.265086950878e+01 -4.241552736859e-04 1.126641797099e-02 -2.646209415509e+07 -5.739818865195e+03 -1.530557695703e+07 -2.271603281256e+07 2.642470074910e-04 2.973524246716e-08 6.281484049580e-04 0.000000000000e+00 2.149456797489e+07 9.834020165546e+06  5.462696824842e-04
1.000000000000e+02 3.324236305531e+06 1.000000000000e+00 6.190767060370e+01 -4.425627001392e-04 1.145090322502e-02 -2.616358959306e+07 -5.738212301703e+03 -1.475139447269e+07 -2.219847846752e+07 2.561108726934e-04 2.985458718375e-08 6.295088787033e-04 0.000000000000e+00 2.103782084442e+07 1.003542628123e+07  5.483157319091e-04
1.860000000000e+02 3.922717201764e+06 1.000000000000e+00 5.994700809414e+01 -4.674944857819e-04 1.167022993691e-02 -2.540513341395e+07 -5.734861055085e+03 -1.354366277095e+07 -2.091931719163e+07 2.367703976700e-04 3.010353693254e-08 6.268557802347e-04 0.000000000000e+00 1.995603779218e+07 1.037346394558e+07  5.482586075724e-04
2.720000000000e+02 4.213038211969e+06 1.000000000000e+00 5.827378534171e+01 -4.668894860008e-04 1.150214105219e-02 -2.491441720966e+07 -5.734828223276e+03 -1.307383499796e+07 -2.004403398742e+07 2.224864805305e-04 3.010597586685e-08 6.117960070753e-04 0.000000000000e+00 1.934409539835e+07 1.030785843727e+07  5.363564585184e-04
3.580000000000e+02 4.354403691727e+06 1.000000000000e+00 5.705890390729e+01 -4.621486166249e-04 1.132624740726e-02 -2.457124282530e+07 -5.733398413783e+03 -1.279863138261e+07 -1.943245173983e+07 2.125170456105e-04 3.021219028636e-08 5.993019435923e-04 0.000000000000e+00 1.893410864925e+07 1.022275216769e+07  5.262741096862e-04
4.440000000000e+02 4.426532453839e+06 1.000000000000e+00 5.611635431592e+01 -4.567472422146e-04 1.116165845835e-02 -2.431761290638e+07 -5.732970315214e+03 -1.263002517018e+07 -1.897530983899e+07 2.049580291393e-04 3.024399189438e-08 5.885849037368e-04 0.000000000000e+00 1.864098263852e+07 1.013416853730e+07  5.174985830982e-04
5.300000000000e+02 4.465496889446e+06 1.000000000000e+00 5.538231376721e+01 -4.516540721120e-04 1.101901173398e-02 -2.412662521705e+07 -5.732388160411e+03 -1.252191037145e+07 -1.862826011290e+07 1.991614392021e-04 3.028723767974e-08 5.797101778631e-04 0.000000000000e+00 1.842559856713e+07 1.005457929982e+07  5.101698330868e-04
6.160000000000e+02 4.488012314786e+06 1.000000000000e+00 5.481765606841e+01 -4.472173433296e-04 1.090078801033e-02 -2.398359305091e+07 -5.732554533641e+03 -1.245246565344e+07 -1.836660238220e+07 1.947553468046e-04 3.027487852549e-08 5.725708373922e-04 0.000000000000e+00 1.826755369552e+07 9.987359351912e+06  5.042378205610e-04
7.020000000000e+02 4.501822576458e+06 1.000000000000e+00 5.440041979532e+01 -4.437336248122e-04 1.081009981513e-02 -2.387951536706e+07 -5.731161156644e+03 -1.240677174282e+07 -1.817543869024e+07 1.915207236458e-04 3.037838653099e-08 5.671676740851e-04 0.000000000000e+00 1.815390860004e+07 9.935744874698e+06  4.997349272486e-04
7.880000000000e+02 4.511441113274e+06 1.000000000000e+00 5.406843927210e+01 -4.404690879939e-04 1.072837945165e-02 -2.380206066308e+07 -5.732786418089e+03 -1.238762029573e+07 -1.803013033865e+07 1.890004453064e-04 3.025765282360e-08 5.624818462038e-04 0.000000000000e+00 1.807327043249e+07 9.885412114404e+06  4.957798694705e-04
8.740000000000e+02 4.519827167133e+06 1.000000000000e+00 5.354181640403e+01 -4.360766555286e-04 1.061285251997e-02 -2.367045385858e+07 -5.732309277515e+03 -1.232936902358e+07 -1.778860177647e+07 1.849176371638e-04 3.029309755199e-08 5.556744040026e-04 0.000000000000e+00 1.792947488621e+07 9.823945453760e+06  4.901169051669e-04
9.370000000000e+02 4.525201002277e+06 1.000000000000e+00 5.316712255178e+01 -4.320456936912e-04 1.051789613939e-02 -2.358114855578e+07 -5.731267874324e+03 -1.230566549758e+07 -1.762342391791e+07 1.820995136641e-04 3.037045893193e-08 5.504196430789e-04 0.000000000000e+00 1.783674599043e+07 9.770101144766e+06  4.856859786066e-04
1.000000000000e+03 4.529391016052e+06 1.000000000000e+00 5.286584965629e+01 -4.283949545283e-04 1.043839569080e-02 -2.350822618900e+07 -5.732392569974e+03 -1.228691714072e+07 -1.749039233473e+07 1.798668856265e-04 3.028691011216e-08 5.461748375302e-04 0.000000000000e+00 1.776184522148e+07 9.726470385277e+06  4.820998707881e-04
1.100000000000e+03 4.533536316160e+06 1.000000000000e+00 5.255967195153e+01 -4.244185293747e-04 1.035522223020e-02 -2.343378838104e+07 -5.731101743774e+03 -1.226908868094e+07 -1.735547801325e+07 1.776206151245e-04 3.038280005843e-08 5.418259340956e-04 0.000000000000e+00 1.768611835841e+07 9.681630281969e+06  4.784192438026e-04
1.200000000000e+03 4.536797682874e+06 1.000000000000e+00 5.229905566997e+01 -4.212343755625e-04 1.028610403348e-02 -2.337067980485e+07 -5.732431496031e+03 -1.225301715165e+07 -1.724043602814e+07 1.756916599359e-04 3.028401846222e-08 5.381498885934e-04 0.000000000000e+00 1.762137766155e+07 9.645124567528e+06  4.753150718147e-04
1.300000000000e+03 4.539703052077e+06 1.000000000000e+00 5.204954421879e+01 -4.182447530873e-04 1.022031568672e-02 -2.331040361658e+07 -5.731825703234e+03 -1.223754595505e+07 -1.713031051866e+07 1.738401137193e-04 3.032902021284e-08 5.346341569723e-04 0.000000000000e+00 1.755942003010e+07 9.610959101190e+06  4.723486075482e-04
1.400000000000e+03 4.542442562524e+06 1.000000000000e+00 5.179372965818e+01 -4.151450404768e-04 1.015233748545e-02 -2.324869423206e+07 -5.730023510792e+03 -1.222218099297e+07 -1.701758081641e+07 1.719450733465e-04 3.046289736565e-08 5.310177523374e-04 0.000000000000e+00 1.749615201381e+07 9.576189875840e+06  4.692963647373e-04
1.500000000000e+03 4.545082446453e+06 1.000000000000e+00 5.152154209752e+01 -4.117573977270e-04 1.007895232659e-02 -2.318311554192e+07 -5.731606911605e+03 -1.220669814105e+07 -1.689792439627e+07 1.699364719468e-04 3.034527330528e-08 5.271484483751e-04 0.000000000000e+00 1.742924602641e+07 9.539212954457e+06  4.660280532064e-04
1.600000000000e+03 4.547643486991e+06 1.000000000000e+00 5.122683981314e+01 -4.079760219294e-04 9.998183276648e-03 -2.311217356879e+07 -5.731473786258e+03 -1.219097218664e+07 -1.676870590155e+07 1.677719154305e-04 3.035516261680e-08 5.229330111636e-04 0.000000000000e+00 1.735728388566e+07 9.499159561200e+06  4.624639224971e-04
1.700000000000e+03 4.550130771773e+06 1.000000000000e+00 5.090583175429e+01 -4.037329600079e-04 9.908810589980e-03 -2.303496710580e+07 -5.731889296264e+03 -1.217494780437e+07 -1.662831150697e+07 1.654249351141e-04 3.032429615918e-08 5.183135535634e-04 0.000000000000e+00 1.727940880572e+07 9.455630613147e+06  4.585546486044e-04
1.800000000000e+03 4.552544175197e+06 1.000000000000e+00 5.055622983281e+01 -3.989890863109e-04 9.810096973026e-03 -2.295094008399e+07 -5.730928856383e+03 -1.215858192202e+07 -1.647576064069e+07 1.628797637483e-04 3.039564312182e-08 5.132552541601e-04 0.000000000000e+00 1.719509421556e+07 9.408537948833e+06  4.542707139946e-04
1.900000000000e+03 4.554883463306e+06 1.000000000000e+00 5.017674738919e+01 -3.937210626138e-04 9.701624762298e-03 -2.285979095884e+07 -5.730104761055e+03 -1.214186849890e+07 -1.631051069723e+07 1.601274476397e-04 3.045686163187e-08 5.077381834049e-04 0.000000000000e+00 1.710405671832e+07 9.358010167357e+06  4.495954245541e-04
2.000000000000e+03 4.557147803229e+06 1.000000000000e+00 4.976678229369e+01 -3.879189031760e-04 9.583206275703e-03 -2.276137230947e+07 -5.731179528440e+03 -1.212478801838e+07 -1.613230085057e+07 1.571637745971e-04 3.037702176903e-08 5.017533783767e-04 0.000000000000e+00 1.700615372614e+07 9.304350325723e+06  4.445215997719e-04