 TITLE = "Time curves in points"
 VARIABLES = "TIME"  "PRESSURE1"  "SATURATION1"  "TEMPERATURE1"  "DISPLACEMENT_X1"  "DISPLACEMENT_Y1"  "STRESS_XX"  "STRESS_XY"  "STRESS_YY"  "STRESS_ZZ"  "STRAIN_XX"  "STRAIN_XY"  "STRAIN_YY"  "STRAIN_PLS"  p_(1st_Invariant)  q_(2nd_Invariant)   Effective_Strain
 ZONE T="POINT=POINT18"
0.000000000000e+00 1.000000000000e+05 1.000000000000e+00 2.500000000000e+01 0.000000000000e+00 0.000000000000e+00 -3.130685851467e+07 -1.409868786187e+04 -1.352808692198e+07 -1.044743363099e+07 0.000000000000e+00 0.000000000000e+00 0.000000000000e+00 0.000000000000e+00 1.842745968921e+07 1.950246065449e+07  0.000000000000e+00
1.000000000000e-03 3.083650975032e+05 1.000000000000e+00 2.500000000001e+01 -2.591700315263e-06 6.303343745959e-05 -3.127133940259e+07 -1.351238956656e+04 -1.348470148524e+07 -1.042376226636e+07 4.400591906404e-07 4.355358765215e-08 7.322369638069e-07 0.000000000000e+00 1.839326771806e+07 1.949815895494e+07  6.428733948255e-07
2.000000000000e-03 3.159689439173e+05 1.000000000000e+00 2.499999999999e+01 -2.299213470795e-06 6.240428724563e-05 -3.127318414043e+07 -1.356072411661e+04 -1.348431051030e+07 -1.042419839522e+07 3.877394285759e-07 3.996302107631e-08 7.629579623213e-07 0.000000000000e+00 1.839389768198e+07 1.949986693736e+07  6.643861539531e-07
3.000000000000e-03 3.211298798470e+05 1.000000000000e+00 2.499999999994e+01 -2.079668358720e-06 6.190725268461e-05 -3.127478214275e+07 -1.358889887371e+04 -1.348441975223e+07 -1.042471056848e+07 3.474086349188e-07 3.787003912047e-08 7.779239831030e-07 0.000000000000e+00 1.839463748782e+07 1.950109492922e+07  6.781617754279e-07
4.000000000000e-03 3.246441808822e+05 1.000000000000e+00 2.499999999989e+01 -1.902745417661e-06 6.138371172407e-05 -3.127640372875e+07 -1.360824439335e+04 -1.348517579966e+07 -1.042542385849e+07 3.136719269233e-07 3.643294337605e-08 7.763358502095e-07 0.000000000000e+00 1.839566779563e+07 1.950197869220e+07  6.793782054751e-07
1.000000000000e-02 3.282972316046e+05 1.000000000000e+00 2.499999999994e+01 -8.784372996514e-07 5.856314257102e-05 -3.128865062688e+07 -1.367036372681e+04 -1.349370276258e+07 -1.043165601681e+07 9.026730536004e-08 3.181836431866e-08 6.911002509938e-07 0.000000000000e+00 1.840466980209e+07 1.950707109235e+07  6.530093497596e-07
2.000000000000e-02 3.209720154730e+05 1.000000000000e+00 2.499999999911e+01 1.436059099206e-06 5.672188359800e-05 -3.131210073873e+07 -1.373061263483e+04 -1.350129484780e+07 -1.044096867613e+07 -4.348380745350e-07 2.734273115198e-08 7.550072885834e-07 0.000000000000e+00 1.841812142089e+07 1.952172747882e+07  1.043872093385e-06
3.000000000000e-02 3.083467034309e+05 1.000000000000e+00 2.499999998948e+01 4.215272768198e-06 5.706016896993e-05 -3.133702084266e+07 -1.377139477495e+04 -1.350251618593e+07 -1.044881111240e+07 -1.069151444556e-06 2.431320074308e-08 1.000933791225e-06 0.000000000000e+00 1.842944938033e+07 1.954115035854e+07  1.793565295661e-06
4.000000000000e-02 2.935043100365e+05 1.000000000000e+00 2.499999996592e+01 7.298315316557e-06 5.973250835004e-05 -3.136172414314e+07 -1.380195451376e+04 -1.349690683607e+07 -1.045453933439e+07 -1.773940074341e-06 2.204304871713e-08 1.422043602755e-06 0.000000000000e+00 1.843772343787e+07 1.956424311111e+07  2.773652685155e-06
5.000000000000e-02 2.781876015460e+05 1.000000000000e+00 2.500000002207e+01 1.057836188406e-05 6.340842154006e-05 -3.138683143510e+07 -1.382592342005e+04 -1.348815270750e+07 -1.045944548874e+07 -2.524268042481e-06 2.026250139242e-08 1.929425539843e-06 0.000000000000e+00 1.844480987711e+07 1.958944099630e+07  3.868621330856e-06
6.000000000000e-02 2.628169376310e+05 1.000000000000e+00 2.500000066198e+01 1.398529105632e-05 6.940140790473e-05 -3.141024108304e+07 -1.384461003840e+04 -1.347281884405e+07 -1.046186901983e+07 -3.303752382742e-06 1.887435260103e-08 2.588985908362e-06 0.000000000000e+00 1.844830964897e+07 1.961698725036e+07  5.115864045043e-06
7.000000000000e-02 2.482548207077e+05 1.000000000000e+00 2.500000344145e+01 1.747994992910e-05 7.541238950734e-05 -3.143428506827e+07 -1.385950415672e+04 -1.345714744689e+07 -1.046438319583e+07 -4.103431011530e-06 1.776793238273e-08 3.264450054112e-06 0.000000000000e+00 1.845193857033e+07 1.964525454118e+07  6.394620622686e-06
8.000000000000e-02 2.351205290081e+05 1.000000000000e+00 2.500001194551e+01 2.103746390361e-05 8.220943916644e-05 -3.145793537899e+07 -1.387163289563e+04 -1.343925742312e+07 -1.046611729517e+07 -4.917461719835e-06 1.686694034931e-08 3.993346055391e-06 0.000000000000e+00 1.845443669909e+07 1.967447456090e+07  7.730861680732e-06
9.000000000000e-02 2.243279765763e+05 1.000000000000e+00 2.500003296209e+01 2.464282252826e-05 8.839183270117e-05 -3.148265966750e+07 -1.388235384587e+04 -1.342287876427e+07 -1.046863405021e+07 -5.742312962686e-06 1.607052690272e-08 4.695175714290e-06 0.000000000000e+00 1.845805749399e+07 1.970372651385e+07  9.054323624725e-06
1.000000000000e-01 2.168958664196e+05 1.000000000000e+00 2.500007761001e+01 2.827963977826e-05 9.392745955548e-05 -3.150836091395e+07 -1.389111266053e+04 -1.340812334235e+07 -1.047194315324e+07 -6.574021147058e-06 1.541987209982e-08 5.366143783772e-06 0.000000000000e+00 1.846280913651e+07 1.973286325185e+07  1.035814216837e-05
2.000000000000e-01 2.305342222078e+05 1.000000000000e+00 2.502667785432e+01 6.436469471753e-05 1.887325671860e-04 -3.172033899284e+07 -1.394711634661e+04 -1.316175158221e+07 -1.047210480700e+07 -1.444148836632e-05 1.125959827654e-08 1.452309915726e-05 0.000000000000e+00 1.845139846068e+07 2.003926133372e+07  2.508410937674e-05
3.000000000000e-01 2.539215366433e+05 1.000000000000e+00 2.509252329441e+01 9.878038898144e-05 2.983914913754e-04 -3.191255152277e+07 -1.396833882919e+04 -1.289726342889e+07 -1.047558646295e+07 -2.145149225693e-05 9.683070999641e-09 2.447626350189e-05 0.000000000000e+00 1.842846713820e+07 2.033458067288e+07  3.980334977534e-05
4.000000000000e-01 2.778424060555e+05 1.000000000000e+00 2.519884269912e+01 1.305207523925e-04 4.038127960507e-04 -3.210297586274e+07 -1.396539075309e+04 -1.266909860244e+07 -1.050415558315e+07 -2.746325756254e-05 9.902070937940e-09 3.401209580592e-05 0.000000000000e+00 1.842541001611e+07 2.060185393730e+07  5.333982019627e-05
5.000000000000e-01 3.006476900648e+05 1.000000000000e+00 2.534048625341e+01 1.591870397449e-04 5.062273518095e-04 -3.228891251976e+07 -1.395317040824e+04 -1.247260895416e+07 -1.055344963675e+07 -3.253855426131e-05 1.080986798434e-08 4.314120473273e-05 0.000000000000e+00 1.843832370355e+07 2.084227164172e+07  6.575464881559e-05
6.000000000000e-01 3.220253449416e+05 1.000000000000e+00 2.551037594353e+01 1.846647483479e-04 6.060825475983e-04 -3.246903947620e+07 -1.394303537594e+04 -1.230338652089e+07 -1.061902887154e+07 -3.679318392237e-05 1.156275609789e-08 5.186240954638e-05 0.000000000000e+00 1.846381828954e+07 2.105842764404e+07  7.714681770036e-05
7.000000000000e-01 3.420511584359e+05 1.000000000000e+00 2.570176351459e+01 2.070505250972e-04 7.035621654016e-04 -3.264291651142e+07 -1.394001883840e+04 -1.215734047791e+07 -1.069703174123e+07 -4.035422435637e-05 1.178684174368e-08 6.018422630288e-05 0.000000000000e+00 1.849909624352e+07 2.125340386059e+07  8.763157368672e-05
8.000000000000e-01 3.610103641588e+05 1.000000000000e+00 2.590902649044e+01 2.265416083673e-04 7.988315203078e-04 -3.281035920378e+07 -1.394543649429e+04 -1.203076154042e+07 -1.078425465478e+07 -4.333381614049e-05 1.138438730634e-08 6.812543791266e-05 0.000000000000e+00 1.854179179966e+07 2.143007124255e+07  9.731921959151e-05
9.000000000000e-01 3.788546175728e+05 1.000000000000e+00 2.612776105972e+01 2.434548528398e-04 8.918572703213e-04 -3.297215893066e+07 -1.395803538727e+04 -1.192089239751e+07 -1.087854418390e+07 -4.584133777205e-05 1.044846954202e-08 7.570847430239e-05 0.000000000000e+00 1.859053183736e+07 2.159133268221e+07  1.063192334441e-04
1.000000000000e+00 3.956972551497e+05 1.000000000000e+00 2.635461483105e+01 2.580594968052e-04 9.826966989988e-04 -3.312858226317e+07 -1.397628762147e+04 -1.182529068225e+07 -1.097807778804e+07 -4.795438482543e-05 9.092589287312e-09 8.295635759448e-05 0.000000000000e+00 1.864398357782e+07 2.173929647427e+07  1.147148710201e-04
2.000000000000e+00 5.150057627839e+05 1.000000000000e+00 2.862803369585e+01 3.108727437876e-04 1.735802208514e-03 -3.437808769090e+07 -1.415020815952e+04 -1.141887505842e+07 -1.203362113171e+07 -5.515869080481e-05 -3.827222110909e-09 1.372576906733e-04 0.000000000000e+00 1.927686129368e+07 2.265810831274e+07  1.716190822276e-04
3.000000000000e+00 6.107955930557e+05 1.000000000000e+00 3.070915667974e+01 3.270244472687e-04 2.378438334863e-03 -3.541880714245e+07 -1.424926499365e+04 -1.123046050738e+07 -1.301982797939e+07 -5.718344466301e-05 -1.118572978943e-08 1.808864854824e-04 0.000000000000e+00 1.988969854307e+07 2.334516475295e+07  2.152523627790e-04
4.000000000000e+00 6.926709898540e+05 1.000000000000e+00 3.256538003682e+01 3.289427555994e-04 2.938759389122e-03 -3.630766732063e+07 -1.429709590768e+04 -1.113267297199e+07 -1.390710444911e+07 -5.724226811999e-05 -1.473888340297e-08 2.174745771010e-04 0.000000000000e+00 2.044914824724e+07 2.390882947655e+07  2.510390560216e-04
5.000000000000e+00 7.655249447360e+05 1.000000000000e+00 3.421390786706e+01 3.256611931861e-04 3.436085952388e-03 -3.708126946413e+07 -1.431762415759e+04 -1.107330778349e+07 -1.469797068799e+07 -5.660103029156e-05 -1.626383911043e-08 2.490546015467e-04 0.000000000000e+00 2.095084931187e+07 2.439841742840e+07  2.816533667854e-04
6.000000000000e+00 8.320078002305e+05 1.000000000000e+00 3.568672708440e+01 3.210612551017e-04 3.884839726048e-03 -3.776770289974e+07 -1.432486629612e+04 -1.102921342102e+07 -1.540558569021e+07 -5.581428638864e-05 -1.680182654401e-08 2.769752350922e-04 0.000000000000e+00 2.140083400366e+07 2.484114501331e+07  3.086902838774e-04
7.000000000000e+00 8.939780193959e+05 1.000000000000e+00 3.700928498412e+01 3.156495346493e-04 4.292070565347e-03 -3.837869914442e+07 -1.432682990431e+04 -1.099591992038e+07 -1.604115283606e+07 -5.490165291696e-05 -1.694769458074e-08 3.018186305331e-04 0.000000000000e+00 2.180525730028e+07 2.524121807513e+07  3.326845649996e-04
8.000000000000e+00 9.520385377497e+05 1.000000000000e+00 3.821072827080e+01 3.108806329630e-04 4.667502145367e-03 -3.893473591330e+07 -1.432630010551e+04 -1.096390573972e+07 -1.661828366941e+07 -5.411815909391e-05 -1.690833809860e-08 3.244440167678e-04 0.000000000000e+00 2.217230844081e+07 2.561605553732e+07  3.546138871144e-04
9.000000000000e+00 1.007090273366e+06 1.000000000000e+00 3.931176277075e+01 3.064880017062e-04 5.015626815948e-03 -3.944392658063e+07 -1.432477228072e+04 -1.093403391379e+07 -1.714691458024e+07 -5.339609290637e-05 -1.679484254263e-08 3.451884041332e-04 0.000000000000e+00 2.250829169156e+07 2.596701601445e+07  3.747504369967e-04
1.000000000000e+01 1.059630031119e+06 1.000000000000e+00 4.032707739919e+01 3.023011907087e-04 5.339804351613e-03 -3.991250251250e+07 -1.432289658200e+04 -1.090651120304e+07 -1.763409861918e+07 -5.270493464415e-05 -1.665550492344e-08 3.643060834073e-04 0.000000000000e+00 2.281770411157e+07 2.629578364674e+07  3.933159819942e-04
1.100000000000e+01 1.109950423624e+06 1.000000000000e+00 4.126965432734e+01 2.984326226514e-04 5.643646222402e-03 -4.034714326572e+07 -1.432175028465e+04 -1.087979769279e+07 -1.808592791143e+07 -5.206650319456e-05 -1.657035140642e-08 3.820805303574e-04 0.000000000000e+00 2.310428962331e+07 2.660653780153e+07  4.105971875346e-04
1.200000000000e+01 1.158414524305e+06 1.000000000000e+00 4.214857045805e+01 2.946929578942e-04 5.929133372386e-03 -4.075129525343e+07 -1.432018732070e+04 -1.085460107857e+07 -1.850680964958e+07 -5.144511246358e-05 -1.645424551264e-08 3.986491548739e-04 0.000000000000e+00 2.337090199386e+07 2.689969320257e+07  4.267039954070e-04
1.300000000000e+01 1.205265988134e+06 1.000000000000e+00 4.297047241277e+01 2.909959703025e-04 6.197855353521e-03 -4.112784310351e+07 -1.431900913385e+04 -1.083111209316e+07 -1.889998055280e+07 -5.082768477568e-05 -1.636672306092e-08 4.141250935948e-04 0.000000000000e+00 2.361964524982e+07 2.717607083364e+07  4.417375546669e-04
1.400000000000e+01 1.251210413433e+06 1.000000000000e+00 4.374060683530e+01 2.872967068525e-04 6.451351774668e-03 -4.147889047909e+07 -1.431762325345e+04 -1.080875132049e+07 -1.926772815800e+07 -5.020739053289e-05 -1.626377194584e-08 4.286148333441e-04 0.000000000000e+00 2.385178998586e+07 2.743673346780e+07  4.557972033110e-04
1.500000000000e+01 1.295786606581e+06 1.000000000000e+00 4.446330145891e+01 2.835765666719e-04 6.690557565782e-03 -4.180669081936e+07 -1.431643520415e+04 -1.078798120785e+07 -1.961237915548e+07 -4.958150897902e-05 -1.617551685514e-08 4.421876174342e-04 0.000000000000e+00 2.406901706089e+07 2.768229619356e+07  4.689483395364e-04
1.600000000000e+01 1.339131724233e+06 1.000000000000e+00 4.514222035109e+01 2.798456037956e-04 6.916484551452e-03 -4.211311153412e+07 -1.431562486970e+04 -1.076862766448e+07 -1.993572267934e+07 -4.895294749830e-05 -1.611532058179e-08 4.549163656456e-04 0.000000000000e+00 2.427248729264e+07 2.791370726099e+07  4.812637411479e-04
1.700000000000e+01 1.381371181862e+06 1.000000000000e+00 4.578051508854e+01 2.761213358377e-04 7.130022874922e-03 -4.239981339644e+07 -1.431460926375e+04 -1.075050984793e+07 -2.023930509824e+07 -4.832595539662e-05 -1.603987556779e-08 4.668652315339e-04 0.000000000000e+00 2.446320944754e+07 2.813187700715e+07  4.928085343289e-04
1.800000000000e+01 1.422623258432e+06 1.000000000000e+00 4.638092652595e+01 2.724060081403e-04 7.331958650297e-03 -4.266812396692e+07 -1.431410904071e+04 -1.073347623812e+07 -2.052443812545e+07 -4.770112128927e-05 -1.600271614198e-08 4.780885637659e-04 0.000000000000e+00 2.464201277683e+07 2.833750793779e+07  5.036362110804e-04
1.900000000000e+01 1.462974446505e+06 1.000000000000e+00 4.694585896327e+01 2.687014452272e-04 7.522983059778e-03 -4.291921194096e+07 -1.431349531864e+04 -1.071740863037e+07 -2.079227813930e+07 -4.707890266789e-05 -1.595712535976e-08 4.886337039969e-04 0.000000000000e+00 2.480963290354e+07 2.853122465647e+07  5.137934011962e-04
2.000000000000e+01 1.502507800416e+06 1.000000000000e+00 4.747743591083e+01 2.649694621018e-04 7.703715379070e-03 -4.315376887031e+07 -1.431311365593e+04 -1.070222573698e+07 -2.104375123322e+07 -4.645058798396e-05 -1.592877327307e-08 4.985380692397e-04 0.000000000000e+00 2.496658194684e+07 2.871327141260e+07  5.233118103149e-04
2.100000000000e+01 1.541141801111e+06 1.000000000000e+00 4.798108112960e+01 2.616665006553e-04 7.876430731029e-03 -4.337670721199e+07 -1.431276133936e+04 -1.068526915671e+07 -2.128146649914e+07 -4.590173079793e-05 -1.590260118468e-08 5.079973092408e-04 0.000000000000e+00 2.511448095595e+07 2.888953453702e+07  5.324342133820e-04
2.200000000000e+01 1.579012597869e+06 1.000000000000e+00 4.845978641530e+01 2.585760474365e-04 8.041534199962e-03 -4.358835918911e+07 -1.431253633024e+04 -1.066789456175e+07 -2.150696578312e+07 -4.538740225753e-05 -1.588588622151e-08 5.170183390302e-04 0.000000000000e+00 2.525440651133e+07 2.905883359725e+07  5.411414780465e-04
2.300000000000e+01 1.616195873616e+06 1.000000000000e+00 4.891513136758e+01 2.555369268051e-04 8.199308815554e-03 -4.378863638480e+07 -1.431219209389e+04 -1.065075977574e+07 -2.172095994499e+07 -4.487791494247e-05 -1.586031437846e-08 5.256031285229e-04 0.000000000000e+00 2.538678536851e+07 2.922029919791e+07  5.494184645720e-04
2.400000000000e+01 1.652744292822e+06 1.000000000000e+00 4.934819090550e+01 2.525179181797e-04 8.350021668095e-03 -4.397803730592e+07 -1.431189573016e+04 -1.063407479571e+07 -2.192403129395e+07 -4.437015619398e-05 -1.583829878693e-08 5.337655064570e-04 0.000000000000e+00 2.551204779853e+07 2.937399669583e+07  5.572769385942e-04
2.500000000000e+01 1.688706440365e+06 1.000000000000e+00 4.975985551106e+01 2.495064887855e-04 8.493931540630e-03 -4.415698577121e+07 -1.431160095407e+04 -1.061789531334e+07 -2.211663262629e+07 -4.386304970350e-05 -1.581640113471e-08 5.415202224316e-04 0.000000000000e+00 2.563050457028e+07 2.952007744076e+07  5.647307744528e-04
2.600000000000e+01 1.724115300852e+06 1.000000000000e+00 5.015093021922e+01 2.465024335434e-04 8.631284245756e-03 -4.432591087126e+07 -1.431139447476e+04 -1.060222463283e+07 -2.229917432442e+07 -4.335729034630e-05 -1.580106267193e-08 5.488823964954e-04 0.000000000000e+00 2.574243660950e+07 2.965875922384e+07  5.717952378156e-04
2.700000000000e+01 1.758998235123e+06 1.000000000000e+00 5.052216656485e+01 2.435047836191e-04 8.762316640175e-03 -4.448518168337e+07 -1.431115571172e+04 -1.058704310061e+07 -2.247202381087e+07 -4.285293958509e-05 -1.578332598830e-08 5.558664057607e-04 0.000000000000e+00 2.584808286495e+07 2.979024097112e+07  5.784845250611e-04
2.800000000000e+01 1.793391624023e+06 1.000000000000e+00 5.087427294239e+01 2.405175928168e-04 8.887247890069e-03 -4.463518468006e+07 -1.431102740366e+04 -1.057233438791e+07 -2.263553988129e+07 -4.235102541803e-05 -1.577379453263e-08 5.624861834191e-04 0.000000000000e+00 2.594768631642e+07 2.991474800919e+07  5.848129472652e-04
2.900000000000e+01 1.827319648265e+06 1.000000000000e+00 5.120791808599e+01 2.375425760198e-04 9.006286336982e-03 -4.477626161772e+07 -1.431078852314e+04 -1.055807641401e+07 -2.279005240842e+07 -4.185198923726e-05 -1.575604912246e-08 5.687548020292e-04 0.000000000000e+00 2.604146348005e+07 3.003248291059e+07  5.907936479282e-04
3.000000000000e+01 1.860795160606e+06 1.000000000000e+00 5.152373270005e+01 2.345780585798e-04 9.119634075544e-03 -4.490870000360e+07 -1.431041882354e+04 -1.054423812572e+07 -2.293585902604e+07 -4.135545491569e-05 -1.572858572382e-08 5.746844699629e-04 0.000000000000e+00 2.612959905179e+07 3.014361854562e+07  5.964384730198e-04
3.100000000000e+01 1.893730299869e+06 1.000000000000e+00 5.182511079230e+01 2.319747689461e-04 9.228840167133e-03 -4.503587034287e+07 -1.431050404764e+04 -1.052877126218e+07 -2.307457177413e+07 -4.092673687374e-05 -1.573491665676e-08 5.804111412518e-04 0.000000000000e+00 2.621307112640e+07 3.025257725400e+07  6.019189525839e-04
3.200000000000e+01 1.926193300668e+06 1.000000000000e+00 5.211364601199e+01 2.295535376242e-04 9.334011209467e-03 -4.515759495103e+07 -1.431029327811e+04 -1.051278533392e+07 -2.320701885183e+07 -4.052847371925e-05 -1.571925949205e-08 5.859243671878e-04 0.000000000000e+00 2.629246637892e+07 3.035815720533e+07  6.072038721095e-04
3.300000000000e+01 1.958214424838e+06 1.000000000000e+00 5.238991559297e+01 2.272178521222e-04 9.435206279559e-03 -4.527371629410e+07 -1.431020605683e+04 -1.049674431819e+07 -2.333348413695e+07 -4.014427015754e-05 -1.571278019670e-08 5.912174583620e-04 0.000000000000e+00 2.636798158308e+07 3.045976596093e+07  6.122774204636e-04
3.400000000000e+01 1.989824630631e+06 1.000000000000e+00 5.265418160542e+01 2.249246952124e-04 9.532452088663e-03 -4.538421130357e+07 -1.431022850858e+04 -1.048090070470e+07 -2.345412310707e+07 -3.976749447650e-05 -1.571444804104e-08 5.962868114674e-04 0.000000000000e+00 2.643974503845e+07 3.055712345154e+07  6.171322778540e-04
3.500000000000e+01 2.021048807738e+06 1.000000000000e+00 5.290663240862e+01 2.226767903954e-04 9.625812183812e-03 -4.548926652221e+07 -1.431014919443e+04 -1.046529458908e+07 -2.356906756615e+07 -3.940017983136e-05 -1.570855613307e-08 6.011358328134e-04 0.000000000000e+00 2.650787622581e+07 3.065031669626e+07  6.217728880542e-04
3.600000000000e+01 2.051915334547e+06 1.000000000000e+00 5.314745064832e+01 2.204887880029e-04 9.715335643913e-03 -4.558914453497e+07 -1.431015222084e+04 -1.044997681102e+07 -2.367847464288e+07 -3.904624316979e-05 -1.570878095168e-08 6.057684702772e-04 0.000000000000e+00 2.657253199629e+07 3.073949370942e+07  6.262052638097e-04
3.700000000000e+01 2.082462267422e+06 1.000000000000e+00 5.337683014573e+01 2.184345059385e-04 9.801090742072e-03 -4.568457582047e+07 -1.430980492751e+04 -1.043489264900e+07 -2.378261459872e+07 -3.872277827157e-05 -1.568298201899e-08 6.101967946547e-04 0.000000000000e+00 2.663402768940e+07 3.082530599133e+07  6.304507099554e-04
3.800000000000e+01 2.113406988325e+06 1.000000000000e+00 5.359501612753e+01 2.188869037578e-04 9.883172697454e-03 -4.579562986659e+07 -1.429700544928e+04 -1.041792977136e+07 -2.388696065803e+07 -3.897193206729e-05 -1.473216363606e-08 6.147025551700e-04 0.000000000000e+00 2.670017343199e+07 3.092723290218e+07  6.350859703177e-04
3.900000000000e+01 2.143157947788e+06 1.000000000000e+00 5.380215921442e+01 2.160584987809e-04 9.961652706558e-03 -4.587366301816e+07 -1.431164209519e+04 -1.040409079572e+07 -2.397847240925e+07 -3.847129836580e-05 -1.581945733247e-08 6.186155821679e-04 0.000000000000e+00 2.675207540771e+07 3.099802405454e+07  6.387207720789e-04
4.000000000000e+01 2.172544101843e+06 1.000000000000e+00 5.399845064135e+01 2.130840641067e-04 1.003659623333e-02 -4.594516235672e+07 -1.431138484363e+04 -1.039062833342e+07 -2.406433876344e+07 -3.793766635686e-05 -1.580034721600e-08 6.223049382087e-04 0.000000000000e+00 2.680004315119e+07 3.106337808862e+07  6.421148655143e-04
4.200000000000e+01 2.229827605392e+06 1.000000000000e+00 5.435968908593e+01 2.079077434696e-04 1.017694191767e-02 -4.607671803413e+07 -1.431097611592e+04 -1.036063662309e+07 -2.422081054550e+07 -3.701221104148e-05 -1.576998458646e-08 6.292307250687e-04 0.000000000000e+00 2.688605506757e+07 3.118833767208e+07  6.485294367049e-04
4.400000000000e+01 2.285593809494e+06 1.000000000000e+00 5.469219720801e+01 2.029888538005e-04 1.030778148410e-02 -4.619549967726e+07 -1.431050346700e+04 -1.033033701105e+07 -2.436332631417e+07 -3.613065780696e-05 -1.573487352409e-08 6.356495820669e-04 0.000000000000e+00 2.696305433416e+07 3.130399099440e+07  6.544633327337e-04
5.000000000000e+01 2.437116678573e+06 1.000000000000e+00 5.537543848970e+01 1.890063783896e-04 1.058148191071e-02 -4.641434422049e+07 -1.430928419110e+04 -1.027044126644e+07 -2.464894251520e+07 -3.365056766007e-05 -1.564429874265e-08 6.484828829046e-04 0.000000000000e+00 2.711124266738e+07 3.151870047161e+07  6.659461149267e-04
6.500000000000e+01 2.768502507756e+06 1.000000000000e+00 5.631568876404e+01 1.626259345672e-04 1.104582157236e-02 -4.661123269730e+07 -1.430709205471e+04 -1.005672786228e+07 -2.497067807725e+07 -2.901339020849e-05 -1.548145432508e-08 6.683709873639e-04 0.000000000000e+00 2.721287954561e+07 3.183529933242e+07  6.833397855684e-04
8.000000000000e+01 3.023556374630e+06 1.000000000000e+00 5.663857047303e+01 1.430886217600e-04 1.126618826317e-02 -4.657490451541e+07 -1.430542697969e+04 -9.905476376006e+06 -2.502563903955e+07 -2.562265056690e-05 -1.535776303769e-08 6.760303068825e-04 0.000000000000e+00 2.716867331032e+07 3.191894695524e+07  6.891989444849e-04
1.000000000000e+02 3.324236305531e+06 1.000000000000e+00 5.678970307341e+01 1.248708451105e-04 1.145067466249e-02 -4.644837128414e+07 -1.430386562407e+04 -9.721851016728e+06 -2.498382480189e+07 -2.247594509017e-05 -1.524177662021e-08 6.812975771139e-04 0.000000000000e+00 2.705134903425e+07 3.195694852504e+07  6.928090388550e-04
1.860000000000e+02 3.922717201764e+06 1.000000000000e+00 5.651434013221e+01 9.162552562724e-05 1.167000294329e-02 -4.588408474405e+07 -1.430092680851e+04 -9.247043676372e+06 -2.457260475882e+07 -1.679061805794e-05 -1.502346460719e-08 6.836593910131e-04 0.000000000000e+00 2.656791105975e+07 3.186946820192e+07  6.922074487959e-04
2.720000000000e+02 4.213038211969e+06 1.000000000000e+00 5.565863389374e+01 7.686879129981e-05 1.150191369748e-02 -4.530596584149e+07 -1.429994939798e+04 -9.120318796895e+06 -2.406014451687e+07 -1.435186780690e-05 -1.495085696777e-08 6.693320775497e-04 0.000000000000e+00 2.616214305175e+07 3.149591715817e+07  6.766221784076e-04
3.580000000000e+02 4.354403691727e+06 1.000000000000e+00 5.491482439366e+01 6.884308782292e-05 1.132602089222e-02 -4.485129747124e+07 -1.429905166520e+04 -9.046346850695e+06 -2.364035419276e+07 -1.305639752120e-05 -1.488416824695e-08 6.564873949420e-04 0.000000000000e+00 2.584599950490e+07 3.118400937003e+07  6.631120043360e-04
4.440000000000e+02 4.426532453840e+06 1.000000000000e+00 5.428887031940e+01 6.369121937926e-05 1.116143213364e-02 -4.449121527580e+07 -1.429859638796e+04 -9.011486640920e+06 -2.330220747413e+07 -1.224165123976e-05 -1.485034765226e-08 6.452224674700e-04 0.000000000000e+00 2.560163646361e+07 3.091933961338e+07  6.514295661340e-04
5.300000000000e+02 4.465496889446e+06 1.000000000000e+00 5.377624834960e+01 6.022944262316e-05 1.101878566017e-02 -4.420704526643e+07 -1.429823936242e+04 -8.996016437765e+06 -2.303249241878e+07 -1.170475294805e-05 -1.482382575483e-08 6.357790872455e-04 0.000000000000e+00 2.541185137433e+07 3.070180877469e+07  6.417115292912e-04
6.160000000000e+02 4.488012314786e+06 1.000000000000e+00 5.336720502353e+01 5.788811562074e-05 1.090056137794e-02 -4.398631020934e+07 -1.429773683851e+04 -8.991076680306e+06 -2.282134015731e+07 -1.134882053914e-05 -1.478649540733e-08 6.281197656681e-04 0.000000000000e+00 2.526624234899e+07 3.052785401441e+07  6.338703770520e-04
7.020000000000e+02 4.501822576458e+06 1.000000000000e+00 5.305912787775e+01 5.628540466206e-05 1.080987441805e-02 -4.382242329526e+07 -1.429787296875e+04 -8.990337986113e+06 -2.266392601119e+07 -1.110840344327e-05 -1.479660793935e-08 6.223003917394e-04 0.000000000000e+00 2.515889576419e+07 3.039674662162e+07  6.279282910152e-04
7.880000000000e+02 4.511441113274e+06 1.000000000000e+00 5.280009927160e+01 5.531405783136e-05 1.072815288981e-02 -4.369150251500e+07 -1.429772276676e+04 -8.999818947016e+06 -2.253670055187e+07 -1.097114866576e-05 -1.478545007749e-08 6.172227247024e-04 0.000000000000e+00 2.507600733796e+07 3.028437670659e+07  6.227807807893e-04
8.740000000000e+02 4.519827167133e+06 1.000000000000e+00 5.241137386379e+01 5.329733155456e-05 1.061262595162e-02 -4.348452570272e+07 -1.429759960416e+04 -8.998393320410e+06 -2.233787336148e+07 -1.066844842399e-05 -1.477630085530e-08 6.098906666190e-04 0.000000000000e+00 2.494026412820e+07 3.011990360398e+07  6.152942619567e-04
9.370000000000e+02 4.525201002277e+06 1.000000000000e+00 5.210907649775e+01 5.241732863364e-05 1.051767041307e-02 -4.333129019678e+07 -1.429734174935e+04 -9.004430135935e+06 -2.218777660761e+07 -1.055186620438e-05 -1.475714592677e-08 6.040914197557e-04 0.000000000000e+00 2.484116564677e+07 2.999319372131e+07  6.094358684822e-04
1.000000000000e+03 4.529391016052e+06 1.000000000000e+00 5.185429705108e+01 5.196421882693e-05 1.043816913046e-02 -4.320261159856e+07 -1.429725740705e+04 -9.006078380843e+06 -2.206040973337e+07 -1.050314502776e-05 -1.475088049919e-08 5.992994296160e-04 0.000000000000e+00 2.475636657092e+07 2.988990111517e+07  6.046194273017e-04
1.100000000000e+03 4.533536316160e+06 1.000000000000e+00 5.158773657568e+01 5.167025107686e-05 1.035499650655e-02 -4.306863947667e+07 -1.429705794693e+04 -9.006505659768e+06 -2.192697820894e+07 -1.048306569347e-05 -1.473606346149e-08 5.943275312059e-04 0.000000000000e+00 2.466737444846e+07 2.978370895850e+07  5.996377941893e-04
1.200000000000e+03 4.536797682874e+06 1.000000000000e+00 5.136659202229e+01 5.129661481697e-05 1.028587750096e-02 -4.295702691459e+07 -1.429714034375e+04 -9.007819854542e+06 -2.181641618456e+07 -1.044404572192e-05 -1.474218436798e-08 5.901721287799e-04 0.000000000000e+00 2.459375431790e+07 2.969457398616e+07  5.954628494108e-04
1.300000000000e+03 4.539703052077e+06 1.000000000000e+00 5.115655250825e+01 5.090241343483e-05 1.022008941054e-02 -4.285094144009e+07 -1.429705419593e+04 -9.009504232230e+06 -2.171150988172e+07 -1.040024791744e-05 -1.473578481583e-08 5.862130463603e-04 0.000000000000e+00 2.452398518468e+07 2.960963198740e+07  5.914817516592e-04
1.400000000000e+03 4.542442562524e+06 1.000000000000e+00 5.094021040217e+01 5.051999655315e-05 1.015211235973e-02 -4.274187886880e+07 -1.429728082220e+04 -9.011347387408e+06 -2.160355206040e+07 -1.035921434697e-05 -1.475261991017e-08 5.821347243764e-04 0.000000000000e+00 2.445225943887e+07 2.952238522949e+07  5.873828476286e-04
1.500000000000e+03 4.545082446453e+06 1.000000000000e+00 5.070749560172e+01 5.016812658447e-05 1.007872621586e-02 -4.262493856568e+07 -1.429726920275e+04 -9.013270730803e+06 -2.148752446614e+07 -1.032531373201e-05 -1.475175675118e-08 5.777536895491e-04 0.000000000000e+00 2.437524458754e+07 2.942909038844e+07  5.829849283202e-04
1.600000000000e+03 4.547643486991e+06 1.000000000000e+00 5.045226626687e+01 4.985828601078e-05 9.997957233462e-03 -4.249714076116e+07 -1.429712341745e+04 -9.015246693443e+06 -2.136037527943e+07 -1.030122221343e-05 -1.474092698541e-08 5.729576125732e-04 0.000000000000e+00 2.429092091134e+07 2.932749146826e+07  5.781770536113e-04
1.700000000000e+03 4.550130771773e+06 1.000000000000e+00 5.017073127728e+01 4.959735219708e-05 9.908584265869e-03 -4.235664759682e+07 -1.429701830080e+04 -9.017265559588e+06 -2.122022335149e+07 -1.028854771854e-05 -1.473311832062e-08 5.676769830787e-04 0.000000000000e+00 2.419804550263e+07 2.921623033352e+07  5.728905512503e-04
1.800000000000e+03 4.552544175197e+06 1.000000000000e+00 4.986060250043e+01 4.938987920157e-05 9.809871043019e-03 -4.220235253911e+07 -1.429713202382e+04 -9.019320161297e+06 -2.106593373548e+07 -1.028834559837e-05 -1.474156631607e-08 5.618699121348e-04 0.000000000000e+00 2.409586881196e+07 2.909453524876e+07  5.670840860990e-04
1.900000000000e+03 4.554883463306e+06 1.000000000000e+00 4.952059324705e+01 4.923812428504e-05 9.701399601820e-03 -4.203363604043e+07 -1.429709033299e+04 -9.021418693578e+06 -2.089687269101e+07 -1.030114301355e-05 -1.473846928276e-08 5.555125564269e-04 0.000000000000e+00 2.398397580834e+07 2.896201730829e+07  5.607340981575e-04
2.000000000000e+03 4.557147803229e+06 1.000000000000e+00 4.915010136740e+01 4.914317761480e-05 9.582979934124e-03 -4.185020316830e+07 -1.429679785298e+04 -9.023552481094e+06 -2.071273838787e+07 -1.032719616536e-05 -1.471674219655e-08 5.485940273454e-04 0.000000000000e+00 2.386216467909e+07 2.881856785336e+07  5.538298444513e-04