 TITLE = "Time curves in points"
 VARIABLES = "TIME"  "PRESSURE1"  "SATURATION1"  "TEMPERATURE1"  "DISPLACEMENT_X1"  "DISPLACEMENT_Y1"  "STRESS_XX"  "STRESS_XY"  "STRESS_YY"  "STRESS_ZZ"  "STRAIN_XX"  "STRAIN_XY"  "STRAIN_YY"  "STRAIN_PLS"  p_(1st_Invariant)  q_(2nd_Invariant)   Effective_Strain
 ZONE T="POINT=POINT11"
0.000000000000e+00 1.000000000000e+05 1.000000000000e+00 2.500000000000e+01 0.000000000000e+00 0.000000000000e+00 -5.392170068764e+07 8.391404681268e+05 -2.357515820812e+05 -1.424861648653e+07 0.000000000000e+00 0.000000000000e+00 0.000000000000e+00 0.000000000000e+00 2.280202291875e+07 4.825308313763e+07  0.000000000000e+00
1.000000000000e-03 1.321562803133e+05 1.000000000000e+00 2.500658919670e+01 0.000000000000e+00 -1.571980708334e-03 -7.162122175459e+07 1.794588485487e+06 4.135493689416e+07 -5.933619816351e+06 -9.473882279066e-04 3.404691490305e-03 3.032282451221e-02 0.000000000000e+00 1.206663489226e+07 9.832091424051e+07  3.136677366681e-02
2.000000000000e-03 1.547721087935e+05 1.000000000000e+00 2.503242649855e+01 0.000000000000e+00 -1.571928856389e-03 -7.161360929601e+07 1.794182318507e+06 4.135104994353e+07 -5.938403683528e+06 -9.470200472373e-04 3.404056748556e-03 3.031880073028e-02 0.000000000000e+00 1.206698767867e+07 9.831036017340e+07  3.136242726312e-02
3.000000000000e-03 1.705465206431e+05 1.000000000000e+00 2.508821888304e+01 0.000000000000e+00 -1.571739902071e-03 -7.161681718260e+07 1.793937760004e+06 4.134164681316e+07 -5.954959534534e+06 -9.466264319231e-04 3.403042606472e-03 3.031150935751e-02 0.000000000000e+00 1.207670996799e+07 9.830404972890e+07  3.135473607010e-02
4.000000000000e-03 1.815030669678e+05 1.000000000000e+00 2.517801402977e+01 0.000000000000e+00 -1.571601549413e-03 -7.163229776384e+07 1.793890833433e+06 4.132849432332e+07 -5.984128229750e+06 -9.462317628316e-04 3.401779492284e-03 3.030224906916e-02 0.000000000000e+00 1.209597722342e+07 9.830466731270e+07  3.134503014667e-02
1.000000000000e-02 1.978603628676e+05 1.000000000000e+00 2.624254793578e+01 0.000000000000e+00 -1.570795305893e-03 -7.192166307274e+07 1.796256004049e+06 4.121923581090e+07 -6.350374026981e+06 -9.442709335158e-04 3.392359734022e-03 3.023628316431e-02 0.000000000000e+00 1.235093376294e+07 9.844461372071e+07  3.127618941324e-02
2.000000000000e-02 1.963680346369e+05 1.000000000000e+00 2.811855859645e+01 0.000000000000e+00 -1.566730623645e-03 -7.246218663802e+07 1.799832721408e+06 4.103268413868e+07 -7.006962410442e+06 -9.415390226826e-04 3.376397368126e-03 3.012515591467e-02 0.000000000000e+00 1.281215496993e+07 9.872364483450e+07  3.116048301992e-02
3.000000000000e-02 1.864315871100e+05 1.000000000000e+00 2.977104240945e+01 0.000000000000e+00 -1.560456482849e-03 -7.293988218997e+07 1.801623517415e+06 4.084998853482e+07 -7.593702712879e+06 -9.390240706936e-04 3.360557354514e-03 3.001153523606e-02 0.000000000000e+00 1.322786545601e+07 9.895585924369e+07  3.104248064532e-02
4.000000000000e-02 1.732308016779e+05 1.000000000000e+00 3.117078428574e+01 0.000000000000e+00 -1.551644471984e-03 -7.333954750003e+07 1.801791241654e+06 4.067127387768e+07 -8.098102908593e+06 -9.365938614534e-04 3.344856928091e-03 2.989501722908e-02 0.000000000000e+00 1.358879217698e+07 9.912831156080e+07  3.092172305066e-02
5.000000000000e-02 1.590712169439e+05 1.000000000000e+00 3.235484757263e+01 0.000000000000e+00 -1.541938889855e-03 -7.367274405584e+07 1.800796341578e+06 4.049964912476e+07 -8.530651250120e+06 -9.341788905103e-04 3.329662033858e-03 2.977839058452e-02 0.000000000000e+00 1.390124872707e+07 9.925284675848e+07  3.080103127592e-02
6.000000000000e-02 1.446828136011e+05 1.000000000000e+00 3.336666820306e+01 0.000000000000e+00 -1.529782202182e-03 -7.395377243451e+07 1.798909083524e+06 4.033491415424e+07 -8.905505986475e+06 -9.319896502116e-04 3.314853201895e-03 2.966274418505e-02 0.000000000000e+00 1.417478808891e+07 9.934086840031e+07  3.068154368874e-02
7.000000000000e-02 1.309553152747e+05 1.000000000000e+00 3.424269924722e+01 0.000000000000e+00 -1.517878668776e-03 -7.419462845706e+07 1.796370170354e+06 4.017611760778e+07 -9.234903953188e+06 -9.300125637934e-04 3.300407715155e-03 2.954827074947e-02 0.000000000000e+00 1.441780493416e+07 9.940131812376e+07  3.056343508094e-02
8.000000000000e-02 1.185266125142e+05 1.000000000000e+00 3.501114549322e+01 0.000000000000e+00 -1.505225283664e-03 -7.440276042723e+07 1.793349003466e+06 4.002143965364e+07 -9.528154242887e+06 -9.281502509764e-04 3.286224583249e-03 2.943438476195e-02 0.000000000000e+00 1.463649167216e+07 9.943860153613e+07  3.044604763909e-02
9.000000000000e-02 1.083066492509e+05 1.000000000000e+00 3.569332899835e+01 0.000000000000e+00 -1.493460282453e-03 -7.458490210618e+07 1.789977503925e+06 3.987019411964e+07 -9.792420440357e+06 -9.263559680191e-04 3.272299044499e-03 2.932109651278e-02 0.000000000000e+00 1.483570947563e+07 9.945761442494e+07  3.032936583486e-02
1.000000000000e-01 1.013009242719e+05 1.000000000000e+00 3.630541896253e+01 0.000000000000e+00 -1.482669113784e-03 -7.474671850272e+07 1.786372869484e+06 3.972372283553e+07 -1.003270680102e+07 -9.246484743070e-04 3.258752327818e-03 2.920967354214e-02 0.000000000000e+00 1.501856748940e+07 9.946415009704e+07  3.021468324370e-02
2.000000000000e-01 1.227583401152e+05 1.000000000000e+00 3.981142503252e+01 0.000000000000e+00 -1.341762981249e-03 -7.564576180029e+07 1.753843249689e+06 3.865613663648e+07 -1.147812787126e+07 -9.137990195001e-04 3.156882645685e-03 2.835756723259e-02 0.000000000000e+00 1.615591767836e+07 9.928320478535e+07  2.933935052532e-02
3.000000000000e-01 1.535262526101e+05 1.000000000000e+00 4.213322259453e+01 0.000000000000e+00 -1.186710218619e-03 -7.618825421942e+07 1.722102511309e+06 3.770813196822e+07 -1.250004145454e+07 -9.011865309808e-04 3.067962615056e-03 2.757573176456e-02 0.000000000000e+00 1.699338790191e+07 9.891215732304e+07  2.853631338111e-02
4.000000000000e-01 1.848711887700e+05 1.000000000000e+00 4.382361384831e+01 0.000000000000e+00 -1.040244795298e-03 -7.657078196312e+07 1.692613560906e+06 3.686421715439e+07 -1.329166469900e+07 -8.900227214354e-04 2.989073139462e-03 2.686894258667e-02 0.000000000000e+00 1.766607650258e+07 9.850012140857e+07  2.781096654690e-02
5.000000000000e-01 2.146182721516e+05 1.000000000000e+00 4.513443190839e+01 0.000000000000e+00 -8.997085987660e-04 -7.685777357838e+07 1.666530666594e+06 3.609610746151e+07 -1.394030522068e+07 -8.794923239992e-04 2.918042692319e-03 2.622411036603e-02 0.000000000000e+00 1.823399044585e+07 9.807520993451e+07  2.714933322332e-02
6.000000000000e-01 2.422349190066e+05 1.000000000000e+00 4.619629486424e+01 0.000000000000e+00 -7.641011857888e-04 -7.708621438264e+07 1.643451867590e+06 3.538930307544e+07 -1.449247833342e+07 -8.698639034380e-04 2.853298510583e-03 2.563325113112e-02 0.000000000000e+00 1.872979654687e+07 9.765530077991e+07  2.654320259162e-02
7.000000000000e-01 2.677989511646e+05 1.000000000000e+00 4.708364073506e+01 0.000000000000e+00 -6.332631487876e-04 -7.728003509942e+07 1.623284097534e+06 3.474214817419e+07 -1.497338878603e+07 -8.616657198400e-04 2.794143128025e-03 2.509580272663e-02 0.000000000000e+00 1.917042523709e+07 9.725875961326e+07  2.599206961147e-02
8.000000000000e-01 2.915671400692e+05 1.000000000000e+00 4.784280359403e+01 0.000000000000e+00 -5.074380405614e-04 -7.745777919229e+07 1.605877385772e+06 3.416225938689e+07 -1.539692000114e+07 -8.561001913858e-04 2.740224498726e-03 2.461784621718e-02 0.000000000000e+00 1.956414660218e+07 9.690760695282e+07  2.550241348733e-02
9.000000000000e-01 3.136002835465e+05 1.000000000000e+00 4.850368017678e+01 0.000000000000e+00 -3.856751132333e-04 -7.761916134926e+07 1.591447165351e+06 3.363712510664e+07 -1.577414486254e+07 -8.506832832478e-04 2.692494840937e-03 2.419004216336e-02 0.000000000000e+00 1.991872703505e+07 9.659046838237e+07  2.506408689357e-02
1.000000000000e+00 3.340884170568e+05 1.000000000000e+00 4.908706938572e+01 0.000000000000e+00 -2.675174216154e-04 -7.777024676745e+07 1.579647733655e+06 3.315327915173e+07 -1.611622941350e+07 -8.453753702830e-04 2.649623953164e-03 2.380129725195e-02 0.000000000000e+00 2.024439900974e+07 9.630083762423e+07  2.466574471103e-02
2.000000000000e+00 4.691559606783e+05 1.000000000000e+00 5.224848730855e+01 0.000000000000e+00 6.965884945699e-04 -7.880570213795e+07 1.523648112235e+06 2.974517575916e+07 -1.828849410416e+07 -8.229453525944e-04 2.362309026339e-03 2.126025554931e-02 0.000000000000e+00 2.244967349431e+07 9.425175866369e+07  2.206611078968e-02
3.000000000000e+00 5.730621993731e+05 1.000000000000e+00 5.427679455463e+01 0.000000000000e+00 1.515849946770e-03 -7.958579632236e+07 1.492989526733e+06 2.702823872048e+07 -1.988808873800e+07 -8.083702429951e-04 2.143523375756e-03 1.933060667455e-02 0.000000000000e+00 2.414854877996e+07 9.258748470365e+07  2.009318743898e-02
4.000000000000e+00 6.596126034108e+05 1.000000000000e+00 5.575088147689e+01 0.000000000000e+00 2.227996696958e-03 -8.021381926493e+07 1.473294688950e+06 2.474735397534e+07 -2.116788699692e+07 -7.979421093644e-04 1.964072835160e-03 1.775435658666e-02 0.000000000000e+00 2.554478409551e+07 9.117154968069e+07  1.848225052494e-02
5.000000000000e+00 7.355452377896e+05 1.000000000000e+00 5.693149995896e+01 0.000000000000e+00 2.857569499179e-03 -8.075086698196e+07 1.459363558656e+06 2.279101969990e+07 -2.224485763725e+07 -7.896806929485e-04 1.812295642594e-03 1.642194176563e-02 0.000000000000e+00 2.673490163977e+07 8.995800166352e+07  1.712089669942e-02
6.000000000000e+00 8.043233661910e+05 1.000000000000e+00 5.796438519089e+01 0.000000000000e+00 3.424563564716e-03 -8.121914896049e+07 1.448088400585e+06 2.104643910535e+07 -2.319703608994e+07 -7.822176941164e-04 1.677820780055e-03 1.524379243047e-02 0.000000000000e+00 2.778991531503e+07 8.886755015715e+07  1.591710664846e-02
7.000000000000e+00 8.681486722727e+05 1.000000000000e+00 5.881773266898e+01 0.000000000000e+00 3.937185934865e-03 -8.162542858066e+07 1.438560735140e+06 1.949870076289e+07 -2.402420463508e+07 -7.763251492483e-04 1.558690024317e-03 1.420274252547e-02 0.000000000000e+00 2.871697748428e+07 8.789382962339e+07  1.485378961641e-02
8.000000000000e+00 9.277122832900e+05 1.000000000000e+00 5.964548359829e+01 0.000000000000e+00 4.408251369775e-03 -8.201508294143e+07 1.430859998162e+06 1.810255161967e+07 -2.479068715027e+07 -7.711815017574e-04 1.451631620383e-03 1.326907586621e-02 0.000000000000e+00 2.956773949068e+07 8.703529835059e+07  1.390027568752e-02
9.000000000000e+00 9.841048929835e+05 1.000000000000e+00 6.039584327610e+01 0.000000000000e+00 4.843874062633e-03 -8.236901603576e+07 1.424220844084e+06 1.683173607187e+07 -2.548739303763e+07 -7.661745526139e-04 1.354598824103e-03 1.242049259384e-02 0.000000000000e+00 3.034155766718e+07 8.625365897249e+07  1.303367710961e-02
1.000000000000e+01 1.037819556408e+06 1.000000000000e+00 6.107245844144e+01 0.000000000000e+00 5.249054952037e-03 -8.268478799592e+07 1.418193711307e+06 1.565563871382e+07 -2.612441936759e+07 -7.612925636498e-04 1.264960474006e-03 1.163669251385e-02 0.000000000000e+00 3.105118954990e+07 8.552062826748e+07  1.223321223179e-02
1.100000000000e+01 1.089158496838e+06 1.000000000000e+00 6.170901697769e+01 0.000000000000e+00 5.627677800275e-03 -8.298544293481e+07 1.412952792685e+06 1.457589366737e+07 -2.671603121775e+07 -7.573446521919e-04 1.182540040951e-03 1.091934113757e-02 0.000000000000e+00 3.170852682840e+07 8.485712335706e+07  1.150089080299e-02
1.200000000000e+01 1.138516106949e+06 1.000000000000e+00 6.228858435153e+01 0.000000000000e+00 5.982348279408e-03 -8.326521843431e+07 1.408554385905e+06 1.358684706743e+07 -2.725842087043e+07 -7.537007892628e-04 1.107374894632e-03 1.026353217315e-02 0.000000000000e+00 3.231226407910e+07 8.425355788030e+07  1.083155701274e-02
1.300000000000e+01 1.186155559904e+06 1.000000000000e+00 6.281335036953e+01 0.000000000000e+00 6.315754892930e-03 -8.352248570889e+07 1.404531158604e+06 1.266315144586e+07 -2.775987327817e+07 -7.506036669530e-04 1.037064908057e-03 9.652391662951e-03 0.000000000000e+00 3.287306918040e+07 8.368692524659e+07  1.020802145998e-02
1.400000000000e+01 1.232794460601e+06 1.000000000000e+00 6.328719669981e+01 0.000000000000e+00 6.629750831519e-03 -8.376023974398e+07 1.400844390128e+06 1.180293010305e+07 -2.822282417092e+07 -7.480361701541e-04 9.715203677723e-04 9.084382139652e-03 0.000000000000e+00 3.339337793728e+07 8.315816001746e+07  9.628736099304e-03
1.500000000000e+01 1.277982880797e+06 1.000000000000e+00 6.371396674996e+01 0.000000000000e+00 6.925422956418e-03 -8.397998385424e+07 1.397611242185e+06 1.100548915251e+07 -2.864885201059e+07 -7.458199969442e-04 9.108096606093e-04 8.558748622160e-03 0.000000000000e+00 3.387444890411e+07 8.266789252666e+07  9.092878203846e-03
1.600000000000e+01 1.321868393102e+06 1.000000000000e+00 6.409718126667e+01 0.000000000000e+00 7.204484728286e-03 -8.417916557684e+07 1.394523692546e+06 1.025563238288e+07 -2.904297388370e+07 -7.438908437170e-04 8.535886113962e-04 8.065128232271e-03 0.000000000000e+00 3.432216902588e+07 8.220091037386e+07  8.589824363061e-03
1.700000000000e+01 1.364582364112e+06 1.000000000000e+00 6.443989680906e+01 0.000000000000e+00 7.468433672431e-03 -8.435518803496e+07 1.391714949448e+06 9.542489659774e+06 -2.940865330121e+07 -7.416938239883e-04 7.993275917659e-04 7.596335183614e-03 0.000000000000e+00 3.474045055880e+07 8.174566752031e+07  8.112049472104e-03
1.800000000000e+01 1.406266469302e+06 1.000000000000e+00 6.474480269154e+01 0.000000000000e+00 7.718356647732e-03 -8.450872357613e+07 1.389047340781e+06 8.860224975680e+06 -2.974863720806e+07 -7.392568174982e-04 7.474755481966e-04 7.148089152485e-03 0.000000000000e+00 3.513237860284e+07 8.129775078968e+07  7.655201623577e-03
1.900000000000e+01 1.447009435937e+06 1.000000000000e+00 6.501430106622e+01 0.000000000000e+00 7.955102446782e-03 -8.464061940135e+07 1.386311922480e+06 8.206277223369e+06 -3.006459357492e+07 -7.367337950491e-04 6.976880143253e-04 6.718504349162e-03 0.000000000000e+00 3.549964525097e+07 8.085567241693e+07  7.217418671290e-03
2.000000000000e+01 1.486894329421e+06 1.000000000000e+00 6.525046042328e+01 0.000000000000e+00 8.178640213776e-03 -8.476041419133e+07 1.383887832827e+06 7.598805148592e+06 -3.035395459152e+07 -7.344146367390e-04 6.515066276991e-04 6.319703062987e-03 0.000000000000e+00 3.583852121142e+07 8.044311993066e+07  6.811216980107e-03
2.100000000000e+01 1.525849531847e+06 1.000000000000e+00 6.550408013656e+01 0.000000000000e+00 8.392186834965e-03 -8.488275989309e+07 1.381873199709e+06 7.020283575578e+06 -3.063866617714e+07 -7.321336573323e-04 6.075953464507e-04 5.941066032989e-03 0.000000000000e+00 3.616704749822e+07 8.005699544570e+07  6.425687202067e-03
2.200000000000e+01 1.564034463581e+06 1.000000000000e+00 6.574140182376e+01 0.000000000000e+00 8.596549683102e-03 -8.499340259628e+07 1.379854016099e+06 6.461584465175e+06 -3.090959475335e+07 -7.297329074057e-04 5.651723077765e-04 5.575230700852e-03 0.000000000000e+00 3.648047096148e+07 7.967779473611e+07  6.053296292525e-03
2.300000000000e+01 1.601514635910e+06 1.000000000000e+00 6.595789737850e+01 0.000000000000e+00 8.791306380687e-03 -8.509981161224e+07 1.378077209696e+06 5.940527497252e+06 -3.116211585811e+07 -7.277065768198e-04 5.255972421387e-04 5.234246904509e-03 0.000000000000e+00 3.677379999103e+07 7.932723080118e+07  5.706544558597e-03
2.400000000000e+01 1.638336215366e+06 1.000000000000e+00 6.615302041940e+01 0.000000000000e+00 8.977280725344e-03 -8.519733786211e+07 1.376434207451e+06 5.444205612946e+06 -3.139890010896e+07 -7.258080999694e-04 4.878741182580e-04 4.909657876976e-03 0.000000000000e+00 3.705067745271e+07 7.899032590837e+07  5.376715613451e-03
2.500000000000e+01 1.674554485485e+06 1.000000000000e+00 6.632710006372e+01 0.000000000000e+00 9.154907561270e-03 -8.528458643726e+07 1.374784641463e+06 4.968866027622e+06 -3.162083331159e+07 -7.240164188289e-04 4.516531733031e-04 4.598776606864e-03 0.000000000000e+00 3.731218457374e+07 7.866266705356e+07  5.061077710461e-03
2.600000000000e+01 1.710201348263e+06 1.000000000000e+00 6.648073203976e+01 0.000000000000e+00 9.324568045402e-03 -8.536059265575e+07 1.373238861007e+06 4.513247366611e+06 -3.182817245450e+07 -7.220544039879e-04 4.170576520753e-04 4.300896338533e-03 0.000000000000e+00 3.755850591455e+07 7.834232775900e+07  4.758819630426e-03
2.700000000000e+01 1.745310255366e+06 1.000000000000e+00 6.661459188943e+01 0.000000000000e+00 9.486614932996e-03 -8.542496934175e+07 1.371655584224e+06 4.074160705331e+06 -3.202199955660e+07 -7.200250597528e-04 3.836902493135e-04 4.013687405951e-03 0.000000000000e+00 3.779093606434e+07 7.802625481517e+07  4.467631678632e-03
2.800000000000e+01 1.779924773093e+06 1.000000000000e+00 6.672935958689e+01 0.000000000000e+00 9.641440448433e-03 -8.547692957278e+07 1.369942224506e+06 3.647628553252e+06 -3.220354087930e+07 -7.178863067518e-04 3.512117624582e-04 3.734306609672e-03 0.000000000000e+00 3.801094729961e+07 7.771038413211e+07  4.184646136894e-03
2.900000000000e+01 1.814068114876e+06 1.000000000000e+00 6.682569370622e+01 0.000000000000e+00 9.789280200221e-03 -8.551662694901e+07 1.368179745547e+06 3.234203058471e+06 -3.237280902340e+07 -7.155420094297e-04 3.197617681122e-04 3.463241368820e-03 0.000000000000e+00 3.821841097131e+07 7.739530352361e+07  3.910355303447e-03
3.000000000000e+01 1.847751175360e+06 1.000000000000e+00 6.690421870234e+01 0.000000000000e+00 9.930429665847e-03 -8.554438385885e+07 1.366309443517e+06 2.831518209218e+06 -3.253082347801e+07 -7.130406596457e-04 2.890972618587e-04 3.198835045459e-03 0.000000000000e+00 3.841456304255e+07 7.707928927142e+07  3.643158487044e-03
3.100000000000e+01 1.880894611771e+06 1.000000000000e+00 6.700421408375e+01 0.000000000000e+00 1.006673764382e-02 -8.557424138037e+07 1.364541284359e+06 2.436407553268e+06 -3.269198680076e+07 -7.103486537696e-04 2.590454232182e-04 2.939693330265e-03 0.000000000000e+00 3.860994020929e+07 7.677103328254e+07  3.381702659820e-03
3.200000000000e+01 1.913581044444e+06 1.000000000000e+00 6.709823362326e+01 0.000000000000e+00 1.019850263144e-02 -8.559573606054e+07 1.362599724403e+06 2.044074583022e+06 -3.284834667709e+07 -7.074391651286e-04 2.291498006819e-04 2.681822166167e-03 0.000000000000e+00 3.880000271820e+07 7.645797743158e+07  3.122081874489e-03
3.300000000000e+01 1.945836759411e+06 1.000000000000e+00 6.718200325324e+01 0.000000000000e+00 1.032580138481e-02 -8.560739893421e+07 1.360465984907e+06 1.653995191672e+06 -3.299863253152e+07 -7.043266159411e-04 1.993475736248e-04 2.424811960017e-03 0.000000000000e+00 3.898401209135e+07 7.613850215727e+07  2.864064767212e-03
3.400000000000e+01 1.977683955850e+06 1.000000000000e+00 6.725448079532e+01 0.000000000000e+00 1.044862410635e-02 -8.560936538710e+07 1.358162355768e+06 1.267318089335e+06 -3.314226023258e+07 -7.010574579621e-04 1.697252253244e-04 2.169606167942e-03 0.000000000000e+00 3.916143584345e+07 7.581372555599e+07  2.608852434414e-03
3.500000000000e+01 2.009163290122e+06 1.000000000000e+00 6.731542028234e+01 0.000000000000e+00 1.056738724080e-02 -8.559802530554e+07 1.355708851499e+06 8.765412551125e+05 -3.328052705548e+07 -6.972083354454e-04 1.399026327269e-04 1.910986517867e-03 0.000000000000e+00 3.933400370197e+07 7.547418194161e+07  2.351391695060e-03
3.600000000000e+01 2.040320277005e+06 1.000000000000e+00 6.736484979958e+01 0.000000000000e+00 1.068258978119e-02 -8.556853597907e+07 1.352788363207e+06 4.693822187859e+05 -3.341600273166e+07 -6.927299436528e-04 1.087056161489e-04 1.640428980038e-03 0.000000000000e+00 3.950505216398e+07 7.510529150239e+07  2.083916270207e-03
3.700000000000e+01 2.071240992759e+06 1.000000000000e+00 6.740291338406e+01 0.000000000000e+00 1.079573471594e-02 -8.550500310837e+07 1.348894992717e+06 1.203896979769e+04 -3.355496564734e+07 -6.865576073897e-04 7.369954424883e-05 1.334576427301e-03 0.000000000000e+00 3.968264326197e+07 7.466468972405e+07  1.784660767722e-03
3.800000000000e+01 2.104214843803e+06 1.000000000000e+00 6.743016255845e+01 0.000000000000e+00 1.095232090075e-02 -8.489793704160e+07 1.325653907651e+06 -1.605070978266e+06 -3.390644138095e+07 -6.503375061383e-04 -5.103348769375e-05 2.270947266082e-04 0.000000000000e+00 4.013648313360e+07 7.277278628149e+07  7.937331765156e-04
3.900000000000e+01 2.134028859186e+06 1.000000000000e+00 6.744583771760e+01 0.000000000000e+00 1.104191663039e-02 -8.499636794321e+07 1.327196988452e+06 -1.678505216324e+06 -3.396373913941e+07 -6.530947747676e-04 -5.603126367347e-05 1.812449613432e-04 0.000000000000e+00 4.021287076632e+07 7.279800990600e+07  7.662709478858e-04
4.000000000000e+01 2.163414648802e+06 1.000000000000e+00 6.745056538364e+01 0.000000000000e+00 1.112418578308e-02 -8.511210290389e+07 1.329246137661e+06 -1.675263472996e+06 -3.399874564664e+07 -6.576187973173e-04 -5.560949799977e-05 1.860866828729e-04 0.000000000000e+00 4.026203734118e+07 7.290298462999e+07  7.737842629045e-04
4.200000000000e+01 2.220697509681e+06 1.000000000000e+00 6.749194524000e+01 0.000000000000e+00 1.127834035164e-02 -8.533563175373e+07 1.333185884712e+06 -1.669603772229e+06 -3.407404506192e+07 -6.659302398032e-04 -5.483465827296e-05 1.954349908560e-04 0.000000000000e+00 4.035976019596e+07 7.310426332055e+07  7.879241775106e-04
4.400000000000e+01 2.276463149110e+06 1.000000000000e+00 6.751216664321e+01 0.000000000000e+00 1.142211733299e-02 -8.553453431854e+07 1.336721120470e+06 -1.663994808781e+06 -3.413700897904e+07 -6.735505879070e-04 -5.410679329127e-05 2.039415704268e-04 0.000000000000e+00 4.044517936879e+07 7.328434552518e+07  8.008808641231e-04
5.000000000000e+01 2.427985018064e+06 1.000000000000e+00 6.726334194247e+01 0.000000000000e+00 1.172307295257e-02 -8.583978167636e+07 1.342512026524e+06 -1.647502132638e+06 -3.416599456056e+07 -6.889980794325e-04 -5.246063274632e-05 2.188799797725e-04 0.000000000000e+00 4.055109278985e+07 7.357576567964e+07  8.256458312502e-04
6.500000000000e+01 2.759369379565e+06 1.000000000000e+00 6.641202496310e+01 0.000000000000e+00 1.223612511093e-02 -8.605084919991e+07 1.347930796548e+06 -1.609970881427e+06 -3.401962020005e+07 -7.089236840918e-04 -4.955788603302e-05 2.387045891824e-04 0.000000000000e+00 4.056014676046e+07 7.382004333507e+07  8.579883214473e-04
8.000000000000e+01 3.014422729007e+06 1.000000000000e+00 6.535760750312e+01 0.000000000000e+00 1.248123406273e-02 -8.583465379990e+07 1.345947767955e+06 -1.580324057790e+06 -3.369950521295e+07 -7.146161406325e-04 -4.794025022327e-05 2.411002566988e-04 0.000000000000e+00 4.037149435688e+07 7.368642021742e+07  8.648667527166e-04
1.000000000000e+02 3.315102353166e+06 1.000000000000e+00 6.420536454622e+01 0.000000000000e+00 1.268757172871e-02 -8.547470970274e+07 1.341705628444e+06 -1.549819244522e+06 -3.331295587470e+07 -7.159657776543e-04 -4.651467780966e-05 2.397137146296e-04 0.000000000000e+00 4.011249494065e+07 7.343001325544e+07  8.649782203143e-04
1.860000000000e+02 3.913583542837e+06 1.000000000000e+00 6.147268638692e+01 0.000000000000e+00 1.294102781951e-02 -8.423558578527e+07 1.325109367814e+06 -1.484527132828e+06 -3.228209475511e+07 -7.039673756274e-04 -4.428065318598e-05 2.231448633460e-04 0.000000000000e+00 3.933406922440e+07 7.247733645351e+07  8.416250522409e-04
2.720000000000e+02 4.203904885271e+06 1.000000000000e+00 5.942458207660e+01 0.000000000000e+00 1.276069421923e-02 -8.296768903578e+07 1.305946096489e+06 -1.455025194425e+06 -3.141327210513e+07 -6.813484785416e-04 -4.452482926861e-05 1.897288410971e-04 0.000000000000e+00 3.861199544511e+07 7.144893911311e+07  7.971521942742e-04
3.580000000000e+02 4.345270570126e+06 1.000000000000e+00 5.799349184248e+01 0.000000000000e+00 1.257044562389e-02 -8.199792630880e+07 1.291050261827e+06 -1.437085826705e+06 -3.078173676583e+07 -6.622162372833e-04 -4.502308712694e-05 1.626873510377e-04 0.000000000000e+00 3.807224963378e+07 7.065499449400e+07  7.607975812859e-04
4.440000000000e+02 4.417399455284e+06 1.000000000000e+00 5.690549126728e+01 0.000000000000e+00 1.239141773280e-02 -8.122907705860e+07 1.279097658266e+06 -1.425272878443e+06 -3.029265479287e+07 -6.464020655737e-04 -4.558192896003e-05 1.401632620131e-04 0.000000000000e+00 3.764900157664e+07 7.002252694086e+07  7.309694447938e-04
5.300000000000e+02 4.456363967567e+06 1.000000000000e+00 5.606970574270e+01 0.000000000000e+00 1.223582194147e-02 -8.062187691609e+07 1.269587609291e+06 -1.417162810301e+06 -2.991225085308e+07 -6.335875683033e-04 -4.610595932965e-05 1.218244519268e-04 0.000000000000e+00 3.731709685982e+07 6.952155806217e+07  7.069923199788e-04
6.160000000000e+02 4.478879443004e+06 1.000000000000e+00 5.543354191827e+01 0.000000000000e+00 1.210663116598e-02 -8.014988905519e+07 1.262153493221e+06 -1.411573692401e+06 -2.961992730002e+07 -6.234392416548e-04 -4.656192317772e-05 1.072436222446e-04 0.000000000000e+00 3.706046334921e+07 6.913128359522e+07  6.881435919499e-04
7.020000000000e+02 4.492689738173e+06 1.000000000000e+00 5.496615109681e+01 0.000000000000e+00 1.200742873901e-02 -7.979922725315e+07 1.256613845820e+06 -1.407683496659e+06 -2.940405054768e+07 -6.158267851154e-04 -4.691830062457e-05 9.629381936843e-05 0.000000000000e+00 3.687032043250e+07 6.884104519072e+07  6.741063884305e-04
7.880000000000e+02 4.502308299529e+06 1.000000000000e+00 5.460065469369e+01 0.000000000000e+00 1.191772688392e-02 -7.951629008152e+07 1.252093560409e+06 -1.405353494437e+06 -2.923283005932e+07 -6.095195095719e-04 -4.726094680414e-05 8.704190205057e-05 0.000000000000e+00 3.671815787842e+07 6.860582937327e+07  6.624536617680e-04
8.740000000000e+02 4.510694377837e+06 1.000000000000e+00 5.401038251121e+01 0.000000000000e+00 1.179149133190e-02 -7.907352306001e+07 1.245100591076e+06 -1.400455236778e+06 -2.896022893614e+07 -5.999092669162e-04 -4.771210380329e-05 7.320709842757e-05 0.000000000000e+00 3.647806907764e+07 6.823961639791e+07  6.449785725828e-04
9.370000000000e+02 4.516068229386e+06 1.000000000000e+00 5.360241834825e+01 0.000000000000e+00 1.168753100805e-02 -7.874892982066e+07 1.239918907315e+06 -1.397815376069e+06 -2.876645045361e+07 -5.925265089134e-04 -4.810694962229e-05 6.271724997330e-05 0.000000000000e+00 3.630439855011e+07 6.796951422839e+07  6.317638690132e-04
1.000000000000e+03 4.520258254381e+06 1.000000000000e+00 5.327981538065e+01 0.000000000000e+00 1.160063041970e-02 -7.848223567192e+07 1.235659958494e+06 -1.395817718603e+06 -2.861022208486e+07 -5.862954581498e-04 -4.844257342150e-05 5.414359144414e-05 0.000000000000e+00 3.616275849179e+07 6.774702395792e+07  6.208527065675e-04
1.100000000000e+03 4.524403564311e+06 1.000000000000e+00 5.295547262778e+01 0.000000000000e+00 1.150977008747e-02 -7.820767229154e+07 1.231271278298e+06 -1.393904525082e+06 -2.845124015713e+07 -5.797777518206e-04 -4.879762362134e-05 4.531831829393e-05 0.000000000000e+00 3.601760565791e+07 6.751760156616e+07  6.096016472986e-04
1.200000000000e+03 4.527664936884e+06 1.000000000000e+00 5.267668556675e+01 0.000000000000e+00 1.143423235795e-02 -7.797659797183e+07 1.227580581964e+06 -1.392181894525e+06 -2.831605010231e+07 -5.743693036293e-04 -4.908893039738e-05 3.789323995645e-05 0.000000000000e+00 3.589494332289e+07 6.732488100392e+07  6.002748351337e-04
1.300000000000e+03 4.530570310175e+06 1.000000000000e+00 5.240899671779e+01 0.000000000000e+00 1.136232367279e-02 -7.775618090804e+07 1.224060809495e+06 -1.390524899384e+06 -2.818668119979e+07 -5.692333435747e-04 -4.936596583196e-05 3.079785137716e-05 0.000000000000e+00 3.577779566907e+07 6.714116718015e+07  5.914535203620e-04
1.400000000000e+03 4.533309823868e+06 1.000000000000e+00 5.213500147556e+01 0.000000000000e+00 1.128802865108e-02 -7.752979863802e+07 1.220444106220e+06 -1.388854845058e+06 -2.805403958253e+07 -5.639457266893e-04 -4.965265824176e-05 2.350051745334e-05 0.000000000000e+00 3.565756435520e+07 6.695245714603e+07  5.824398962777e-04
1.500000000000e+03 4.535949710671e+06 1.000000000000e+00 5.184463135537e+01 0.000000000000e+00 1.120783877112e-02 -7.728780920539e+07 1.216575469605e+06 -1.387120479974e+06 -2.791285485318e+07 -5.582600738302e-04 -4.996241305304e-05 1.569656883702e-05 0.000000000000e+00 3.552926151285e+07 6.675063889414e+07  5.728456931305e-04
1.600000000000e+03 4.538510754033e+06 1.000000000000e+00 5.153174535744e+01 0.000000000000e+00 1.111960043550e-02 -7.702439543609e+07 1.212360380887e+06 -1.385313318197e+06 -2.775993896946e+07 -5.520284728691e-04 -5.030508379868e-05 7.187128762486e-06 0.000000000000e+00 3.538988257458e+07 6.653080940058e+07  5.624467919377e-04
1.700000000000e+03 4.540998041300e+06 1.000000000000e+00 5.119255284710e+01 0.000000000000e+00 1.102198194357e-02 -7.673590833427e+07 1.207741781009e+06 -1.383419039345e+06 -2.759330366703e+07 -5.451573828256e-04 -5.068599117669e-05 -2.146931703174e-06 0.000000000000e+00 3.523754368021e+07 6.628990545278e+07  5.511242825364e-04
1.800000000000e+03 4.543411448242e+06 1.000000000000e+00 5.082476598952e+01 0.000000000000e+00 1.091417983013e-02 -7.642018354052e+07 1.202683356113e+06 -1.381423601836e+06 -2.741175852541e+07 -5.375918622536e-04 -5.110803944551e-05 -1.237187913203e-05 0.000000000000e+00 3.507112188926e+07 6.602612450902e+07  5.388349907906e-04
1.900000000000e+03 4.545750738841e+06 1.000000000000e+00 5.042709828818e+01 0.000000000000e+00 1.079573745082e-02 -7.607598849081e+07 1.197166132002e+06 -1.379318147607e+06 -2.721462921471e+07 -5.293004136999e-04 -5.157268537367e-05 -2.352550126101e-05 0.000000000000e+00 3.488997861771e+07 6.573844966642e+07  5.255849552950e-04
2.000000000000e+03 4.548015082330e+06 1.000000000000e+00 4.999894771924e+01 0.000000000000e+00 1.066645191176e-02 -7.570275563120e+07 1.191179185447e+06 -1.377141083716e+06 -2.700161676206e+07 -5.202684274850e-04 -5.208405552629e-05 -3.565260156571e-05 0.000000000000e+00 3.469383782566e+07 6.542639034026e+07  5.114094917030e-04