 TITLE = "Time curves in points"
 VARIABLES = "TIME"  "PRESSURE1"  "SATURATION1"  "TEMPERATURE1"  "DISPLACEMENT_X1"  "DISPLACEMENT_Y1"  "STRESS_XX"  "STRESS_XY"  "STRESS_YY"  "STRESS_ZZ"  "STRAIN_XX"  "STRAIN_XY"  "STRAIN_YY"  "STRAIN_PLS"  p_(1st_Invariant)  q_(2nd_Invariant)   Effective_Strain
 ZONE T="POINT=POINT8"
0.000000000000e+00 1.000000000000e+05 1.000000000000e+00 2.500000000000e+01 0.000000000000e+00 0.000000000000e+00 -1.862400571852e+07 -6.140100975330e+03 -1.726483383688e+07 -7.763601866620e+06 0.000000000000e+00 0.000000000000e+00 0.000000000000e+00 0.000000000000e+00 1.455081380734e+07 1.024864271960e+07  0.000000000000e+00
1.000000000000e-03 1.897522717761e+05 1.000000000000e+00 2.500000402545e+01 -1.291323435338e-06 6.276132965571e-05 -1.870411296173e+07 -4.878943160435e+03 -1.727614924508e+07 -7.791030806472e+06 -1.956622695973e-06 9.368600910654e-08 5.985026042740e-07 0.000000000000e+00 1.459043100443e+07 1.027380302328e+07  2.320334615039e-06
2.000000000000e-03 2.084844070581e+05 1.000000000000e+00 2.500004129614e+01 -7.248967850586e-07 6.217351946900e-05 -1.870053710071e+07 -5.130121848213e+03 -1.726553849869e+07 -7.786792991135e+06 -1.981209570503e-06 7.502702087157e-08 8.352114719078e-07 0.000000000000e+00 1.458428953018e+07 1.027170399162e+07  2.508861432638e-06
3.000000000000e-03 2.212358636005e+05 1.000000000000e+00 2.500021259078e+01 -1.367886104200e-07 6.169660814930e-05 -1.870083805490e+07 -5.236279385051e+03 -1.725650260446e+07 -7.784250568368e+06 -2.086820714750e-06 6.714103242074e-08 1.076397554797e-06 0.000000000000e+00 1.458053040924e+07 1.027087412033e+07  2.788050369136e-06
4.000000000000e-03 2.299404161370e+05 1.000000000000e+00 2.500074197247e+01 5.240537841949e-07 6.118469968890e-05 -1.870463998807e+07 -5.283872305813e+03 -1.724841906764e+07 -7.783195329153e+06 -2.267229974961e-06 6.360555830698e-08 1.337448608709e-06 0.000000000000e+00 1.457875146162e+07 1.027105546530e+07  3.158091372502e-06
1.000000000000e-02 2.422636896225e+05 1.000000000000e+00 2.508100420461e+01 7.862234937966e-06 5.838955046583e-05 -1.879373978838e+07 -5.338120682923e+03 -1.721388943430e+07 -7.829365585857e+06 -3.861755880265e-06 5.957567886457e-08 4.334873095988e-06 0.000000000000e+00 1.461233160285e+07 1.026603349959e+07  7.103179055202e-06
2.000000000000e-02 2.389194442018e+05 1.000000000000e+00 2.543889432663e+01 2.406505575007e-05 5.657066055055e-05 -1.900152290817e+07 -5.371183726645e+03 -1.722087319372e+07 -8.023294985755e+06 -4.376322618940e-06 5.711956704523e-08 1.127856831366e-05 0.000000000000e+00 1.474856369588e+07 1.020509234920e+07  1.399023746854e-05
3.000000000000e-02 2.281317474452e+05 1.000000000000e+00 2.593499907333e+01 4.095947476396e-05 5.692535946076e-05 -1.921938079763e+07 -5.395241246157e+03 -1.728321927945e+07 -8.285060676357e+06 -2.745461433832e-06 5.533243702433e-08 1.868558220880e-05 0.000000000000e+00 1.492922025115e+07 1.010631265193e+07  2.019896708560e-05
4.000000000000e-02 2.144253653967e+05 1.000000000000e+00 2.649268611841e+01 5.716019934401e-05 5.960932226029e-05 -1.942794143302e+07 -5.412608712739e+03 -1.737693185854e+07 -8.574348136464e+06 2.529634843749e-07 5.404228236392e-08 2.594979207541e-05 0.000000000000e+00 1.512640714267e+07 9.987311542245e+06  2.582440921230e-05
5.000000000000e-02 1.999260184664e+05 1.000000000000e+00 2.706394563609e+01 7.217785984571e-05 6.329590142315e-05 -1.962202434060e+07 -5.428383066621e+03 -1.748774861675e+07 -8.868496441981e+06 3.969678264730e-06 5.287047321841e-08 3.275924954669e-05 0.000000000000e+00 1.532608979978e+07 9.861165752288e+06  3.096597295991e-05
6.000000000000e-02 1.852654330480e+05 1.000000000000e+00 2.762301486876e+01 8.587727183638e-05 6.929538005050e-05 -1.979782187949e+07 -5.438199282720e+03 -1.759992857111e+07 -9.152733107525e+06 7.997417254823e-06 5.214126859394e-08 3.914992739055e-05 0.000000000000e+00 1.551682785271e+07 9.734062322643e+06  3.582715937289e-05
7.000000000000e-02 1.713197479364e+05 1.000000000000e+00 2.815767675716e+01 9.835855868174e-05 7.531270504682e-05 -1.995935173708e+07 -5.448296451572e+03 -1.771387732847e+07 -9.424232936004e+06 1.208201617374e-05 5.139119319349e-08 4.500182431790e-05 0.000000000000e+00 1.569915400052e+07 9.611172293991e+06  4.034147320896e-05
8.000000000000e-02 1.587386335393e+05 1.000000000000e+00 2.866318602226e+01 1.097603972553e-04 8.211482194052e-05 -2.010721074860e+07 -5.456904298665e+03 -1.782322747486e+07 -9.679708645531e+06 1.607920781371e-05 5.075175312373e-08 5.042934523448e-05 0.000000000000e+00 1.587004895633e+07 9.493852150070e+06  4.461842209202e-05
9.000000000000e-02 1.484204296669e+05 1.000000000000e+00 2.913867303407e+01 1.202429259687e-04 8.830206674176e-05 -2.024507613592e+07 -5.466802597366e+03 -1.793025565932e+07 -9.920722806527e+06 1.991044797879e-05 5.001645093450e-08 5.540596722018e-05 0.000000000000e+00 1.603201820059e+07 9.383588368654e+06  4.861169632099e-05
1.000000000000e-01 1.413689395457e+05 1.000000000000e+00 2.958516568313e+01 1.298887801976e-04 9.384232976296e-05 -2.037393823188e+07 -5.474841410730e+03 -1.803465231766e+07 -1.014789980329e+07 2.356214429463e-05 4.941928194176e-08 5.996637979027e-05 0.000000000000e+00 1.618549678427e+07 9.280225363577e+06  5.232792927551e-05
2.000000000000e-01 1.609113465756e+05 1.000000000000e+00 3.249981870886e+01 1.876682679203e-04 1.886689795067e-04 -2.114716823178e+07 -5.510256601579e+03 -1.861653545616e+07 -1.157814035522e+07 4.796539337023e-05 4.678843919294e-08 9.147679800346e-05 0.000000000000e+00 1.711394801439e+07 8.588061030339e+06  7.925256778879e-05
3.000000000000e-01 1.897684167318e+05 1.000000000000e+00 3.456723702577e+01 2.283897442203e-04 2.983397692846e-04 -2.169971017790e+07 -5.528077083918e+03 -1.892264497814e+07 -1.256097910138e+07 6.394784594302e-05 4.546463193352e-08 1.166124549013e-04 0.000000000000e+00 1.772777808581e+07 8.114785052541e+06  1.011468365244e-04
4.000000000000e-01 2.191248737762e+05 1.000000000000e+00 3.613366903686e+01 2.589517356480e-04 4.037692194121e-04 -2.213634038416e+07 -5.534730491443e+03 -1.910689469255e+07 -1.329636166682e+07 7.504436214094e-05 4.497037880306e-08 1.370831036541e-04 0.000000000000e+00 1.817986558118e+07 7.780913916885e+06  1.188954397341e-04
5.000000000000e-01 2.469765835129e+05 1.000000000000e+00 3.737981490638e+01 2.833532386772e-04 5.061896928849e-04 -2.250370114876e+07 -5.534198415917e+03 -1.920989549542e+07 -1.387412405135e+07 8.285927945252e-05 4.500990441360e-08 1.547171052582e-04 0.000000000000e+00 1.852924023184e+07 7.542857456881e+06  1.341018309639e-04
6.000000000000e-01 2.728380511316e+05 1.000000000000e+00 3.840699932437e+01 3.033274130303e-04 6.060523172502e-04 -2.282116629960e+07 -5.532594907887e+03 -1.926020372050e+07 -1.434427972944e+07 8.853064189330e-05 4.512902215296e-08 1.703114392273e-04 0.000000000000e+00 1.880854991652e+07 7.372399635012e+06  1.475326606519e-04
7.000000000000e-01 2.968189504268e+05 1.000000000000e+00 3.927684797067e+01 3.198609339505e-04 7.035408191860e-04 -2.310058499758e+07 -5.531322419557e+03 -1.927670229667e+07 -1.473770005590e+07 9.276498809376e-05 4.522354985746e-08 1.843113899522e-04 0.000000000000e+00 1.903832911672e+07 7.251298103552e+06  1.596195280133e-04
8.000000000000e-01 3.191955069579e+05 1.000000000000e+00 4.002870654053e+01 3.334518068793e-04 7.988241077911e-04 -2.334743462548e+07 -5.537801950881e+03 -1.927287905642e+07 -1.507388693600e+07 9.608322888993e-05 4.474221324483e-08 1.969403372794e-04 0.000000000000e+00 1.923140020596e+07 7.165379029973e+06  1.705720546361e-04
9.000000000000e-01 3.400202934397e+05 1.000000000000e+00 4.068907690810e+01 3.450502833593e-04 8.918644950322e-04 -2.357331009485e+07 -5.546025213652e+03 -1.925124473706e+07 -1.536637073493e+07 9.855725255924e-05 4.413134229611e-08 2.086075816732e-04 0.000000000000e+00 1.939697518895e+07 7.110785230103e+06  1.807508530922e-04
1.000000000000e+00 3.594526905246e+05 1.000000000000e+00 4.127662943240e+01 3.549023722179e-04 9.827200726126e-04 -2.378035913130e+07 -5.554747930070e+03 -1.921736595049e+07 -1.562401418553e+07 1.004364736561e-04 4.348336907652e-08 2.194355504824e-04 0.000000000000e+00 1.954057975577e+07 7.080227103729e+06  1.902632882171e-04
2.000000000000e+00 4.898300370408e+05 1.000000000000e+00 4.458659385047e+01 3.933097254995e-04 1.735943187972e-03 -2.516970897495e+07 -5.636408792251e+03 -1.859573945625e+07 -1.701246439728e+07 1.004030587570e-04 3.741713360019e-08 2.940955424191e-04 0.000000000000e+00 2.025930427616e+07 7.492151388614e+06  2.589302501698e-04
3.000000000000e+00 5.912502393109e+05 1.000000000000e+00 4.679648586261e+01 4.096314817280e-04 2.378635006391e-03 -2.624069782984e+07 -5.565569138321e+03 -1.792011473235e+07 -1.790390390894e+07 9.373408315132e-05 4.267950789210e-08 3.523007854543e-04 0.000000000000e+00 2.068823882371e+07 8.328705920073e+06  3.160369220874e-04
4.000000000000e+00 6.763376842059e+05 1.000000000000e+00 4.845563679296e+01 4.169048615788e-04 2.938978420220e-03 -2.712076434006e+07 -5.452543281415e+03 -1.727518691696e+07 -1.855444641025e+07 8.520890567768e-05 5.107571440513e-08 4.004182543603e-04 0.000000000000e+00 2.098346588909e+07 9.272375124569e+06  3.653438689653e-04
5.000000000000e+00 7.512946355432e+05 1.000000000000e+00 4.980826726303e+01 4.203875536513e-04 3.436310457605e-03 -2.787204987688e+07 -5.311327137441e+03 -1.668719557990e+07 -1.907618391795e+07 7.668283602453e-05 6.156605652896e-08 4.416367543085e-04 0.000000000000e+00 2.121180979158e+07 1.020234429317e+07  4.087264765769e-04
6.000000000000e+00 8.193404637507e+05 1.000000000000e+00 5.098668253450e+01 4.231342090925e-04 3.885062644664e-03 -2.854160733291e+07 -5.179797339814e+03 -1.615376014305e+07 -1.952888924720e+07 6.862832845859e-05 7.133684149551e-08 4.782648399067e-04 0.000000000000e+00 2.140808557439e+07 1.109232849188e+07  4.479113788480e-04
7.000000000000e+00 8.825714157559e+05 1.000000000000e+00 5.199331978804e+01 4.241922287578e-04 4.292289881680e-03 -2.912532194872e+07 -5.079855694387e+03 -1.566671595231e+07 -1.990960492134e+07 6.108836776802e-05 7.876107801292e-08 5.104959206022e-04 0.000000000000e+00 2.156721427413e+07 1.191775518561e+07  4.828587057268e-04
8.000000000000e+00 9.416537060918e+05 1.000000000000e+00 5.293566927960e+01 4.255221494085e-04 4.667719011806e-03 -2.966095800350e+07 -5.008175527250e+03 -1.523211345624e+07 -2.026927707403e+07 5.455256569032e-05 8.408589042886e-08 5.399975504131e-04 0.000000000000e+00 2.172078284459e+07 1.268401343135e+07  5.148932959802e-04
9.000000000000e+00 9.976178889083e+05 1.000000000000e+00 5.379586488110e+01 4.267417538250e-04 5.015838630826e-03 -3.015167931278e+07 -4.944521327667e+03 -1.483149414602e+07 -2.059693805197e+07 4.849603909750e-05 8.881448811216e-08 5.670479611162e-04 0.000000000000e+00 2.186003717025e+07 1.340226928970e+07  5.444223540467e-04
1.000000000000e+01 1.050959049152e+06 1.000000000000e+00 5.457935807192e+01 4.278365439582e-04 5.340014217233e-03 -3.060352900603e+07 -4.888349409936e+03 -1.445728109172e+07 -2.089402575862e+07 4.274773673844e-05 9.298725914362e-08 5.919819893801e-04 0.000000000000e+00 2.198494528546e+07 1.407848714003e+07  5.718078177592e-04
1.100000000000e+01 1.101971525748e+06 1.000000000000e+00 5.531115847719e+01 4.286830784677e-04 5.643853561830e-03 -3.102041439912e+07 -4.881148929208e+03 -1.411241037243e+07 -2.117137921510e+07 3.756512194976e-05 9.352215199766e-08 6.150931730514e-04 0.000000000000e+00 2.210140132888e+07 1.470906656281e+07  5.971973929151e-04
1.200000000000e+01 1.151043677121e+06 1.000000000000e+00 5.598519287632e+01 4.291985826435e-04 5.929340041882e-03 -3.140545264203e+07 -4.852800428065e+03 -1.378960659580e+07 -2.142558524273e+07 3.270563966836e-05 9.562804065402e-08 6.365249657813e-04 0.000000000000e+00 2.220688149352e+07 1.530072051287e+07  6.208186226205e-04
1.300000000000e+01 1.198431142852e+06 1.000000000000e+00 5.660414097440e+01 4.294680188617e-04 6.198058690132e-03 -3.176225361598e+07 -4.824757170605e+03 -1.348371752919e+07 -2.165711561622e+07 2.805273165109e-05 9.771125406534e-08 6.564862592708e-04 0.000000000000e+00 2.230102892047e+07 1.585911837759e+07  6.429190929992e-04
1.400000000000e+01 1.244848089696e+06 1.000000000000e+00 5.717202786384e+01 4.294455742121e-04 6.451554656544e-03 -3.209228731519e+07 -4.815142470617e+03 -1.319282429378e+07 -2.186724384145e+07 2.359909976030e-05 9.842548892160e-08 6.750956278086e-04 0.000000000000e+00 2.238411848348e+07 1.638576989555e+07  6.636108831161e-04
1.500000000000e+01 1.289842830218e+06 1.000000000000e+00 5.769272757371e+01 4.291100407333e-04 6.690759068440e-03 -3.239754361868e+07 -4.815308997124e+03 -1.291687804520e+07 -2.205790786551e+07 1.934281509581e-05 9.841311838109e-08 6.924268665067e-04 0.000000000000e+00 2.245744317646e+07 1.688139455129e+07  6.829609462958e-04
1.600000000000e+01 1.333555268483e+06 1.000000000000e+00 5.816975980579e+01 4.286188766794e-04 6.916685638429e-03 -3.268146803180e+07 -4.813878242518e+03 -1.265284206148e+07 -2.223046215891e+07 1.520621064889e-05 9.851940300894e-08 7.086430767998e-04 0.000000000000e+00 2.252159075073e+07 1.735079721202e+07  7.011636701627e-04
1.700000000000e+01 1.376119091317e+06 1.000000000000e+00 5.860621954810e+01 4.281663312762e-04 7.130223874426e-03 -3.294796098188e+07 -4.820429615809e+03 -1.239774525238e+07 -2.238626871253e+07 1.109500163784e-05 9.803272956446e-08 7.239052017011e-04 0.000000000000e+00 2.257732498226e+07 1.779931811130e+07  7.184219787451e-04
1.800000000000e+01 1.417665494257e+06 1.000000000000e+00 5.900482333236e+01 4.277811226134e-04 7.332158696959e-03 -3.319846761638e+07 -4.830695844888e+03 -1.215038785363e+07 -2.252635188416e+07 6.993558730866e-06 9.727009540428e-08 7.382958514577e-04 0.000000000000e+00 2.262506911806e+07 1.822877512997e+07  7.348240518178e-04
1.900000000000e+01 1.458284177490e+06 1.000000000000e+00 5.936796184715e+01 4.274848172554e-04 7.523183758790e-03 -3.343434068569e+07 -4.846117942788e+03 -1.191001738181e+07 -2.265172844926e+07 2.889402860299e-06 9.612445384599e-08 7.518807414004e-04 0.000000000000e+00 2.266536217225e+07 1.864062388839e+07  7.504402303266e-04
2.000000000000e+01 1.498058933073e+06 1.000000000000e+00 5.969774740414e+01 4.269135254265e-04 7.703918616533e-03 -3.365208866429e+07 -4.897328920511e+03 -1.168060731343e+07 -2.276328226295e+07 -1.054951836299e-06 9.232020978655e-08 7.645451141630e-04 0.000000000000e+00 2.269865941356e+07 1.902810980545e+07  7.650731522901e-04
2.100000000000e+01 1.536914098402e+06 1.000000000000e+00 6.002784237796e+01 4.267345188578e-04 7.876634690347e-03 -3.386249734000e+07 -4.919199560337e+03 -1.146529776591e+07 -2.287703889024e+07 -4.644885063211e-06 9.069553368520e-08 7.767675720845e-04 0.000000000000e+00 2.273494466538e+07 1.939771670574e+07  7.791004150746e-04
2.200000000000e+01 1.575000746812e+06 1.000000000000e+00 6.034057872358e+01 4.267218988423e-04 8.041737423713e-03 -3.406387636733e+07 -4.941645728310e+03 -1.125690185058e+07 -2.298409094222e+07 -8.148458433475e-06 8.902810406435e-08 7.884842108705e-04 0.000000000000e+00 2.276828972004e+07 1.975407353161e+07  7.925898704643e-04
2.300000000000e+01 1.612388172488e+06 1.000000000000e+00 6.063232558030e+01 4.264177173654e-04 8.199514588334e-03 -3.425124568702e+07 -4.980377075991e+03 -1.105828811443e+07 -2.308252941552e+07 -1.145160415632e-05 8.615091823665e-08 7.995175786503e-04 0.000000000000e+00 2.279735440566e+07 2.009024678556e+07  8.053044634803e-04
2.400000000000e+01 1.649122696109e+06 1.000000000000e+00 6.090262542673e+01 4.259897068750e-04 8.350227890932e-03 -3.442706144061e+07 -5.010982613377e+03 -1.086633591138e+07 -2.317199416201e+07 -1.465892727731e-05 8.387736403083e-08 8.099702082043e-04 0.000000000000e+00 2.282179717133e+07 2.041094929873e+07  8.173982736785e-04
2.500000000000e+01 1.685258508133e+06 1.000000000000e+00 6.115184454688e+01 4.255051595614e-04 8.494139038318e-03 -3.459259895376e+07 -5.039653529112e+03 -1.067989568771e+07 -2.325265094118e+07 -1.781164025348e-05 8.174752457625e-08 8.198909540241e-04 0.000000000000e+00 2.284171519422e+07 2.071818193604e+07  8.289403197982e-04
2.600000000000e+01 1.720830930678e+06 1.000000000000e+00 6.138059466342e+01 4.250370083542e-04 8.631493387470e-03 -3.474921342220e+07 -5.068220602946e+03 -1.049799742702e+07 -2.332482935063e+07 -2.094783673042e-05 7.962539909142e-08 8.293280874865e-04 0.000000000000e+00 2.285734673328e+07 2.101387398812e+07  8.399979386588e-04
2.700000000000e+01 1.755869154182e+06 1.000000000000e+00 6.158955581002e+01 4.246044127404e-04 8.762524189051e-03 -3.489745649324e+07 -5.093457694273e+03 -1.032016085079e+07 -2.338878879303e+07 -2.407837150850e-05 7.775064373572e-08 8.383090824642e-04 0.000000000000e+00 2.286880204569e+07 2.129885073522e+07  8.506039156849e-04
2.800000000000e+01 1.790413798117e+06 1.000000000000e+00 6.177940892914e+01 4.242565774095e-04 8.887457387773e-03 -3.503822637489e+07 -5.124413174364e+03 -1.014558391125e+07 -2.344479643549e+07 -2.722668324999e-05 7.545109378606e-08 8.468736526527e-04 0.000000000000e+00 2.287620224054e+07 2.157452754877e+07  8.608099985539e-04
2.900000000000e+01 1.824490651884e+06 1.000000000000e+00 6.195081186402e+01 4.240155710418e-04 9.006497983206e-03 -3.517216843420e+07 -5.157915860283e+03 -9.973975256764e+06 -2.349318872022e+07 -3.040424630578e-05 7.296232283205e-08 8.550451161092e-04 0.000000000000e+00 2.287977747039e+07 2.184166659005e+07  8.706455002232e-04
3.000000000000e+01 1.858108449564e+06 1.000000000000e+00 6.210439119759e+01 4.238666394089e-04 9.119845654209e-03 -3.529926773846e+07 -5.183432438815e+03 -9.805186159193e+06 -2.353413584933e+07 -3.360418423955e-05 7.106680556968e-08 8.628353188148e-04 0.000000000000e+00 2.287952991566e+07 2.210034778845e+07  8.801186969756e-04
3.100000000000e+01 1.891186849834e+06 1.000000000000e+00 6.226590502672e+01 4.242346719395e-04 9.229052685728e-03 -3.542662654135e+07 -5.216917165320e+03 -9.643616694960e+06 -2.358015611576e+07 -3.662532987991e-05 6.857936874360e-08 8.705457945248e-04 0.000000000000e+00 2.288346645069e+07 2.235318492529e+07  8.894242160877e-04
3.200000000000e+01 1.923803508599e+06 1.000000000000e+00 6.242060102855e+01 4.248660441852e-04 9.334225286650e-03 -3.555153527125e+07 -5.251357720244e+03 -9.484442305941e+06 -2.362377817339e+07 -3.964454913566e-05 6.602092752067e-08 8.780782339720e-04 0.000000000000e+00 2.288658525020e+07 2.260183299293e+07  8.985566782454e-04
3.300000000000e+01 1.955985196901e+06 1.000000000000e+00 6.256492306584e+01 4.256950178809e-04 9.435421632517e-03 -3.567340203717e+07 -5.286094352349e+03 -9.326479549737e+06 -2.366322099786e+07 -4.270600981793e-05 6.344049199287e-08 8.854104412540e-04 0.000000000000e+00 2.288770086159e+07 2.284674042574e+07  9.075173892700e-04
3.400000000000e+01 1.987757367210e+06 1.000000000000e+00 6.269791394810e+01 4.266828682054e-04 9.532669730912e-03 -3.579190420320e+07 -5.317896833478e+03 -9.169680110861e+06 -2.369803776241e+07 -4.581432473015e-05 6.107802196616e-08 8.925276145241e-04 0.000000000000e+00 2.288654069216e+07 2.308763485983e+07  9.162941974020e-04
3.500000000000e+01 2.019156671974e+06 1.000000000000e+00 6.281934767946e+01 4.280018179620e-04 9.626030160209e-03 -3.590926705817e+07 -5.353788297094e+03 -9.011790627391e+06 -2.372814081983e+07 -4.905540292485e-05 5.841179895472e-08 8.995101946144e-04 0.000000000000e+00 2.288306616846e+07 2.332836481350e+07  9.250139826181e-04
3.600000000000e+01 2.050221244270e+06 1.000000000000e+00 6.292925655316e+01 4.298493879087e-04 9.715554262028e-03 -3.602802301508e+07 -5.382447692954e+03 -8.850372551513e+06 -2.375356959357e+07 -5.252184115680e-05 5.628281526225e-08 9.064502204574e-04 0.000000000000e+00 2.287732172005e+07 2.357320881229e+07  9.338195703477e-04
3.700000000000e+01 2.081022622880e+06 1.000000000000e+00 6.302778449203e+01 4.329553989057e-04 9.801307638507e-03 -3.615740297139e+07 -5.346670641612e+03 -8.676923494564e+06 -2.377459300948e+07 -5.654651265759e-05 5.894053907619e-08 9.136734837350e-04 0.000000000000e+00 2.286963982515e+07 2.383747607374e+07  9.432188519156e-04
3.800000000000e+01 2.113330364229e+06 1.000000000000e+00 6.311537564157e+01 4.600429070100e-04 9.883304896252e-03 -3.658101341085e+07 -3.276975768321e+03 -8.226550499822e+06 -2.379698096439e+07 -7.144906208378e-05 2.126893010921e-07 9.312331761505e-04 0.000000000000e+00 2.286818162502e+07 2.459517657843e+07  9.689355342661e-04
3.900000000000e+01 2.143157947788e+06 1.000000000000e+00 6.319159883550e+01 4.556706119441e-04 9.961886008205e-03 -3.660634362748e+07 -5.746596857892e+03 -8.143633700193e+06 -2.380614220135e+07 -7.204962418555e-05 2.923173443827e-08 9.346532175095e-04 0.000000000000e+00 2.285203984300e+07 2.469094351825e+07  9.726814488696e-04
4.000000000000e+01 2.172544101843e+06 1.000000000000e+00 6.325687785189e+01 4.499276408343e-04 1.003682869215e-02 -3.661071897089e+07 -5.744883498482e+03 -8.081223800144e+06 -2.381133852947e+07 -7.201913046789e-05 2.935901256587e-08 9.371643059844e-04 0.000000000000e+00 2.283442710017e+07 2.475068627131e+07  9.751704735957e-04
4.200000000000e+01 2.229827605393e+06 1.000000000000e+00 6.339719070174e+01 4.397237147138e-04 1.017717384651e-02 -3.662190514920e+07 -5.744771991250e+03 -7.966875940126e+06 -2.382910442909e+07 -7.177474081907e-05 2.936729596023e-08 9.420713884855e-04 0.000000000000e+00 2.280596183947e+07 2.486339618685e+07  9.799321643622e-04
4.400000000000e+01 2.285593809494e+06 1.000000000000e+00 6.351556358873e+01 4.301299278807e-04 1.030801356839e-02 -3.662786398864e+07 -5.744370927641e+03 -7.854750450823e+06 -2.383829415749e+07 -7.165473637230e-05 2.939708925692e-08 9.465773822857e-04 0.000000000000e+00 2.277363619899e+07 2.496937150326e+07  9.843626858407e-04
5.000000000000e+01 2.437116678573e+06 1.000000000000e+00 6.356115187484e+01 4.069520152362e-04 1.058171432748e-02 -3.658681853600e+07 -5.744590686511e+03 -7.554091604728e+06 -2.375056709403e+07 -7.338862477410e-05 2.938076431230e-08 9.544862770693e-04 0.000000000000e+00 2.263049241159e+07 2.519915276775e+07  9.932161804911e-04
6.500000000000e+01 2.768502507756e+06 1.000000000000e+00 6.327264371380e+01 3.688446859333e-04 1.104605184536e-02 -3.637046000412e+07 -5.740933399687e+03 -6.849465244932e+06 -2.337105275294e+07 -7.944869768713e-05 2.965244847635e-08 9.665618663357e-04 0.000000000000e+00 2.219699266733e+07 2.562651724277e+07  1.008635722732e-03
8.000000000000e+01 3.023556374630e+06 1.000000000000e+00 6.265086950879e+01 3.465658896181e-04 1.126641786464e-02 -3.611479159801e+07 -5.739897726683e+03 -6.318205584665e+06 -2.291563063373e+07 -8.686812131691e-05 2.972938418526e-08 9.693786892891e-04 0.000000000000e+00 2.178287593880e+07 2.586048244088e+07  1.015602885967e-03
1.000000000000e+02 3.324236305531e+06 1.000000000000e+00 6.190767060370e+01 3.281590356414e-04 1.145090387059e-02 -3.581629521826e+07 -5.738508728277e+03 -5.764019797427e+06 -2.239807775250e+07 -9.500450565764e-05 2.983256692393e-08 9.707393400837e-04 0.000000000000e+00 2.132613092273e+07 2.607565818502e+07  1.021560246035e-03
1.860000000000e+02 3.922717201764e+06 1.000000000000e+00 5.994700809414e+01 3.032275486669e-04 1.167023008036e-02 -3.505784402039e+07 -5.734550587050e+03 -4.556278176091e+06 -2.111891499510e+07 -1.143452207259e-04 3.012660027226e-08 9.680865550299e-04 0.000000000000e+00 2.024434573053e+07 2.644768796167e+07  1.030030330171e-03
2.720000000000e+02 4.213038211969e+06 1.000000000000e+00 5.827378534171e+01 3.038331870345e-04 1.150214072137e-02 -3.456713304385e+07 -5.734463745761e+03 -4.086445838346e+06 -2.024363198980e+07 -1.286293246514e-04 3.013305133940e-08 9.530269588062e-04 0.000000000000e+00 1.963240362400e+07 2.641296875213e+07  1.023422251166e-03
3.580000000000e+02 4.354403691727e+06 1.000000000000e+00 5.705890390728e+01 3.085741509394e-04 1.132624775606e-02 -3.422396075575e+07 -5.734024215343e+03 -3.811240112289e+06 -1.963204973787e+07 -1.385988375934e-04 3.016570217052e-08 9.405329735598e-04 0.000000000000e+00 1.922241686864e+07 2.634535688290e+07  1.016940849666e-03
4.440000000000e+02 4.426532453840e+06 1.000000000000e+00 5.611635431592e+01 3.139758797552e-04 1.116165782137e-02 -3.397033312145e+07 -5.731702118559e+03 -3.642632959673e+06 -1.917490824036e+07 -1.461579239412e-04 3.033820078876e-08 9.298159836066e-04 0.000000000000e+00 1.892929144050e+07 2.626714456335e+07  1.010851066515e-03
5.300000000000e+02 4.465496889446e+06 1.000000000000e+00 5.538231376721e+01 3.190686101007e-04 1.101901197480e-02 -3.377934403257e+07 -5.732619323010e+03 -3.534520030548e+06 -1.882785865528e+07 -1.519544566573e-04 3.027006560097e-08 9.209411935281e-04 0.000000000000e+00 1.871390757280e+07 2.619334550386e+07  1.005566487240e-03
6.160000000000e+02 4.488012314786e+06 1.000000000000e+00 5.481765606841e+01 3.235056589004e-04 1.090078700122e-02 -3.363631368092e+07 -5.731516295760e+03 -3.465073824380e+06 -1.856620102249e+07 -1.563606128140e-04 3.035200476807e-08 9.138019119679e-04 0.000000000000e+00 1.855586284260e+07 2.612906666697e+07  1.001181904184e-03
7.020000000000e+02 4.501822576458e+06 1.000000000000e+00 5.440041979532e+01 3.269898221682e-04 1.081010060914e-02 -3.353223785333e+07 -5.731846748229e+03 -3.419380894147e+06 -1.837503818152e+07 -1.595952733109e-04 3.032745687038e-08 9.083987438548e-04 0.000000000000e+00 1.844221897633e+07 2.607869569359e+07  9.978151520499e-04
7.880000000000e+02 4.511441113274e+06 1.000000000000e+00 5.406843927209e+01 3.302535911835e-04 1.072837869093e-02 -3.345477898028e+07 -5.731563753562e+03 -3.400226098710e+06 -1.822972757471e+07 -1.621154805649e-04 3.034847933138e-08 9.037129565752e-04 0.000000000000e+00 1.836157755123e+07 2.602875957806e+07  9.947283045795e-04
8.740000000000e+02 4.519827167133e+06 1.000000000000e+00 5.354181640402e+01 3.346460891228e-04 1.061285213593e-02 -3.332317244393e+07 -5.732111857170e+03 -3.341974107412e+06 -1.798819887722e+07 -1.661983036925e-04 3.030776306332e-08 8.969055360597e-04 0.000000000000e+00 1.821778180952e+07 2.596676496154e+07  9.905178434466e-04
9.370000000000e+02 4.525201002277e+06 1.000000000000e+00 5.316712255178e+01 3.386773726013e-04 1.051789671138e-02 -3.323386965862e+07 -5.732258452931e+03 -3.318273690224e+06 -1.782302270656e+07 -1.690164580061e-04 3.029687309252e-08 8.916507223590e-04 0.000000000000e+00 1.812505535180e+07 2.591162892510e+07  9.870720456916e-04
1.000000000000e+03 4.529391016052e+06 1.000000000000e+00 5.286584965629e+01 3.423278621019e-04 1.043839562553e-02 -3.316094654028e+07 -5.732458811009e+03 -3.299526213312e+06 -1.768999116190e+07 -1.712490566979e-04 3.028198934960e-08 8.874058855570e-04 0.000000000000e+00 1.805015463850e+07 2.586639289567e+07  9.842676814271e-04
1.100000000000e+03 4.533536316160e+06 1.000000000000e+00 5.255967195153e+01 3.463049066027e-04 1.035522278251e-02 -3.308651147538e+07 -5.731578292135e+03 -3.281697625358e+06 -1.755507762488e+07 -1.734953999478e-04 3.034739932307e-08 8.830570160205e-04 0.000000000000e+00 1.797442890854e+07 2.581939135421e+07  9.813748928316e-04
1.200000000000e+03 4.536797682875e+06 1.000000000000e+00 5.229905566997e+01 3.494889458880e-04 1.028610383316e-02 -3.302340245605e+07 -5.732001725375e+03 -3.265626428563e+06 -1.744003560657e+07 -1.754243399097e-04 3.031594428242e-08 8.793809569357e-04 0.000000000000e+00 1.790968816373e+07 2.578061897189e+07  9.789532129324e-04
1.300000000000e+03 4.539703052077e+06 1.000000000000e+00 5.204954421879e+01 3.524787244278e-04 1.022031582670e-02 -3.296312789673e+07 -5.731810540980e+03 -3.250155945537e+06 -1.732991079985e+07 -1.772759205277e-04 3.033014655173e-08 8.758652249128e-04 0.000000000000e+00 1.784773154737e+07 2.574391066690e+07  9.766455144907e-04
1.400000000000e+03 4.542442562524e+06 1.000000000000e+00 5.179372965818e+01 3.555784608670e-04 1.015233876443e-02 -3.290141763674e+07 -5.731844314669e+03 -3.234790424091e+06 -1.721718066715e+07 -1.791709443712e-04 3.032763764909e-08 8.722488250661e-04 0.000000000000e+00 1.778446290933e+07 2.570614219915e+07  9.742699259493e-04
1.500000000000e+03 4.545082446453e+06 1.000000000000e+00 5.152154209752e+01 3.589654525281e-04 1.007895246170e-02 -3.283583562142e+07 -5.731547474412e+03 -3.219304717274e+06 -1.709752239299e+07 -1.811794911281e-04 3.034968863963e-08 8.683795582790e-04 0.000000000000e+00 1.771755424389e+07 2.566552677260e+07  9.717209653396e-04
1.600000000000e+03 4.547643486991e+06 1.000000000000e+00 5.122683981314e+01 3.627469468283e-04 9.998183227837e-03 -3.276489421181e+07 -5.731327270963e+03 -3.203578738525e+06 -1.696830406003e+07 -1.833440625670e-04 3.036604661013e-08 8.641641279797e-04 0.000000000000e+00 1.764559233679e+07 2.562100206081e+07  9.689344921512e-04
1.700000000000e+03 4.550130771773e+06 1.000000000000e+00 5.090583175430e+01 3.669900281905e-04 9.908810347177e-03 -3.268768680047e+07 -5.730924250357e+03 -3.187554757064e+06 -1.682790950118e+07 -1.856910137600e-04 3.039598528371e-08 8.595446493912e-04 0.000000000000e+00 1.756771701957e+07 2.557195535316e+07  9.658715633962e-04
1.800000000000e+03 4.552544175198e+06 1.000000000000e+00 5.055622983281e+01 3.717342954646e-04 9.810097267522e-03 -3.260366276474e+07 -5.731717882395e+03 -3.171189812319e+06 -1.667535981201e+07 -1.882362523165e-04 3.033702976093e-08 8.544863588836e-04 0.000000000000e+00 1.748340412969e+07 2.551807304191e+07  9.625098112836e-04
1.900000000000e+03 4.554883463307e+06 1.000000000000e+00 5.017674738919e+01 3.770021855975e-04 9.701626105191e-03 -3.251251411868e+07 -5.731973636488e+03 -3.154476428421e+06 -1.651011002404e+07 -1.909885804444e-04 3.031803088539e-08 8.489692924470e-04 0.000000000000e+00 1.739236685705e+07 2.545922681175e+07  9.588372855396e-04
2.000000000000e+03 4.557147803229e+06 1.000000000000e+00 4.976678229369e+01 3.828044788037e-04 9.583206239224e-03 -3.241409537203e+07 -5.731274333790e+03 -3.137395142180e+06 -1.633189990648e+07 -1.939522599357e-04 3.036997908584e-08 8.429845072834e-04 0.000000000000e+00 1.729446347356e+07 2.539544585552e+07  9.548503085298e-04