 TITLE = "Time curves in points"
 VARIABLES = "TIME"  "PRESSURE1"  "SATURATION1"  "TEMPERATURE1"  "DISPLACEMENT_X1"  "DISPLACEMENT_Y1"  "STRESS_XX"  "STRESS_XY"  "STRESS_YY"  "STRESS_ZZ"  "STRAIN_XX"  "STRAIN_XY"  "STRAIN_YY"  "STRAIN_PLS"  p_(1st_Invariant)  q_(2nd_Invariant)   Effective_Strain
 ZONE T="POINT=POINT10"
0.000000000000e+00 1.000000000000e+05 1.000000000000e+00 2.500000000000e+01 0.000000000000e+00 0.000000000000e+00 -3.864302542005e+07 -1.960132696367e+04 -1.523974570659e+07 -1.317212244625e+07 0.000000000000e+00 0.000000000000e+00 0.000000000000e+00 0.000000000000e+00 2.235163119096e+07 2.450263017377e+07  0.000000000000e+00
1.000000000000e-03 1.740556493452e+05 1.000000000000e+00 2.500000447452e+01 0.000000000000e+00 6.302578438648e-05 -3.869889556324e+07 -1.957684475086e+04 -1.529243934069e+07 -1.320469226720e+07 -8.654405403169e-07 1.818678665353e-09 -7.474559170723e-07 0.000000000000e+00 2.239867572371e+07 2.451711220716e+07  8.129015603581e-07
2.000000000000e-03 1.919940503962e+05 1.000000000000e+00 2.500004424458e+01 0.000000000000e+00 6.293563283561e-05 -3.868874046270e+07 -1.964289074819e+04 -1.528932421411e+07 -1.320071911812e+07 -6.358252006407e-07 -3.087595421451e-09 -7.793253242313e-07 0.000000000000e+00 2.239292793165e+07 2.451057423993e+07  7.184257552808e-07
3.000000000000e-03 2.044247639721e+05 1.000000000000e+00 2.500022317481e+01 0.000000000000e+00 6.297250738322e-05 -3.867971663978e+07 -1.974286958156e+04 -1.528961720198e+07 -1.319814090642e+07 -3.964167841340e-07 -1.051459447216e-08 -8.859698796461e-07 0.000000000000e+00 2.238915824939e+07 2.450289845453e+07  7.689000155710e-07
4.000000000000e-03 2.130107233903e+05 1.000000000000e+00 2.500077028311e+01 0.000000000000e+00 6.301287647791e-05 -3.867115125596e+07 -1.989149798087e+04 -1.529319172568e+07 -1.319678092714e+07 -1.287874723633e-07 -2.155556127762e-08 -1.069251418978e-06 0.000000000000e+00 2.238704130292e+07 2.449356903062e+07  1.011717623213e-06
1.000000000000e-02 2.252844771433e+05 1.000000000000e+00 2.508185242243e+01 0.000000000000e+00 6.668127100167e-05 -3.862675329319e+07 -2.196080777328e+04 -1.537868611595e+07 -1.323457588959e+07 2.924092607040e-06 -1.752757172857e-07 -2.840944452434e-06 0.000000000000e+00 2.241333843291e+07 2.439093482320e+07  5.002062810275e-06
2.000000000000e-02 2.219294927555e+05 1.000000000000e+00 2.544179078192e+01 0.000000000000e+00 8.011288865585e-05 -3.861466992558e+07 -2.538501003846e+04 -1.557887582412e+07 -1.340840918268e+07 9.829568576166e-06 -4.296450284134e-07 -3.819897012258e-06 0.000000000000e+00 2.253398497746e+07 2.419419540259e+07  1.221940079402e-05
3.000000000000e-02 2.111384217562e+05 1.000000000000e+00 2.593979075627e+01 0.000000000000e+00 9.687425024264e-05 -3.866061405226e+07 -2.797991640715e+04 -1.578903881129e+07 -1.365040983286e+07 1.711166802017e-05 -6.224095015158e-07 -2.637355243434e-06 0.000000000000e+00 2.270002089880e+07 2.401247280333e+07  1.860259533646e-05
4.000000000000e-02 1.974241964817e+05 1.000000000000e+00 2.649896841115e+01 0.000000000000e+00 1.157745741113e-04 -3.874352269516e+07 -2.984058600869e+04 -1.598986250819e+07 -1.392298376223e+07 2.415637866070e-05 -7.606306719159e-07 2.765339136470e-08 0.000000000000e+00 2.288545632186e+07 2.385440771995e+07  2.417848353336e-05
5.000000000000e-02 1.829113713786e+05 1.000000000000e+00 2.707130627529e+01 0.000000000000e+00 1.347279196875e-04 -3.884746905785e+07 -3.116727228367e+04 -1.617667567445e+07 -1.420353346821e+07 3.071593141148e-05 -8.591845094859e-07 3.509296295216e-06 0.000000000000e+00 2.307589273350e+07 2.371905934621e+07  2.915830743922e-05
6.000000000000e-02 1.682270725788e+05 1.000000000000e+00 2.763110811857e+01 0.000000000000e+00 1.551999761836e-04 -3.895900608952e+07 -3.215422271171e+04 -1.634531590559e+07 -1.447773635271e+07 3.675780594509e-05 -9.325008269977e-07 7.430194848275e-06 0.000000000000e+00 2.326068611594e+07 2.360302531893e+07  3.370215284503e-05
7.000000000000e-02 1.542556228615e+05 1.000000000000e+00 2.816623668210e+01 0.000000000000e+00 1.744927443784e-04 -3.907412429027e+07 -3.288759168934e+04 -1.650011874201e+07 -1.474126143594e+07 4.227006158024e-05 -9.869796653361e-07 1.146844973017e-05 0.000000000000e+00 2.343850148941e+07 2.350291481674e+07  3.790031339535e-05
8.000000000000e-02 1.416079441769e+05 1.000000000000e+00 2.867201626895e+01 0.000000000000e+00 1.936693246793e-04 -3.918744945672e+07 -3.346309292735e+04 -1.664151478744e+07 -1.499079350870e+07 4.732917524285e-05 -1.029731185874e-06 1.548493074503e-05 0.000000000000e+00 2.360658591762e+07 2.341504781749e+07  4.183450665943e-05
9.000000000000e-02 1.312089199408e+05 1.000000000000e+00 2.914763495597e+01 0.000000000000e+00 2.111936188911e-04 -3.929853478684e+07 -3.391457870834e+04 -1.677337148718e+07 -1.522690366158e+07 5.197295437430e-05 -1.063270129604e-06 1.935720186192e-05 0.000000000000e+00 2.376626997853e+07 2.333693286011e+07  4.553273450209e-05
1.000000000000e-01 1.240701125961e+05 1.000000000000e+00 2.959416633005e+01 0.000000000000e+00 2.271119113049e-04 -3.940674470736e+07 -3.426917877150e+04 -1.689664501127e+07 -1.544992549570e+07 5.623739687931e-05 -1.089611848582e-06 2.306213909165e-05 0.000000000000e+00 2.391777173811e+07 2.326729269473e+07  4.900116488618e-05
2.000000000000e-01 1.432624336946e+05 1.000000000000e+00 3.250759920630e+01 0.000000000000e+00 3.962061741293e-04 -4.012912451795e+07 -3.619205271557e+04 -1.760906653791e+07 -1.688920393889e+07 8.286506037550e-05 -1.232453912999e-06 5.005968170584e-05 0.000000000000e+00 2.487579833158e+07 2.288856681070e+07  7.231146689520e-05
3.000000000000e-01 1.717948314734e+05 1.000000000000e+00 3.457268545528e+01 0.000000000000e+00 5.664701339704e-04 -4.061580889377e+07 -3.811006181467e+04 -1.809549314098e+07 -1.789879451811e+07 1.022872907877e-04 -1.374934588932e-06 6.949148653456e-05 0.000000000000e+00 2.553669885095e+07 2.261940282544e+07  9.049492804799e-05
4.000000000000e-01 2.008799525264e+05 1.000000000000e+00 3.613564746535e+01 0.000000000000e+00 7.219107285325e-04 -4.097895844786e+07 -3.994798499382e+04 -1.847110975361e+07 -1.866470842795e+07 1.172471097154e-04 -1.511466025097e-06 8.398824328790e-05 0.000000000000e+00 2.603825887647e+07 2.241178331024e+07  1.046918552719e-04
5.000000000000e-01 2.285057154166e+05 1.000000000000e+00 3.737741631547e+01 0.000000000000e+00 8.678936059230e-04 -4.125896156155e+07 -4.182982135525e+04 -1.878038530310e+07 -1.927447912996e+07 1.294956201391e-04 -1.651259583374e-06 9.514949181014e-05 0.000000000000e+00 2.643794199820e+07 2.223576494642e+07  1.162294237863e-04
6.000000000000e-01 2.541974450547e+05 1.000000000000e+00 3.839981986304e+01 0.000000000000e+00 1.006834900677e-03 -4.148348969462e+07 -4.376175099917e+04 -1.904549919258e+07 -1.977817567409e+07 1.398647325496e-04 -1.794774356923e-06 1.040111332687e-04 0.000000000000e+00 2.676905485376e+07 2.208090102183e+07  1.258675238621e-04
7.000000000000e-01 2.780400045055e+05 1.000000000000e+00 3.926450008438e+01 0.000000000000e+00 1.139825555291e-03 -4.167174725825e+07 -4.567628825538e+04 -1.927590883220e+07 -2.020572315250e+07 1.487526436702e-04 -1.936997124527e-06 1.113333958521e-04 0.000000000000e+00 2.705112641432e+07 2.194585202634e+07  1.340618996681e-04
8.000000000000e-01 3.003027005535e+05 1.000000000000e+00 4.001102928039e+01 0.000000000000e+00 1.267530205705e-03 -4.183729316596e+07 -4.750988088669e+04 -1.947646365811e+07 -2.057636559030e+07 1.563705147879e-04 -2.073206862854e-06 1.176509357226e-04 0.000000000000e+00 2.729670747145e+07 2.183182384788e+07  1.411000983249e-04
9.000000000000e-01 3.210277039390e+05 1.000000000000e+00 4.066608925883e+01 0.000000000000e+00 1.390769332067e-03 -4.198308084585e+07 -4.931212099933e+04 -1.965681264679e+07 -2.090315082653e+07 1.630932811663e-04 -2.207087556935e-06 1.230899963459e-04 0.000000000000e+00 2.751434810639e+07 2.173009031603e+07  1.472753471755e-04
1.000000000000e+00 3.403771986573e+05 1.000000000000e+00 4.124850062972e+01 0.000000000000e+00 1.509987456278e-03 -4.211441598147e+07 -5.109106579593e+04 -1.982154548595e+07 -2.119559117034e+07 1.690771888991e-04 -2.339237741825e-06 1.278334179473e-04 0.000000000000e+00 2.771051754592e+07 2.163877272090e+07  1.527454735691e-04
2.000000000000e+00 4.704530123069e+05 1.000000000000e+00 4.452435316778e+01 0.000000000000e+00 2.468760858694e-03 -4.295897895575e+07 -6.644342459807e+04 -2.088655851081e+07 -2.291540515454e+07 2.015865121244e-04 -3.479698681413e-06 1.521545964368e-04 0.000000000000e+00 2.892031420703e+07 2.113148482832e+07  1.820773286180e-04
3.000000000000e+00 5.717561879422e+05 1.000000000000e+00 4.671041876856e+01 0.000000000000e+00 3.276524268777e-03 -4.357856519712e+07 -8.000913616690e+04 -2.169240789541e+07 -2.410942411444e+07 2.229225845272e-04 -4.487437255097e-06 1.665723235194e-04 0.000000000000e+00 2.979346573566e+07 2.078378829889e+07  2.009191281701e-04
4.000000000000e+00 6.567912669109e+05 1.000000000000e+00 4.835209967221e+01 0.000000000000e+00 3.975522860118e-03 -4.407481296177e+07 -9.193041825552e+04 -2.234677808994e+07 -2.503072936984e+07 2.387104341835e-04 -5.373018210252e-06 1.764870543516e-04 0.000000000000e+00 3.048410680718e+07 2.051875874574e+07  2.146803632003e-04
5.000000000000e+00 7.317200884834e+05 1.000000000000e+00 4.969152725563e+01 0.000000000000e+00 4.592570893611e-03 -4.449608852049e+07 -1.024186930874e+05 -2.290065242900e+07 -2.579359120568e+07 2.513979244764e-04 -6.152147197761e-06 1.842494470891e-04 0.000000000000e+00 3.106344405172e+07 2.030490455641e+07  2.257042164981e-04
6.000000000000e+00 7.997471659688e+05 1.000000000000e+00 5.085993147088e+01 0.000000000000e+00 5.147861471082e-03 -4.486430206108e+07 -1.118558709417e+05 -2.339421101775e+07 -2.646238661540e+07 2.625623939015e-04 -6.853194695511e-06 1.907582432968e-04 0.000000000000e+00 3.157363323141e+07 2.011323038937e+07  2.353352415026e-04
7.000000000000e+00 8.629641263324e+05 1.000000000000e+00 5.185897481082e+01 0.000000000000e+00 5.649382842084e-03 -4.518640846693e+07 -1.202667991762e+05 -2.382350170643e+07 -2.703890589650e+07 2.720120149822e-04 -7.478006507213e-06 1.962267338725e-04 0.000000000000e+00 3.201627202329e+07 1.995158193634e+07  2.434896298631e-04
8.000000000000e+00 9.220342046367e+05 1.000000000000e+00 5.279544710174e+01 0.000000000000e+00 6.110996055113e-03 -4.548854683397e+07 -1.279068787443e+05 -2.421777845811e+07 -2.757668450833e+07 2.807643669314e-04 -8.045555275129e-06 2.015568029639e-04 0.000000000000e+00 3.242766993347e+07 1.980733210385e+07  2.511135186596e-04
9.000000000000e+00 9.779873130336e+05 1.000000000000e+00 5.365098589801e+01 0.000000000000e+00 6.538123221168e-03 -4.576413770628e+07 -1.349082748257e+05 -2.457804331977e+07 -2.806792967394e+07 2.887743835397e-04 -8.565658984039e-06 2.064217856816e-04 0.000000000000e+00 3.280337023333e+07 1.967606264346e+07  2.580918166561e-04
1.000000000000e+01 1.031317419010e+06 1.000000000000e+00 5.443079723345e+01 0.000000000000e+00 6.935107707185e-03 -4.601422221908e+07 -1.413801720262e+05 -2.490866079510e+07 -2.851610791885e+07 2.961321507324e-04 -9.046428490357e-06 2.107883285518e-04 0.000000000000e+00 3.314633031101e+07 1.955456892844e+07  2.644811575009e-04
1.100000000000e+01 1.082320970988e+06 1.000000000000e+00 5.515968595864e+01 0.000000000000e+00 7.306536913886e-03 -4.624972749987e+07 -1.473682258589e+05 -2.521413680148e+07 -2.893444480439e+07 3.029230389086e-04 -9.491255346501e-06 2.149803040634e-04 0.000000000000e+00 3.346610303525e+07 1.944590042728e+07  2.704194212858e-04
1.200000000000e+01 1.131384670317e+06 1.000000000000e+00 5.583133115128e+01 0.000000000000e+00 7.654723074261e-03 -4.646870595651e+07 -1.529042774966e+05 -2.549362488120e+07 -2.931998868340e+07 3.091097545968e-04 -9.902504896733e-06 2.189195194659e-04 0.000000000000e+00 3.376077317370e+07 1.934959777985e+07  2.758597764467e-04
1.300000000000e+01 1.178764923901e+06 1.000000000000e+00 5.644833607324e+01 0.000000000000e+00 7.981922042304e-03 -4.667000740788e+07 -1.580859491928e+05 -2.575212408151e+07 -2.967481266108e+07 3.148120198598e-04 -1.028742907988e-05 2.224972969108e-04 0.000000000000e+00 3.403231471682e+07 1.926047663005e+07  2.808635346894e-04
1.400000000000e+01 1.225175125999e+06 1.000000000000e+00 5.701464568575e+01 0.000000000000e+00 8.290035042311e-03 -4.685523842320e+07 -1.629382629962e+05 -2.599031112337e+07 -3.000098289226e+07 3.200469050203e-04 -1.064788667670e-05 2.257652439428e-04 0.000000000000e+00 3.428217747961e+07 1.917884123236e+07  2.854551307520e-04
1.500000000000e+01 1.270162624619e+06 1.000000000000e+00 5.753406333436e+01 0.000000000000e+00 8.580184850695e-03 -4.702654864743e+07 -1.674671450017e+05 -2.620896103872e+07 -3.030070768204e+07 3.248165888835e-04 -1.098431791139e-05 2.287765964213e-04 0.000000000000e+00 3.451207245606e+07 1.910544911676e+07  2.896481996112e-04
1.600000000000e+01 1.313869667188e+06 1.000000000000e+00 5.801007034821e+01 0.000000000000e+00 8.853845558474e-03 -4.718319017028e+07 -1.717335348871e+05 -2.641171529780e+07 -3.057607289644e+07 3.292263259984e-04 -1.130124973146e-05 2.314735747622e-04 0.000000000000e+00 3.472365945484e+07 1.903640382499e+07  2.935063026502e-04
1.700000000000e+01 1.356427998351e+06 1.000000000000e+00 5.844572204304e+01 0.000000000000e+00 9.112296370055e-03 -4.732430984827e+07 -1.757849488428e+05 -2.660143737375e+07 -3.082875059430e+07 3.333699095934e-04 -1.160221191102e-05 2.338119264330e-04 0.000000000000e+00 3.491816593877e+07 1.896834860828e+07  2.970883483940e-04
1.800000000000e+01 1.397969984871e+06 1.000000000000e+00 5.884370166558e+01 0.000000000000e+00 9.356575127772e-03 -4.745039053525e+07 -1.796477954688e+05 -2.677967692447e+07 -3.106028933568e+07 3.372869230425e-04 -1.188916623181e-05 2.357916106576e-04 0.000000000000e+00 3.509678559847e+07 1.890014683949e+07  3.004243367224e-04
1.900000000000e+01 1.438583998883e+06 1.000000000000e+00 5.920638226482e+01 0.000000000000e+00 9.587545823550e-03 -4.756216243963e+07 -1.833350491654e+05 -2.694718799944e+07 -3.127196459311e+07 3.409976190132e-04 -1.216307650642e-05 2.374319945774e-04 0.000000000000e+00 3.526043834406e+07 1.883153047517e+07  3.035348492077e-04
2.000000000000e+01 1.478353757371e+06 1.000000000000e+00 5.953584652466e+01 0.000000000000e+00 9.805572217022e-03 -4.766471277030e+07 -1.867790077378e+05 -2.709962189365e+07 -3.146472673343e+07 3.443483433716e-04 -1.241891342894e-05 2.389299008616e-04 0.000000000000e+00 3.540968713246e+07 1.877000225104e+07  3.063508638753e-04
2.100000000000e+01 1.517204192537e+06 1.000000000000e+00 5.986576413745e+01 0.000000000000e+00 1.001419101810e-02 -4.776525869639e+07 -1.900793932260e+05 -2.724837134784e+07 -3.165577538222e+07 3.477098730719e-04 -1.266408492235e-05 2.405010138040e-04 0.000000000000e+00 3.555646847549e+07 1.870962466886e+07  3.091916131297e-04
2.200000000000e+01 1.555286536014e+06 1.000000000000e+00 6.017842232777e+01 0.000000000000e+00 1.021366836328e-02 -4.785801659820e+07 -1.932542613193e+05 -2.739095745893e+07 -3.183658274458e+07 3.509802816064e-04 -1.289993226642e-05 2.419206602797e-04 0.000000000000e+00 3.569518560057e+07 1.864905520360e+07  3.119336583838e-04
2.300000000000e+01 1.592669794476e+06 1.000000000000e+00 6.047016849763e+01 0.000000000000e+00 1.040388874719e-02 -4.794637691539e+07 -1.962366461778e+05 -2.752209113701e+07 -3.200531425654e+07 3.539654974121e-04 -1.312148085591e-05 2.433171512521e-04 0.000000000000e+00 3.582459410298e+07 1.859568862287e+07  3.144605742527e-04
2.400000000000e+01 1.629401302440e+06 1.000000000000e+00 6.074054184199e+01 0.000000000000e+00 1.058540004974e-02 -4.802789322329e+07 -1.990800427284e+05 -2.764481985444e+07 -3.216199069122e+07 3.567571592637e-04 -1.333270459966e-05 2.445780664643e-04 0.000000000000e+00 3.594490125632e+07 1.854506905712e+07  3.168160477425e-04
2.500000000000e+01 1.665534658888e+06 1.000000000000e+00 6.098989539144e+01 0.000000000000e+00 1.075857363104e-02 -4.810199881898e+07 -2.017999908485e+05 -2.775999183322e+07 -3.230682053111e+07 3.593840597628e-04 -1.353475788859e-05 2.456796441627e-04 0.000000000000e+00 3.605627039444e+07 1.849598464505e+07  3.190166313228e-04
2.600000000000e+01 1.701103973755e+06 1.000000000000e+00 6.121883417622e+01 0.000000000000e+00 1.092375389535e-02 -4.816829707920e+07 -2.044076202823e+05 -2.786829622337e+07 -3.244010342663e+07 3.618720605028e-04 -1.372846750367e-05 2.466074172194e-04 0.000000000000e+00 3.615889890973e+07 1.844746901711e+07  3.210789383558e-04
2.700000000000e+01 1.736139339791e+06 1.000000000000e+00 6.142803472053e+01 0.000000000000e+00 1.108125851444e-02 -4.822675666231e+07 -2.069132825602e+05 -2.797032665651e+07 -3.256224485329e+07 3.642373861201e-04 -1.391460241574e-05 2.473543969786e-04 0.000000000000e+00 3.625310939071e+07 1.839894668398e+07  3.230142421513e-04
2.800000000000e+01 1.770681594199e+06 1.000000000000e+00 6.161817548849e+01 0.000000000000e+00 1.123141351758e-02 -4.827701075880e+07 -2.093328766885e+05 -2.806706595224e+07 -3.267366705074e+07 3.665093441558e-04 -1.409434369384e-05 2.478997618998e-04 0.000000000000e+00 3.633924792059e+07 1.834924929195e+07  3.248411361353e-04
2.900000000000e+01 1.804755349151e+06 1.000000000000e+00 6.178991237560e+01 0.000000000000e+00 1.137447368139e-02 -4.831924391561e+07 -2.116676648554e+05 -2.815859791639e+07 -3.277468005213e+07 3.686925955261e-04 -1.426778510053e-05 2.482519147117e-04 0.000000000000e+00 3.641750729471e+07 1.829838990591e+07  3.265659343065e-04
3.000000000000e+01 1.838370950549e+06 1.000000000000e+00 6.194386924086e+01 0.000000000000e+00 1.151070449120e-02 -4.835360589109e+07 -2.139270093294e+05 -2.824547657633e+07 -3.286571330853e+07 3.707975288175e-04 -1.443562211860e-05 2.484062282945e-04 0.000000000000e+00 3.648826525865e+07 1.824599760552e+07  3.281969036966e-04
3.100000000000e+01 1.871447001257e+06 1.000000000000e+00 6.210580140263e+01 0.000000000000e+00 1.164239875530e-02 -4.838718558834e+07 -2.161448937781e+05 -2.833391918604e+07 -3.295964052994e+07 3.730390082862e-04 -1.460037924907e-05 2.486099424433e-04 0.000000000000e+00 3.656024843477e+07 1.819093523671e+07  3.299444074815e-04
3.200000000000e+01 1.904061231697e+06 1.000000000000e+00 6.226094204290e+01 0.000000000000e+00 1.176946116251e-02 -4.841573563629e+07 -2.183250352553e+05 -2.842135292729e+07 -3.304936630265e+07 3.753112494916e-04 -1.476233261595e-05 2.486950750403e-04 0.000000000000e+00 3.662881828874e+07 1.813291412239e+07  3.316978962569e-04
3.300000000000e+01 1.936240664812e+06 1.000000000000e+00 6.240572497300e+01 0.000000000000e+00 1.189189936630e-02 -4.843828247632e+07 -2.204709799371e+05 -2.850705190206e+07 -3.313314343554e+07 3.775855175119e-04 -1.492174564946e-05 2.486236923420e-04 0.000000000000e+00 3.669282593797e+07 1.807198938767e+07  3.334304025873e-04
3.400000000000e+01 1.968010593866e+06 1.000000000000e+00 6.253918901855e+01 0.000000000000e+00 1.200970598138e-02 -4.845484047340e+07 -2.225792361652e+05 -2.859063597059e+07 -3.321052734591e+07 3.798447657197e-04 -1.507835896925e-05 2.483934007528e-04 0.000000000000e+00 3.675200126330e+07 1.800855836368e+07  3.351305196406e-04
3.500000000000e+01 1.999407455002e+06 1.000000000000e+00 6.266110742446e+01 0.000000000000e+00 1.212312999341e-02 -4.846338512646e+07 -2.246844075292e+05 -2.867419877344e+07 -3.328145980018e+07 3.821620269078e-04 -1.523474312772e-05 2.479242735202e-04 0.000000000000e+00 3.680634790003e+07 1.793923780145e+07  3.368431526946e-04
3.600000000000e+01 2.030469901429e+06 1.000000000000e+00 6.277151349027e+01 0.000000000000e+00 1.223243496610e-02 -4.846165276566e+07 -2.268284620247e+05 -2.876033820129e+07 -3.334605284997e+07 3.846255421581e-04 -1.539401574739e-05 2.471239794780e-04 0.000000000000e+00 3.685601460564e+07 1.786002018647e+07  3.386263449423e-04
3.700000000000e+01 2.061269396574e+06 1.000000000000e+00 6.287055186444e+01 0.000000000000e+00 1.233841401188e-02 -4.844167115520e+07 -2.291463392108e+05 -2.885755007603e+07 -3.340451422896e+07 3.875391389094e-04 -1.556620090979e-05 2.456846753500e-04 0.000000000000e+00 3.690124515340e+07 1.775730579430e+07  3.406787874118e-04
3.800000000000e+01 2.093583371613e+06 1.000000000000e+00 6.295867248218e+01 0.000000000000e+00 1.246361619852e-02 -4.815116844436e+07 -2.358874390683e+05 -2.923303983011e+07 -3.346148042717e+07 4.004451269594e-04 -1.606696832777e-05 2.338538004177e-04 0.000000000000e+00 3.694856290055e+07 1.720314057802e+07  3.495321548740e-04
3.900000000000e+01 2.123384718586e+06 1.000000000000e+00 6.303542968280e+01 0.000000000000e+00 1.255356209492e-02 -4.820603025948e+07 -2.367067671070e+05 -2.923673180808e+07 -3.350654165402e+07 4.000811051099e-04 -1.612783269636e-05 2.353903725191e-04 0.000000000000e+00 3.698310124053e+07 1.724060187003e+07  3.493974795750e-04
4.000000000000e+01 2.152770412537e+06 1.000000000000e+00 6.310126011054e+01 0.000000000000e+00 1.263759216515e-02 -4.827169954430e+07 -2.371767064734e+05 -2.921762869670e+07 -3.354418262403e+07 3.990400534166e-04 -1.616274247786e-05 2.374980098278e-04 0.000000000000e+00 3.701117028834e+07 1.730626990615e+07  3.487846801511e-04
4.200000000000e+01 2.210053104714e+06 1.000000000000e+00 6.324270891614e+01 0.000000000000e+00 1.279539195259e-02 -4.839602604339e+07 -2.380777359072e+05 -2.918498653258e+07 -3.362223483718e+07 3.973212942248e-04 -1.622967609295e-05 2.416095152691e-04 0.000000000000e+00 3.706774913772e+07 1.742639096682e+07  3.478979312493e-04
4.400000000000e+01 2.265818595915e+06 1.000000000000e+00 6.336221829407e+01 0.000000000000e+00 1.294232890644e-02 -4.850576719526e+07 -2.389188962307e+05 -2.915024036715e+07 -3.368758866514e+07 3.956726221936e-04 -1.629216228841e-05 2.453275150233e-04 0.000000000000e+00 3.711453207585e+07 1.753774296703e+07  3.470869286961e-04
5.000000000000e+01 2.417340202335e+06 1.000000000000e+00 6.341051342750e+01 0.000000000000e+00 1.324617663655e-02 -4.866800452100e+07 -2.406695379095e+05 -2.902448553147e+07 -3.371850291180e+07 3.907949078279e-04 -1.642220995598e-05 2.511466523679e-04 0.000000000000e+00 3.713699765476e+07 1.777268644270e+07  3.441766044576e-04
6.500000000000e+01 2.748724178568e+06 1.000000000000e+00 6.313073733148e+01 0.000000000000e+00 1.375740608126e-02 -4.870680144867e+07 -2.439296224127e+05 -2.867184081030e+07 -3.353235607480e+07 3.824398537117e-04 -1.666438766193e-05 2.573308594940e-04 0.000000000000e+00 3.697033277793e+07 1.810587002585e+07  3.389674647263e-04
8.000000000000e+01 3.003777392184e+06 1.000000000000e+00 6.251553785946e+01 0.000000000000e+00 1.399274715847e-02 -4.850785000753e+07 -2.456176272487e+05 -2.835548248535e+07 -3.316699884498e+07 3.762590672748e-04 -1.678978230689e-05 2.555109001702e-04 0.000000000000e+00 3.667677711262e+07 1.823420260023e+07  3.340121303268e-04
1.000000000000e+02 3.304456935822e+06 1.000000000000e+00 6.178031670149e+01 0.000000000000e+00 1.418679862039e-02 -4.820735226686e+07 -2.471651419335e+05 -2.801062258088e+07 -3.272040169556e+07 3.708325178070e-04 -1.690474054062e-05 2.517320882151e-04 0.000000000000e+00 3.631279218110e+07 1.830713100079e+07  3.292304165365e-04
1.860000000000e+02 3.902938202522e+06 1.000000000000e+00 5.983575743522e+01 0.000000000000e+00 1.440593264332e-02 -4.724166704887e+07 -2.497868252009e+05 -2.720734599259e+07 -3.151731951547e+07 3.620149163575e-04 -1.709949415477e-05 2.368821662339e-04 0.000000000000e+00 3.532211085231e+07 1.826991185055e+07  3.198284866148e-04
2.720000000000e+02 4.193259632165e+06 1.000000000000e+00 5.817021896826e+01 0.000000000000e+00 1.419354543129e-02 -4.640379602722e+07 -2.491134320590e+05 -2.678496897637e+07 -3.056028667340e+07 3.575889058849e-04 -1.704947066422e-05 2.170235212738e-04 0.000000000000e+00 3.458301722566e+07 1.803525065284e+07  3.134260426708e-04
3.580000000000e+02 4.334625370859e+06 1.000000000000e+00 5.696011998448e+01 0.000000000000e+00 1.397962144360e-02 -4.577289596894e+07 -2.482645989295e+05 -2.650762320100e+07 -2.986657933054e+07 3.552560638859e-04 -1.698641448889e-05 2.015586630527e-04 0.000000000000e+00 3.404903283349e+07 1.782994730743e+07  3.099894242271e-04
4.440000000000e+02 4.406754288317e+06 1.000000000000e+00 5.602081320516e+01 0.000000000000e+00 1.378200363538e-02 -4.528267640635e+07 -2.473730928338e+05 -2.631353669876e+07 -2.933407835457e+07 3.536856113890e-04 -1.692018832178e-05 1.889889825998e-04 0.000000000000e+00 3.364343048656e+07 1.765894778350e+07  3.079391850831e-04
5.300000000000e+02 4.445718820727e+06 1.000000000000e+00 5.528906129963e+01 0.000000000000e+00 1.361181732397e-02 -4.490056271061e+07 -2.465587247760e+05 -2.617328848909e+07 -2.892233994586e+07 3.525852649073e-04 -1.685969240892e-05 1.789050609213e-04 0.000000000000e+00 3.333206371519e+07 1.752050846335e+07  3.067520973672e-04
6.160000000000e+02 4.468234309314e+06 1.000000000000e+00 5.472602773133e+01 0.000000000000e+00 1.347133536115e-02 -4.460648897414e+07 -2.458612105709e+05 -2.607186037712e+07 -2.860738929033e+07 3.518098364852e-04 -1.680787706797e-05 1.709742235889e-04 0.000000000000e+00 3.309524621387e+07 1.741113496014e+07  3.061036535721e-04
7.020000000000e+02 4.482044613276e+06 1.000000000000e+00 5.430995063480e+01 0.000000000000e+00 1.336376511074e-02 -4.438923428240e+07 -2.453169479581e+05 -2.599957037464e+07 -2.837543348185e+07 3.512637950062e-04 -1.676744613102e-05 1.650437793661e-04 0.000000000000e+00 3.292141271297e+07 1.732956090982e+07  3.057699139166e-04
7.880000000000e+02 4.491663181074e+06 1.000000000000e+00 5.397872581268e+01 0.000000000000e+00 1.326732722258e-02 -4.421812509913e+07 -2.447963742881e+05 -2.595028191293e+07 -2.819374244654e+07 3.508707547878e-04 -1.672877494410e-05 1.601259694894e-04 0.000000000000e+00 3.278738315287e+07 1.726104864756e+07  3.056250130925e-04
8.740000000000e+02 4.500049265801e+06 1.000000000000e+00 5.345336087711e+01 0.000000000000e+00 1.313052427884e-02 -4.394359362437e+07 -2.441115091881e+05 -2.585871608202e+07 -2.790070986022e+07 3.501835706439e-04 -1.667789925096e-05 1.526429185743e-04 0.000000000000e+00 3.256767318887e+07 1.716048070940e+07  3.054665422763e-04
9.370000000000e+02 4.505423121656e+06 1.000000000000e+00 5.307936059738e+01 0.000000000000e+00 1.301895244651e-02 -4.374525686341e+07 -2.435306284813e+05 -2.580172332385e+07 -2.769356425689e+07 3.498563850704e-04 -1.663474811274e-05 1.470658128972e-04 0.000000000000e+00 3.241351481471e+07 1.708160028419e+07  3.056240736007e-04
1.000000000000e+03 4.509613149595e+06 1.000000000000e+00 5.277859554472e+01 0.000000000000e+00 1.292591071762e-02 -4.358095296323e+07 -2.430580472307e+05 -2.575568477238e+07 -2.752542142893e+07 3.497137963240e-04 -1.659964207698e-05 1.425305111985e-04 0.000000000000e+00 3.228735305485e+07 1.701479811875e+07  3.059353594305e-04
1.100000000000e+03 4.513758462105e+06 1.000000000000e+00 5.247289760991e+01 0.000000000000e+00 1.282879374761e-02 -4.341128771227e+07 -2.425692833871e+05 -2.570927447278e+07 -2.735379921543e+07 3.496411091440e-04 -1.656333390574e-05 1.378797829682e-04 0.000000000000e+00 3.215812046683e+07 1.694493597406e+07  3.063891832286e-04
1.200000000000e+03 4.517019836215e+06 1.000000000000e+00 5.221269628220e+01 0.000000000000e+00 1.274794122417e-02 -4.326889565094e+07 -2.421595077456e+05 -2.566949234234e+07 -2.720827006221e+07 3.495245885878e-04 -1.653289342951e-05 1.339520364075e-04 0.000000000000e+00 3.204888601850e+07 1.688790062966e+07  3.067752685025e-04
1.300000000000e+03 4.519925210579e+06 1.000000000000e+00 5.196357675456e+01 0.000000000000e+00 1.267094682385e-02 -4.313324083962e+07 -2.417679068202e+05 -2.563140997909e+07 -2.706915030922e+07 3.493958907548e-04 -1.650380307506e-05 1.301992190745e-04 0.000000000000e+00 3.194460037598e+07 1.683429380195e+07  3.071732077309e-04
1.400000000000e+03 4.522664725124e+06 1.000000000000e+00 5.170814257526e+01 0.000000000000e+00 1.259143584681e-02 -4.299394933387e+07 -2.413638455849e+05 -2.559258872107e+07 -2.692650758263e+07 3.492714168379e-04 -1.647378709758e-05 1.263429930992e-04 0.000000000000e+00 3.183768187919e+07 1.677943554132e+07  3.076349058575e-04
1.500000000000e+03 4.525304612681e+06 1.000000000000e+00 5.143632875318e+01 0.000000000000e+00 1.250568752026e-02 -4.284504651711e+07 -2.409288618887e+05 -2.555163866588e+07 -2.677460985119e+07 3.491601771494e-04 -1.644147402301e-05 1.222220794095e-04 0.000000000000e+00 3.172376501139e+07 1.672071811498e+07  3.081995284035e-04
1.600000000000e+03 4.527865656785e+06 1.000000000000e+00 5.114199614483e+01 0.000000000000e+00 1.241142262323e-02 -4.268289696230e+07 -2.404518466561e+05 -2.550772332086e+07 -2.660996687670e+07 3.490675644186e-04 -1.640603860572e-05 1.177379103153e-04 0.000000000000e+00 3.160019571996e+07 1.665664303739e+07  3.089002569912e-04
1.700000000000e+03 4.530352944705e+06 1.000000000000e+00 5.082135521810e+01 0.000000000000e+00 1.230723043182e-02 -4.250526406873e+07 -2.399257086129e+05 -2.546033237702e+07 -2.643042827262e+07 3.489967808853e-04 -1.636695406537e-05 1.128295686492e-04 0.000000000000e+00 3.146534157279e+07 1.658638770751e+07  3.097672350956e-04
1.800000000000e+03 4.532766352570e+06 1.000000000000e+00 5.047211883707e+01 0.000000000000e+00 1.219226080116e-02 -4.231079161137e+07 -2.393463534279e+05 -2.540916537907e+07 -2.623469655161e+07 3.489500082354e-04 -1.632391625163e-05 1.074600217925e-04 0.000000000000e+00 3.131821784735e+07 1.650955819283e+07  3.108295349014e-04
1.900000000000e+03 4.535105643823e+06 1.000000000000e+00 5.009300096792e+01 0.000000000000e+00 1.206602909488e-02 -4.209873165807e+07 -2.387111347154e+05 -2.535403367532e+07 -2.602204063618e+07 3.489278724992e-04 -1.627672857584e-05 1.016091225016e-04 0.000000000000e+00 3.115826865652e+07 1.642609259808e+07  3.121147460803e-04
2.000000000000e+03 4.537369988248e+06 1.000000000000e+00 4.968339990058e+01 0.000000000000e+00 1.192831800444e-02 -4.186871913620e+07 -2.380191695927e+05 -2.529486883162e+07 -2.579211988223e+07 3.489312810223e-04 -1.622532545244e-05 9.526676012101e-05 0.000000000000e+00 3.098523595002e+07 1.633610625040e+07  3.136511204668e-04