 TITLE = "Time curves in points"
 VARIABLES = "TIME"  "PRESSURE1"  "SATURATION1"  "TEMPERATURE1"  "DISPLACEMENT_X1"  "DISPLACEMENT_Y1"  "STRESS_XX"  "STRESS_XY"  "STRESS_YY"  "STRESS_ZZ"  "STRAIN_XX"  "STRAIN_XY"  "STRAIN_YY"  "STRAIN_PLS"  p_(1st_Invariant)  q_(2nd_Invariant)   Effective_Strain
 ZONE T="POINT=POINT7"
0.000000000000e+00 1.000000000000e+05 1.000000000000e+00 2.500000000000e+01 0.000000000000e+00 0.000000000000e+00 -1.262331305483e+06 1.487475914788e+03 -1.327249178965e+07 -1.357396928539e+06 0.000000000000e+00 0.000000000000e+00 0.000000000000e+00 0.000000000000e+00 5.297406674556e+06 1.196291125004e+07  0.000000000000e+00
1.000000000000e-03 1.413412552946e+05 1.000000000000e+00 2.500280428798e+01 -1.020087282502e-04 6.275943888794e-05 1.087566996252e+06 2.471971583790e+03 -1.546475449281e+07 -1.311051471516e+06 8.556053423217e-05 7.313396398298e-08 -8.314830309253e-05 0.000000000000e+00 5.229412989357e+06 1.549290261878e+07  1.461111720714e-04
2.000000000000e-03 1.644189448192e+05 1.000000000000e+00 2.501564381585e+01 -9.611742738242e-05 6.218244204628e-05 9.370917345603e+05 2.289442375041e+03 -1.534423182865e+07 -1.324382361848e+06 8.046660043880e-05 5.957465133308e-08 -7.817659964004e-05 0.000000000000e+00 5.243840818646e+06 1.527664839845e+07  1.373938512881e-04
3.000000000000e-03 1.801828042397e+05 1.000000000000e+00 2.504723888815e+01 -9.016485335359e-05 6.170950515505e-05 7.803404483480e+05 2.214212488144e+03 -1.523378415096e+07 -1.348995609015e+06 7.555861613142e-05 5.398614544927e-08 -7.316005100262e-05 0.000000000000e+00 5.267479770543e+06 1.506276271138e+07  1.287997612101e-04
4.000000000000e-03 1.909645331175e+05 1.000000000000e+00 2.510343997643e+01 -8.415578017090e-05 6.119868109397e-05 6.187761589222e+05 2.182151999464e+03 -1.513625882559e+07 -1.387330662286e+06 7.098153021708e-05 5.160450914739e-08 -6.811380836737e-05 0.000000000000e+00 5.301604442985e+06 1.485393291610e+07  1.204686633867e-04
1.000000000000e-02 2.067813581907e+05 1.000000000000e+00 2.594628110919e+01 -7.283879884092e-05 5.840401113095e-05 3.382658487347e+05 2.150344944795e+03 -1.532838374753e+07 -1.819134642481e+06 7.660100938880e-05 4.924169937199e-08 -5.921144334645e-05 0.000000000000e+00 5.603084180426e+06 1.470710926011e+07  1.179380060222e-04
2.000000000000e-02 2.050625079167e+05 1.000000000000e+00 2.758034036847e+01 -5.774160933637e-05 5.658700830900e-05 -3.905277194959e+04 2.128804192339e+03 -1.583597209580e+07 -2.650251421553e+06 9.345636955749e-05 4.764152918949e-08 -4.719467305960e-05 0.000000000000e+00 6.175092096436e+06 1.466670166401e+07  1.239841917013e-04
3.000000000000e-02 1.950322212313e+05 1.000000000000e+00 2.908484136141e+01 -4.343837551196e-05 5.694102758813e-05 -4.012996048304e+05 2.114183469249e+03 -1.628802748478e+07 -3.416994470252e+06 1.084805147165e-04 4.655541833143e-08 -3.550627426996e-05 0.000000000000e+00 6.702107186622e+06 1.461413794811e+07  1.299248359490e-04
4.000000000000e-02 1.817985407931e+05 1.000000000000e+00 3.039238212025e+01 -2.987039345371e-05 5.962759220727e-05 -7.468236423084e+05 2.101292691575e+03 -1.664707372070e+07 -4.083320511711e+06 1.203960177214e-04 4.559781770419e-08 -2.409302434989e-05 0.000000000000e+00 7.159072624906e+06 1.452236353188e+07  1.340760430859e-04
5.000000000000e-02 1.676434085483e+05 1.000000000000e+00 3.151681238627e+01 -1.722534525605e-05 6.331223111626e-05 -1.072623869200e+06 2.089116444884e+03 -1.692989489456e+07 -4.657664863327e+06 1.296276566398e-04 4.469329652143e-08 -1.326502060473e-05 0.000000000000e+00 7.553394542363e+06 1.440335411332e+07  1.367435909515e-04
6.000000000000e-02 1.532845441325e+05 1.000000000000e+00 3.248853658346e+01 -5.311486335131e-06 6.931236605899e-05 -1.381739697122e+06 2.080708171190e+03 -1.714472060881e+07 -5.153712211936e+06 1.365708274082e-04 4.406868190417e-08 -2.819645614228e-06 0.000000000000e+00 7.893390839290e+06 1.425629075575e+07  1.380022770139e-04
7.000000000000e-02 1.396036811256e+05 1.000000000000e+00 3.333663389762e+01 6.121509233971e-06 7.533063147663e-05 -1.680800166607e+06 2.071839397145e+03 -1.730855085546e+07 -5.588527904521e+06 1.416131642661e-04 4.340985868940e-08 7.245528092047e-06 0.000000000000e+00 8.192626308862e+06 1.408644545995e+07  1.381330136649e-04
8.000000000000e-02 1.272619211682e+05 1.000000000000e+00 3.408501699852e+01 1.716408471677e-05 8.213223688729e-05 -1.971008219980e+06 2.062491413779e+03 -1.742740984567e+07 -5.972528643928e+06 1.450968926046e-04 4.271543706792e-08 1.709365020503e-05 0.000000000000e+00 8.456982236526e+06 1.389472644184e+07  1.373501767987e-04
9.000000000000e-02 1.171517363113e+05 1.000000000000e+00 3.475240661445e+01 2.783433607002e-05 8.832009332880e-05 -2.254020792075e+06 2.055365231967e+03 -1.751750226657e+07 -6.317550313294e+06 1.474000876461e-04 4.218606356189e-08 2.656245086232e-05 0.000000000000e+00 8.696357790647e+06 1.369169616948e+07  1.360773581007e-04
1.000000000000e-01 1.102703160861e+05 1.000000000000e+00 3.535333117252e+01 3.812293620671e-05 9.386022742908e-05 -2.529814111012e+06 2.049493553409e+03 -1.758600975981e+07 -6.630777436437e+06 1.487904860880e-04 4.174988172617e-08 3.565203711578e-05 0.000000000000e+00 8.915533769087e+06 1.348191507304e+07  1.345548133568e-04
2.000000000000e-01 1.323288196601e+05 1.000000000000e+00 3.882851231477e+01 8.168722272197e-05 1.886884465463e-04 -3.630195474038e+06 2.010087352351e+03 -1.801864368029e+07 -8.305716088946e+06 1.701311854116e-04 3.882256393328e-08 8.179478430544e-05 0.000000000000e+00 9.984851747759e+06 1.271276762633e+07  1.473742443453e-04
3.000000000000e-01 1.634812514515e+05 1.000000000000e+00 4.114283855407e+01 1.177844454003e-04 2.983643470987e-04 -4.556207034576e+06 1.992636877584e+03 -1.794234083766e+07 -9.370120500794e+06 1.752714913175e-04 3.752624295058e-08 1.241639109005e-04 0.000000000000e+00 1.062288945768e+07 1.174404798997e+07  1.561229734282e-04
4.000000000000e-01 1.951057524480e+05 1.000000000000e+00 4.283441461058e+01 1.479818610146e-04 4.037927446719e-04 -5.361524273764e+06 2.009072489259e+03 -1.770101854602e+07 -1.013112036937e+07 1.736254175520e-04 3.874717410361e-08 1.613930197084e-04 0.000000000000e+00 1.106455439639e+07 1.077765160955e+07  1.678438753660e-04
5.000000000000e-01 2.250539193533e+05 1.000000000000e+00 4.415040919333e+01 1.753868814139e-04 5.062208974722e-04 -6.108445772587e+06 2.051145024689e+03 -1.734165751529e+07 -1.070784767611e+07 1.673039189888e-04 4.187256244977e-08 1.961620151002e-04 0.000000000000e+00 1.138598365466e+07 9.781283201916e+06  1.834433668850e-04
6.000000000000e-01 2.527631152710e+05 1.000000000000e+00 4.521803575671e+01 1.987147021904e-04 6.060886788182e-04 -6.767681290179e+06 2.126139120731e+03 -1.695088544874e+07 -1.116198292184e+07 1.596859088909e-04 4.744355244149e-08 2.275442866988e-04 0.000000000000e+00 1.162684988692e+07 8.846438643710e+06  2.023372986521e-04
7.000000000000e-01 2.783761873711e+05 1.000000000000e+00 4.611200686447e+01 2.185778340121e-04 7.035865771717e-04 -7.357357789323e+06 2.219870958334e+03 -1.655600944470e+07 -1.153327373703e+07 1.515744406297e-04 5.440648894912e-08 2.560019114132e-04 0.000000000000e+00 1.181554699035e+07 7.977511198219e+06  2.229539236188e-04
8.000000000000e-01 3.021552404606e+05 1.000000000000e+00 4.687762352566e+01 2.355148045803e-04 7.988756255138e-04 -7.879224572679e+06 2.331351283560e+03 -1.616821715402e+07 -1.184145050571e+07 1.436373829418e-04 6.268788453734e-08 2.818521907611e-04 0.000000000000e+00 1.196296407747e+07 7.180792943608e+06  2.441062390583e-04
9.000000000000e-01 3.242066392019e+05 1.000000000000e+00 4.754491137781e+01 2.503579585868e-04 8.919241788390e-04 -8.355360001275e+06 2.446162367426e+03 -1.578032928967e+07 -1.210147910692e+07 1.356105579246e-04 7.121670791025e-08 3.059176594819e-04 0.000000000000e+00 1.207905613262e+07 6.430301387049e+06  2.654998842516e-04
1.000000000000e+00 3.447023617940e+05 1.000000000000e+00 4.813450176080e+01 2.634501316271e-04 9.827867079224e-04 -8.791569723482e+06 2.572607619482e+03 -1.539767949681e+07 -1.232391937187e+07 1.276705495123e-04 8.060978377731e-08 3.283924330575e-04 0.000000000000e+00 1.217105619739e+07 5.725653735220e+06  2.867321684288e-04
2.000000000000e+00 4.796085427425e+05 1.000000000000e+00 5.134024693470e+01 3.268782298316e-04 1.736040055720e-03 -1.142716284529e+07 3.347288605393e+03 -1.214466955901e+07 -1.326118225219e+07 6.458971197125e-05 1.381575141592e-07 4.840311377307e-04 0.000000000000e+00 1.227767155217e+07 1.600798377245e+06  4.551863340180e-04
3.000000000000e+00 5.833220838915e+05 1.000000000000e+00 5.340425538575e+01 3.691854893271e-04 2.378737227522e-03 -1.349698995587e+07 4.352621330745e+03 -9.210535255301e+06 -1.372488375607e+07 4.933618008021e-06 2.128393737568e-07 6.102364677268e-04 0.000000000000e+00 1.214413632241e+07 4.404831752887e+06  6.077847887252e-04
4.000000000000e+00 6.697140086514e+05 1.000000000000e+00 5.490878737857e+01 4.019267020321e-04 2.939074789978e-03 -1.523551084042e+07 5.279083410951e+03 -6.585315684446e+06 -1.398606764883e+07 -4.993889882967e-05 2.816622711435e-07 7.174457392327e-04 0.000000000000e+00 1.193563139123e+07 8.098094880162e+06  7.436739679105e-04
5.000000000000e+00 7.455226978264e+05 1.000000000000e+00 5.611567457007e+01 4.301925974267e-04 3.436395550250e-03 -1.676659623858e+07 6.176303498197e+03 -4.235294227067e+06 -1.416336504807e+07 -1.002224530755e-04 3.483129061961e-07 8.113175824785e-04 0.000000000000e+00 1.172175183791e+07 1.145375837536e+07  8.657905994200e-04
6.000000000000e+00 8.142013544013e+05 1.000000000000e+00 5.716990259263e+01 4.558423558525e-04 3.885137565582e-03 -1.814708070774e+07 6.915471227963e+03 -2.124020896126e+06 -1.431358814837e+07 -1.459178753472e-04 4.032225089787e-07 8.953160213532e-04 0.000000000000e+00 1.152822991741e+07 1.449172087208e+07  9.764865097905e-04
7.000000000000e+00 8.779417004956e+05 1.000000000000e+00 5.804439800794e+01 4.774368164559e-04 4.292357336145e-03 -1.935410217669e+07 7.447833005922e+03 -2.263329943271e+05 -1.441297480551e+07 -1.870585969287e-04 4.427693839128e-07 9.694930763993e-04 0.000000000000e+00 1.133113665884e+07 1.719807303584e+07  1.075295469445e-03
8.000000000000e+00 9.374371718012e+05 1.000000000000e+00 5.888785281134e+01 4.975259068947e-04 4.667778284243e-03 -2.046091693084e+07 7.856510570097e+03 1.487079064666e+06 -1.452658502918e+07 -2.239490509178e-04 4.731282886801e-07 1.037353904041e-03 0.000000000000e+00 1.116680763178e+07 1.966429036854e+07  1.165577708033e-03
9.000000000000e+00 9.937703155433e+05 1.000000000000e+00 5.965317844942e+01 5.153796856994e-04 5.015894393717e-03 -2.146366127794e+07 8.158467473964e+03 3.046339786921e+06 -1.462786089742e+07 -2.574321658472e-04 4.955593729674e-07 1.099030977402e-03 0.000000000000e+00 1.101506079614e+07 2.190714596011e+07  1.247824935993e-03
1.000000000000e+01 1.047436495103e+06 1.000000000000e+00 6.034406420573e+01 5.322519025862e-04 5.340063862982e-03 -2.239657618979e+07 8.428085824422e+03 4.499514110248e+06 -1.471395213166e+07 -2.888856167299e-04 5.155881647157e-07 1.156203698112e-03 0.000000000000e+00 1.087033807040e+07 2.399562561251e+07  1.324489828941e-03
1.100000000000e+01 1.098728747000e+06 1.000000000000e+00 6.099305099283e+01 5.471853106356e-04 5.643905452978e-03 -2.324608489260e+07 8.398885192774e+03 5.834876121778e+06 -1.479566221718e+07 -3.174038510862e-04 5.134189749361e-07 1.208837804574e-03 0.000000000000e+00 1.073562366267e+07 2.591072627616e+07  1.394892328375e-03
1.200000000000e+01 1.148046967535e+06 1.000000000000e+00 6.158495237055e+01 5.607155916752e-04 5.929385942624e-03 -2.402962579217e+07 8.547584561814e+03 7.076306541879e+06 -1.486577996693e+07 -3.439024252225e-04 5.244652137791e-07 1.257552450883e-03 0.000000000000e+00 1.060636640574e+07 2.768583297832e+07  1.460199715001e-03
1.300000000000e+01 1.195651368083e+06 1.000000000000e+00 6.212186572653e+01 5.736273620135e-04 6.198104100288e-03 -2.476725222990e+07 8.653049946322e+03 8.251466684264e+06 -1.492275868715e+07 -3.691836261586e-04 5.322997851997e-07 1.303317608636e-03 0.000000000000e+00 1.047951474426e+07 2.936149708941e+07  1.521873092484e-03
1.400000000000e+01 1.242259551708e+06 1.000000000000e+00 6.260772768483e+01 5.860441870647e-04 6.451597943298e-03 -2.546471095675e+07 8.703695897667e+03 9.368935650747e+06 -1.496712703622e+07 -3.934412687616e-04 5.360620558710e-07 1.346471566071e-03 0.000000000000e+00 1.035430078074e+07 3.095017452111e+07  1.580360735275e-03
1.500000000000e+01 1.287424555555e+06 1.000000000000e+00 6.304640614475e+01 5.969287126096e-04 6.690805472947e-03 -2.610417923622e+07 8.561693030450e+03 1.040555823510e+07 -1.500183792335e+07 -4.159036861917e-04 5.255132714492e-07 1.386263952155e-03 0.000000000000e+00 1.023348630816e+07 3.241727265070e+07  1.634397974014e-03
1.600000000000e+01 1.331285541316e+06 1.000000000000e+00 6.344141475303e+01 6.068776169806e-04 6.916734392562e-03 -2.669816174211e+07 8.504976469014e+03 1.138218060038e+07 -1.502561888993e+07 -4.370826005088e-04 5.213000411711e-07 1.423421790195e-03 0.000000000000e+00 1.011386667722e+07 3.379151548455e+07  1.685029526570e-03
1.700000000000e+01 1.373981454982e+06 1.000000000000e+00 6.379585165581e+01 6.165597463228e-04 7.130271682128e-03 -2.726288160307e+07 8.453562890796e+03 1.231732432360e+07 -1.503886463039e+07 -4.575659249847e-04 5.174807467892e-07 1.458647684561e-03 0.000000000000e+00 9.994807303287e+06 3.510256967096e+07  1.733334336980e-03
1.800000000000e+01 1.415647029235e+06 1.000000000000e+00 6.411243622563e+01 6.260637308269e-04 7.332208755483e-03 -2.780111394980e+07 8.372303261181e+03 1.321616920682e+07 -1.504180550127e+07 -4.774481798019e-04 5.114443171607e-07 1.492142583999e-03 0.000000000000e+00 9.875583414748e+06 3.635746845431e+07  1.779569554932e-03
1.900000000000e+01 1.456374282014e+06 1.000000000000e+00 6.439355789026e+01 6.354947652151e-04 7.523234418379e-03 -2.831690898277e+07 8.270100125771e+03 1.408232418084e+07 -1.503541010280e+07 -4.968438243983e-04 5.038520842445e-07 1.524076511090e-03 0.000000000000e+00 9.756664968244e+06 3.756285429477e+07  1.823976908173e-03
2.000000000000e+01 1.496247460135e+06 1.000000000000e+00 6.464132388855e+01 6.442389183317e-04 7.703973576095e-03 -2.879900534368e+07 7.953554459819e+03 1.490341403424e+07 -1.502075024303e+07 -5.152947697378e-04 4.803372633452e-07 1.554029625140e-03 0.000000000000e+00 9.638780517490e+06 3.869882272337e+07  1.865829790081e-03
2.100000000000e+01 1.535192806225e+06 1.000000000000e+00 6.490430940938e+01 6.526402630779e-04 7.876691040092e-03 -2.925808349200e+07 7.813628587193e+03 1.567467394613e+07 -1.501940120217e+07 -5.323963510501e-04 4.699427699501e-07 1.582626314635e-03 0.000000000000e+00 9.534270249349e+06 3.977322830668e+07  1.905449307621e-03
2.200000000000e+01 1.573367391864e+06 1.000000000000e+00 6.515088863720e+01 6.609582901324e-04 8.041797991372e-03 -2.970096749024e+07 7.649077685784e+03 1.641879337411e+07 -1.501559129061e+07 -5.489878391286e-04 4.577189887026e-07 1.610123525245e-03 0.000000000000e+00 9.432588468915e+06 4.080939540479e+07  1.943662593516e-03
2.300000000000e+01 1.610838576131e+06 1.000000000000e+00 6.537661451534e+01 6.685616637103e-04 8.199577935984e-03 -3.011523367843e+07 7.424156845324e+03 1.712567169715e+07 -1.500706937716e+07 -5.646913971892e-04 4.410105834112e-07 1.636062477601e-03 0.000000000000e+00 9.332210452812e+06 4.178799557837e+07  1.979759529466e-03
2.400000000000e+01 1.647648378482e+06 1.000000000000e+00 6.558092359377e+01 6.758346811432e-04 8.350294415220e-03 -3.050920723725e+07 7.247226195406e+03 1.780541866679e+07 -1.499310324027e+07 -5.798434430300e-04 4.278671637031e-07 1.660791479961e-03 0.000000000000e+00 9.232297270243e+06 4.272467620659e+07  2.014310392527e-03
2.500000000000e+01 1.683854202719e+06 1.000000000000e+00 6.576416191171e+01 6.828970911068e-04 8.494208068465e-03 -3.088642096201e+07 7.040337545698e+03 1.846088020155e+07 -1.497402003424e+07 -5.945630433164e-04 4.124982925819e-07 1.684428389313e-03 0.000000000000e+00 9.133186931568e+06 4.362484089706e+07  2.047511560667e-03
2.600000000000e+01 1.719493175218e+06 1.000000000000e+00 6.592693399654e+01 6.897382273944e-04 8.631564301266e-03 -3.124736800416e+07 6.862290236107e+03 1.909194604183e+07 -1.495021241357e+07 -6.088539307924e-04 3.992719210123e-07 1.706983694613e-03 0.000000000000e+00 9.035211458634e+06 4.448883373282e+07  2.079375063146e-03
2.700000000000e+01 1.754594732155e+06 1.000000000000e+00 6.606991878478e+01 6.965046827729e-04 8.762601764216e-03 -3.159522146602e+07 6.684731506275e+03 1.970364556923e+07 -1.492136110201e+07 -6.228458223769e-04 3.860818439390e-07 1.728632342630e-03 0.000000000000e+00 8.937645666269e+06 4.532373955024e+07  2.110160793553e-03
2.800000000000e+01 1.789200920037e+06 1.000000000000e+00 6.619379701274e+01 7.032904979773e-04 8.887535825856e-03 -3.193243137074e+07 6.496707701059e+03 2.029907066309e+07 -1.488751176245e+07 -6.366280228785e-04 3.721143612659e-07 1.749490870647e-03 0.000000000000e+00 8.840290823365e+06 4.613434146705e+07  2.140044129317e-03
2.900000000000e+01 1.823338912299e+06 1.000000000000e+00 6.629922530560e+01 7.101411092530e-04 9.006579098468e-03 -3.226051075401e+07 6.295672434091e+03 2.087934225232e+07 -1.484901184750e+07 -6.502438253839e-04 3.571803128625e-07 1.769613818549e-03 0.000000000000e+00 8.743393449730e+06 4.692291442462e+07  2.169108328509e-03
3.000000000000e+01 1.857014513206e+06 1.000000000000e+00 6.638683103109e+01 7.170269333361e-04 9.119929529869e-03 -3.257880457090e+07 6.117395176113e+03 2.144514326865e+07 -1.480567953902e+07 -6.636756528978e-04 3.439368594127e-07 1.789019799126e-03 0.000000000000e+00 8.646446947090e+06 4.768958634931e+07  2.197358972044e-03
3.100000000000e+01 1.890151113501e+06 1.000000000000e+00 6.649419011281e+01 7.240528269515e-04 9.229140924502e-03 -3.289246293720e+07 5.914425726297e+03 2.198695804345e+07 -1.477501887684e+07 -6.764646453839e-04 3.288591288550e-07 1.808005523309e-03 0.000000000000e+00 8.560174590196e+06 4.843261186133e+07  2.224756285168e-03
3.200000000000e+01 1.922830080027e+06 1.000000000000e+00 6.659549683178e+01 7.312881819700e-04 9.334315608482e-03 -3.320293161169e+07 5.707581152381e+03 2.251994609245e+07 -1.474392891415e+07 -6.891511090505e-04 3.134935319355e-07 1.826647452229e-03 0.000000000000e+00 8.475638144463e+06 4.916487799326e+07  2.251756331894e-03
3.300000000000e+01 1.955077262852e+06 1.000000000000e+00 6.668654149222e+01 7.387373056288e-04 9.435514765127e-03 -3.351093376941e+07 5.498178392029e+03 2.304697024692e+07 -1.471029618347e+07 -7.018404049057e-04 2.979378983093e-07 1.844973419399e-03 0.000000000000e+00 8.391419901987e+06 4.988923646457e+07  2.278460890658e-03
3.400000000000e+01 1.986915457134e+06 1.000000000000e+00 6.676628760818e+01 7.463572642667e-04 9.532765132013e-03 -3.381535399613e+07 5.308945818768e+03 2.356751187786e+07 -1.467357905762e+07 -7.145112208580e-04 2.838806214385e-07 1.862944043873e-03 0.000000000000e+00 8.307140391964e+06 5.060425895492e+07  2.304817012319e-03
3.500000000000e+01 2.018386078475e+06 1.000000000000e+00 6.683449111677e+01 7.544806020444e-04 9.626127714347e-03 -3.412347323929e+07 5.092777718603e+03 2.408922403447e+07 -1.463358052010e+07 -7.274413098552e-04 2.678224197119e-07 1.880836264011e-03 0.000000000000e+00 8.222609908306e+06 5.132265479436e+07  2.331290226892e-03
3.600000000000e+01 2.049530889919e+06 1.000000000000e+00 6.689117748563e+01 7.634754642877e-04 9.715657130008e-03 -3.444297795212e+07 4.909765490991e+03 2.462014310841e+07 -1.459020453245e+07 -7.409197358725e-04 2.542272256608e-07 1.898945007216e-03 0.000000000000e+00 8.137679792054e+06 5.205783509048e+07  2.358372367230e-03
3.700000000000e+01 2.080435745441e+06 1.000000000000e+00 6.693649239167e+01 7.746933200342e-04 9.801404051316e-03 -3.480331831498e+07 5.102057309387e+03 2.518896697550e+07 -1.454372774690e+07 -7.560300870995e-04 2.685117607416e-07 1.918346470244e-03 0.000000000000e+00 8.052693028794e+06 5.285930613643e+07  2.387878250201e-03
3.800000000000e+01 2.113302048560e+06 1.000000000000e+00 6.697096005175e+01 8.302910792645e-04 9.883195824910e-03 -3.611416946430e+07 1.734417344510e+04 2.668467454761e+07 -1.450054223515e+07 -8.063228773678e-04 1.177926102251e-06 1.972297289629e-03 0.000000000000e+00 7.976679050612e+06 5.525878924478e+07  2.475969662450e-03
3.900000000000e+01 2.143157947788e+06 1.000000000000e+00 6.699389716341e+01 8.274432524310e-04 9.962023659510e-03 -3.615533280853e+07 2.745827770812e+03 2.694377501044e+07 -1.444339744481e+07 -8.099743223660e-04 9.347756644751e-08 1.979798500322e-03 0.000000000000e+00 7.884985080967e+06 5.552388510301e+07  2.485809019153e-03
4.000000000000e+01 2.172544101843e+06 1.000000000000e+00 6.700587685751e+01 8.219992787941e-04 1.003696590223e-02 -3.613776108170e+07 2.745472723923e+03 2.713091364625e+07 -1.438638563204e+07 -8.114392398438e-04 9.345119153576e-08 1.984631782320e-03 0.000000000000e+00 7.797744355830e+06 5.567644798463e+07  2.491506588867e-03
4.200000000000e+01 2.229827605393e+06 1.000000000000e+00 6.705899310480e+01 8.120420268187e-04 1.017731162210e-02 -3.610635194748e+07 2.745395794897e+03 2.747025296940e+07 -1.429409183056e+07 -8.137006703418e-04 9.344547680809e-08 1.993807758840e-03 0.000000000000e+00 7.643396936216e+06 5.595542836025e+07  2.501947420755e-03
4.400000000000e+01 2.285593809495e+06 1.000000000000e+00 6.709089078091e+01 8.028706180755e-04 1.030815120838e-02 -3.607569335999e+07 2.746286681154e+03 2.779696976145e+07 -1.419838151658e+07 -8.161168773258e-04 9.351165693002e-08 2.002387999454e-03 0.000000000000e+00 7.492368371704e+06 5.622251969601e+07  2.511928965030e-03
5.000000000000e+01 2.437116678573e+06 1.000000000000e+00 6.687731638317e+01 7.837283351065e-04 1.058185150384e-02 -3.599377080231e+07 2.745736889583e+03 2.861689454523e+07 -1.385408957802e+07 -8.258620257583e-04 9.347081527048e-08 2.020054362276e-03 0.000000000000e+00 7.076988611702e+06 5.687041453601e+07  2.535932555515e-03
6.500000000000e+01 2.768502507756e+06 1.000000000000e+00 6.609227658981e+01 7.575776212001e-04 1.104619049596e-02 -3.581728092327e+07 2.745195387399e+03 3.029433466422e+07 -1.302508898259e+07 -8.500981380816e-04 9.343058939397e-08 2.051567830294e-03 0.000000000000e+00 6.182678413879e+06 5.816701057884e+07  2.583724332342e-03
8.000000000000e+01 3.023556374630e+06 1.000000000000e+00 6.508884968109e+01 7.482578453662e-04 1.126655492858e-02 -3.568795164222e+07 2.745397673150e+03 3.144031826832e+07 -1.229278856518e+07 -8.724942088605e-04 9.344561633548e-08 2.066933205800e-03 0.000000000000e+00 5.513473979695e+06 5.901746756307e+07  2.614736372962e-03
1.000000000000e+02 3.324236305531e+06 1.000000000000e+00 6.398428875965e+01 7.438410391991e-04 1.145104116697e-02 -3.555778404823e+07 2.746288383037e+03 3.256556066326e+07 -1.153098374485e+07 -8.959550201249e-04 9.351178335562e-08 2.080432315714e-03 0.000000000000e+00 4.841069043274e+06 5.984389067185e+07  2.644788804778e-03
1.860000000000e+02 3.922717201764e+06 1.000000000000e+00 6.134131221386e+01 7.514106434267e-04 1.167036733837e-02 -3.528853459935e+07 2.747021526953e+03 3.479413341507e+07 -9.859267175495e+06 -9.480466560281e-04 9.356624547514e-08 2.101115545348e-03 0.000000000000e+00 3.451222786593e+06 6.144979343867e+07  2.702856746087e-03
2.720000000000e+02 4.213038211969e+06 1.000000000000e+00 5.933681595054e+01 7.741179112989e-04 1.150227730561e-02 -3.518721105847e+07 2.746854275800e+03 3.544784277020e+07 -8.932480887200e+06 -9.787067009321e-04 9.355382110375e-08 2.090972687830e-03 0.000000000000e+00 2.890616391822e+06 6.183944881284e+07  2.715968076949e-03
3.580000000000e+02 4.354403691727e+06 1.000000000000e+00 5.793077727829e+01 7.940107749074e-04 1.132638510036e-02 -3.513076446226e+07 2.747054995012e+03 3.575378596324e+07 -8.332399283774e+06 -9.988988583428e-04 9.356873167379e-08 2.080047546873e-03 0.000000000000e+00 2.569792594262e+06 6.199340142377e+07  2.720689962599e-03
4.440000000000e+02 4.426532453840e+06 1.000000000000e+00 5.685962552591e+01 8.107204224387e-04 1.116179621253e-02 -3.509722291103e+07 2.747484284693e+03 3.589161694984e+07 -7.906588277037e+06 -1.013468866690e-03 9.360062176433e-08 2.069351146125e-03 0.000000000000e+00 2.370731412742e+06 6.203639586154e+07  2.721498906274e-03
5.300000000000e+02 4.465496889446e+06 1.000000000000e+00 5.603562150135e+01 8.243899642861e-04 1.101914967757e-02 -3.507639721765e+07 2.748617707025e+03 3.594756298587e+07 -7.595507851250e+06 -1.024249756751e-03 9.368481885188e-08 2.059874725934e-03 0.000000000000e+00 2.241447361009e+06 6.203064269624e+07  2.720661254926e-03
6.160000000000e+02 4.488012314786e+06 1.000000000000e+00 5.540773413179e+01 8.352883559045e-04 1.090092569572e-02 -3.506350435579e+07 2.747755209029e+03 3.596025704249e+07 -7.368318959472e+06 -1.032209323577e-03 9.362074757221e-08 2.051907774914e-03 0.000000000000e+00 2.157188757593e+06 6.200307863709e+07  2.719150596622e-03
7.020000000000e+02 4.501822576458e+06 1.000000000000e+00 5.494614336095e+01 8.434925648144e-04 1.081023727862e-02 -3.505525096673e+07 2.749903438633e+03 3.595729160910e+07 -7.205349617628e+06 -1.037955916109e-03 9.378033034273e-08 2.045744483263e-03 0.000000000000e+00 2.101102991752e+06 6.197342919057e+07  2.717685704826e-03
7.880000000000e+02 4.511441113274e+06 1.000000000000e+00 5.458452954714e+01 8.503629381846e-04 1.072851686885e-02 -3.505241193399e+07 2.749098868240e+03 3.591894074333e+07 -7.089554447004e+06 -1.042151429802e-03 9.372056225644e-08 2.040019059054e-03 0.000000000000e+00 2.074341879220e+06 6.192166423623e+07  2.715467946691e-03
8.740000000000e+02 4.519827167133e+06 1.000000000000e+00 5.400168344939e+01 8.607168733007e-04 1.061298872405e-02 -3.504186771270e+07 2.750675495087e+03 3.591636521467e+07 -6.883387975127e+06 -1.049417399109e-03 9.383768310793e-08 2.032265784748e-03 0.000000000000e+00 2.002963491054e+06 6.188614432897e+07  2.713683142512e-03
9.370000000000e+02 4.525201002277e+06 1.000000000000e+00 5.359758949594e+01 8.687818042977e-04 1.051803357771e-02 -3.503869391401e+07 2.750517316823e+03 3.587222093572e+07 -6.754361400074e+06 -1.054091930802e-03 9.382593272261e-08 2.025833724456e-03 0.000000000000e+00 1.973611459453e+06 6.182793413016e+07  2.711185549946e-03
1.000000000000e+03 4.529391016052e+06 1.000000000000e+00 5.327744951566e+01 8.756184412833e-04 1.043853329244e-02 -3.503667885787e+07 2.749535801541e+03 3.583095619071e+07 -6.654161251218e+06 -1.057738805675e-03 9.375302015878e-08 2.020579314113e-03 0.000000000000e+00 1.953294639460e+06 6.177691418517e+07  2.709021469553e-03
1.100000000000e+03 4.533536316160e+06 1.000000000000e+00 5.295519145957e+01 8.827911909323e-04 1.035536020387e-02 -3.503516778177e+07 2.750944142780e+03 3.578349526999e+07 -6.555218931985e+06 -1.061357680420e-03 9.385763979366e-08 2.015141479486e-03 0.000000000000e+00 1.935630481254e+06 6.172097410366e+07  2.706669765772e-03
1.200000000000e+03 4.536797682875e+06 1.000000000000e+00 5.267850939785e+01 8.887277384307e-04 1.028624167676e-02 -3.503348060010e+07 2.750166558445e+03 3.574722219030e+07 -6.468818947865e+06 -1.064504155940e-03 9.379987638590e-08 2.010585051401e-03 0.000000000000e+00 1.918359119224e+06 6.167674585113e+07  2.704791584654e-03
1.300000000000e+03 4.539703052078e+06 1.000000000000e+00 5.241293296211e+01 8.943604548955e-04 1.022045373886e-02 -3.503177831354e+07 2.750201966194e+03 3.571340847431e+07 -6.385563575272e+06 -1.067533270563e-03 9.380250667584e-08 2.006236770968e-03 0.000000000000e+00 1.901311138167e+06 6.163526006067e+07  2.703023823976e-03
1.400000000000e+03 4.542442562524e+06 1.000000000000e+00 5.214105380058e+01 9.001633670691e-04 1.015247658673e-02 -3.503016611195e+07 2.750279582807e+03 3.567742883052e+07 -6.300779043912e+06 -1.070622528526e-03 9.380827248136e-08 2.001751244463e-03 0.000000000000e+00 1.884505441780e+06 6.159184867167e+07  2.701177641053e-03
1.500000000000e+03 4.545082446453e+06 1.000000000000e+00 5.185280185965e+01 9.064105429576e-04 1.007909001817e-02 -3.502871365211e+07 2.751220211188e+03 3.563651709990e+07 -6.211791583389e+06 -1.073873828552e-03 9.387814773256e-08 1.996926417363e-03 0.000000000000e+00 1.867996045202e+06 6.154376824593e+07  2.699141930244e-03
1.600000000000e+03 4.547643486992e+06 1.000000000000e+00 5.154203532848e+01 9.132681371223e-04 9.998321311495e-03 -3.502746564473e+07 2.751009619962e+03 3.558896712447e+07 -6.116976822437e+06 -1.077349165113e-03 9.386250381286e-08 1.991638584298e-03 0.000000000000e+00 1.851825114230e+06 6.148935983933e+07  2.696849210924e-03
1.700000000000e+03 4.550130771774e+06 1.000000000000e+00 5.120496310407e+01 9.208390742572e-04 9.908948365926e-03 -3.502645273431e+07 2.751181533107e+03 3.553368500232e+07 -6.015345240108e+06 -1.081086430070e-03 9.387527450367e-08 1.985810360988e-03 0.000000000000e+00 1.836037657368e+06 6.142759703485e+07  2.694257470897e-03
1.800000000000e+03 4.552544175198e+06 1.000000000000e+00 5.083929706478e+01 9.291858827102e-04 9.810235279504e-03 -3.502569401218e+07 2.752527113124e+03 3.547002649924e+07 -5.906294992214e+06 -1.085108686741e-03 9.397523187637e-08 1.979395464524e-03 0.000000000000e+00 1.820654168385e+06 6.135790916960e+07  2.691342881641e-03
1.900000000000e+03 4.554883463307e+06 1.000000000000e+00 5.044375052886e+01 9.383436886813e-04 9.701763534377e-03 -3.502520324808e+07 2.751706838263e+03 3.539758935895e+07 -5.789500548451e+06 -1.089428537700e-03 9.391429717240e-08 1.972366862830e-03 0.000000000000e+00 1.805704812526e+06 6.127998225924e+07  2.688091954154e-03
2.000000000000e+03 4.557147803229e+06 1.000000000000e+00 5.001772135123e+01 9.483281983240e-04 9.583343977762e-03 -3.502498171473e+07 2.751941207204e+03 3.531623187869e+07 -5.664794051021e+06 -1.094052264937e-03 9.393170743661e-08 1.964713057945e-03 0.000000000000e+00 1.791181295684e+06 6.119375573183e+07  2.684501174508e-03