 TITLE = "Profiles along polylines"
 VARIABLES = "DIST" "PRESSURE1" "SATURATION1" "VELOCITY_X1" "VELOCITY_Y1" "TEMPERATURE1" "DISPLACEMENT_X1" "DISPLACEMENT_Y1" "STRESS_XX" "STRESS_XY" "STRESS_YY" "STRESS_ZZ" "STRAIN_XX" "STRAIN_XY" "STRAIN_YY" "STRAIN_PLS"  p_(1st_Invariant)  q_(2nd_Invariant)   Effective_Strain
 ZONE T="TIME=0.000000000000e+00"
0.000000000000e+00 -7.000000000000e+07 0.000000000000e+00 0.000000000000e+00 0.000000000000e+00 2.500000000000e+01 0.000000000000e+00 0.000000000000e+00 0.000000000000e+00 0.000000000000e+00 0.000000000000e+00 0.000000000000e+00 0.000000000000e+00 0.000000000000e+00 0.000000000000e+00 0.000000000000e+00 -0.000000000000e+00 0.000000000000e+00  0.000000000000e+00
1.856488293236e-01 -7.000000000000e+07 0.000000000000e+00 0.000000000000e+00 0.000000000000e+00 2.500000000000e+01 0.000000000000e+00 0.000000000000e+00 0.000000000000e+00 0.000000000000e+00 0.000000000000e+00 0.000000000000e+00 0.000000000000e+00 0.000000000000e+00 0.000000000000e+00 0.000000000000e+00 -0.000000000000e+00 0.000000000000e+00  0.000000000000e+00
3.329966101904e-01 -7.000000000000e+07 0.000000000000e+00 0.000000000000e+00 0.000000000000e+00 2.500000000000e+01 0.000000000000e+00 0.000000000000e+00 0.000000000000e+00 0.000000000000e+00 0.000000000000e+00 0.000000000000e+00 0.000000000000e+00 0.000000000000e+00 0.000000000000e+00 0.000000000000e+00 -0.000000000000e+00 0.000000000000e+00  0.000000000000e+00
4.500000000000e-01 -7.000000000000e+07 6.684759947500e-01 0.000000000000e+00 0.000000000000e+00 2.500000000000e+01 0.000000000000e+00 0.000000000000e+00 0.000000000000e+00 0.000000000000e+00 0.000000000000e+00 0.000000000000e+00 0.000000000000e+00 0.000000000000e+00 0.000000000000e+00 0.000000000000e+00 -0.000000000000e+00 0.000000000000e+00  0.000000000000e+00
5.425413849766e-01 -7.000000000000e+07 6.684759947500e-01 0.000000000000e+00 0.000000000000e+00 2.500000000000e+01 0.000000000000e+00 0.000000000000e+00 0.000000000000e+00 0.000000000000e+00 0.000000000000e+00 0.000000000000e+00 0.000000000000e+00 0.000000000000e+00 0.000000000000e+00 0.000000000000e+00 -0.000000000000e+00 0.000000000000e+00  0.000000000000e+00
6.536499690359e-01 -7.000000000000e+07 6.684759947500e-01 0.000000000000e+00 0.000000000000e+00 2.500000000000e+01 0.000000000000e+00 0.000000000000e+00 0.000000000000e+00 0.000000000000e+00 0.000000000000e+00 0.000000000000e+00 0.000000000000e+00 0.000000000000e+00 0.000000000000e+00 0.000000000000e+00 -0.000000000000e+00 0.000000000000e+00  0.000000000000e+00
7.871337589362e-01 -7.000000000000e+07 6.684759947500e-01 0.000000000000e+00 0.000000000000e+00 2.500000000000e+01 0.000000000000e+00 0.000000000000e+00 0.000000000000e+00 0.000000000000e+00 0.000000000000e+00 0.000000000000e+00 0.000000000000e+00 0.000000000000e+00 0.000000000000e+00 0.000000000000e+00 -0.000000000000e+00 0.000000000000e+00  0.000000000000e+00
9.474533848814e-01 -7.000000000000e+07 6.504857124747e-01 0.000000000000e+00 0.000000000000e+00 2.500000000000e+01 0.000000000000e+00 0.000000000000e+00 0.000000000000e+00 0.000000000000e+00 0.000000000000e+00 0.000000000000e+00 0.000000000000e+00 0.000000000000e+00 0.000000000000e+00 0.000000000000e+00 -0.000000000000e+00 0.000000000000e+00  0.000000000000e+00
1.140000000000e+00 1.000000000000e+05 9.737398629779e-01 0.000000000000e+00 0.000000000000e+00 2.500000000000e+01 0.000000000000e+00 0.000000000000e+00 3.304572143556e+04 5.605493944878e+02 -4.446166165700e+06 1.775888667205e+05 0.000000000000e+00 0.000000000000e+00 0.000000000000e+00 0.000000000000e+00 1.411843859181e+06 4.553204604223e+06  0.000000000000e+00
1.240000000000e+00 1.000000000000e+05 1.000000000000e+00 0.000000000000e+00 0.000000000000e+00 2.500000000000e+01 0.000000000000e+00 0.000000000000e+00 -1.262331305483e+06 1.487475914788e+03 -1.327249178965e+07 -1.357396928539e+06 0.000000000000e+00 0.000000000000e+00 0.000000000000e+00 0.000000000000e+00 5.297406674556e+06 1.196291125004e+07  0.000000000000e+00
1.487693532361e+00 1.000000000000e+05 1.000000000000e+00 0.000000000000e+00 0.000000000000e+00 2.500000000000e+01 0.000000000000e+00 0.000000000000e+00 -6.266898055332e+06 1.626371943122e+02 -1.670623109008e+07 -3.888888743625e+06 0.000000000000e+00 0.000000000000e+00 0.000000000000e+00 0.000000000000e+00 8.954005963013e+06 1.180929437947e+07  0.000000000000e+00
1.823812918126e+00 1.000000000000e+05 1.000000000000e+00 0.000000000000e+00 0.000000000000e+00 2.500000000000e+01 0.000000000000e+00 0.000000000000e+00 -1.222332787539e+07 -2.874861964183e+03 -1.817378474036e+07 -6.116083784726e+06 0.000000000000e+00 0.000000000000e+00 0.000000000000e+00 0.000000000000e+00 1.217106546683e+07 1.044257078524e+07  0.000000000000e+00
2.280000000000e+00 1.000000000000e+05 1.000000000000e+00 0.000000000000e+00 0.000000000000e+00 2.500000000000e+01 0.000000000000e+00 0.000000000000e+00 -1.862400571852e+07 -6.140100975330e+03 -1.726483383688e+07 -7.763601866620e+06 0.000000000000e+00 0.000000000000e+00 0.000000000000e+00 0.000000000000e+00 1.455081380734e+07 1.024864271960e+07  0.000000000000e+00
2.850000000000e+00 1.000000000000e+05 1.000000000000e+00 0.000000000000e+00 0.000000000000e+00 2.500000000000e+01 0.000000000000e+00 0.000000000000e+00 -2.290522887646e+07 -8.679469202581e+03 -1.624244662485e+07 -8.741252650395e+06 0.000000000000e+00 0.000000000000e+00 0.000000000000e+00 0.000000000000e+00 1.596297605057e+07 1.227353357649e+07  0.000000000000e+00
3.420000000000e+00 1.000000000000e+05 1.000000000000e+00 0.000000000000e+00 0.000000000000e+00 2.500000000000e+01 0.000000000000e+00 0.000000000000e+00 -2.538927640774e+07 -1.052437051289e+04 -1.550903669435e+07 -9.266443930625e+06 0.000000000000e+00 0.000000000000e+00 0.000000000000e+00 0.000000000000e+00 1.672158567757e+07 1.408075802056e+07  0.000000000000e+00
3.972609728322e+00 1.000000000000e+05 1.000000000000e+00 0.000000000000e+00 0.000000000000e+00 2.500000000000e+01 0.000000000000e+00 0.000000000000e+00 -2.694644531562e+07 -1.204288093443e+04 -1.504926595748e+07 -9.595663381930e+06 0.000000000000e+00 0.000000000000e+00 0.000000000000e+00 0.000000000000e+00 1.719712488501e+07 1.536774481875e+07  0.000000000000e+00
4.633649783484e+00 1.000000000000e+05 1.000000000000e+00 0.000000000000e+00 0.000000000000e+00 2.500000000000e+01 0.000000000000e+00 0.000000000000e+00 -2.832397357321e+07 -1.368094842372e+04 -1.460189164019e+07 -9.874709564020e+06 0.000000000000e+00 0.000000000000e+00 0.000000000000e+00 0.000000000000e+00 1.760019159247e+07 1.659846752638e+07  0.000000000000e+00
5.424552109452e+00 1.000000000000e+05 1.000000000000e+00 0.000000000000e+00 0.000000000000e+00 2.500000000000e+01 0.000000000000e+00 0.000000000000e+00 -2.920962299827e+07 -1.515730601599e+04 -1.426998862307e+07 -1.004083348640e+07 0.000000000000e+00 0.000000000000e+00 0.000000000000e+00 0.000000000000e+00 1.784014836925e+07 1.744308313127e+07  0.000000000000e+00
6.370375975935e+00 1.000000000000e+05 1.000000000000e+00 0.000000000000e+00 0.000000000000e+00 2.500000000000e+01 0.000000000000e+00 0.000000000000e+00 -2.991523946550e+07 -1.651999425732e+04 -1.402854325573e+07 -1.018008481637e+07 0.000000000000e+00 0.000000000000e+00 0.000000000000e+00 0.000000000000e+00 1.804128917920e+07 1.812009540962e+07  0.000000000000e+00
7.501825115922e+00 1.000000000000e+05 1.000000000000e+00 0.000000000000e+00 0.000000000000e+00 2.500000000000e+01 0.000000000000e+00 0.000000000000e+00 -3.049326599438e+07 -1.759502775661e+04 -1.382997626749e+07 -1.029392267856e+07 0.000000000000e+00 0.000000000000e+00 0.000000000000e+00 0.000000000000e+00 1.820572164681e+07 1.868400689636e+07  0.000000000000e+00
8.855503976798e+00 1.000000000000e+05 1.000000000000e+00 0.000000000000e+00 0.000000000000e+00 2.500000000000e+01 0.000000000000e+00 0.000000000000e+00 -3.085225541536e+07 -1.786850061417e+04 -1.369136799394e+07 -1.036003702279e+07 0.000000000000e+00 0.000000000000e+00 0.000000000000e+00 0.000000000000e+00 1.830122014403e+07 1.904634812082e+07  0.000000000000e+00
1.047459878112e+01 1.000000000000e+05 1.000000000000e+00 0.000000000000e+00 0.000000000000e+00 2.500000000000e+01 0.000000000000e+00 0.000000000000e+00 -3.113220835338e+07 -1.688267742772e+04 -1.359250579186e+07 -1.041436424357e+07 0.000000000000e+00 0.000000000000e+00 0.000000000000e+00 0.000000000000e+00 1.837969279627e+07 1.932579266621e+07  0.000000000000e+00
1.241154661369e+01 1.000000000000e+05 1.000000000000e+00 0.000000000000e+00 0.000000000000e+00 2.500000000000e+01 0.000000000000e+00 0.000000000000e+00 -3.130685851467e+07 -1.409868786187e+04 -1.352808692198e+07 -1.044743363099e+07 0.000000000000e+00 0.000000000000e+00 0.000000000000e+00 0.000000000000e+00 1.842745968921e+07 1.950246065449e+07  0.000000000000e+00
1.472871140527e+01 1.000000000000e+05 1.000000000000e+00 0.000000000000e+00 0.000000000000e+00 2.500000000000e+01 0.000000000000e+00 0.000000000000e+00 -3.142400077938e+07 -8.843686767664e+03 -1.348940852721e+07 -1.047097279198e+07 0.000000000000e+00 0.000000000000e+00 0.000000000000e+00 0.000000000000e+00 1.846146069952e+07 1.961874619650e+07  0.000000000000e+00
1.750000000000e+01 1.000000000000e+05 1.000000000000e+00 0.000000000000e+00 0.000000000000e+00 2.500000000000e+01 0.000000000000e+00 0.000000000000e+00 -3.145630060804e+07 -9.319594333115e+02 -1.347899521696e+07 -1.047753874750e+07 0.000000000000e+00 0.000000000000e+00 0.000000000000e+00 0.000000000000e+00 1.847094485750e+07 1.965070869555e+07  0.000000000000e+00
 TITLE = "Profiles along polylines"
 VARIABLES = "DIST" "PRESSURE1" "SATURATION1" "VELOCITY_X1" "VELOCITY_Y1" "TEMPERATURE1" "DISPLACEMENT_X1" "DISPLACEMENT_Y1" "STRESS_XX" "STRESS_XY" "STRESS_YY" "STRESS_ZZ" "STRAIN_XX" "STRAIN_XY" "STRAIN_YY" "STRAIN_PLS"  p_(1st_Invariant)  q_(2nd_Invariant)   Effective_Strain
 ZONE T="TIME=1.000000000000e-03"
0.000000000000e+00 -7.000000000000e+07 0.000000000000e+00 0.000000000000e+00 0.000000000000e+00 2.500000000000e+01 0.000000000000e+00 6.370659220313e-05 6.738861838807e+07 -4.081288887710e-01 6.754273793301e+07 4.047940689633e+07 1.749098746964e-04 -5.305675554023e-12 1.759116517385e-04 0.000000000000e+00 -5.847025440580e+07 2.698660133050e+07  1.754129086483e-04
1.856488293236e-01 -7.000000000000e+07 0.000000000000e+00 0.000000000000e+00 0.000000000000e+00 2.500000000000e+01 3.245992882073e-05 6.370647000747e-05 6.735115837663e+07 -5.120860381265e+01 6.756098221289e+07 4.047364217685e+07 1.747038552985e-04 -6.657118495644e-10 1.760677102342e-04 0.000000000000e+00 -5.846192758879e+07 2.698303998213e+07  1.753897598867e-04
3.329966101904e-01 -7.000000000000e+07 0.000000000000e+00 0.000000000000e+00 0.000000000000e+00 2.500000000000e+01 5.846802621954e-05 6.370619413541e-05 6.917305785068e+07 -9.541303105329e+01 6.714530462421e+07 4.089550874247e+07 1.838040692034e-04 -1.240369403695e-09 1.706236732313e-04 0.000000000000e+00 -5.907129040579e+07 2.732016975243e+07  1.775811034005e-04
4.500000000000e-01 -7.000000000000e+07 6.684759947500e-01 -2.131502240121e-14 -1.849270749377e-07 3.310906251120e+01 7.112439639135e-05 6.370585899423e-05 1.891221378869e+07 -1.320445443433e+02 3.016347864590e+07 1.470467843684e+07 -1.745157401108e-04 -3.847205075183e-07 1.477305537039e-04 0.000000000000e+00 -2.126012362381e+07 1.384320805724e+07  2.793954383849e-04
5.425413849766e-01 -6.999999999989e+07 6.684759947436e-01 -3.761931487684e-12 -1.848676933305e-07 2.807634570670e+01 8.631381739991e-06 6.360133465782e-05 -3.411935005962e+05 -1.072692083211e+02 -1.264029688450e+05 -1.747386285458e+05 -7.088772153567e-04 -9.136494084129e-07 2.058458693881e-04 0.000000000000e+00 2.141116993290e+05 1.951648047140e+05  8.311446199948e-04
6.536499690359e-01 -6.999999993365e+07 6.684759878566e-01 -3.299515754527e-09 -1.848325880385e-07 2.599809537035e+01 -7.089840400401e-05 6.347561982388e-05 -3.256158426674e+05 -9.471585269837e+01 -1.130690560300e+05 -1.571563414095e+05 -7.174142798049e-04 -8.067280829199e-07 1.877534235404e-04 0.000000000000e+00 1.986137467023e+05 1.942916398518e+05  8.274258495357e-04
7.871337589362e-01 -6.999993003809e+07 6.684774325879e-01 -3.816477680429e-06 -1.848056506539e-07 2.525080984488e+01 -1.655537700326e-04 6.331132004017e-05 -2.987019563519e+05 -9.305216800123e+01 -1.011140500351e+05 -1.408314951564e+05 -6.723189987824e-04 -7.925578978023e-07 1.691436937341e-04 0.000000000000e+00 1.802158338478e+05 1.810270568727e+05  7.709363323384e-04
9.474533848814e-01 -6.991580129891e+07 6.507528602308e-01 -2.437363284039e-03 -1.580322805175e-07 2.505445512082e+01 -9.127064439192e-05 6.309102682837e-05 9.157271757131e+05 -1.041355228786e+02 5.958590516750e+05 5.284935129556e+05 1.649102349283e-03 -8.869587122154e-07 2.868879409185e-04 0.000000000000e+00 -6.800265801146e+05 3.583320437949e+05  1.526020324829e-03
1.140000000000e+00 1.349371324694e+05 9.738732786163e-01 -2.019618020084e-02 -7.176476130584e-04 2.500485102010e+01 3.100746632061e-06 6.277285132211e-05 -1.871247947806e+05 4.465576506049e+02 -4.420357257580e+06 1.129440141232e+05 -1.837665214109e-04 -8.198406705076e-07 4.529483475068e-05 0.000000000000e+00 1.498179346079e+06 4.390963447279e+06  2.101129388751e-04
1.240000000000e+00 1.413412552946e+05 1.000000000000e+00 -1.912507446065e-02 -1.252585888065e-03 2.500280428798e+01 2.342261019086e-06 6.276044196112e-05 -1.487323949092e+06 2.452796220312e+03 -1.320654528724e+07 -1.406055993449e+06 -6.549532923095e-06 7.170950841033e-08 4.256778214629e-06 0.000000000000e+00 5.366641743260e+06 1.176006668610e+07  9.429309524195e-06
1.487693532361e+00 1.556961197234e+05 1.000000000000e+00 -1.668949622423e-02 -1.060120106664e-03 2.500075208135e+01 1.007206735679e-06 6.274926551917e-05 -6.429892013464e+06 1.743188026534e+03 -1.668080232190e+07 -3.930460629220e+06 -4.509962694234e-06 1.174123475365e-07 2.488595711728e-06 0.000000000000e+00 9.013718321528e+06 1.170255422779e+07  6.147983646595e-06
1.823812918126e+00 1.717928622387e+05 1.000000000000e+00 -1.407500256654e-02 -8.343706375937e-04 2.500007432559e+01 -2.022303300920e-07 6.275086106785e-05 -1.234028073345e+07 -1.305427960911e+03 -1.817541876679e+07 -6.151699884812e+06 -3.021079581965e-06 1.165865259574e-07 1.262191307268e-06 0.000000000000e+00 1.222246646169e+07 1.041434574916e+07  3.817591698668e-06
2.280000000000e+00 1.897522717761e+05 1.000000000000e+00 -1.080450907902e-02 -6.178745246235e-04 2.500000402545e+01 -1.291330160564e-06 6.276143811405e-05 -1.870411285210e+07 -4.878806382474e+03 -1.727614921785e+07 -7.791030765415e+06 -1.956620148914e-06 9.369616975505e-08 5.985020905069e-07 0.000000000000e+00 1.459043094512e+07 1.027380298732e+07  2.320333020412e-06
2.850000000000e+00 2.074446307919e+05 1.000000000000e+00 -8.741383585309e-03 -5.169176379831e-04 2.499999994532e+01 -2.193513931192e-06 6.277721820300e-05 -2.296065475497e+07 -7.643499873719e+03 -1.625343050767e+07 -8.761175607249e+06 -1.318679947013e-06 7.695772157263e-08 3.320227500506e-07 0.000000000000e+00 1.599175362329e+07 1.230337960077e+07  1.518141997436e-06
3.420000000000e+00 2.215970185909e+05 1.000000000000e+00 -7.354823483911e-03 -4.556995872020e-04 2.500000000096e+01 -2.814088428919e-06 6.279316017123e-05 -2.542851346981e+07 -9.602815637471e+03 -1.551617007048e+07 -9.280355062078e+06 -9.406774230647e-07 6.845836217430e-08 2.517451976073e-07 0.000000000000e+00 1.674167953412e+07 1.410502594345e+07  1.095043526345e-06
3.972609728322e+00 2.330505661732e+05 1.000000000000e+00 -6.170055220174e-03 -4.143423897756e-04 2.500000000020e+01 -3.245940394766e-06 6.280845241836e-05 -2.697386829834e+07 -1.118438672247e+04 -1.505166050711e+07 -9.604608641681e+06 -6.863154244228e-07 6.377385574586e-08 2.433120901755e-07 0.000000000000e+00 1.721004581571e+07 1.538670439382e+07  8.422706153561e-07
4.633649783484e+00 2.447525257874e+05 1.000000000000e+00 -5.063055921838e-03 -3.843603950768e-04 2.499999999998e+01 -3.608586337282e-06 6.282658591039e-05 -2.833985711248e+07 -1.287250672576e+04 -1.459819312891e+07 -9.878365072414e+06 -4.541840040509e-07 6.005566899176e-08 2.731493022665e-07 0.000000000000e+00 1.760547177127e+07 1.661231152600e+07  6.448051991149e-07
5.424552109452e+00 2.565441707821e+05 1.000000000000e+00 -4.298457931970e-03 -3.623238966003e-04 2.500000000001e+01 -3.877964783747e-06 6.284842317791e-05 -2.921541267635e+07 -1.436828835536e+04 -1.425997085868e+07 -1.003956506051e+07 -2.621581475422e-07 5.861274050429e-08 3.249754299971e-07 0.000000000000e+00 1.783831619852e+07 1.745267079182e+07  5.194586039307e-07
6.370375975935e+00 2.680807782276e+05 1.000000000000e+00 -3.547741570992e-03 -3.462440019069e-04 2.499999999998e+01 -4.028294330214e-06 6.287475870858e-05 -2.991137376316e+07 -1.573734269389e+04 -1.401164619623e+07 -1.017385598781e+07 -8.777325949114e-08 5.813983042619e-08 3.962485778101e-07 0.000000000000e+00 1.803229198240e+07 1.812596293032e+07  4.578622384379e-07
7.501825115922e+00 2.794199820965e+05 1.000000000000e+00 -2.776495605589e-03 -3.349118681415e-04 2.499999999999e+01 -4.020679452441e-06 6.290650551437e-05 -3.047996308730e+07 -1.682080459628e+04 -1.380557025306e+07 -1.028261000210e+07 7.392285191023e-08 5.751372048152e-08 4.863239818181e-07 0.000000000000e+00 1.818938111415e+07 1.868664489154e+07  4.647027348408e-07
8.855503976798e+00 2.902924433088e+05 1.000000000000e+00 -2.217119764407e-03 -3.264088149119e-04 2.499999999998e+01 -3.814592290433e-06 6.294436501246e-05 -3.083071710892e+07 -1.711050073275e+04 -1.366010522172e+07 -1.034419669919e+07 2.116393623342e-07 5.630856262007e-08 5.728338057377e-07 0.000000000000e+00 1.827833967661e+07 1.904631771531e+07  5.110846994269e-07
1.047459878112e+01 3.001110515483e+05 1.000000000000e+00 -1.628522891811e-03 -3.210050958718e-04 2.499999999996e+01 -3.355506028711e-06 6.298773026342e-05 -3.110295323010e+07 -1.617939052596e+04 -1.355447436086e+07 -1.039417827728e+07 3.368544021937e-07 5.224416984522e-08 6.628315462198e-07 0.000000000000e+00 1.835053528941e+07 1.932345094235e+07  5.811429966307e-07
1.241154661369e+01 3.083650975032e+05 1.000000000000e+00 -1.171255185209e-03 -3.171848420128e-04 2.500000000001e+01 -2.591700315263e-06 6.303343745959e-05 -3.127133940259e+07 -1.351238956656e+04 -1.348470148524e+07 -1.042376226636e+07 4.400591906404e-07 4.355358765215e-08 7.322369638069e-07 0.000000000000e+00 1.839326771806e+07 1.949815895494e+07  6.428733948255e-07
1.472871140527e+01 3.143751555563e+05 1.000000000000e+00 -6.076283789138e-04 -3.149048949760e-04 2.499999999966e+01 -1.474658554390e-06 6.307280075212e-05 -3.138380867575e+07 -8.475017543477e+03 -1.344159548781e+07 -1.044457124898e+07 5.122208235046e-07 2.738685665389e-08 7.952841521723e-07 0.000000000000e+00 1.842332513751e+07 1.961322593736e+07  6.998114539892e-07
1.750000000000e+01 3.166832744713e+05 1.000000000000e+00 -2.790489179235e-04 -3.137548235771e-04 2.500000000003e+01 0.000000000000e+00 6.308985592618e-05 -3.141410603698e+07 -9.113913068865e+02 -1.342974269262e+07 -1.045010461893e+07 5.482450066677e-07 1.527917963001e-09 8.103975571526e-07 0.000000000000e+00 1.843131778285e+07 1.964440032671e+07  7.162592948439e-07
 TITLE = "Profiles along polylines"
 VARIABLES = "DIST" "PRESSURE1" "SATURATION1" "VELOCITY_X1" "VELOCITY_Y1" "TEMPERATURE1" "DISPLACEMENT_X1" "DISPLACEMENT_Y1" "STRESS_XX" "STRESS_XY" "STRESS_YY" "STRESS_ZZ" "STRAIN_XX" "STRAIN_XY" "STRAIN_YY" "STRAIN_PLS"  p_(1st_Invariant)  q_(2nd_Invariant)   Effective_Strain
 ZONE T="TIME=9.000000000000e-01"
0.000000000000e+00 -7.000000000000e+07 0.000000000000e+00 0.000000000000e+00 0.000000000000e+00 2.500000000000e+01 0.000000000000e+00 8.939103672203e-04 5.967931620821e+07 -8.825241636484e-01 6.107690417469e+07 3.622686611487e+07 1.524409256067e-04 -1.147281412744e-11 1.615252473888e-04 0.000000000000e+00 -5.232769549926e+07 2.418155349723e+07  1.571800977320e-04
1.856488293236e-01 -7.000000000000e+07 0.000000000000e+00 0.000000000000e+00 0.000000000000e+00 2.500000000000e+01 2.829477326952e-05 8.939100227249e-04 5.963899464958e+07 -1.162045812340e+02 6.107729897281e+07 3.621488808672e+07 1.522566926586e-04 -1.510659556042e-09 1.616056707596e-04 0.000000000000e+00 -5.231039390304e+07 2.417536931201e+07  1.571399005444e-04
3.329966101904e-01 -7.000000000000e+07 0.000000000000e+00 0.000000000000e+00 0.000000000000e+00 2.500000000000e+01 5.121876300237e-05 8.939092644394e-04 6.288321959432e+07 -2.161440660554e+02 6.038665391839e+07 3.698096205381e+07 1.683646740133e-04 -2.809872858721e-09 1.521369971197e-04 0.000000000000e+00 -5.341694518884e+07 2.474859791795e+07  1.608658865219e-04
4.500000000000e-01 -1.825455417321e+08 4.447347592060e-01 -3.515172207293e-03 -1.464769594053e-07 8.283348462567e+01 5.530186439671e-05 8.939083808396e-04 -1.906708166843e+07 -2.328508282013e+02 7.916541554892e+06 -4.384664887225e+06 -2.855755646737e-02 -5.988953036906e-07 4.004436673038e-04 0.000000000000e+00 5.178401666921e+06 2.339881369912e+07  2.875986926665e-02
5.425413849766e-01 -1.226642315127e+08 5.272211560514e-01 -5.012050668619e-03 -2.127082508214e-07 7.355501941886e+01 -5.462480462379e-03 8.937554782750e-04 -2.365450250462e+07 -6.490552832205e+01 -1.583726085994e+07 -1.376602267058e+07 -4.211182263707e-02 -5.528231118915e-07 -8.820730459419e-03 0.000000000000e+00 1.775259534505e+07 9.032755062045e+06  3.846756888515e-02
6.536499690359e-01 -7.854812253515e+07 6.273424054583e-01 -4.818317047137e-03 -2.543543315228e-07 6.573361624658e+01 -7.872673967149e-03 8.935881343558e-04 -7.311851061815e+06 2.807184957532e+01 -7.883741061811e+06 -5.379939491249e+06 -8.227383660141e-03 2.390977724080e-07 -1.066287735098e-02 0.000000000000e+00 6.858510538292e+06 2.272483531081e+06  9.677768987588e-03
7.871337589362e-01 -5.089559797900e+07 7.335714557578e-01 -4.050383162515e-03 -2.075721953276e-07 5.931954520063e+01 -7.038306967297e-03 8.933381140230e-04 5.267415084313e+06 -1.982659251835e+01 -7.440069976374e+05 1.384845016546e+06 1.653460438954e-02 -1.688700309135e-07 -9.066089019393e-03 0.000000000000e+00 -1.969417701074e+06 5.279372911584e+06  2.248313385202e-02
9.474533848814e-01 -2.984247135388e+07 8.166774406110e-01 -4.852515173949e-03 -1.408305575080e-07 5.367778754723e+01 -2.528249442362e-03 8.928565375200e-04 1.799171105273e+07 -2.742036920263e+02 7.419277053168e+06 8.561227565338e+06 4.016136500938e-02 -2.335488859530e-06 -4.863196187473e-03 0.000000000000e+00 -1.132407189041e+07 1.005023459687e+07  4.280068375780e-02
1.140000000000e+00 3.221762364192e+05 9.953957013209e-01 -8.315130152206e-03 -2.782604270398e-04 4.850921061954e+01 1.801299649281e-04 8.919493574669e-04 -3.912792838216e+06 6.324492852319e+01 -7.195619013515e+06 -6.096599683633e+06 -2.051207087678e-03 -2.576228213017e-06 1.539692245176e-04 0.000000000000e+00 5.735003845122e+06 2.894287783442e+06  2.132369506935e-03
1.240000000000e+00 3.242066392019e+05 1.000000000000e+00 -6.195659568349e-03 -5.131552921040e-04 4.754491137781e+01 2.004565416757e-04 8.919239856702e-04 -6.690004338316e+06 2.440685665572e+03 -1.698892095682e+07 -1.196444990818e+07 1.923769694527e-04 7.080986720113e-08 2.559374558914e-04 0.000000000000e+00 1.188112506777e+07 8.920000130179e+06  2.308168594628e-04
1.487693532361e+00 3.288737998542e+05 1.000000000000e+00 -5.441365883172e-03 -4.678346311735e-04 4.548073206581e+01 2.443297580911e-04 8.918923934978e-04 -1.169161524615e+07 1.766453810997e+03 -1.997648298418e+07 -1.373290751155e+07 1.641454871494e-04 1.191406629537e-07 2.441684838851e-04 0.000000000000e+00 1.513366858063e+07 7.476234378143e+06  2.155988806184e-04
1.823812918126e+00 3.341395924271e+05 1.000000000000e+00 -4.608994579182e-03 -4.155749781712e-04 4.320611496752e+01 2.933051041500e-04 8.918750642886e-04 -1.745270818284e+07 -1.680498616656e+03 -2.087192492329e+07 -1.490906312801e+07 1.323622499021e-04 8.872413438769e-08 2.263797402419e-04 0.000000000000e+00 1.774456541138e+07 5.182514400230e+06  1.969858976079e-04
2.280000000000e+00 3.400202934397e+05 1.000000000000e+00 -3.538235720054e-03 -3.661248476382e-04 4.068907690810e+01 3.450504082849e-04 8.918649710183e-04 -2.357331049520e+07 -5.546601159855e+03 -1.925124548011e+07 -1.536637107795e+07 9.855725042986e-05 4.408855772106e-08 2.086075668150e-04 0.000000000000e+00 1.939697568442e+07 7.110785269660e+06  1.807508400313e-04
2.850000000000e+00 3.458142124492e+05 1.000000000000e+00 -2.862576151826e-03 -3.433419752950e-04 3.823030640400e+01 3.918178527550e-04 8.918578498721e-04 -2.749016333711e+07 -8.437956621771e+03 -1.754914661907e+07 -1.518416878533e+07 6.901074790220e-05 1.794093457443e-08 1.907737423696e-04 0.000000000000e+00 2.007449291383e+07 1.131050093156e+07  1.673071021455e-04
3.420000000000e+00 3.504485616522e+05 1.000000000000e+00 -2.408345892577e-03 -3.295973454163e-04 3.628894648100e+01 4.238714646329e-04 8.918526728103e-04 -2.963726604729e+07 -1.042831466792e+04 -1.628679353339e+07 -1.478093939834e+07 4.704164504589e-05 7.135577055182e-09 1.759360062079e-04 0.000000000000e+00 2.023499965967e+07 1.416357664962e+07  1.577658887305e-04
3.972609728322e+00 3.541988347917e+05 1.000000000000e+00 -2.020220842614e-03 -3.203488140399e-04 3.474112344303e+01 4.442642563142e-04 8.918487403198e-04 -3.088618095098e+07 -1.201285745547e+04 -1.541297131097e+07 -1.434970820152e+07 3.024576970015e-05 2.230315579900e-09 1.630697515978e-04 0.000000000000e+00 2.021628682116e+07 1.603132155890e+07  1.502477298796e-04
4.633649783484e+00 3.580301911513e+05 1.000000000000e+00 -1.657640409160e-03 -3.136610608574e-04 3.319533788731e+01 4.577928947499e-04 8.918450973225e-04 -3.190953300518e+07 -1.368592356492e+04 -1.455196666255e+07 -1.383319851687e+07 1.385166791825e-05 -3.695819172275e-10 1.488839459898e-04 0.000000000000e+00 2.009823272820e+07 1.772789792032e+07  1.424640554660e-04
5.424552109452e+00 3.618906970247e+05 1.000000000000e+00 -1.407245040909e-03 -3.087556241190e-04 3.168500316570e+01 4.622044321730e-04 8.918421611786e-04 -3.245779319887e+07 -1.516086618197e+04 -1.384820590087e+07 -1.327055156550e+07 -6.853645131135e-07 -2.644694727551e-10 1.356271726198e-04 0.000000000000e+00 1.985885022175e+07 1.890505282381e+07  1.359711503544e-04
6.370375975935e+00 3.656674933688e+05 1.000000000000e+00 -1.161416025962e-03 -3.051804873803e-04 3.026718839136e+01 4.543959897030e-04 8.918405355210e-04 -3.281259415713e+07 -1.649283956863e+04 -1.326674724030e+07 -1.270540869453e+07 -1.381828735732e-05 2.017205445546e-09 1.220930246192e-04 0.000000000000e+00 1.959491669732e+07 1.983249570741e+07  1.295560428419e-04
7.501825115922e+00 3.693795180321e+05 1.000000000000e+00 -9.089023493105e-04 -3.026633816513e-04 2.895768555555e+01 4.311012231627e-04 8.918406520224e-04 -3.301879721965e+07 -1.754564533470e+04 -1.276594959730e+07 -1.213812880623e+07 -2.530636076798e-05 3.668408484624e-09 1.080200753490e-04 0.000000000000e+00 1.930762520773e+07 2.057396602808e+07  1.226472323824e-04
8.855503976798e+00 3.729386548895e+05 1.000000000000e+00 -7.257720745936e-04 -3.007762032506e-04 2.779623283947e+01 3.900293055333e-04 8.918432215383e-04 -3.305616214532e+07 -1.777709946488e+04 -1.239047143713e+07 -1.163908920097e+07 -3.435174049452e-05 6.789799662126e-09 9.582666729988e-05 0.000000000000e+00 1.902857426114e+07 2.105146381331e+07  1.168529211729e-04
1.047459878112e+01 3.761527329390e+05 1.000000000000e+00 -5.330852722073e-04 -2.995773716530e-04 2.684457941189e+01 3.280335013373e-04 8.918488403388e-04 -3.302958192432e+07 -1.677340400312e+04 -1.210744345964e+07 -1.120134248420e+07 -4.124325512589e-05 8.117454399168e-09 8.439007842010e-05 0.000000000000e+00 1.877945595605e+07 2.138960754725e+07  1.109198501675e-04
1.241154661369e+01 3.788546175728e+05 1.000000000000e+00 -3.833975232918e-04 -2.987301023611e-04 2.612776105972e+01 2.434548528398e-04 8.918572703213e-04 -3.297215893066e+07 -1.395803538727e+04 -1.192089239751e+07 -1.087854418390e+07 -4.584133777205e-05 1.044846954202e-08 7.570847430239e-05 0.000000000000e+00 1.859053183736e+07 2.159133268221e+07  1.063192334441e-04
1.472871140527e+01 3.808219314875e+05 1.000000000000e+00 -1.988984535369e-04 -2.982245709674e-04 2.565559885442e+01 1.344402423797e-04 8.918651355196e-04 -3.290178030890e+07 -8.773068116968e+03 -1.182176715198e+07 -1.065511538577e+07 -4.804937189808e-05 5.245956908859e-09 6.878054742092e-05 0.000000000000e+00 1.845955428222e+07 2.168689227438e+07  1.017072663494e-04
1.750000000000e+01 3.815774611815e+05 1.000000000000e+00 -9.134233618292e-05 -2.979695961118e-04 2.547503917203e+01 0.000000000000e+00 8.918706504296e-04 -3.287153815088e+07 -8.369329984581e+02 -1.178211915851e+07 -1.056529204637e+07 -4.930655763322e-05 7.059106589110e-09 6.628623327188e-05 0.000000000000e+00 1.840631645192e+07 2.172340766471e+07  1.004656532235e-04
 TITLE = "Profiles along polylines"
 VARIABLES = "DIST" "PRESSURE1" "SATURATION1" "VELOCITY_X1" "VELOCITY_Y1" "TEMPERATURE1" "DISPLACEMENT_X1" "DISPLACEMENT_Y1" "STRESS_XX" "STRESS_XY" "STRESS_YY" "STRESS_ZZ" "STRAIN_XX" "STRAIN_XY" "STRAIN_YY" "STRAIN_PLS"  p_(1st_Invariant)  q_(2nd_Invariant)   Effective_Strain
 ZONE T="TIME=1.000000000000e+00"
0.000000000000e+00 -7.000000000000e+07 0.000000000000e+00 0.000000000000e+00 0.000000000000e+00 2.500000000000e+01 0.000000000000e+00 9.845731980704e-04 5.920086943269e+07 -7.637381740315e-01 6.066228535581e+07 3.595894643655e+07 1.510724994749e-04 -9.928596262419e-12 1.605717029752e-04 0.000000000000e+00 -5.194070040835e+07 2.400601669185e+07  1.560391084970e-04
1.856488293236e-01 -7.000000000000e+07 0.000000000000e+00 0.000000000000e+00 0.000000000000e+00 2.500000000000e+01 2.804159452966e-05 9.845728362277e-04 5.916139735954e+07 -1.202146838755e+02 6.066020991937e+07 3.594648218367e+07 1.508969486431e-04 -1.562790890381e-09 1.606392302820e-04 0.000000000000e+00 -5.192269648753e+07 2.399944858109e+07  1.559964157947e-04