 TITLE = "Time curves in points"
 VARIABLES = "TIME"  "PRESSURE1"  "SATURATION1"  "TEMPERATURE1"  "DISPLACEMENT_X1"  "DISPLACEMENT_Y1"  "STRESS_XX"  "STRESS_XY"  "STRESS_YY"  "STRESS_ZZ"  "STRAIN_XX"  "STRAIN_XY"  "STRAIN_YY"  "STRAIN_PLS"  p_(1st_Invariant)  q_(2nd_Invariant)   Effective_Strain
 ZONE T="POINT=POINT13"
0.000000000000e+00 1.000000000000e+05 1.000000000000e+00 2.500000000000e+01 0.000000000000e+00 0.000000000000e+00 -2.538927640774e+07 -1.052437051289e+04 -1.550903669435e+07 -9.266443930625e+06 0.000000000000e+00 0.000000000000e+00 0.000000000000e+00 0.000000000000e+00 1.672158567757e+07 1.408075802056e+07  0.000000000000e+00
1.000000000000e-03 2.215970185909e+05 1.000000000000e+00 2.500000000096e+01 -2.814084861571e-06 6.279307293669e-05 -2.542851360744e+07 -9.602922054340e+03 -1.551617008997e+07 -9.280355109214e+06 -9.406807842087e-07 6.845045692119e-08 2.517462244000e-07 0.000000000000e+00 1.674167960221e+07 1.410502603087e+07  1.095045994572e-06
2.000000000000e-03 2.374056888651e+05 1.000000000000e+00 2.500000000360e+01 -2.258674058814e-06 6.219614299044e-05 -2.542555687264e+07 -9.797874351588e+03 -1.550889925368e+07 -9.277286841377e+06 -9.448234400743e-07 5.396828626848e-08 4.078416242326e-07 0.000000000000e+00 1.673724765590e+07 1.410567780331e+07  1.205446878776e-06
3.000000000000e-03 2.481523565294e+05 1.000000000000e+00 2.500000002005e+01 -1.747386768098e-06 6.171538056116e-05 -2.542493399218e+07 -9.882819724240e+03 -1.550334249326e+07 -9.275433000249e+06 -9.905448359434e-07 4.765805858576e-08 5.453786264034e-07 0.000000000000e+00 1.673456982856e+07 1.410729957918e+07  1.351167188698e-06
4.000000000000e-03 2.554830814759e+05 1.000000000000e+00 2.500000026425e+01 -1.226491632431e-06 6.120155393967e-05 -2.542638275547e+07 -9.922601102032e+03 -1.549899066807e+07 -9.274562433562e+06 -1.076691378182e-06 4.470287052121e-08 6.746825138010e-07 0.000000000000e+00 1.673331195237e+07 1.410989920168e+07  1.531953231596e-06
1.000000000000e-02 2.655056782691e+05 1.000000000000e+00 2.500574045669e+01 4.217315936027e-06 5.840411119286e-05 -2.547370902257e+07 -9.979868386459e+03 -1.546834235480e+07 -9.281904966308e+06 -2.561801511115e-06 4.044872939238e-08 2.085771080028e-06 0.000000000000e+00 1.674131878122e+07 1.415193424768e+07  4.032555986519e-06
2.000000000000e-02 2.610996539115e+05 1.000000000000e+00 2.506298839666e+01 1.768481834379e-05 5.658391487038e-05 -2.559720663743e+07 -1.002239719193e+04 -1.540532536073e+07 -9.322118814529e+06 -5.655198557990e-06 3.728944670050e-08 5.920059507843e-06 0.000000000000e+00 1.677488360423e+07 1.424357630962e+07  1.002555029947e-05
3.000000000000e-02 2.498200502418e+05 1.000000000000e+00 2.517971472982e+01 3.322493182655e-05 5.693751115198e-05 -2.573885788295e+07 -1.005257416239e+04 -1.535208827608e+07 -9.392659511386e+06 -8.296447508341e-06 3.504772889429e-08 1.051751996377e-05 0.000000000000e+00 1.682786855681e+07 1.432826893933e+07  1.633128913388e-05
4.000000000000e-02 2.358078147646e+05 1.000000000000e+00 2.535078353582e+01 4.939267092878e-05 5.962074898790e-05 -2.588453268504e+07 -1.007457272393e+04 -1.531565435449e+07 -9.489024804139e+06 -1.012794356943e-05 3.341355003719e-08 1.545006221092e-05 0.000000000000e+00 1.689640394789e+07 1.439555641054e+07  2.231054393956e-05
5.000000000000e-02 2.210867255385e+05 1.000000000000e+00 2.556378881541e+01 6.538238286630e-05 6.330647795479e-05 -2.602841753821e+07 -1.009372092377e+04 -1.529929542558e+07 -9.605663457836e+06 -1.113994526397e-05 3.199111233483e-08 2.038997242214e-05 0.000000000000e+00 1.697779214054e+07 1.444366589851e+07  2.769468546256e-05
6.000000000000e-02 2.062323625594e+05 1.000000000000e+00 2.580558519821e+01 8.075393712561e-05 6.930569560494e-05 -2.616481971407e+07 -1.010655454921e+04 -1.529557321276e+07 -9.733770341386e+06 -1.144805612136e-05 3.103775730240e-08 2.528648171569e-05 0.000000000000e+00 1.706472108941e+07 1.447505038037e+07  3.255684410897e-05
7.000000000000e-02 1.921173127982e+05 1.000000000000e+00 2.606507573398e+01 9.534861512444e-05 7.532246626558e-05 -2.629514319359e+07 -1.011858674179e+04 -1.530671178908e+07 -9.870422624832e+06 -1.121298626117e-05 3.014393728201e-08 2.994841940912e-05 0.000000000000e+00 1.715742586917e+07 1.449260026161e+07  3.685719505533e-05
8.000000000000e-02 1.793834173774e+05 1.000000000000e+00 2.633384210671e+01 1.091195228914e-04 8.212433739752e-05 -2.641801436888e+07 -1.012951363075e+04 -1.532662252054e+07 -1.001039187400e+07 -1.057791494545e-05 2.933222553062e-08 3.440773578116e-05 0.000000000000e+00 1.725167625447e+07 1.449986160274e+07  4.074002024884e-05
9.000000000000e-02 1.689331176524e+05 1.000000000000e+00 2.660587521050e+01 1.220954717238e-04 8.831095017471e-05 -2.653535624850e+07 -1.014050874962e+04 -1.535605776401e+07 -1.015237910065e+07 -9.662516341803e-06 2.851544527179e-08 3.858823801340e-05 0.000000000000e+00 1.734793103772e+07 1.449926797193e+07  4.421852841098e-05
1.000000000000e-01 1.617743555300e+05 1.000000000000e+00 2.687705765486e+01 1.342905829886e-04 9.385086158969e-05 -2.664728757383e+07 -1.015011101696e+04 -1.539291939331e+07 -1.029437219857e+07 -8.545936216643e-06 2.780213398369e-08 4.249312113361e-05 0.000000000000e+00 1.744485972191e+07 1.449266100580e+07  4.734811708215e-05
2.000000000000e-01 1.796941805816e+05 1.000000000000e+00 2.902877258995e+01 2.128545072843e-04 1.886757375277e-04 -2.736512879371e+07 -1.019626827711e+04 -1.569003748881e+07 -1.136357751926e+07 4.504730384507e-06 2.437330894379e-08 7.117064664053e-05 0.000000000000e+00 1.813958126726e+07 1.433660140720e+07  6.902862266362e-05
3.000000000000e-01 2.070588055799e+05 1.000000000000e+00 3.071647659315e+01 2.687245654071e-04 2.983449282615e-04 -2.788396263985e+07 -1.022562721200e+04 -1.588304017436e+07 -1.217393552102e+07 1.533277045057e-05 2.219235949483e-08 9.410098695699e-05 0.000000000000e+00 1.864697944508e+07 1.422295990304e+07  8.744862629731e-05
4.000000000000e-01 2.349366444406e+05 1.000000000000e+00 3.207113244939e+01 3.105570776470e-04 4.037722233069e-04 -2.829560908281e+07 -1.024882200086e+04 -1.602683010871e+07 -1.281823273625e+07 2.397408484893e-05 2.046931803692e-08 1.126912573895e-04 0.000000000000e+00 1.904689064259e+07 1.414863674382e+07  1.028222141707e-04
5.000000000000e-01 2.614177955233e+05 1.000000000000e+00 3.318829725466e+01 3.433845477650e-04 5.061904990228e-04 -2.863937490667e+07 -1.027181829394e+04 -1.612774630599e+07 -1.334485961546e+07 3.076606690493e-05 1.876102197943e-08 1.285033684329e-04 0.000000000000e+00 1.937066027604e+07 1.411042415430e+07  1.162158526046e-04
6.000000000000e-01 2.860655246122e+05 1.000000000000e+00 3.413186115956e+01 3.698017373143e-04 6.060502844104e-04 -2.893511788539e+07 -1.030026434541e+04 -1.619639796413e+07 -1.378589710929e+07 3.616272032331e-05 1.664788672768e-08 1.423348423297e-04 0.000000000000e+00 1.963913765293e+07 1.409937988528e+07  1.281395154441e-04
7.000000000000e-01 3.089766518315e+05 1.000000000000e+00 3.494487203999e+01 3.913774472479e-04 7.035358694735e-04 -2.919506981284e+07 -1.033470473087e+04 -1.624183024649e+07 -1.416309005993e+07 4.051738689864e-05 1.408945809341e-08 1.546573814373e-04 0.000000000000e+00 1.986666337309e+07 1.410795222836e+07  1.389037505226e-04
8.000000000000e-01 3.304295337389e+05 1.000000000000e+00 3.565691630465e+01 4.090511250845e-04 7.988154929536e-04 -2.942626516611e+07 -1.037964479655e+04 -1.627111677087e+07 -1.449118576778e+07 4.411654292623e-05 1.075105321388e-08 1.657560082520e-04 0.000000000000e+00 2.006285590158e+07 1.412946083071e+07  1.486900868412e-04
9.000000000000e-01 3.504485616522e+05 1.000000000000e+00 3.628894648100e+01 4.238713444010e-04 8.918522829067e-04 -2.963726572952e+07 -1.042792818438e+04 -1.628679311381e+07 -1.478093917713e+07 4.704164863260e-05 7.164287261012e-09 1.759360135761e-04 0.000000000000e+00 2.023499934015e+07 1.416357663556e+07  1.577658949223e-04
1.000000000000e+00 3.691814360826e+05 1.000000000000e+00 3.685626587202e+01 4.363072995574e-04 9.827043571644e-04 -2.983127746064e+07 -1.047809215645e+04 -1.629235053140e+07 -1.503977231351e+07 4.944930082759e-05 3.437820764686e-09 1.853433974166e-04 0.000000000000e+00 2.038780010185e+07 1.420670225365e+07  1.662296812800e-04
2.000000000000e+00 4.965754139858e+05 1.000000000000e+00 4.017231608114e+01 4.794738319840e-04 1.735906011285e-03 -3.115054794593e+07 -1.080352342829e+04 -1.607098407629e+07 -1.653014873315e+07 5.580466410380e-05 -2.073707371482e-08 2.489224184788e-04 0.000000000000e+00 2.125056025179e+07 1.485531642407e+07  2.262421275891e-04
3.000000000000e+00 5.964824559071e+05 1.000000000000e+00 4.245554050294e+01 4.928987810021e-04 2.378590393142e-03 -3.217132366942e+07 -1.092790204178e+04 -1.577296152016e+07 -1.754532478102e+07 5.559667615207e-05 -2.997662786008e-08 2.976983666270e-04 0.000000000000e+00 2.182986999020e+07 1.558794586699e+07  2.741610309781e-04
4.000000000000e+00 6.807083713390e+05 1.000000000000e+00 4.420819266506e+01 4.948021034423e-04 2.938932473505e-03 -3.301201845107e+07 -1.095631792463e+04 -1.547063854795e+07 -1.831911808325e+07 5.311176405948e-05 -3.208752201448e-08 3.376683996779e-04 0.000000000000e+00 2.226725836076e+07 1.630484415799e+07  3.144942707544e-04
5.000000000000e+00 7.551020213731e+05 1.000000000000e+00 4.565417316055e+01 4.924593144781e-04 3.436266031733e-03 -3.373110953943e+07 -1.093649108711e+04 -1.518807153948e+07 -1.895498198970e+07 5.002046873151e-05 -3.061467122707e-08 3.717815479465e-04 0.000000000000e+00 2.262472102287e+07 1.697599092269e+07  3.494665680768e-04
6.000000000000e+00 8.227294698145e+05 1.000000000000e+00 4.691432353352e+01 4.895383039899e-04 3.885020669553e-03 -3.436952091993e+07 -1.090147426155e+04 -1.492879740066e+07 -1.950872115401e+07 4.687550070149e-05 -2.801342132896e-08 4.019791849199e-04 0.000000000000e+00 2.293567982487e+07 1.760343028041e+07  3.807119704769e-04
7.000000000000e+00 8.856231524212e+05 1.000000000000e+00 4.800736979148e+01 4.852300774821e-04 4.292250157357e-03 -3.492866367364e+07 -1.086976671569e+04 -1.469140855647e+07 -1.998670224777e+07 4.386092476046e-05 -2.565800363623e-08 4.285500683295e-04 0.000000000000e+00 2.320225815930e+07 1.817758991338e+07  4.083899379979e-04
8.000000000000e+00 9.444320508232e+05 1.000000000000e+00 4.901619071825e+01 4.818896101976e-04 4.667680769956e-03 -3.544207628254e+07 -1.084432793124e+04 -1.447764711539e+07 -2.042881887381e+07 4.121278825401e-05 -2.376826536281e-08 4.529112536794e-04 0.000000000000e+00 2.344951409058e+07 1.871259387712e+07  4.337757067012e-04
9.000000000000e+00 1.000152122572e+06 1.000000000000e+00 4.993928744965e+01 4.787876048942e-04 5.015802299409e-03 -3.591207375102e+07 -1.081965483946e+04 -1.428069767902e+07 -2.083300294014e+07 3.876829046001e-05 -2.193540711636e-08 4.752390694941e-04 0.000000000000e+00 2.367525812340e+07 1.921234256816e+07  4.570896505919e-04
1.000000000000e+01 1.053278720059e+06 1.000000000000e+00 5.078394817746e+01 4.757740876579e-04 5.339979014529e-03 -3.634386388225e+07 -1.079859012399e+04 -1.409660694052e+07 -2.120215438036e+07 3.644171050818e-05 -2.037059968149e-08 4.957880647038e-04 0.000000000000e+00 2.388087506771e+07 1.968122597996e+07  4.786088585526e-04
1.100000000000e+01 1.104106076948e+06 1.000000000000e+00 5.157074846908e+01 4.729194509512e-04 5.643818910358e-03 -3.674376478589e+07 -1.079270403729e+04 -1.392615129409e+07 -2.154565652362e+07 3.434689940864e-05 -1.993334752628e-08 5.148779254636e-04 0.000000000000e+00 2.407185753454e+07 2.012068014569e+07  4.985925475848e-04
1.200000000000e+01 1.153015525371e+06 1.000000000000e+00 5.229896758094e+01 4.699657048901e-04 5.929305853391e-03 -3.711374661320e+07 -1.078128932862e+04 -1.376625447581e+07 -2.186286025700e+07 3.238657020502e-05 -1.908539773988e-08 5.325988030965e-04 0.000000000000e+00 2.424762044867e+07 2.053351706782e+07  5.171666342241e-04
1.300000000000e+01 1.200259622520e+06 1.000000000000e+00 5.297193109440e+01 4.669054906016e-04 6.198025413959e-03 -3.745662751036e+07 -1.076794644020e+04 -1.361435982951e+07 -2.215499814174e+07 3.050182974387e-05 -1.809421174238e-08 5.490914399641e-04 0.000000000000e+00 2.440866182720e+07 2.092291552309e+07  5.344936654687e-04
1.400000000000e+01 1.246550173193e+06 1.000000000000e+00 5.359378133377e+01 4.636865411188e-04 6.451521579041e-03 -3.777409767433e+07 -1.076207668092e+04 -1.346915894889e+07 -2.242363249980e+07 2.868792838133e-05 -1.765817248195e-08 5.644624631148e-04 0.000000000000e+00 2.455562970767e+07 2.129025738489e+07  5.506792276090e-04
1.500000000000e+01 1.291432803793e+06 1.000000000000e+00 5.416843284913e+01 4.602862368271e-04 6.690726143098e-03 -3.806823594156e+07 -1.075945741106e+04 -1.333084765334e+07 -2.267081510018e+07 2.694386075593e-05 -1.746359814916e-08 5.787808078210e-04 0.000000000000e+00 2.468996623169e+07 2.163625007241e+07  5.657902496112e-04
1.600000000000e+01 1.335047033712e+06 1.000000000000e+00 5.469941050046e+01 4.568040152686e-04 6.916652776845e-03 -3.834154834257e+07 -1.075686936334e+04 -1.319802005036e+07 -2.289810952766e+07 2.523462173917e-05 -1.727134317615e-08 5.921567689522e-04 0.000000000000e+00 2.481255930686e+07 2.196348387141e+07  5.799513548310e-04
1.700000000000e+01 1.377524042292e+06 1.000000000000e+00 5.518981195544e+01 4.533645498657e-04 7.130190914390e-03 -3.859661097267e+07 -1.075705159261e+04 -1.306932796536e+07 -2.310696825681e+07 2.351847684644e-05 -1.728488020759e-08 6.046943706203e-04 0.000000000000e+00 2.492430239828e+07 2.227471802409e+07  5.932848480745e-04
1.800000000000e+01 1.418991762346e+06 1.000000000000e+00 5.564235493768e+01 4.499855086981e-04 7.332125667314e-03 -3.883477103155e+07 -1.075793540890e+04 -1.294418769025e+07 -2.329857148601e+07 2.178922317262e-05 -1.735053513215e-08 6.164591293522e-04 0.000000000000e+00 2.502584340261e+07 2.257110719771e+07  6.058584519218e-04
1.900000000000e+01 1.459538864391e+06 1.000000000000e+00 5.605943227539e+01 4.466799027020e-04 7.523150371227e-03 -3.905724876305e+07 -1.076150210848e+04 -1.282223104656e+07 -2.347401227838e+07 2.004213686206e-05 -1.761548995772e-08 6.275053198344e-04 0.000000000000e+00 2.511783069600e+07 2.285360531942e+07  6.177281498358e-04
2.000000000000e+01 1.499248947439e+06 1.000000000000e+00 5.644315823292e+01 4.432075831759e-04 7.703883907275e-03 -3.926289309787e+07 -1.077679725352e+04 -1.270514350350e+07 -2.363419090170e+07 1.835341043519e-05 -1.875170073236e-08 6.378037774429e-04 0.000000000000e+00 2.520074250102e+07 2.311942008055e+07  6.288279834306e-04
2.100000000000e+01 1.538044856172e+06 1.000000000000e+00 5.681807715739e+01 4.403857661598e-04 7.876599440745e-03 -3.946135808514e+07 -1.078243305143e+04 -1.259411471199e+07 -2.379106379877e+07 1.680856137027e-05 -1.917036000564e-08 6.477544115898e-04 0.000000000000e+00 2.528217886530e+07 2.337497867283e+07  6.395158221591e-04
2.200000000000e+01 1.576073708529e+06 1.000000000000e+00 5.717450172764e+01 4.378007933414e-04 8.041701858104e-03 -3.965032773744e+07 -1.078706243371e+04 -1.248662102094e+07 -2.393969314190e+07 1.531020703007e-05 -1.951425697462e-08 6.572675528597e-04 0.000000000000e+00 2.535888063343e+07 2.362059018258e+07  6.497477489884e-04
2.300000000000e+01 1.613406437984e+06 1.000000000000e+00 5.750972237819e+01 4.350731709734e-04 8.199477931237e-03 -3.982718143969e+07 -1.079892373182e+04 -1.238365533973e+07 -2.407862842872e+07 1.390180874219e-05 -2.039538197754e-08 6.662524459578e-04 0.000000000000e+00 2.542982173605e+07 2.385306208846e+07  6.594114566803e-04
2.400000000000e+01 1.650091232070e+06 1.000000000000e+00 5.782343461243e+01 4.322879829201e-04 8.350190714365e-03 -3.999316659108e+07 -1.080745180755e+04 -1.228374071625e+07 -2.420769165478e+07 1.253042294428e-05 -2.102889617462e-08 6.747573375123e-04 0.000000000000e+00 2.549486632070e+07 2.407462157614e+07  6.685801990253e-04
2.500000000000e+01 1.686180685897e+06 1.000000000000e+00 5.811604494253e+01 4.294802584585e-04 8.494101159580e-03 -4.014903946608e+07 -1.081572377602e+04 -1.218632169013e+07 -2.432708463714e+07 1.117545550358e-05 -2.164338526047e-08 6.828103549699e-04 0.000000000000e+00 2.555414859778e+07 2.428627870672e+07  6.772917807901e-04
2.600000000000e+01 1.721709347394e+06 1.000000000000e+00 5.838817848328e+01 4.266940439670e-04 8.631454638239e-03 -4.029561024573e+07 -1.082395142900e+04 -1.209095582633e+07 -2.443713624822e+07 9.819029242210e-06 -2.225458233914e-08 6.904401468939e-04 0.000000000000e+00 2.560790077343e+07 2.448900367925e+07  6.855833714958e-04
2.700000000000e+01 1.756706026883e+06 1.000000000000e+00 5.864051959178e+01 4.239403731185e-04 8.762485421086e-03 -4.043331413950e+07 -1.082965630409e+04 -1.199741729585e+07 -2.453814874471e+07 8.456205914721e-06 -2.267837306032e-08 6.976663278960e-04 0.000000000000e+00 2.565629339335e+07 2.468326519316e+07  6.934768950100e-04
2.800000000000e+01 1.791210254227e+06 1.000000000000e+00 5.887375096565e+01 4.212509009919e-04 8.887417666418e-03 -4.056274964404e+07 -1.083896179615e+04 -1.190535217210e+07 -2.463043440831e+07 7.076354679675e-06 -2.336963818438e-08 7.045136428544e-04 0.000000000000e+00 2.569951207482e+07 2.486979615369e+07  7.010022546244e-04
2.900000000000e+01 1.825247224266e+06 1.000000000000e+00 5.908853129358e+01 4.186394180964e-04 9.006457390626e-03 -4.068437894175e+07 -1.084955450066e+04 -1.181463155723e+07 -2.471432374997e+07 5.674584884044e-06 -2.415652480538e-08 7.109991555259e-04 0.000000000000e+00 2.573777808298e+07 2.504902934066e+07  7.081789157849e-04
3.000000000000e+01 1.858826997691e+06 1.000000000000e+00 5.928548729769e+01 4.160962648787e-04 9.119804552909e-03 -4.079835818020e+07 -1.085559796315e+04 -1.172517271787e+07 -2.479005814056e+07 4.254061963538e-06 -2.460546773326e-08 7.171349040669e-04 0.000000000000e+00 2.577119634621e+07 2.522109951269e+07  7.150173656439e-04
3.100000000000e+01 1.891867107987e+06 1.000000000000e+00 5.948315500541e+01 4.142006089849e-04 9.229010865936e-03 -4.091141894382e+07 -1.086544857918e+04 -1.163876687285e+07 -2.486677138259e+07 2.904011161418e-06 -2.533722778102e-08 7.231936130145e-04 0.000000000000e+00 2.580565239975e+07 2.538995555618e+07  7.217459904894e-04
3.200000000000e+01 1.924442697650e+06 1.000000000000e+00 5.967309829942e+01 4.125764731068e-04 9.334182642286e-03 -4.102089623803e+07 -1.087586567321e+04 -1.155380084459e+07 -2.494015191900e+07 1.563274443071e-06 -2.611106905164e-08 7.290750568449e-04 0.000000000000e+00 2.583828300054e+07 2.555479557318e+07  7.282946793588e-04
3.300000000000e+01 1.956581469878e+06 1.000000000000e+00 5.985249399110e+01 4.111184764199e-04 9.435378124439e-03 -4.112612257657e+07 -1.088630611955e+04 -1.146953833325e+07 -2.500877950368e+07 2.038921567115e-07 -2.688664506563e-08 7.347538318399e-04 0.000000000000e+00 2.586814680450e+07 2.571569072815e+07  7.346519084578e-04
3.400000000000e+01 1.988310332098e+06 1.000000000000e+00 6.002050707080e+01 4.097813724513e-04 9.532625325349e-03 -4.122687313148e+07 -1.089615678773e+04 -1.138589242780e+07 -2.507226631538e+07 -1.180189733830e-06 -2.761840898774e-08 7.402187613342e-04 0.000000000000e+00 2.589501062489e+07 2.587250464575e+07  7.408095628096e-04
3.500000000000e+01 2.019662816807e+06 1.000000000000e+00 6.017694315111e+01 4.086713723752e-04 9.625984983386e-03 -4.132419412400e+07 -1.090619156246e+04 -1.130183656110e+07 -2.513054966441e+07 -2.630159348975e-06 -2.836384939613e-08 7.455056464899e-04 0.000000000000e+00 2.591886011651e+07 2.602700611175e+07  7.468242013659e-04
3.600000000000e+01 2.050674490948e+06 1.000000000000e+00 6.032184477356e+01 4.079156673001e-04 9.715508729636e-03 -4.141932073407e+07 -1.091451779624e+04 -1.121631952031e+07 -2.518369945102e+07 -4.189298506281e-06 -2.898236962014e-08 7.506561286505e-04 0.000000000000e+00 2.593977990180e+07 2.618114873009e+07  7.527595225708e-04
3.700000000000e+01 2.081407831671e+06 1.000000000000e+00 6.045535759715e+01 4.079926836581e-04 9.801263029285e-03 -4.151665814092e+07 -1.090278010689e+04 -1.112564214902e+07 -2.523197842238e+07 -6.011468967647e-06 -2.811042698221e-08 7.558173642344e-04 0.000000000000e+00 2.595809290411e+07 2.634192554500e+07  7.588409588565e-04
3.800000000000e+01 2.113350428244e+06 1.000000000000e+00 6.057786748005e+01 4.238344027259e-04 9.883308946154e-03 -4.175030377111e+07 -1.026231275382e+04 -1.091457673320e+07 -2.528118330143e+07 -1.286212543818e-05 1.946714781664e-08 7.654845466155e-04 0.000000000000e+00 2.598202126858e+07 2.672521288202e+07  7.719959745843e-04
3.900000000000e+01 2.143157947788e+06 1.000000000000e+00 6.068911562213e+01 4.190100026859e-04 9.961831901392e-03 -4.179295523217e+07 -1.102594540922e+04 -1.086331760095e+07 -2.531708888443e+07 -1.311268662316e-05 -3.725984944152e-08 7.687220931817e-04 0.000000000000e+00 2.599112057252e+07 2.680493321807e+07  7.753616028469e-04
4.000000000000e+01 2.172544101843e+06 1.000000000000e+00 6.078943432377e+01 4.132875978230e-04 1.003677470398e-02 -4.182296831769e+07 -1.102445224697e+04 -1.082097843061e+07 -2.534805342688e+07 -1.307734679457e-05 -3.714892881690e-08 7.714448025140e-04 0.000000000000e+00 2.599733339173e+07 2.686617608441e+07  7.780659070287e-04
4.200000000000e+01 2.229827605392e+06 1.000000000000e+00 6.098757655460e+01 4.032643996037e-04 1.017712002353e-02 -4.188113928031e+07 -1.102413140558e+04 -1.074118203847e+07 -2.541017129073e+07 -1.293074760583e-05 -3.712509488501e-08 7.767159034507e-04 0.000000000000e+00 2.601083086984e+07 2.698304744102e+07  7.832613359222e-04
4.400000000000e+01 2.285593809494e+06 1.000000000000e+00 6.116288333508e+01 3.937611806397e-04 1.030795963089e-02 -4.193057553541e+07 -1.102351186296e+04 -1.066290631527e+07 -2.546214655638e+07 -1.283644149976e-05 -3.707907171941e-08 7.815537973224e-04 0.000000000000e+00 2.601854280235e+07 2.709146113002e+07  7.880504337048e-04
5.000000000000e+01 2.437116678573e+06 1.000000000000e+00 6.137887994117e+01 3.691585557194e-04 1.058166029392e-02 -4.197957699009e+07 -1.102306639541e+04 -1.045845563150e+07 -2.548892590694e+07 -1.366183393860e-05 -3.704597984380e-08 7.901423414548e-04 0.000000000000e+00 2.597565284284e+07 2.730785995459e+07  7.970610786133e-04
6.500000000000e+01 2.768502507756e+06 1.000000000000e+00 6.141736623214e+01 3.261402435177e-04 1.104599810116e-02 -4.189027273870e+07 -1.101875915702e+04 -9.951005444086e+06 -2.531917713776e+07 -1.664977317065e-05 -3.672601356340e-08 8.026855369890e-04 0.000000000000e+00 2.572015177352e+07 2.766676195742e+07  8.111385962970e-04
8.000000000000e+01 3.023556374630e+06 1.000000000000e+00 6.104694031263e+01 2.978491649405e-04 1.126636422141e-02 -4.168117435405e+07 -1.101707393869e+04 -9.568566376475e+06 -2.500884393974e+07 -2.040992338179e-05 -3.660082591636e-08 8.053637550023e-04 0.000000000000e+00 2.541952822342e+07 2.781716279612e+07  8.157602340129e-04
1.000000000000e+02 3.324236305531e+06 1.000000000000e+00 6.054170887125e+01 2.728705471205e-04 1.145085021123e-02 -4.140778917030e+07 -1.101513569649e+04 -9.160276932210e+06 -2.462446070066e+07 -2.453270829384e-05 -3.645684221016e-08 8.062516997663e-04 0.000000000000e+00 2.506417560106e+07 2.793495899128e+07  8.187937462520e-04
1.860000000000e+02 3.922717201764e+06 1.000000000000e+00 5.903012489566e+01 2.323840438872e-04 1.167017666484e-02 -4.062762387869e+07 -1.101036979361e+04 -8.243356079956e+06 -2.358052736043e+07 -3.432980724285e-05 -3.610280371003e-08 8.015340930700e-04 0.000000000000e+00 2.415050243969e+07 2.805863370533e+07  8.192386421811e-04
2.720000000000e+02 4.213038211969e+06 1.000000000000e+00 5.757488621182e+01 2.214364040262e-04 1.150208726321e-02 -4.003283294268e+07 -1.100976081820e+04 -7.899023855798e+06 -2.278666453269e+07 -4.172390607828e-05 -3.605756553669e-08 7.848372420799e-04 0.000000000000e+00 2.357284044372e+07 2.785367644918e+07  8.065090577109e-04
3.580000000000e+02 4.354403691727e+06 1.000000000000e+00 5.648574033373e+01 2.181171541873e-04 1.132619429457e-02 -3.959782754428e+07 -1.100916374724e+04 -7.695663718211e+06 -2.221234375636e+07 -4.689847725855e-05 -3.601321169446e-08 7.710587040695e-04 0.000000000000e+00 2.316861167295e+07 2.766530164182e+07  7.955453948576e-04
4.440000000000e+02 4.426532453840e+06 1.000000000000e+00 5.562775712185e+01 2.174016247171e-04 1.116160450166e-02 -3.926620960648e+07 -1.100706337652e+04 -7.573065127878e+06 -2.177470196338e+07 -5.083650616523e-05 -3.585718415517e-08 7.593570993997e-04 0.000000000000e+00 2.287132556591e+07 2.749632213870e+07  7.860093005113e-04
5.300000000000e+02 4.465496889446e+06 1.000000000000e+00 5.495287082362e+01 2.178000841423e-04 1.101895850557e-02 -3.901100973456e+07 -1.100773677383e+04 -7.495757112516e+06 -2.143798208118e+07 -5.386439226134e-05 -3.590720795503e-08 7.497218014887e-04 0.000000000000e+00 2.264824964275e+07 2.735332532651e+07  7.780536391865e-04
6.160000000000e+02 4.488012314786e+06 1.000000000000e+00 5.442978833274e+01 2.186666898994e-04 1.090073372843e-02 -3.881654960435e+07 -1.100688593140e+04 -7.447049976496e+06 -2.118142078927e+07 -5.617100683855e-05 -3.584400251775e-08 7.420015042700e-04 0.000000000000e+00 2.248167345671e+07 2.723671184044e+07  7.716219215219e-04
7.020000000000e+02 4.501822576458e+06 1.000000000000e+00 5.404171608217e+01 2.195287755210e-04 1.081004717799e-02 -3.867366279708e+07 -1.100731678607e+04 -7.415488762344e+06 -2.099288776071e+07 -5.786643791525e-05 -3.587600886465e-08 7.361711225917e-04 0.000000000000e+00 2.236067977338e+07 2.714801779504e+07  7.667437973643e-04
7.880000000000e+02 4.511441113274e+06 1.000000000000e+00 5.372922177347e+01 2.207458566160e-04 1.072832532746e-02 -3.856334149014e+07 -1.100701380346e+04 -7.404315526565e+06 -2.084681692062e+07 -5.919427771799e-05 -3.585350158468e-08 7.311606401460e-04 0.000000000000e+00 2.227149131244e+07 2.706900175917e+07  7.624830319810e-04
8.740000000000e+02 4.519827167133e+06 1.000000000000e+00 5.323953454171e+01 2.218300030906e-04 1.061279870181e-02 -3.838278652927e+07 -1.100752755952e+04 -7.364007342551e+06 -2.060869466676e+07 -6.133249145784e-05 -3.589166632075e-08 7.238132604087e-04 0.000000000000e+00 2.211849617953e+07 2.695835188844e+07  7.563468681284e-04
9.370000000000e+02 4.525201002276e+06 1.000000000000e+00 5.288417531801e+01 2.235755122357e-04 1.051784325529e-02 -3.825516961204e+07 -1.100762684073e+04 -7.348558278200e+06 -2.044115155872e+07 -6.281546425940e-05 -3.589904149646e-08 7.181640530717e-04 0.000000000000e+00 2.201495981632e+07 2.686982126068e+07  7.515432136270e-04
1.000000000000e+03 4.529391016052e+06 1.000000000000e+00 5.259531212533e+01 2.254174870882e-04 1.043834212905e-02 -3.814996165983e+07 -1.100783487987e+04 -7.335251695549e+06 -2.030433620915e+07 -6.398945330405e-05 -3.591449583261e-08 7.135765845861e-04 0.000000000000e+00 2.192984985484e+07 2.679748661782e+07  7.476279633692e-04
1.100000000000e+03 4.533536316160e+06 1.000000000000e+00 5.229971020815e+01 2.275760796766e-04 1.035516928447e-02 -3.804174154694e+07 -1.100717488051e+04 -7.322065571450e+06 -2.016431831950e+07 -6.517051358390e-05 -3.586546730830e-08 7.088656904371e-04 0.000000000000e+00 2.184270847930e+07 2.672288285239e+07  7.435959305203e-04
1.200000000000e+03 4.536797682875e+06 1.000000000000e+00 5.204965271686e+01 2.291979372965e-04 1.028605037796e-02 -3.795061226519e+07 -1.100764887121e+04 -7.310618689955e+06 -2.004589021522e+07 -6.618446984906e-05 -3.590067804641e-08 7.048921021623e-04 0.000000000000e+00 2.176904039012e+07 2.666060901226e+07  7.402068452054e-04
1.300000000000e+03 4.539703052077e+06 1.000000000000e+00 5.181069984558e+01 2.306878498496e-04 1.022026231453e-02 -3.786372422122e+07 -1.100749841351e+04 -7.299750823226e+06 -1.993279478584e+07 -6.715788702128e-05 -3.588950118855e-08 7.010950784068e-04 0.000000000000e+00 2.169875661010e+07 2.660140247281e+07  7.369725630486e-04
1.400000000000e+03 4.542442562524e+06 1.000000000000e+00 5.156544378992e+01 2.322525776781e-04 1.015228526878e-02 -3.777459707168e+07 -1.100770204215e+04 -7.288952847650e+06 -1.981684246800e+07 -6.815425041524e-05 -3.590462788745e-08 6.971893456942e-04 0.000000000000e+00 2.162679746244e+07 2.654057459360e+07  7.336446051870e-04
1.500000000000e+03 4.545082446453e+06 1.000000000000e+00 5.130381469185e+01 2.340127858607e-04 1.007889891437e-02 -3.767951283560e+07 -1.100735055291e+04 -7.277980757150e+06 -1.969332021931e+07 -6.921051945516e-05 -3.587851725827e-08 6.930089112469e-04 0.000000000000e+00 2.155027127069e+07 2.647543822563e+07  7.300787338823e-04
1.600000000000e+03 4.547643486991e+06 1.000000000000e+00 5.101967084497e+01 2.360414299700e-04 9.998129775095e-03 -3.757620454076e+07 -1.100727431068e+04 -7.266705380138e+06 -1.955935960154e+07 -7.034903430682e-05 -3.587285355011e-08 6.884520308760e-04 0.000000000000e+00 2.146742317415e+07 2.640437952025e+07  7.261867010931e-04
1.700000000000e+03 4.550130771773e+06 1.000000000000e+00 5.070922120887e+01 2.383842866160e-04 9.908756893519e-03 -3.746328235267e+07 -1.100706747468e+04 -7.255058130358e+06 -1.941319622563e+07 -7.158370699730e-05 -3.585748858951e-08 6.834557176197e-04 0.000000000000e+00 2.137717890288e+07 2.632644553235e+07  7.219142904442e-04
1.800000000000e+03 4.552544175198e+06 1.000000000000e+00 5.037017770211e+01 2.410681045746e-04 9.810043774172e-03 -3.733990454219e+07 -1.100765443834e+04 -7.242992234512e+06 -1.925376271316e+07 -7.292291878554e-05 -3.590109160443e-08 6.779820632880e-04 0.000000000000e+00 2.127888649662e+07 2.624111269761e+07  7.172292973870e-04
1.900000000000e+03 4.554883463307e+06 1.000000000000e+00 5.000125366953e+01 2.441082205862e-04 9.701572557452e-03 -3.720560077586e+07 -1.100797273689e+04 -7.230496742268e+06 -1.908046435025e+07 -7.437128951561e-05 -3.592473663969e-08 6.720093852346e-04 0.000000000000e+00 2.117218728946e+07 2.614813465273e+07  7.121136924437e-04
2.000000000000e+03 4.557147803229e+06 1.000000000000e+00 4.960184698452e+01 2.475119698166e-04 9.583152744682e-03 -3.706014818787e+07 -1.100749384096e+04 -7.217551756036e+06 -1.889301756393e+07 -7.593107402501e-05 -3.588916151309e-08 6.655278898029e-04 0.000000000000e+00 2.105690583594e+07 2.604747997140e+07  7.065600833889e-04