 TITLE = "Time curves in points"
 VARIABLES = "TIME"  "PRESSURE1"  "SATURATION1"  "TEMPERATURE1"  "DISPLACEMENT_X1"  "DISPLACEMENT_Y1"  "STRESS_XX"  "STRESS_XY"  "STRESS_YY"  "STRESS_ZZ"  "STRAIN_XX"  "STRAIN_XY"  "STRAIN_YY"  "STRAIN_PLS"  p_(1st_Invariant)  q_(2nd_Invariant)   Effective_Strain
 ZONE T="POINT=POINT8"
0.000000000000e+00 1.000000000000e+05 1.000000000000e+00 2.500000000000e+01 0.000000000000e+00 0.000000000000e+00 -1.862400571852e+07 -6.140100975330e+03 -1.726483383688e+07 -7.763601866620e+06 0.000000000000e+00 0.000000000000e+00 0.000000000000e+00 0.000000000000e+00 1.455081380734e+07 1.024864271960e+07  0.000000000000e+00
1.000000000000e-03 1.897522717761e+05 1.000000000000e+00 2.500000402545e+01 -5.596117502014e-05 6.276104966821e-05 -1.798545458275e+07 -4.874761709812e+03 -1.786865163364e+07 -7.753184009349e+06 2.333066463010e-05 9.399663115280e-08 -2.281446715000e-05 0.000000000000e+00 1.453576340858e+07 1.017437545637e+07  3.996402146070e-05
2.000000000000e-03 2.084844070581e+05 1.000000000000e+00 2.500004129614e+01 -5.272042484050e-05 6.217485346036e-05 -1.802063723638e+07 -5.126848580259e+03 -1.783416802879e+07 -7.753411890869e+06 2.203234452318e-05 7.527017791960e-08 -2.152518337051e-05 0.000000000000e+00 1.453607238535e+07 1.017527614074e+07  3.772300328798e-05
3.000000000000e-03 2.212358636005e+05 1.000000000000e+00 2.500021259078e+01 -4.945867990002e-05 6.169644816023e-05 -1.805966974232e+07 -5.229042037539e+03 -1.780122628531e+07 -7.755317178850e+06 2.065333357051e-05 6.767866395019e-08 -2.023086505907e-05 0.000000000000e+00 1.453873773549e+07 1.017759619471e+07  3.540757876928e-05
4.000000000000e-03 2.299404161370e+05 1.000000000000e+00 2.500074197247e+01 -4.612522128289e-05 6.118550802563e-05 -1.810217698603e+07 -5.278580449031e+03 -1.776922936396e+07 -7.758699517439e+06 1.920012280856e-05 6.399866766794e-08 -1.891677826135e-05 0.000000000000e+00 1.454336862248e+07 1.018109167160e+07  3.301069476551e-05
1.000000000000e-02 2.422636896225e+05 1.000000000000e+00 2.508100420461e+01 -3.554387850420e-05 5.838944874581e-05 -1.823726446351e+07 -5.330720526409e+03 -1.770407686528e+07 -7.809479217692e+06 1.606869108302e-05 6.012540477702e-08 -1.461072515815e-05 0.000000000000e+00 1.458360684883e+07 1.017168194683e+07  2.657935659543e-05
2.000000000000e-02 2.389194442018e+05 1.000000000000e+00 2.543889432663e+01 -1.566321459624e-05 5.657149404219e-05 -1.849634736422e+07 -5.366763982744e+03 -1.767477700559e+07 -8.007913466129e+06 1.381602685601e-05 5.744789087789e-08 -6.152029713142e-06 0.000000000000e+00 1.472634594531e+07 1.010273841570e+07  1.771261065438e-05
3.000000000000e-02 2.281317474452e+05 1.000000000000e+00 2.593499907333e+01 4.856923842692e-06 5.692660837932e-05 -1.876458677908e+07 -5.390338413461e+03 -1.770083002643e+07 -8.273905694884e+06 1.373255994341e-05 5.569664745315e-08 2.759998009271e-06 0.000000000000e+00 1.491310750013e+07 1.000132603024e+07  1.258206103364e-05
4.000000000000e-02 2.144253653967e+05 1.000000000000e+00 2.649268611841e+01 2.460845915795e-05 5.961001220242e-05 -1.902241335880e+07 -5.407222598493e+03 -1.775871219068e+07 -8.567223813841e+06 1.505081711495e-05 5.444239370793e-08 1.150476204143e-05 0.000000000000e+00 1.511611645444e+07 9.884117640772e+06  1.362862678129e-05
5.000000000000e-02 1.999260184664e+05 1.000000000000e+00 2.706394563609e+01 4.296326400956e-05 6.329500809184e-05 -1.926306275630e+07 -5.421638529265e+03 -1.783589328331e+07 -8.865251366659e+06 1.718200574113e-05 5.337149599343e-08 1.970763056243e-05 0.000000000000e+00 1.532140246876e+07 9.762783597955e+06  1.857428189071e-05
6.000000000000e-02 1.852654330480e+05 1.000000000000e+00 2.762301486876e+01 5.989625640654e-05 6.929526517847e-05 -1.948451578031e+07 -5.433021813754e+03 -1.791681487775e+07 -9.153807169761e+06 1.967439467903e-05 5.252588057420e-08 2.741975831274e-05 0.000000000000e+00 1.551837927594e+07 9.642917289714e+06  2.448399644199e-05
7.000000000000e-02 1.713197479364e+05 1.000000000000e+00 2.815767675716e+01 7.559040325184e-05 7.531316598617e-05 -1.969141321531e+07 -5.443970392624e+03 -1.799972057804e+07 -9.429604354344e+06 2.223352823475e-05 5.171255757249e-08 3.458429915816e-05 0.000000000000e+00 1.570691271590e+07 9.529260595306e+06  3.035589822062e-05
8.000000000000e-02 1.587386335393e+05 1.000000000000e+00 2.866318602226e+01 9.018089254778e-05 8.211515143921e-05 -1.988435376152e+07 -5.453035442707e+03 -1.807838564062e+07 -9.689398999134e+06 2.471668046789e-05 5.103915385202e-08 4.131196935426e-05 0.000000000000e+00 1.588404613376e+07 9.422682705721e+06  3.600702951142e-05
9.000000000000e-02 1.484204296669e+05 1.000000000000e+00 2.913867303407e+01 1.037936871107e-04 8.830275642543e-05 -2.006657092584e+07 -5.462789241043e+03 -1.815546302316e+07 -9.934733452655e+06 2.706103692386e-05 5.031458597563e-08 4.756151770493e-05 0.000000000000e+00 1.605225580055e+07 9.324350854685e+06  4.131998661297e-05
1.000000000000e-01 1.413689395457e+05 1.000000000000e+00 2.958516568313e+01 1.165225240411e-04 9.384219598267e-05 -2.023917040394e+07 -5.468788202775e+03 -1.823047191879e+07 -1.016621533525e+07 2.924809766211e-05 4.986894881840e-08 5.337337150670e-05 0.000000000000e+00 1.621195255266e+07 9.233951134568e+06  4.629369159180e-05
2.000000000000e-01 1.609113465756e+05 1.000000000000e+00 3.249981870886e+01 1.831283080726e-04 1.886690279740e-04 -2.112805342080e+07 -5.507590793761e+03 -1.871037583532e+07 -1.160055802568e+07 4.950802839476e-05 4.698647063086e-08 8.882395453725e-05 0.000000000000e+00 1.714632909393e+07 8.578112400144e+06  7.709246094783e-05
3.000000000000e-01 1.897684167318e+05 1.000000000000e+00 3.456723702577e+01 2.306958548897e-04 2.983397462564e-04 -2.177054835884e+07 -5.526599680879e+03 -1.893757110289e+07 -1.258670839309e+07 6.227237291436e-05 4.557438187351e-08 1.170137153883e-04 0.000000000000e+00 1.776494261827e+07 8.145622047080e+06  1.014068169685e-04
4.000000000000e-01 2.191248737762e+05 1.000000000000e+00 3.613366903686e+01 2.667535747467e-04 4.037684800662e-04 -2.228078449038e+07 -5.533147103780e+03 -1.906103967339e+07 -1.332593839294e+07 7.077785945164e-05 4.508800188660e-08 1.398848541927e-04 0.000000000000e+00 1.822258751890e+07 7.856449443184e+06  1.211467431275e-04
5.000000000000e-01 2.469765835129e+05 1.000000000000e+00 3.737981490638e+01 2.961391974780e-04 5.061874591250e-04 -2.271502571390e+07 -5.530867743212e+03 -1.910963280204e+07 -1.390744261287e+07 7.624762788969e-05 4.525732581447e-08 1.596786947263e-04 0.000000000000e+00 1.857736704294e+07 7.669268036705e+06  1.383324645756e-04
6.000000000000e-01 2.728380511316e+05 1.000000000000e+00 3.840699932436e+01 3.198769843936e-04 6.060509176315e-04 -2.308376731406e+07 -5.531010314457e+03 -1.912035938126e+07 -1.438110673201e+07 8.014475002292e-05 4.524673480773e-08 1.768735176372e-04 0.000000000000e+00 1.886174447578e+07 7.546707986737e+06  1.534012531979e-04
7.000000000000e-01 2.968189504268e+05 1.000000000000e+00 3.927684797067e+01 3.392647545785e-04 7.035406850157e-04 -2.340351444788e+07 -5.530839426457e+03 -1.910945420265e+07 -1.477840446278e+07 8.302520076684e-05 4.525942934490e-08 1.920353399857e-04 0.000000000000e+00 1.909712437110e+07 7.469593397072e+06  1.668142357667e-04
8.000000000000e-01 3.191955069579e+05 1.000000000000e+00 4.002870654053e+01 3.552570888370e-04 7.988239918582e-04 -2.368460793281e+07 -5.535425541896e+03 -1.908307440443e+07 -1.511809753260e+07 8.520175677702e-05 4.491874648369e-08 2.056323322272e-04 0.000000000000e+00 1.929525995661e+07 7.425645988383e+06  1.789518524974e-04
9.000000000000e-01 3.400202934397e+05 1.000000000000e+00 4.068907690810e+01 3.687103449671e-04 8.918644838996e-04 -2.393738184626e+07 -5.543169523290e+03 -1.904471003139e+07 -1.541363184865e+07 8.679000030246e-05 4.434347929441e-08 2.180342835363e-04 0.000000000000e+00 1.946524124210e+07 7.408693023712e+06  1.901269663005e-04
1.000000000000e+00 3.594526905246e+05 1.000000000000e+00 4.127662943239e+01 3.801170426454e-04 9.827210439670e-04 -2.416747841269e+07 -5.553032349962e+03 -1.899787855557e+07 -1.567430375147e+07 8.792565565388e-05 4.361081217020e-08 2.294558376000e-04 0.000000000000e+00 1.961322023991e+07 7.412999157029e+06  2.005139722613e-04
2.000000000000e+00 4.898300370408e+05 1.000000000000e+00 4.458659385047e+01 4.221550625185e-04 1.735942278498e-03 -2.560655640645e+07 -5.627451144249e+03 -1.833918530517e+07 -1.706655238140e+07 8.618627928310e-05 3.808255888029e-08 3.056336788696e-04 0.000000000000e+00 2.033743136434e+07 7.980167167407e+06  2.729443077653e-04
3.000000000000e+00 5.912502393109e+05 1.000000000000e+00 4.679648586261e+01 4.400339733785e-04 2.378635208590e-03 -2.670135690458e+07 -5.555399252460e+03 -1.765316860821e+07 -1.796201779412e+07 7.878240468203e-05 4.343498512747e-08 3.643744429433e-04 0.000000000000e+00 2.077218110230e+07 8.897789965173e+06  3.320679340101e-04
4.000000000000e+00 6.763376842059e+05 1.000000000000e+00 4.845563679296e+01 4.485794086896e-04 2.938977839141e-03 -2.760154792696e+07 -5.433175229711e+03 -1.700257094293e+07 -1.861689669411e+07 6.967081156477e-05 5.251448396028e-08 4.128635725106e-04 0.000000000000e+00 2.107367185467e+07 9.891119644189e+06  3.828130347850e-04
5.000000000000e+00 7.512946355432e+05 1.000000000000e+00 4.980826726303e+01 4.538873375922e-04 3.436309460672e-03 -2.838047001018e+07 -5.285326070006e+03 -1.640429108613e+07 -1.914383860981e+07 6.031154819960e-05 6.349756439550e-08 4.546575240605e-04 0.000000000000e+00 2.130953323537e+07 1.086852127683e+07  4.277030043736e-04
6.000000000000e+00 8.193404637507e+05 1.000000000000e+00 5.098668253450e+01 4.584013232734e-04 3.885063676068e-03 -2.907698946977e+07 -5.156998905502e+03 -1.586129134770e+07 -1.960176324966e+07 5.144945489488e-05 7.303043947297e-08 4.918347152536e-04 0.000000000000e+00 2.151334802238e+07 1.179885330007e+07  4.682347931751e-04
7.000000000000e+00 8.825714157559e+05 1.000000000000e+00 5.199331978804e+01 4.608160795753e-04 4.292289820438e-03 -2.968229339320e+07 -5.053050232504e+03 -1.536884800239e+07 -1.998733596971e+07 4.328801019819e-05 8.075234089563e-08 5.244467405385e-04 0.000000000000e+00 2.167949245510e+07 1.265301352847e+07  5.041983728637e-04
8.000000000000e+00 9.416537060918e+05 1.000000000000e+00 5.293566927960e+01 4.637675696048e-04 4.667718465572e-03 -3.024217098120e+07 -4.975905067617e+03 -1.492459074545e+07 -2.035138415410e+07 3.601434663544e-05 8.648312457297e-08 5.544695140738e-04 0.000000000000e+00 2.183938196025e+07 1.345188023282e+07  5.373682539565e-04
9.000000000000e+00 9.976178889083e+05 1.000000000000e+00 5.379586488110e+01 4.661004904682e-04 5.015838819203e-03 -3.075077988136e+07 -4.910742492818e+03 -1.452033719161e+07 -2.068332113622e+07 2.945224682245e-05 9.132377298659e-08 5.818137339807e-04 0.000000000000e+00 2.198481273640e+07 1.419090397551e+07  5.676609544558e-04
1.000000000000e+01 1.050959049152e+06 1.000000000000e+00 5.457935807192e+01 4.683051293869e-04 5.340012753409e-03 -3.122010673189e+07 -4.855359660878e+03 -1.414179210921e+07 -2.098435238163e+07 2.320126720373e-05 9.543792621641e-08 6.070551404421e-04 0.000000000000e+00 2.211541707425e+07 1.488724739498e+07  5.957934383168e-04
1.100000000000e+01 1.101971525748e+06 1.000000000000e+00 5.531115847719e+01 4.700306948583e-04 5.643853450795e-03 -3.165109616783e+07 -4.853780090278e+03 -1.379406414912e+07 -2.126507987871e+07 1.762010947512e-05 9.555526574671e-08 6.303977717087e-04 0.000000000000e+00 2.223674673189e+07 1.553317649841e+07  6.217750143543e-04
1.200000000000e+01 1.151043677121e+06 1.000000000000e+00 5.598519287632e+01 4.712806545835e-04 5.929338257994e-03 -3.204828711497e+07 -4.819872639275e+03 -1.346978532507e+07 -2.152248920340e+07 1.242822064092e-05 9.807410496406e-08 6.520033315187e-04 0.000000000000e+00 2.234685388114e+07 1.613690381658e+07  6.458789302746e-04
1.300000000000e+01 1.198431142852e+06 1.000000000000e+00 5.660414097440e+01 4.723962740530e-04 6.198059147481e-03 -3.241849826072e+07 -4.797390742178e+03 -1.316086189420e+07 -2.175713231915e+07 7.392836669629e-06 9.974418874846e-08 6.721929461075e-04 0.000000000000e+00 2.244549749136e+07 1.670953747824e+07  6.685272081347e-04
1.400000000000e+01 1.244848089696e+06 1.000000000000e+00 5.717202786384e+01 4.734086346334e-04 6.451553522649e-03 -3.276425483814e+07 -4.780551178303e+03 -1.286465388749e+07 -2.197038297645e+07 2.471188207789e-06 1.009951277792e-07 6.911156964852e-04 0.000000000000e+00 2.253309723402e+07 1.725422016675e+07  6.898834440252e-04
1.500000000000e+01 1.289842830218e+06 1.000000000000e+00 5.769272757371e+01 4.737396677237e-04 6.690758540074e-03 -3.308101892570e+07 -4.798837114823e+03 -1.258850593889e+07 -2.216443882572e+07 -2.086546357009e-06 9.963674392343e-08 7.085804089776e-04 0.000000000000e+00 2.261132123010e+07 1.775969366881e+07  7.096260038330e-04
1.600000000000e+01 1.333555268483e+06 1.000000000000e+00 5.816975980579e+01 4.737006400408e-04 6.916685890503e-03 -3.337367829201e+07 -4.805758417433e+03 -1.232651814024e+07 -2.234022806060e+07 -6.427436953043e-06 9.912259001524e-08 7.248406987942e-04 0.000000000000e+00 2.268014149762e+07 1.823450711431e+07  7.280757158034e-04
1.700000000000e+01 1.376119091317e+06 1.000000000000e+00 5.860621954810e+01 4.736378384398e-04 7.130223434664e-03 -3.364785026014e+07 -4.809328871083e+03 -1.207356542636e+07 -2.249898154821e+07 -1.071440908678e-05 9.885735631550e-08 7.401326434209e-04 0.000000000000e+00 2.274013241157e+07 1.868738183556e+07  7.455476119321e-04
1.800000000000e+01 1.417665494257e+06 1.000000000000e+00 5.900482333236e+01 4.735938238802e-04 7.332159339686e-03 -3.390511867708e+07 -4.820259006763e+03 -1.182826470385e+07 -2.264171025743e+07 -1.496874108779e-05 9.804540337931e-08 7.545451651713e-04 0.000000000000e+00 2.279169787945e+07 1.912044187164e+07  7.621398097123e-04
1.900000000000e+01 1.458284177490e+06 1.000000000000e+00 5.936796184715e+01 4.736168000765e-04 7.523184618348e-03 -3.414724701819e+07 -4.835819288990e+03 -1.158967879793e+07 -2.276949877384e+07 -1.921564886211e-05 9.688949669958e-08 7.681533580005e-04 0.000000000000e+00 2.283547486332e+07 1.953567959053e+07  7.779392109483e-04
2.000000000000e+01 1.498058933073e+06 1.000000000000e+00 5.969774740413e+01 4.733680286446e-04 7.703917600073e-03 -3.437112129470e+07 -4.886056114552e+03 -1.136162199725e+07 -2.288329645722e+07 -2.330420803590e-05 9.315761822925e-08 7.808508102656e-04 0.000000000000e+00 2.287201324972e+07 1.992681990458e+07  7.927598689182e-04
2.100000000000e+01 1.536914098402e+06 1.000000000000e+00 6.002784237796e+01 4.734978483828e-04 7.876633181907e-03 -3.458735029801e+07 -4.907305244895e+03 -1.114750927205e+07 -2.299915822948e+07 -2.703213376027e-05 9.157911140373e-08 7.931070058856e-04 0.000000000000e+00 2.291133926651e+07 2.029992697326e+07  8.069627369774e-04
2.200000000000e+01 1.575000746812e+06 1.000000000000e+00 6.034057872358e+01 4.737700973367e-04 8.041737469418e-03 -3.479412321555e+07 -4.932682034341e+03 -1.094030389828e+07 -2.310818561100e+07 -3.066268224149e-05 8.969397847349e-08 8.048527939389e-04 0.000000000000e+00 2.294753757494e+07 2.065942067292e+07  8.206139101918e-04
2.300000000000e+01 1.612388172488e+06 1.000000000000e+00 6.063232558030e+01 4.737609788808e-04 8.199513134732e-03 -3.498691287669e+07 -4.968987565382e+03 -1.074253669724e+07 -2.320850414727e+07 -3.409732402220e-05 8.699699616762e-08 8.159245498964e-04 0.000000000000e+00 2.297931790707e+07 2.099906165926e+07  8.334964697526e-04
2.400000000000e+01 1.649122696109e+06 1.000000000000e+00 6.090262542673e+01 4.736538665615e-04 8.350226725205e-03 -3.516841132298e+07 -4.997967908617e+03 -1.055100277584e+07 -2.329979918606e+07 -3.744773630074e-05 8.484417067016e-08 8.264296255604e-04 0.000000000000e+00 2.300640442830e+07 2.132384483883e+07  8.457755016804e-04
2.500000000000e+01 1.685258508133e+06 1.000000000000e+00 6.115184454688e+01 4.735018847406e-04 8.494138638368e-03 -3.533979193647e+07 -5.031751646638e+03 -1.036485304887e+07 -2.338229604434e+07 -4.074913292256e-05 8.233452156003e-08 8.364079272985e-04 0.000000000000e+00 2.302898034323e+07 2.163542528471e+07  8.575089683645e-04
2.600000000000e+01 1.720830930678e+06 1.000000000000e+00 6.138059466342e+01 4.732942534425e-04 8.631491846346e-03 -3.550137323978e+07 -5.061948399099e+03 -1.018414117255e+07 -2.345632041956e+07 -4.400124739449e-05 8.009133423434e-08 8.458695594987e-04 0.000000000000e+00 2.304727827730e+07 2.193395122513e+07  8.687063695252e-04
2.700000000000e+01 1.755869154182e+06 1.000000000000e+00 6.158955581002e+01 4.731059968670e-04 8.762525892645e-03 -3.565429329688e+07 -5.091285359960e+03 -1.000746538085e+07 -2.352203119314e+07 -4.724044935393e-05 7.791201714182e-08 8.548724890661e-04 0.000000000000e+00 2.306126329029e+07 2.222155721963e+07  8.794448313293e-04
2.800000000000e+01 1.790413798117e+06 1.000000000000e+00 6.177940892914e+01 4.729848595498e-04 8.887456986101e-03 -3.579942407863e+07 -5.121103888736e+03 -9.834020319724e+06 -2.357968666915e+07 -5.048953213855e-05 7.569692643273e-08 8.634562233026e-04 0.000000000000e+00 2.307104368917e+07 2.249964083562e+07  8.897760169516e-04
2.900000000000e+01 1.824490651884e+06 1.000000000000e+00 6.195081186402e+01 4.729523999684e-04 9.006496198576e-03 -3.593739755002e+07 -5.154669037924e+03 -9.663504657554e+06 -2.362961627520e+07 -5.375973285110e-05 7.320351535018e-08 8.716441904078e-04 0.000000000000e+00 2.307683949426e+07 2.276896309424e+07  8.997294473572e-04
3.000000000000e+01 1.858108449564e+06 1.000000000000e+00 6.210439119759e+01 4.729923606163e-04 9.119843989728e-03 -3.606817460955e+07 -5.181426990569e+03 -9.495760458913e+06 -2.367198020058e+07 -5.704364926259e-05 7.121578172509e-08 8.794482064429e-04 0.000000000000e+00 2.307863842301e+07 2.302959179909e+07  9.093129692162e-04
3.100000000000e+01 1.891186849834e+06 1.000000000000e+00 6.226590502672e+01 4.735301284197e-04 9.229051927764e-03 -3.619885083575e+07 -5.217723734267e+03 -9.335159259228e+06 -2.371928617336e+07 -6.014025867527e-05 6.851945219330e-08 8.871704728486e-04 0.000000000000e+00 2.308443208944e+07 2.328412259149e+07  9.187181147767e-04
3.200000000000e+01 1.923803508599e+06 1.000000000000e+00 6.242060102855e+01 4.743084115814e-04 9.334224476269e-03 -3.632665456910e+07 -5.252381295947e+03 -9.176867321397e+06 -2.376404146738e+07 -6.322491499314e-05 6.594489046845e-08 8.947122271747e-04 0.000000000000e+00 2.308918778596e+07 2.353418801052e+07  9.279415266516e-04
3.300000000000e+01 1.955985196901e+06 1.000000000000e+00 6.256492306584e+01 4.752643149865e-04 9.435420695489e-03 -3.645102325789e+07 -5.287828381078e+03 -9.019677647526e+06 -2.380446679341e+07 -6.634281132414e-05 6.331167843016e-08 9.020522128852e-04 0.000000000000e+00 2.309172256627e+07 2.378028879407e+07  9.369867956245e-04
3.400000000000e+01 1.987757367210e+06 1.000000000000e+00 6.269791394810e+01 4.763572120165e-04 9.532667366756e-03 -3.657160006690e+07 -5.319397958021e+03 -8.863514579895e+06 -2.384009686223e+07 -6.949797596005e-05 6.096650985729e-08 9.091759579534e-04 0.000000000000e+00 2.309173716968e+07 2.402214979807e+07  9.458418425947e-04
3.500000000000e+01 2.019156671974e+06 1.000000000000e+00 6.281934767946e+01 4.777598819817e-04 9.626029276045e-03 -3.669060336103e+07 -5.356603002151e+03 -8.706097138668e+06 -2.387083366407e+07 -7.277644567364e-05 5.820270657904e-08 9.161645441245e-04 0.000000000000e+00 2.308917805459e+07 2.426364038677e+07  9.546355808852e-04
3.600000000000e+01 2.050221244270e+06 1.000000000000e+00 6.292925655316e+01 4.796690250144e-04 9.715554390953e-03 -3.681054112831e+07 -5.389056936604e+03 -8.544963117847e+06 -2.389670219744e+07 -7.627044579031e-05 5.579184287678e-08 9.231103532802e-04 0.000000000000e+00 2.308406881453e+07 2.450904122174e+07  9.635123002488e-04
3.700000000000e+01 2.081022622880e+06 1.000000000000e+00 6.302778449203e+01 4.828113983976e-04 9.801305623561e-03 -3.694060245769e+07 -5.350574986546e+03 -8.371639384275e+06 -2.391796762228e+07 -8.031143653023e-05 5.865050202400e-08 9.303379505926e-04 0.000000000000e+00 2.307673648808e+07 2.477360654610e+07  9.729827422625e-04
3.800000000000e+01 2.113330364229e+06 1.000000000000e+00 6.311537564157e+01 5.099146202607e-04 9.883303610988e-03 -3.736445317830e+07 -3.282725282336e+03 -7.921188671793e+06 -2.394040434621e+07 -9.522109926412e-05 2.122621943367e-07 9.479023410880e-04 0.000000000000e+00 2.307534873210e+07 2.553161028341e+07  9.989225916278e-04
3.900000000000e+01 2.143157947788e+06 1.000000000000e+00 6.319159883550e+01 5.055422806712e-04 9.961884704299e-03 -3.738978339831e+07 -5.751877200404e+03 -7.838271629030e+06 -2.394956551125e+07 -9.582166416312e-05 2.883948042312e-08 9.513223888062e-04 0.000000000000e+00 2.305920684620e+07 2.562718569962e+07  1.002673115084e-03
4.000000000000e+01 2.172544101843e+06 1.000000000000e+00 6.325687785189e+01 4.997992559642e-04 1.003682744284e-02 -3.739415887994e+07 -5.750395874139e+03 -7.775863783154e+06 -2.395476249708e+07 -9.579115114962e-05 2.894952180279e-08 9.538334254126e-04 0.000000000000e+00 2.304159505339e+07 2.568674504072e+07  1.005158172833e-03
4.200000000000e+01 2.229827605392e+06 1.000000000000e+00 6.339719070174e+01 4.895955086763e-04 1.017717347556e-02 -3.740534508709e+07 -5.750918785459e+03 -7.661513416059e+06 -2.397252765324e+07 -9.554679018668e-05 2.891067696188e-08 9.587405734192e-04 0.000000000000e+00 2.301312871880e+07 2.579908419470e+07  1.009909532163e-03
4.400000000000e+01 2.285593809495e+06 1.000000000000e+00 6.351556358873e+01 4.800019343410e-04 1.030801264807e-02 -3.741130606018e+07 -5.750244447064e+03 -7.549390127310e+06 -2.398171868189e+07 -9.542681669433e-05 2.896077067121e-08 9.632465337798e-04 0.000000000000e+00 2.298080495646e+07 2.590472409089e+07  1.014332152261e-03
5.000000000000e+01 2.437116678573e+06 1.000000000000e+00 6.356115187483e+01 4.568236910634e-04 1.058171209287e-02 -3.737025780333e+07 -5.748284053939e+03 -7.248729052791e+06 -2.389399010864e+07 -9.716065701761e-05 2.910639987478e-08 9.711554552554e-04 0.000000000000e+00 2.283765898825e+07 2.613408884123e+07  1.023201454350e-03
6.500000000000e+01 2.768502507756e+06 1.000000000000e+00 6.327264371380e+01 4.187164996315e-04 1.104605064299e-02 -3.715390035513e+07 -5.746164768331e+03 -6.544103293648e+06 -2.351447627286e+07 -1.032207514137e-04 2.926383251993e-08 9.832310409804e-04 0.000000000000e+00 2.240415997388e+07 2.656113064805e+07  1.038695168422e-03
8.000000000000e+01 3.023556374630e+06 1.000000000000e+00 6.265086950878e+01 3.964375103259e-04 1.126641647609e-02 -3.689823087174e+07 -5.744780242353e+03 -6.012843200760e+06 -2.305905370068e+07 -1.106401518544e-04 2.936668302116e-08 9.860478631778e-04 0.000000000000e+00 2.199004259106e+07 2.679555454530e+07  1.045766761561e-03
1.000000000000e+02 3.324236305531e+06 1.000000000000e+00 6.190767060370e+01 3.780302329496e-04 1.145090170202e-02 -3.659973031079e+07 -5.742564709242e+03 -5.458655632829e+06 -2.254149903088e+07 -1.187764473261e-04 2.953126548082e-08 9.874085136800e-04 0.000000000000e+00 2.153329499150e+07 2.701133220745e+07  1.051838530982e-03
1.860000000000e+02 3.922717201764e+06 1.000000000000e+00 5.994700809414e+01 3.530988911527e-04 1.167022925305e-02 -3.584128108160e+07 -5.740854355355e+03 -4.250913320787e+06 -2.126233665687e+07 -1.381172212763e-04 2.965832034102e-08 9.847557685212e-04 0.000000000000e+00 2.045151035308e+07 2.738508423820e+07  1.060580983929e-03
2.720000000000e+02 4.213038211969e+06 1.000000000000e+00 5.827378534171e+01 3.537050596428e-04 1.150213989135e-02 -3.535057472769e+07 -5.740464675890e+03 -3.781084950628e+06 -2.038705622863e+07 -1.524014011799e-04 2.968726795839e-08 9.696961206497e-04 0.000000000000e+00 1.983957196898e+07 2.735231297769e+07  1.054191540297e-03
3.580000000000e+02 4.354403691727e+06 1.000000000000e+00 5.705890390728e+01 3.584460733265e-04 1.132624656880e-02 -3.500740249169e+07 -5.739464367055e+03 -3.505880932287e+06 -1.977547450465e+07 -1.623708964477e-04 2.976157661470e-08 9.572020915831e-04 0.000000000000e+00 1.942958597621e+07 2.728605287888e+07  1.047865409532e-03
4.440000000000e+02 4.426532453840e+06 1.000000000000e+00 5.611635431592e+01 3.638474767536e-04 1.116165724882e-02 -3.475377290649e+07 -5.738179259977e+03 -3.337272828727e+06 -1.931833213659e+07 -1.699299426685e-04 2.985704171198e-08 9.464851046159e-04 0.000000000000e+00 1.913645929060e+07 2.720885667443e+07  1.041895580619e-03
5.300000000000e+02 4.465496889446e+06 1.000000000000e+00 5.538231376722e+01 3.689403105345e-04 1.101901037009e-02 -3.456278383569e+07 -5.737461806842e+03 -3.229158513213e+06 -1.897128214102e+07 -1.757264913028e-04 2.991033823053e-08 9.376103507851e-04 0.000000000000e+00 1.892107482997e+07 2.713582184832e+07  1.036704369375e-03
6.160000000000e+02 4.488012314786e+06 1.000000000000e+00 5.481765606841e+01 3.733775487293e-04 1.090078660160e-02 -3.441975485980e+07 -5.737957565376e+03 -3.159712802114e+06 -1.870962506947e+07 -1.801326777128e-04 2.987351045371e-08 9.304710716829e-04 0.000000000000e+00 1.876303091046e+07 2.707211089428e+07  1.032391614249e-03
7.020000000000e+02 4.501822576458e+06 1.000000000000e+00 5.440041979532e+01 3.768615044338e-04 1.081009936691e-02 -3.431567801712e+07 -5.737446007234e+03 -3.114018790831e+06 -1.851846159966e+07 -1.833673238634e-04 2.991151191576e-08 9.250679203660e-04 0.000000000000e+00 1.864938613587e+07 2.702214499973e+07  1.029077968079e-03
7.880000000000e+02 4.511441113274e+06 1.000000000000e+00 5.406843927210e+01 3.801253299646e-04 1.072837786655e-02 -3.423821901251e+07 -5.737314181555e+03 -3.094864492903e+06 -1.837315110264e+07 -1.858875221532e-04 2.992130468045e-08 9.203821186854e-04 0.000000000000e+00 1.856874486935e+07 2.697253371254e+07  1.026033610293e-03
8.740000000000e+02 4.519827167133e+06 1.000000000000e+00 5.354181640403e+01 3.845180642142e-04 1.061285060907e-02 -3.410661472378e+07 -5.736986050645e+03 -3.036614947185e+06 -1.813162381311e+07 -1.899703764683e-04 2.994568011949e-08 9.135746596296e-04 0.000000000000e+00 1.842495116136e+07 2.691100807155e+07  1.021890173827e-03
9.370000000000e+02 4.525201002277e+06 1.000000000000e+00 5.316712255178e+01 3.885490749922e-04 1.051789575144e-02 -3.401730952097e+07 -5.737440436845e+03 -3.012911788607e+06 -1.796644609478e+07 -1.927884984737e-04 2.991192571604e-08 9.083198902673e-04 0.000000000000e+00 1.833222246812e+07 2.685620301930e+07  1.018492051349e-03
1.000000000000e+03 4.529391016052e+06 1.000000000000e+00 5.286584965629e+01 3.921991751753e-04 1.043839416326e-02 -3.394438301088e+07 -5.737109512728e+03 -2.994160797982e+06 -1.783341247847e+07 -1.950210481328e-04 2.993650865047e-08 9.040751070279e-04 0.000000000000e+00 1.825731876244e+07 2.681122166600e+07  1.015725694277e-03
1.100000000000e+03 4.533536316160e+06 1.000000000000e+00 5.255967195153e+01 3.961768001377e-04 1.035522161126e-02 -3.386995326587e+07 -5.737234561567e+03 -2.976337038902e+06 -1.769850198609e+07 -1.972674758924e-04 2.992721930816e-08 8.997261712195e-04 0.000000000000e+00 1.818159743029e+07 2.676446990229e+07  1.012871341139e-03
1.200000000000e+03 4.536797682874e+06 1.000000000000e+00 5.229905566997e+01 3.993606055558e-04 1.028610231593e-02 -3.380684192299e+07 -5.736625787337e+03 -2.960264119384e+06 -1.758345875390e+07 -1.991963746382e-04 2.997244253666e-08 8.960501310346e-04 0.000000000000e+00 1.811685493209e+07 2.672590075579e+07  1.010482544771e-03
1.300000000000e+03 4.539703052077e+06 1.000000000000e+00 5.204954421879e+01 4.023502583904e-04 1.022031458734e-02 -3.374656657215e+07 -5.737253027815e+03 -2.944794238479e+06 -1.747333389036e+07 -2.010479279673e-04 2.992584752968e-08 8.925343745366e-04 0.000000000000e+00 1.805489823366e+07 2.668937937386e+07  1.008206362009e-03
1.400000000000e+03 4.542442562524e+06 1.000000000000e+00 5.179372965818e+01 4.054498445937e-04 1.015233721332e-02 -3.368485574741e+07 -5.736793685114e+03 -2.929426037210e+06 -1.736060278429e+07 -2.029429669880e-04 2.995997013034e-08 8.889180380725e-04 0.000000000000e+00 1.799162818963e+07 2.665179873135e+07  1.005863207901e-03
1.500000000000e+03 4.545082446453e+06 1.000000000000e+00 5.152154209752e+01 4.088368861783e-04 1.007895106654e-02 -3.361927368936e+07 -5.736947636739e+03 -2.913941811909e+06 -1.724094494177e+07 -2.049514961259e-04 2.994853372394e-08 8.850487322899e-04 0.000000000000e+00 1.792472014768e+07 2.661137232864e+07  1.003348612801e-03
1.600000000000e+03 4.547643486991e+06 1.000000000000e+00 5.122683981314e+01 4.126188149560e-04 9.998182087257e-03 -3.354833499146e+07 -5.736852572887e+03 -2.898217536255e+06 -1.711172793324e+07 -2.071161190918e-04 2.995559561004e-08 8.808332879263e-04 0.000000000000e+00 1.785276015365e+07 2.656704562874e+07  1.000599391745e-03
1.700000000000e+03 4.550130771773e+06 1.000000000000e+00 5.090583175429e+01 4.168617922830e-04 9.908808615298e-03 -3.347112775512e+07 -5.735736713127e+03 -2.882192396285e+06 -1.697133307934e+07 -2.094630877438e-04 3.003848804941e-08 8.762138414088e-04 0.000000000000e+00 1.777488441025e+07 2.651820387308e+07  9.975770348479e-04
1.800000000000e+03 4.552544175197e+06 1.000000000000e+00 5.055622983281e+01 4.216062725719e-04 9.810096060797e-03 -3.338710434483e+07 -5.736847728758e+03 -2.865829432105e+06 -1.681878417197e+07 -2.120083204928e-04 2.995595545967e-08 8.711555063760e-04 0.000000000000e+00 1.769057264964e+07 2.646452908225e+07  9.942593538580e-04
1.900000000000e+03 4.554883463306e+06 1.000000000000e+00 5.017674738919e+01 4.268733813526e-04 9.701624396664e-03 -3.329595100640e+07 -5.736514080745e+03 -2.849113713445e+06 -1.665353227587e+07 -2.147605526349e-04 2.998074074063e-08 8.656384483566e-04 0.000000000000e+00 1.759953233190e+07 2.640589111958e+07  9.906346513670e-04
2.000000000000e+03 4.557147803229e+06 1.000000000000e+00 4.976678229369e+01 4.326760785357e-04 9.583205159019e-03 -3.319753498271e+07 -5.736991755551e+03 -2.832034523996e+06 -1.647532360422e+07 -2.177242795587e-04 2.994525632646e-08 8.596536390180e-04 0.000000000000e+00 1.750163103698e+07 2.634231867072e+07  9.866994035175e-04