 TITLE = "Time curves in points"
 VARIABLES = "TIME"  "PRESSURE1"  "SATURATION1"  "TEMPERATURE1"  "DISPLACEMENT_X1"  "DISPLACEMENT_Y1"  "STRESS_XX"  "STRESS_XY"  "STRESS_YY"  "STRESS_ZZ"  "STRAIN_XX"  "STRAIN_XY"  "STRAIN_YY"  "STRAIN_PLS"  p_(1st_Invariant)  q_(2nd_Invariant)   Effective_Strain
 ZONE T="POINT=POINT18"
0.000000000000e+00 1.000000000000e+05 1.000000000000e+00 2.500000000000e+01 0.000000000000e+00 0.000000000000e+00 -3.130685851467e+07 -1.409868786187e+04 -1.352808692198e+07 -1.044743363099e+07 0.000000000000e+00 0.000000000000e+00 0.000000000000e+00 0.000000000000e+00 1.842745968921e+07 1.950246065449e+07  0.000000000000e+00
1.000000000000e-03 3.083650975032e+05 1.000000000000e+00 2.500000000001e+01 -2.591700214361e-06 6.303341442789e-05 -3.127133941731e+07 -1.351245267838e+04 -1.348470148083e+07 -1.042376226945e+07 4.400587587763e-07 4.354889934520e-08 7.322372424514e-07 0.000000000000e+00 1.839326772253e+07 1.949815896942e+07  6.428726143398e-07
2.000000000000e-03 3.159689439173e+05 1.000000000000e+00 2.499999999999e+01 -2.299344093143e-06 6.240410144711e-05 -3.127318312867e+07 -1.356036283753e+04 -1.348431066368e+07 -1.042419813771e+07 3.877674434683e-07 3.998985895098e-08 7.629427004819e-07 0.000000000000e+00 1.839389731002e+07 1.949986603418e+07  6.643781908000e-07
3.000000000000e-03 3.211298798470e+05 1.000000000000e+00 2.499999999994e+01 -2.079691833354e-06 6.190709027244e-05 -3.127478184625e+07 -1.358868943983e+04 -1.348441980616e+07 -1.042471049571e+07 3.474169450930e-07 3.788559706622e-08 7.779192768226e-07 0.000000000000e+00 1.839463738271e+07 1.950109465926e+07  6.781596800920e-07
4.000000000000e-03 3.246441808822e+05 1.000000000000e+00 2.499999999989e+01 -1.902746540159e-06 6.138368043178e-05 -3.127640372446e+07 -1.360820837071e+04 -1.348517580231e+07 -1.042542385800e+07 3.136720679448e-07 3.643561934351e-08 7.763357335554e-07 0.000000000000e+00 1.839566779492e+07 1.950197868718e+07  6.793785141663e-07
1.000000000000e-02 3.282972316046e+05 1.000000000000e+00 2.499999999994e+01 -8.784402102713e-07 5.856316175613e-05 -3.128865054391e+07 -1.367039853950e+04 -1.349370275403e+07 -1.043165598936e+07 9.026936728691e-08 3.181577823338e-08 6.910995487623e-07 0.000000000000e+00 1.840466976243e+07 1.950707103029e+07  6.530074710174e-07
2.000000000000e-02 3.209720154730e+05 1.000000000000e+00 2.499999999911e+01 1.436043397916e-06 5.672174236705e-05 -3.131210065469e+07 -1.373036356902e+04 -1.350129484654e+07 -1.044096865054e+07 -4.348359036105e-07 2.736123318312e-08 7.550063849541e-07 0.000000000000e+00 1.841812138392e+07 1.952172741119e+07  1.043871016586e-06
3.000000000000e-02 3.083467034309e+05 1.000000000000e+00 2.499999998948e+01 4.215290607156e-06 5.706007398341e-05 -3.133702098126e+07 -1.377119773572e+04 -1.350251612571e+07 -1.044881113591e+07 -1.069155719206e-06 2.432783794279e-08 1.000936901354e-06 0.000000000000e+00 1.842944941429e+07 1.954115050382e+07  1.793572294653e-06
4.000000000000e-02 2.935043100365e+05 1.000000000000e+00 2.499999996592e+01 7.298330096286e-06 5.973234390347e-05 -3.136172422544e+07 -1.380165770905e+04 -1.349690680295e+07 -1.045453934914e+07 -1.773942583260e-06 2.206509706675e-08 1.422045381043e-06 0.000000000000e+00 1.843772345918e+07 1.956424319555e+07  2.773656939266e-06
5.000000000000e-02 2.781876015460e+05 1.000000000000e+00 2.500000002207e+01 1.057837609408e-05 6.340842808261e-05 -3.138683155262e+07 -1.382599181608e+04 -1.348815269068e+07 -1.045944551895e+07 -2.524271285353e-06 2.025742054451e-08 1.929427286703e-06 0.000000000000e+00 1.844480992075e+07 1.958944110082e+07  3.868625616804e-06
6.000000000000e-02 2.628169376310e+05 1.000000000000e+00 2.500000066198e+01 1.398528353523e-05 6.940154184367e-05 -3.141024102974e+07 -1.384476966275e+04 -1.347281888267e+07 -1.046186901542e+07 -3.303750566564e-06 1.886249479195e-08 2.588984310374e-06 0.000000000000e+00 1.844830964261e+07 1.961698718587e+07  5.115860956749e-06
7.000000000000e-02 2.482548207077e+05 1.000000000000e+00 2.500000344145e+01 1.747998275503e-05 7.541251385445e-05 -3.143428530935e+07 -1.385956025879e+04 -1.345714735355e+07 -1.046438324015e+07 -4.103438319522e-06 1.776376480050e-08 3.264455167326e-06 0.000000000000e+00 1.845193863435e+07 1.964525478884e+07  6.394631393723e-06
8.000000000000e-02 2.351205290081e+05 1.000000000000e+00 2.500001194551e+01 2.103745779841e-05 8.220966712030e-05 -3.145793532851e+07 -1.387187464914e+04 -1.343925742046e+07 -1.046611727922e+07 -4.917460436932e-06 1.684898151718e-08 3.993345562035e-06 0.000000000000e+00 1.845443667606e+07 1.967447452209e+07  7.730860004130e-06
9.000000000000e-02 2.243279765763e+05 1.000000000000e+00 2.500003296209e+01 2.464280907898e-05 8.839155893367e-05 -3.148265955772e+07 -1.388200317785e+04 -1.342287876305e+07 -1.046863401691e+07 -5.742310122120e-06 1.609657652726e-08 4.695174522856e-06 0.000000000000e+00 1.845805744589e+07 1.970372642499e+07  9.054320229908e-06
1.000000000000e-01 2.168958664196e+05 1.000000000000e+00 2.500007761001e+01 2.827960833556e-05 9.392747838161e-05 -3.150836067429e+07 -1.389112477462e+04 -1.340812341739e+07 -1.047194310385e+07 -6.574014079639e-06 1.541897219619e-08 5.366139162205e-06 0.000000000000e+00 1.846280906518e+07 1.973286301538e+07  1.035813198734e-05
2.000000000000e-01 2.305342222078e+05 1.000000000000e+00 2.502667785432e+01 6.436469018686e-05 1.887323429267e-04 -3.172033895818e+07 -1.394674060122e+04 -1.316175159615e+07 -1.047210480078e+07 -1.444148730978e-05 1.128751079123e-08 1.452309840851e-05 0.000000000000e+00 1.845139845170e+07 2.003926129670e+07  2.508410785120e-05
3.000000000000e-01 2.539215366433e+05 1.000000000000e+00 2.509252329441e+01 9.878039259477e-05 2.983913585135e-04 -3.191255155397e+07 -1.396812383608e+04 -1.289726342499e+07 -1.047558647114e+07 -2.145149311137e-05 9.699041916220e-09 2.447626395073e-05 0.000000000000e+00 1.842846715003e+07 2.033458070025e+07  3.980335090716e-05
4.000000000000e-01 2.778424060555e+05 1.000000000000e+00 2.519884269912e+01 1.305207582611e-04 4.038127279761e-04 -3.210297592195e+07 -1.396528189587e+04 -1.266909863226e+07 -1.050415560986e+07 -2.746325876955e-05 9.910157474368e-09 3.401209569016e-05 0.000000000000e+00 1.842541005469e+07 2.060185396814e+07  5.333982110345e-05
5.000000000000e-01 3.006476900648e+05 1.000000000000e+00 2.534048625341e+01 1.591870278370e-04 5.062275010504e-04 -3.228891241401e+07 -1.395332551740e+04 -1.247260897207e+07 -1.055344961039e+07 -3.253855131226e-05 1.079834558955e-08 4.314120308871e-05 0.000000000000e+00 1.843832366549e+07 2.084227154388e+07  6.575464489775e-05
6.000000000000e-01 3.220253449416e+05 1.000000000000e+00 2.551037594353e+01 1.846647475492e-04 6.060826022752e-04 -3.246903949386e+07 -1.394313785422e+04 -1.230338653641e+07 -1.061902888149e+07 -3.679318420859e-05 1.155514342567e-08 5.186240933971e-05 0.000000000000e+00 1.846381830392e+07 2.105842764948e+07  7.714681774142e-05
7.000000000000e-01 3.420511584359e+05 1.000000000000e+00 2.570176351459e+01 2.070505363204e-04 7.035622251113e-04 -3.264291655841e+07 -1.393993731043e+04 -1.215734043138e+07 -1.069703174137e+07 -4.035422609644e-05 1.179289810750e-08 6.018422803607e-05 0.000000000000e+00 1.849909624372e+07 2.125340392808e+07  8.763157667739e-05
8.000000000000e-01 3.610103641588e+05 1.000000000000e+00 2.590902649044e+01 2.265415853546e-04 7.988315960522e-04 -3.281035901671e+07 -1.394558743251e+04 -1.203076142549e+07 -1.078425456418e+07 -4.333381255754e-05 1.137317475277e-08 6.812543881645e-05 0.000000000000e+00 1.854179166880e+07 2.143007115759e+07  9.731921757199e-05
9.000000000000e-01 3.788546175728e+05 1.000000000000e+00 2.612776105972e+01 2.434548115211e-04 8.918571694600e-04 -3.297215860290e+07 -1.395798124259e+04 -1.192089242535e+07 -1.087854409392e+07 -4.584132893997e-05 1.045249171812e-08 7.570846992632e-05 0.000000000000e+00 1.859053170739e+07 2.159133238993e+07  1.063192224330e-04
1.000000000000e+00 3.956972551497e+05 1.000000000000e+00 2.635461483105e+01 2.580594606756e-04 9.826966092103e-04 -3.312858196332e+07 -1.397595481881e+04 -1.182529072776e+07 -1.097807771174e+07 -4.795437652214e-05 9.117311770379e-09 8.295635306996e-05 0.000000000000e+00 1.864398346761e+07 2.173929619289e+07  1.147148603351e-04
2.000000000000e+00 5.150057627839e+05 1.000000000000e+00 2.862803369585e+01 3.108727537421e-04 1.735802211011e-03 -3.437808772639e+07 -1.415009701164e+04 -1.141887499365e+07 -1.203362112293e+07 -5.515869244934e-05 -3.818965410941e-09 1.372576927528e-04 0.000000000000e+00 1.927686128099e+07 2.265810838591e+07  1.716190854105e-04
3.000000000000e+00 6.107955930557e+05 1.000000000000e+00 3.070915667974e+01 3.270244758657e-04 2.378438386503e-03 -3.541880732727e+07 -1.424926239209e+04 -1.123046044253e+07 -1.301982801538e+07 -5.718345019081e-05 -1.118553653073e-08 1.808864892279e-04 0.000000000000e+00 1.988969859506e+07 2.334516495755e+07  2.152523702151e-04
4.000000000000e+00 6.926709898540e+05 1.000000000000e+00 3.256538003682e+01 3.289426737478e-04 2.938759520071e-03 -3.630766666400e+07 -1.429720734346e+04 -1.113267306978e+07 -1.390710428146e+07 -5.724224995798e-05 -1.474716148911e-08 2.174745672417e-04 0.000000000000e+00 2.044914800508e+07 2.390882883510e+07  2.510390343496e-04
5.000000000000e+00 7.655249447360e+05 1.000000000000e+00 3.421390786706e+01 3.256611899420e-04 3.436085844697e-03 -3.708126945585e+07 -1.431758977853e+04 -1.107330786897e+07 -1.469797071115e+07 -5.660102912388e-05 -1.626128523711e-08 2.490545992321e-04 0.000000000000e+00 2.095084934532e+07 2.439841735932e+07  2.816533637548e-04
6.000000000000e+00 8.320078002305e+05 1.000000000000e+00 3.568672708440e+01 3.210612589857e-04 3.884839727857e-03 -3.776770295670e+07 -1.432492030962e+04 -1.102921341288e+07 -1.540558570486e+07 -5.581428796053e-05 -1.680583897547e-08 2.769752359387e-04 0.000000000000e+00 2.140083402481e+07 2.484114506950e+07  3.086902857036e-04
7.000000000000e+00 8.939780193959e+05 1.000000000000e+00 3.700928498412e+01 3.156495412062e-04 4.292070501970e-03 -3.837869917790e+07 -1.432668974805e+04 -1.099591989235e+07 -1.604115283769e+07 -5.490165409991e-05 -1.693728297322e-08 3.018186316351e-04 0.000000000000e+00 2.180525730265e+07 2.524121812532e+07  3.326845668205e-04
8.000000000000e+00 9.520385377497e+05 1.000000000000e+00 3.821072827080e+01 3.108805822499e-04 4.667502281549e-03 -3.893473555028e+07 -1.432636247424e+04 -1.096390581972e+07 -1.661828358450e+07 -5.411814876379e-05 -1.691297120419e-08 3.244440106428e-04 0.000000000000e+00 2.217230831816e+07 2.561605515621e+07  3.546138747416e-04
9.000000000000e+00 1.007090273366e+06 1.000000000000e+00 3.931176277075e+01 3.064880417262e-04 5.015626755225e-03 -3.944392688005e+07 -1.432465150572e+04 -1.093403386499e+07 -1.714691465543e+07 -5.339610123519e-05 -1.678587068547e-08 3.451884087386e-04 0.000000000000e+00 2.250829180016e+07 2.596701631652e+07  3.747504465882e-04
1.000000000000e+01 1.059630031119e+06 1.000000000000e+00 4.032707739919e+01 3.023011960271e-04 5.339804520756e-03 -3.991250255059e+07 -1.432314245172e+04 -1.090651119694e+07 -1.763409862877e+07 -5.270493570256e-05 -1.667376953177e-08 3.643060839905e-04 0.000000000000e+00 2.281770412543e+07 2.629578368560e+07  3.933159832078e-04
1.100000000000e+01 1.109950423624e+06 1.000000000000e+00 4.126965432734e+01 2.984326214183e-04 5.643646178441e-03 -4.034714324970e+07 -1.432169356027e+04 -1.087979769561e+07 -1.808592790747e+07 -5.206650274639e-05 -1.656613759537e-08 3.820805301054e-04 0.000000000000e+00 2.310428961759e+07 2.660653778503e+07  4.105971870182e-04
1.200000000000e+01 1.158414524305e+06 1.000000000000e+00 4.214857045805e+01 2.946929636415e-04 5.929133448919e-03 -4.075129528295e+07 -1.432037251380e+04 -1.085460106199e+07 -1.850680965346e+07 -5.144511341595e-05 -1.646800271484e-08 3.986491556341e-04 0.000000000000e+00 2.337090199947e+07 2.689969324201e+07  4.267039967244e-04
1.300000000000e+01 1.205265988134e+06 1.000000000000e+00 4.297047241277e+01 2.909960143266e-04 6.197855199620e-03 -4.112784343848e+07 -1.431868957484e+04 -1.083111201143e+07 -1.889998062878e+07 -5.082769439559e-05 -1.634298439202e-08 4.141250994521e-04 0.000000000000e+00 2.361964535956e+07 2.717607119474e+07  4.417375661086e-04
1.400000000000e+01 1.251210413433e+06 1.000000000000e+00 4.374060683530e+01 2.872967386480e-04 6.451351789793e-03 -4.147889078265e+07 -1.431755430392e+04 -1.080875134048e+07 -1.926772825506e+07 -5.020739820250e-05 -1.625864998082e-08 4.286148362068e-04 0.000000000000e+00 2.385179012606e+07 2.743673372164e+07  4.557972106110e-04
1.500000000000e+01 1.295786606581e+06 1.000000000000e+00 4.446330145891e+01 2.835765775631e-04 6.690557465717e-03 -4.180669097358e+07 -1.431637494948e+04 -1.078798125002e+07 -1.961237921440e+07 -4.958151251905e-05 -1.617104079377e-08 4.421876180563e-04 0.000000000000e+00 2.406901714600e+07 2.768229629713e+07  4.689483421987e-04
1.600000000000e+01 1.339131724233e+06 1.000000000000e+00 4.514222035109e+01 2.798456107762e-04 6.916484497926e-03 -4.211311157128e+07 -1.431554603659e+04 -1.076862765815e+07 -1.993572268859e+07 -4.895294853496e-05 -1.610946440720e-08 4.549163662242e-04 0.000000000000e+00 2.427248730600e+07 2.791370729893e+07  4.812637423190e-04
1.700000000000e+01 1.381371181862e+06 1.000000000000e+00 4.578051508854e+01 2.761213537525e-04 7.130022977675e-03 -4.239981352040e+07 -1.431479074908e+04 -1.075050981706e+07 -2.023930512617e+07 -4.832595896336e-05 -1.605335733528e-08 4.668652337176e-04 0.000000000000e+00 2.446320948788e+07 2.813187714225e+07  4.928085385453e-04
1.800000000000e+01 1.422623258432e+06 1.000000000000e+00 4.638092652595e+01 2.724060464309e-04 7.331958564635e-03 -4.266812426743e+07 -1.431399659193e+04 -1.073347618989e+07 -2.052443820114e+07 -4.770112964016e-05 -1.599436280392e-08 4.780885683686e-04 0.000000000000e+00 2.464201288615e+07 2.833750824338e+07  5.036362204214e-04
1.900000000000e+01 1.462974446505e+06 1.000000000000e+00 4.694585896327e+01 2.687014457103e-04 7.522983048346e-03 -4.291921196923e+07 -1.431346181093e+04 -1.071740865519e+07 -2.079227815523e+07 -4.707890312629e-05 -1.595463621578e-08 4.886337036666e-04 0.000000000000e+00 2.480963292655e+07 2.853122466158e+07  5.137934011267e-04
2.000000000000e+01 1.502507800416e+06 1.000000000000e+00 4.747743591083e+01 2.649693937787e-04 7.703715493581e-03 -4.315376833092e+07 -1.431333159893e+04 -1.070222581780e+07 -2.104375109565e+07 -4.645057305930e-05 -1.594496332438e-08 4.985380611280e-04 0.000000000000e+00 2.496658174813e+07 2.871327086841e+07  5.233117937949e-04
2.100000000000e+01 1.541141801111e+06 1.000000000000e+00 4.798108112960e+01 2.616665044057e-04 7.876430820617e-03 -4.337670722072e+07 -1.431289244410e+04 -1.068526914627e+07 -2.128146649863e+07 -4.590173114153e-05 -1.591234039396e-08 5.079973096098e-04 0.000000000000e+00 2.511448095521e+07 2.888953455342e+07  5.324342139443e-04
2.200000000000e+01 1.579012597869e+06 1.000000000000e+00 4.845978641530e+01 2.585760497197e-04 8.041534057602e-03 -4.358835922502e+07 -1.431221580739e+04 -1.066789455800e+07 -2.150696579277e+07 -4.538740323305e-05 -1.586207595302e-08 5.170183395278e-04 0.000000000000e+00 2.525440652526e+07 2.905883363172e+07  5.411414790886e-04
2.300000000000e+01 1.616195873616e+06 1.000000000000e+00 4.891513136759e+01 2.555369267778e-04 8.199308898357e-03 -4.378863637758e+07 -1.431222239636e+04 -1.065075978120e+07 -2.172095994446e+07 -4.487791469395e-05 -1.586256541916e-08 5.256031283006e-04 0.000000000000e+00 2.538678536775e+07 2.922029918710e+07  5.494184642113e-04
2.400000000000e+01 1.652744292822e+06 1.000000000000e+00 4.934819090550e+01 2.525178979061e-04 8.350021749213e-03 -4.397803711980e+07 -1.431202172536e+04 -1.063407481610e+07 -2.192403124423e+07 -4.437015112746e-05 -1.584765843065e-08 5.337655038528e-04 0.000000000000e+00 2.551204772671e+07 2.937399651412e+07  5.572769331673e-04
2.500000000000e+01 1.688706440365e+06 1.000000000000e+00 4.975985551106e+01 2.495064766074e-04 8.493931613640e-03 -4.415698571258e+07 -1.431178050707e+04 -1.061789535780e+07 -2.211663262203e+07 -4.386304768367e-05 -1.582973935734e-08 5.415202206224e-04 0.000000000000e+00 2.563050456414e+07 2.952007735268e+07  5.647307715236e-04
2.600000000000e+01 1.724115300852e+06 1.000000000000e+00 5.015093021922e+01 2.465024275578e-04 8.631284324521e-03 -4.432591092353e+07 -1.431155561120e+04 -1.060222479803e+07 -2.229917438966e+07 -4.335728986448e-05 -1.581303280679e-08 5.488823927826e-04 0.000000000000e+00 2.574243670374e+07 2.965875913534e+07  5.717952338440e-04
2.700000000000e+01 1.758998235123e+06 1.000000000000e+00 5.052216656485e+01 2.435047830383e-04 8.762316534331e-03 -4.448518168531e+07 -1.431104877721e+04 -1.058704312746e+07 -2.247202381951e+07 -4.285293933636e-05 -1.577538228233e-08 5.558664050842e-04 0.000000000000e+00 2.584808287743e+07 2.979024095069e+07  5.784845242474e-04
2.800000000000e+01 1.793391624023e+06 1.000000000000e+00 5.087427294239e+01 2.405175935525e-04 8.887247796133e-03 -4.463518471428e+07 -1.431096194630e+04 -1.057233439765e+07 -2.263553989447e+07 -4.235102619906e-05 -1.576893198598e-08 5.624861835472e-04 0.000000000000e+00 2.594768633547e+07 2.991474803145e+07  5.848129478248e-04
2.900000000000e+01 1.827319648265e+06 1.000000000000e+00 5.120791808599e+01 2.375425518329e-04 9.006286464809e-03 -4.477626142161e+07 -1.431099721128e+04 -1.055807644195e+07 -2.279005235798e+07 -4.185198382718e-05 -1.577155166990e-08 5.687547991175e-04 0.000000000000e+00 2.604146340718e+07 3.003248271398e+07  5.907936420359e-04
3.000000000000e+01 1.860795160606e+06 1.000000000000e+00 5.152373270005e+01 2.345780765070e-04 9.119634087824e-03 -4.490870014676e+07 -1.431043131074e+04 -1.054423805569e+07 -2.293585904798e+07 -4.135545941811e-05 -1.572951334413e-08 5.746844733788e-04 0.000000000000e+00 2.612959908348e+07 3.014361873024e+07  5.964384789110e-04
3.100000000000e+01 1.893730299869e+06 1.000000000000e+00 5.182511079230e+01 2.319747694571e-04 9.228840074545e-03 -4.503587036718e+07 -1.431036212881e+04 -1.052877127128e+07 -2.307457178416e+07 -4.092673740464e-05 -1.572437411504e-08 5.804111412864e-04 0.000000000000e+00 2.621307114087e+07 3.025257726786e+07  6.019189529097e-04
3.200000000000e+01 1.926193300668e+06 1.000000000000e+00 5.211364601199e+01 2.295536323804e-04 9.334011286037e-03 -4.515759566932e+07 -1.431033675391e+04 -1.051278521357e+07 -2.320701903122e+07 -4.052849373576e-05 -1.572248912262e-08 5.859243783205e-04 0.000000000000e+00 2.629246663804e+07 3.035815794141e+07  6.072038942173e-04
3.300000000000e+01 1.958214424838e+06 1.000000000000e+00 5.238991559297e+01 2.272178490292e-04 9.435206125845e-03 -4.527371630068e+07 -1.431037339950e+04 -1.049674440870e+07 -2.333348416608e+07 -4.014426932006e-05 -1.572521136663e-08 5.912174560821e-04 0.000000000000e+00 2.636798162515e+07 3.045976589220e+07  6.122774177290e-04
3.400000000000e+01 1.989824630631e+06 1.000000000000e+00 5.265418160542e+01 2.249246892352e-04 9.532452254998e-03 -4.538421127344e+07 -1.431034985783e+04 -1.048090069877e+07 -2.345412309625e+07 -3.976749375907e-05 -1.572346255685e-08 5.962868112859e-04 0.000000000000e+00 2.643974502282e+07 3.055712342992e+07  6.171322772806e-04
3.500000000000e+01 2.021048807738e+06 1.000000000000e+00 5.290663240863e+01 2.226767879760e-04 9.625812039305e-03 -4.548926651275e+07 -1.430995366018e+04 -1.046529460773e+07 -2.356906756891e+07 -3.940017937780e-05 -1.569403073112e-08 6.011358322234e-04 0.000000000000e+00 2.650787622980e+07 3.065031667217e+07  6.217728872159e-04
3.600000000000e+01 2.051915334547e+06 1.000000000000e+00 5.314745064832e+01 2.204887924856e-04 9.715335694376e-03 -4.558914456566e+07 -1.431023426392e+04 -1.044997678831e+07 -2.367847464528e+07 -3.904624422074e-05 -1.571487558029e-08 6.057684712096e-04 0.000000000000e+00 2.657253199975e+07 3.073949375554e+07  6.262052653150e-04
3.700000000000e+01 2.082462267422e+06 1.000000000000e+00 5.337683014573e+01 2.184345045441e-04 9.801090553231e-03 -4.568457581425e+07 -1.430958501582e+04 -1.043489267097e+07 -2.378261460344e+07 -3.872277786482e-05 -1.566664572204e-08 6.101967940140e-04 0.000000000000e+00 2.663402769622e+07 3.082530596728e+07  6.304507090926e-04
3.800000000000e+01 2.113406988325e+06 1.000000000000e+00 5.359501612753e+01 2.188869070059e-04 9.883172811068e-03 -4.579562992133e+07 -1.429717006508e+04 -1.041792976226e+07 -2.388696067172e+07 -3.897193359184e-05 -1.474439223844e-08 6.147025560166e-04 0.000000000000e+00 2.670017345177e+07 3.092723295842e+07  6.350859719953e-04
3.900000000000e+01 2.143157947788e+06 1.000000000000e+00 5.380215921442e+01 2.160585055460e-04 9.961652723250e-03 -4.587366303567e+07 -1.431165345572e+04 -1.040409077416e+07 -2.397847240804e+07 -3.847129906127e-05 -1.582030125694e-08 6.186155829236e-04 0.000000000000e+00 2.675207540595e+07 3.099802408798e+07  6.387207732122e-04
4.000000000000e+01 2.172544101843e+06 1.000000000000e+00 5.399845064135e+01 2.130840775271e-04 1.003659615827e-02 -4.594516246003e+07 -1.431122918685e+04 -1.039062832534e+07 -2.406433879201e+07 -3.793766913284e-05 -1.578878414151e-08 6.223049395699e-04 0.000000000000e+00 2.680004319246e+07 3.106337818653e+07  6.421148683820e-04
4.200000000000e+01 2.229827605392e+06 1.000000000000e+00 5.435968908593e+01 2.079077272758e-04 1.017694186456e-02 -4.607671790909e+07 -1.431089101812e+04 -1.036063663709e+07 -2.422081051218e+07 -3.701220763420e-05 -1.576366303535e-08 6.292307233113e-04 0.000000000000e+00 2.688605501945e+07 3.118833754969e+07  6.485294331018e-04
4.400000000000e+01 2.285593809494e+06 1.000000000000e+00 5.469219720801e+01 2.029888185535e-04 1.030778146213e-02 -4.619549940272e+07 -1.431045477612e+04 -1.033033707719e+07 -2.436332625165e+07 -3.613064993191e-05 -1.573125648721e-08 6.356495772881e-04 0.000000000000e+00 2.696305424385e+07 3.130399069640e+07  6.544633237010e-04
5.000000000000e+01 2.437116678573e+06 1.000000000000e+00 5.537543848970e+01 1.890064140654e-04 1.058148203927e-02 -4.641434458340e+07 -1.430953703553e+04 -1.027044127920e+07 -2.464894262790e+07 -3.365057695364e-05 -1.566308147161e-08 6.484828866170e-04 0.000000000000e+00 2.711124283017e+07 3.151870078192e+07  6.659461236313e-04
6.500000000000e+01 2.768502507756e+06 1.000000000000e+00 5.631568876404e+01 1.626258762724e-04 1.104582157563e-02 -4.661123223730e+07 -1.430708271823e+04 -1.005672793754e+07 -2.497067796182e+07 -2.901337740982e-05 -1.548076075821e-08 6.683709802814e-04 0.000000000000e+00 2.721287937889e+07 3.183529886332e+07  6.833397716881e-04
8.000000000000e+01 3.023556374630e+06 1.000000000000e+00 5.663857047303e+01 1.430886408971e-04 1.126618832120e-02 -4.657490468143e+07 -1.430550299671e+04 -9.905476425906e+06 -2.502563910433e+07 -2.562265432729e-05 -1.536341001656e-08 6.760303074350e-04 0.000000000000e+00 2.716867340389e+07 3.191894705974e+07  6.891989470216e-04
1.000000000000e+02 3.324236305531e+06 1.000000000000e+00 5.678970307341e+01 1.248708283223e-04 1.145067475587e-02 -4.644837121029e+07 -1.430400228989e+04 -9.721851013010e+06 -2.498382477862e+07 -2.247594321141e-05 -1.525192893838e-08 6.812975763876e-04 0.000000000000e+00 2.705134900064e+07 3.195694846326e+07  6.928090371450e-04
1.860000000000e+02 3.922717201764e+06 1.000000000000e+00 5.651434013221e+01 9.162553369305e-05 1.167000296067e-02 -4.588408478857e+07 -1.430090005492e+04 -9.247043703089e+06 -2.457260478019e+07 -1.679061891761e-05 -1.502147719776e-08 6.836593908145e-04 0.000000000000e+00 2.656791109061e+07 3.186946821857e+07  6.922074490425e-04
2.720000000000e+02 4.213038211969e+06 1.000000000000e+00 5.565863389374e+01 7.686880820919e-05 1.150191365070e-02 -4.530596594499e+07 -1.429979947108e+04 -9.120318798756e+06 -2.406014454847e+07 -1.435187047713e-05 -1.493971954097e-08 6.693320786546e-04 0.000000000000e+00 2.616214309741e+07 3.149591724765e+07  6.766221808889e-04
3.580000000000e+02 4.354403691727e+06 1.000000000000e+00 5.491482439366e+01 6.884306530062e-05 1.132602089618e-02 -4.485129728306e+07 -1.429905675717e+04 -9.046346912072e+06 -2.364035415472e+07 -1.305639194466e-05 -1.488454650796e-08 6.564873912493e-04 0.000000000000e+00 2.584599944995e+07 3.118400915244e+07  6.631119977737e-04
4.440000000000e+02 4.426532453840e+06 1.000000000000e+00 5.428887031940e+01 6.369121538343e-05 1.116143198580e-02 -4.449121524624e+07 -1.429826759635e+04 -9.011486658051e+06 -2.330220747040e+07 -1.224165028040e-05 -1.482592313250e-08 6.452224666952e-04 0.000000000000e+00 2.560163645823e+07 3.091933957247e+07  6.514295648646e-04
5.300000000000e+02 4.465496889446e+06 1.000000000000e+00 5.377624834960e+01 6.022937530025e-05 1.101878557579e-02 -4.420704477215e+07 -1.429807206452e+04 -8.996016549855e+06 -2.303249230412e+07 -1.170473884774e-05 -1.481139791120e-08 6.357790788234e-04 0.000000000000e+00 2.541185120871e+07 3.070180824400e+07  6.417115136272e-04
6.160000000000e+02 4.488012314786e+06 1.000000000000e+00 5.336720502353e+01 5.788811493965e-05 1.090056139965e-02 -4.398631020263e+07 -1.429776961699e+04 -8.991076682506e+06 -2.282134015595e+07 -1.134882034006e-05 -1.478893038016e-08 6.281197655360e-04 0.000000000000e+00 2.526624234703e+07 3.052785400668e+07  6.338703768180e-04
7.020000000000e+02 4.501822576458e+06 1.000000000000e+00 5.305912787775e+01 5.628546418485e-05 1.080987439400e-02 -4.382242371952e+07 -1.429774298342e+04 -8.990337890535e+06 -2.266392610980e+07 -1.110841553913e-05 -1.478695188673e-08 6.223003989520e-04 0.000000000000e+00 2.515889590662e+07 3.039674707630e+07  6.279283044339e-04
7.880000000000e+02 4.511441113274e+06 1.000000000000e+00 5.280009927160e+01 5.531407174671e-05 1.072815283847e-02 -4.369150256577e+07 -1.429757607297e+04 -8.999818969041e+06 -2.253670057370e+07 -1.097114974035e-05 -1.477455282427e-08 6.172227246955e-04 0.000000000000e+00 2.507600736951e+07 3.028437673291e+07  6.227807813330e-04
8.740000000000e+02 4.519827167133e+06 1.000000000000e+00 5.241137386379e+01 5.329723972281e-05 1.061262593236e-02 -4.348452498308e+07 -1.429753247417e+04 -8.998393428856e+06 -2.233787317812e+07 -1.066842850491e-05 -1.477131405654e-08 6.098906557806e-04 0.000000000000e+00 2.494026386335e+07 3.011990287694e+07  6.152942409017e-04
9.370000000000e+02 4.525201002277e+06 1.000000000000e+00 5.210907649775e+01 5.241731256640e-05 1.051767044522e-02 -4.333129012138e+07 -1.429741992874e+04 -9.004430107452e+06 -2.218777657644e+07 -1.055186456128e-05 -1.476295353896e-08 6.040914196561e-04 0.000000000000e+00 2.484116560176e+07 2.999319367839e+07  6.094358675402e-04
1.000000000000e+03 4.529391016052e+06 1.000000000000e+00 5.185429705108e+01 5.196420894005e-05 1.043816920422e-02 -4.320261152747e+07 -1.429742153658e+04 -9.006078355667e+06 -2.206040970449e+07 -1.050314346013e-05 -1.476307297808e-08 5.992994294785e-04 0.000000000000e+00 2.475636652921e+07 2.988990107341e+07  6.046194263609e-04
1.100000000000e+03 4.533536316160e+06 1.000000000000e+00 5.158773657568e+01 5.167019672169e-05 1.035499659506e-02 -4.306863907956e+07 -1.429727688898e+04 -9.006505711039e+06 -2.192697810519e+07 -1.048305479714e-05 -1.475232772814e-08 5.943275254479e-04 0.000000000000e+00 2.466737429860e+07 2.978370856467e+07  5.996377828427e-04
1.200000000000e+03 4.536797682875e+06 1.000000000000e+00 5.136659202229e+01 5.129665758884e-05 1.028587758177e-02 -4.295702721597e+07 -1.429727989975e+04 -9.007819830971e+06 -2.181641626790e+07 -1.044405382048e-05 -1.475255138509e-08 5.901721327510e-04 0.000000000000e+00 2.459375443828e+07 2.969457427279e+07  5.954628575375e-04
1.300000000000e+03 4.539703052077e+06 1.000000000000e+00 5.115655250825e+01 5.090249685301e-05 1.022008951347e-02 -4.285094212258e+07 -1.429725470417e+04 -9.009504091236e+06 -2.171151004416e+07 -1.040026723317e-05 -1.475067971370e-08 5.862130576310e-04 0.000000000000e+00 2.452398541933e+07 2.960963270900e+07  5.914817728412e-04
1.400000000000e+03 4.542442562524e+06 1.000000000000e+00 5.094021040217e+01 5.052002943358e-05 1.015211238741e-02 -4.274187908964e+07 -1.429728764476e+04 -9.011347378455e+06 -2.160355212397e+07 -1.035922018843e-05 -1.475312672893e-08 5.821347270699e-04 0.000000000000e+00 2.445225953069e+07 2.952238543253e+07  5.873828533194e-04
1.500000000000e+03 4.545082446453e+06 1.000000000000e+00 5.070749560171e+01 5.016808695229e-05 1.007872612386e-02 -4.262493826502e+07 -1.429712482262e+04 -9.013270803816e+06 -2.148752439785e+07 -1.032530510144e-05 -1.474103136987e-08 5.777536843005e-04 0.000000000000e+00 2.437524448889e+07 2.942909006145e+07  5.829849186420e-04
1.600000000000e+03 4.547643486991e+06 1.000000000000e+00 5.045226626688e+01 4.985813921146e-05 9.997957182374e-03 -4.249713962724e+07 -1.429708974926e+04 -9.015246934058e+06 -2.136037501144e+07 -1.030119005041e-05 -1.473842592021e-08 5.729575936822e-04 0.000000000000e+00 2.429092052425e+07 2.932749026450e+07  5.781770182129e-04
1.700000000000e+03 4.550130771773e+06 1.000000000000e+00 5.017073127728e+01 4.959739695485e-05 9.908584294177e-03 -4.235664790946e+07 -1.429700932991e+04 -9.017265524863e+06 -2.122022343487e+07 -1.028855623410e-05 -1.473245191118e-08 5.676769874653e-04 0.000000000000e+00 2.419804562306e+07 2.921623063929e+07  5.728905600082e-04
1.800000000000e+03 4.552544175198e+06 1.000000000000e+00 4.986060250043e+01 4.938991246353e-05 9.809871024474e-03 -4.220235274514e+07 -1.429706047332e+04 -9.019320133912e+06 -2.106593378907e+07 -1.028835126027e-05 -1.473625113640e-08 5.618699151425e-04 0.000000000000e+00 2.409586888937e+07 2.909453545390e+07  5.670840920137e-04
1.900000000000e+03 4.554883463306e+06 1.000000000000e+00 4.952059324706e+01 4.923814255681e-05 9.701399610455e-03 -4.203363617923e+07 -1.429709590077e+04 -9.021418672363e+06 -2.089687272628e+07 -1.030114685854e-05 -1.473888288926e-08 5.555125585251e-04 0.000000000000e+00 2.398397585929e+07 2.896201744885e+07  5.607341022307e-04
2.000000000000e+03 4.557147803229e+06 1.000000000000e+00 4.915010136740e+01 4.914323957521e-05 9.582980044491e-03 -4.185020363034e+07 -1.429698468417e+04 -9.023552375237e+06 -2.071273849472e+07 -1.032720935792e-05 -1.473062108512e-08 5.485940352461e-04 0.000000000000e+00 2.386216483343e+07 2.881856835048e+07  5.538298591320e-04