 TITLE = "Time curves in points"
 VARIABLES = "TIME"  "PRESSURE1"  "SATURATION1"  "TEMPERATURE1"  "DISPLACEMENT_X1"  "DISPLACEMENT_Y1"  "STRESS_XX"  "STRESS_XY"  "STRESS_YY"  "STRESS_ZZ"  "STRAIN_XX"  "STRAIN_XY"  "STRAIN_YY"  "STRAIN_PLS"  p_(1st_Invariant)  q_(2nd_Invariant)   Effective_Strain
 ZONE T="POINT=POINT15"
0.000000000000e+00 1.000000000000e+05 1.000000000000e+00 2.500000000000e+01 0.000000000000e+00 0.000000000000e+00 -3.444049899891e+07 -5.858766693045e+04 -1.446208944789e+07 -1.168309508854e+07 0.000000000000e+00 0.000000000000e+00 0.000000000000e+00 0.000000000000e+00 2.019522784511e+07 2.150325191297e+07  0.000000000000e+00
1.000000000000e-03 1.960039119575e+05 1.000000000000e+00 2.500000003922e+01 0.000000000000e+00 6.243869340040e-05 -3.448773246944e+07 -5.848509424893e+04 -1.449381086746e+07 -1.170678156416e+07 -8.746026681714e-07 7.619684913033e-09 -2.984407753534e-07 0.000000000000e+00 2.022944163369e+07 2.152343699958e+07  7.701647901231e-07
2.000000000000e-03 2.110301634482e+05 1.000000000000e+00 2.499999991814e+01 0.000000000000e+00 6.232677916875e-05 -3.448091748094e+07 -5.857428621055e+04 -1.449156295488e+07 -1.170406266390e+07 -7.224622478615e-07 9.939963358036e-10 -3.159346034098e-07 0.000000000000e+00 2.022551436658e+07 2.151917927431e+07  6.273105399611e-07
3.000000000000e-03 2.214048532335e+05 1.000000000000e+00 2.499999996345e+01 0.000000000000e+00 6.227704517597e-05 -3.447540469363e+07 -5.868055861919e+04 -1.449133247369e+07 -1.170233967196e+07 -5.816984198438e-07 -6.900525448821e-09 -3.713707167656e-07 0.000000000000e+00 2.022302561310e+07 2.151481785037e+07  5.103002582357e-07
4.000000000000e-03 2.285516429807e+05 1.000000000000e+00 2.500000020706e+01 0.000000000000e+00 6.216158111664e-05 -3.447070172976e+07 -5.880926352606e+04 -1.449309511094e+07 -1.170145750562e+07 -4.397830827725e-07 -1.646146138800e-08 -4.696062785980e-07 0.000000000000e+00 2.022175144877e+07 2.150996560261e+07  4.563192512194e-07
1.000000000000e-02 2.383748876322e+05 1.000000000000e+00 2.500562013607e+01 0.000000000000e+00 6.382835711633e-05 -3.443581957895e+07 -6.064908079118e+04 -1.454076068759e+07 -1.170706479401e+07 1.064110372937e-06 -1.531336010823e-07 -2.031771271265e-06 0.000000000000e+00 2.022788168685e+07 2.145299005556e+07  2.737298662743e-06
2.000000000000e-02 2.339019572337e+05 1.000000000000e+00 2.506208476331e+01 0.000000000000e+00 7.446383018660e-05 -3.436712768864e+07 -6.506126897007e+04 -1.466060766786e+07 -1.174086393856e+07 4.870920239535e-06 -4.808961515140e-07 -5.227833740658e-06 0.000000000000e+00 2.025619976502e+07 2.131718841539e+07  8.787164167227e-06
3.000000000000e-02 2.226011893648e+05 1.000000000000e+00 2.517761121051e+01 0.000000000000e+00 8.990534106417e-05 -3.430911105153e+07 -6.957726205616e+04 -1.479619926891e+07 -1.180241320935e+07 9.311939675427e-06 -8.163699236239e-07 -7.977977436255e-06 0.000000000000e+00 2.030257450993e+07 2.116951788467e+07  1.505490513644e-05
4.000000000000e-02 2.085792893110e+05 1.000000000000e+00 2.534734615133e+01 0.000000000000e+00 1.089111706740e-04 -3.426996514471e+07 -7.366453157004e+04 -1.493387502690e+07 -1.188872212034e+07 1.397169005154e-05 -1.119995658941e-06 -9.885888896140e-06 0.000000000000e+00 2.036418743065e+07 2.102510327398e+07  2.085244994076e-05
5.000000000000e-02 1.938518400507e+05 1.000000000000e+00 2.555910063164e+01 0.000000000000e+00 1.290159141733e-04 -3.425176372020e+07 -7.715272620928e+04 -1.506936865707e+07 -1.199518240156e+07 1.860198197868e-05 -1.379118689284e-06 -1.096427042838e-05 0.000000000000e+00 2.043877159294e+07 2.089026123273e+07  2.599830812875e-05
6.000000000000e-02 1.789834898879e+05 1.000000000000e+00 2.579984334791e+01 0.000000000000e+00 1.514277540400e-04 -3.424978275490e+07 -8.009873789509e+04 -1.519596073548e+07 -1.211401342068e+07 2.308928425730e-05 -1.597965271659e-06 -1.125253834483e-05 0.000000000000e+00 2.051991897035e+07 2.076749035949e+07  3.045009363212e-05
7.000000000000e-02 1.648571695325e+05 1.000000000000e+00 2.605851251381e+01 0.000000000000e+00 1.731048252363e-04 -3.426298631982e+07 -8.253974848503e+04 -1.531698924986e+07 -1.224215433230e+07 2.735838570560e-05 -1.779297486911e-06 -1.098836359037e-05 0.000000000000e+00 2.060737663399e+07 2.065627426509e+07  3.434162184333e-05
8.000000000000e-02 1.520598724209e+05 1.000000000000e+00 2.632667934489e+01 0.000000000000e+00 1.949486405718e-04 -3.428663799333e+07 -8.459278339100e+04 -1.543045549269e+07 -1.237469012718e+07 3.140265307097e-05 -1.931808651355e-06 -1.028006594284e-05 0.000000000000e+00 2.069726120440e+07 2.055565269445e+07  3.776007645690e-05
9.000000000000e-02 1.415311319150e+05 1.000000000000e+00 2.659830396968e+01 0.000000000000e+00 2.152434132058e-04 -3.431937427097e+07 -8.631352138883e+04 -1.553938568801e+07 -1.251002230349e+07 3.521335787868e-05 -2.059634902622e-06 -9.299420934501e-06 0.000000000000e+00 2.078959408749e+07 2.046408496705e+07  4.082462404035e-05
1.000000000000e-01 1.342880976520e+05 1.000000000000e+00 2.686923310750e+01 0.000000000000e+00 2.339554554737e-04 -3.435904116756e+07 -8.775701788704e+04 -1.564380306315e+07 -1.264605335871e+07 3.879259805654e-05 -2.166866071061e-06 -8.125198531478e-06 0.000000000000e+00 2.088296586314e+07 2.038071009494e+07  4.359091650359e-05
2.000000000000e-01 1.519776802304e+05 1.000000000000e+00 2.902104310329e+01 0.000000000000e+00 4.279785954303e-04 -3.477317133019e+07 -9.476779902180e+04 -1.626053551085e+07 -1.369843085227e+07 6.249892749123e-05 -2.687666955357e-06 8.055903171764e-06 0.000000000000e+00 2.157737923110e+07 1.991834125984e+07  5.906944105244e-05
3.000000000000e-01 1.790572852396e+05 1.000000000000e+00 3.070768399391e+01 0.000000000000e+00 6.181734666277e-04 -3.511891360757e+07 -9.967437946965e+04 -1.666680258308e+07 -1.450895047351e+07 7.976208597733e-05 -3.052155788626e-06 2.307099784925e-05 0.000000000000e+00 2.209822222139e+07 1.962099535275e+07  7.128826938602e-05
4.000000000000e-01 2.066914115448e+05 1.000000000000e+00 3.205934977555e+01 0.000000000000e+00 7.894347213919e-04 -3.541469358728e+07 -1.035201404068e+05 -1.697198049220e+07 -1.515913106516e+07 9.292553727785e-05 -3.337840886817e-06 3.588538320015e-05 0.000000000000e+00 2.251526838155e+07 1.941355455547e+07  8.137365198183e-05
5.000000000000e-01 2.329672035767e+05 1.000000000000e+00 3.317184845531e+01 0.000000000000e+00 9.482364503778e-04 -3.566636373838e+07 -1.069435853849e+05 -1.721272040279e+07 -1.569419887631e+07 1.034517360796e-04 -3.592153942328e-06 4.681756236402e-05 0.000000000000e+00 2.285776100583e+07 1.925874932134e+07  8.994163912149e-05
6.000000000000e-01 2.574499089701e+05 1.000000000000e+00 3.410964206560e+01 0.000000000000e+00 1.097826292971e-03 -3.588404814170e+07 -1.101647685638e+05 -1.740941193993e+07 -1.614536846151e+07 1.121240428355e-04 -3.831441835619e-06 5.626960414907e-05 0.000000000000e+00 2.314627618105e+07 1.913894304654e+07  9.732899704889e-05
7.000000000000e-01 2.802222965386e+05 1.000000000000e+00 3.491618489167e+01 0.000000000000e+00 1.239941023520e-03 -3.607679013538e+07 -1.132010986571e+05 -1.757303962281e+07 -1.653360027934e+07 1.193850934464e-04 -4.056997785408e-06 6.461204344706e-05 0.000000000000e+00 2.339447667918e+07 1.904576559057e+07  1.037457447032e-04
8.000000000000e-01 3.015584664199e+05 1.000000000000e+00 3.562141889441e+01 0.000000000000e+00 1.375715235332e-03 -3.625173928723e+07 -1.160293719630e+05 -1.771016860423e+07 -1.687334719242e+07 1.255061531494e-04 -4.267098088129e-06 7.213785233767e-05 0.000000000000e+00 2.361175169463e+07 1.897489091588e+07  1.093459841658e-04
9.000000000000e-01 3.214760045040e+05 1.000000000000e+00 3.624655662569e+01 0.000000000000e+00 1.506105375501e-03 -3.641149835599e+07 -1.187507075083e+05 -1.782848148843e+07 -1.717503660113e+07 1.307778514904e-04 -4.469254442926e-06 7.894898039056e-05 0.000000000000e+00 2.380500548185e+07 1.891932315584e+07  1.143281794579e-04
1.000000000000e+00 3.401226122245e+05 1.000000000000e+00 3.680707518524e+01 0.000000000000e+00 1.631739288439e-03 -3.655949597136e+07 -1.213948644357e+05 -1.793219476925e+07 -1.744632774487e+07 1.353573254013e-04 -4.665677528958e-06 8.517330101342e-05 0.000000000000e+00 2.397933949516e+07 1.887609648169e+07  1.187963474394e-04
2.000000000000e+00 4.671720763694e+05 1.000000000000e+00 4.007010834523e+01 0.000000000000e+00 2.628455638858e-03 -3.760851993284e+07 -1.433062006484e+05 -1.847416468558e+07 -1.906493381003e+07 1.565132321095e-04 -6.293376790475e-06 1.251626436844e-04 0.000000000000e+00 2.504920614282e+07 1.884755110331e+07  1.438446699440e-04
3.000000000000e+00 5.669204485162e+05 1.000000000000e+00 4.231089734745e+01 0.000000000000e+00 3.462294919955e-03 -3.843463895903e+07 -1.623358429780e+05 -1.881881920400e+07 -2.020075482816e+07 1.680164489530e-04 -7.707007363535e-06 1.545488279590e-04 0.000000000000e+00 2.581807099706e+07 1.896474068877e+07  1.622538627160e-04
4.000000000000e+00 6.510622430743e+05 1.000000000000e+00 4.402956206316e+01 0.000000000000e+00 4.181339275838e-03 -3.912366868164e+07 -1.789288400831e+05 -1.906818085071e+07 -2.108448665331e+07 1.752482413331e-04 -8.939630005623e-06 1.781111488726e-04 0.000000000000e+00 2.642544539522e+07 1.912971853761e+07  1.773742168277e-04
5.000000000000e+00 7.254035437310e+05 1.000000000000e+00 4.544864994937e+01 0.000000000000e+00 4.815037596512e-03 -3.971877657908e+07 -1.934846438773e+05 -1.926576358120e+07 -2.181974377351e+07 1.804537838924e-04 -1.002091828748e-05 1.980819119188e-04 0.000000000000e+00 2.693476131126e+07 1.930606833011e+07  1.906741666668e-04
6.000000000000e+00 7.929929650988e+05 1.000000000000e+00 4.668777858518e+01 0.000000000000e+00 5.384761044080e-03 -4.024442087604e+07 -2.065806486461e+05 -1.943872039495e+07 -2.246372498448e+07 1.848491549844e-04 -1.099376435602e-05 2.155771038160e-04 0.000000000000e+00 2.738228875182e+07 1.947353364249e+07  2.028695168770e-04
7.000000000000e+00 8.558563136304e+05 1.000000000000e+00 4.776451332755e+01 0.000000000000e+00 5.898912314646e-03 -4.071204807938e+07 -2.182029442978e+05 -1.958233261898e+07 -2.302473883002e+07 1.883178016946e-04 -1.185713489015e-05 2.310805926146e-04 0.000000000000e+00 2.777303984279e+07 1.963977621552e+07  2.139322800471e-04
8.000000000000e+00 9.146399701799e+05 1.000000000000e+00 4.876058458216e+01 0.000000000000e+00 6.372285950747e-03 -4.114094394479e+07 -2.288136363661e+05 -1.971701763572e+07 -2.354305228780e+07 1.916390265539e-04 -1.264535772951e-05 2.453296489960e-04 0.000000000000e+00 2.813367128944e+07 1.979423002428e+07  2.244485091796e-04
9.000000000000e+00 9.703372484239e+05 1.000000000000e+00 4.967363714009e+01 0.000000000000e+00 6.810203160600e-03 -4.153428042010e+07 -2.385321551475e+05 -1.983933248849e+07 -2.401790720055e+07 1.946668542306e-04 -1.336730483898e-05 2.584239940812e-04 0.000000000000e+00 2.846384003638e+07 1.994111291629e+07  2.343237362782e-04
1.000000000000e+01 1.023443027822e+06 1.000000000000e+00 5.051032884249e+01 0.000000000000e+00 7.217054151580e-03 -4.189547291708e+07 -2.474993368298e+05 -1.995000732769e+07 -2.445289583469e+07 1.974078536107e-04 -1.403343833538e-05 2.704699350361e-04 0.000000000000e+00 2.876612535982e+07 2.008096730298e+07  2.435606069512e-04
1.100000000000e+01 1.074252378356e+06 1.000000000000e+00 5.129075261320e+01 0.000000000000e+00 7.597766321747e-03 -4.223233485235e+07 -2.558063076077e+05 -2.005198277514e+07 -2.485823027782e+07 1.999511181883e-04 -1.465052759317e-05 2.817375548756e-04 0.000000000000e+00 2.904751596844e+07 2.021534274128e+07  2.523225599016e-04
1.200000000000e+01 1.123145537297e+06 1.000000000000e+00 5.201381134970e+01 0.000000000000e+00 7.954642608475e-03 -4.254625097341e+07 -2.634788704903e+05 -2.014328693544e+07 -2.523340019854e+07 2.022262593186e-04 -1.522048940730e-05 2.922811402628e-04 0.000000000000e+00 2.930764603580e+07 2.034641712147e+07  2.605989123922e-04
1.300000000000e+01 1.170375194811e+06 1.000000000000e+00 5.268259098611e+01 0.000000000000e+00 8.289892208066e-03 -4.283805829215e+07 -2.706455691238e+05 -2.022569156483e+07 -2.558027471636e+07 2.042716124275e-04 -1.575287273437e-05 3.021043075475e-04 0.000000000000e+00 2.954800819111e+07 2.047268030609e+07  2.683785186199e-04
1.400000000000e+01 1.216652637515e+06 1.000000000000e+00 5.330105528491e+01 0.000000000000e+00 8.605482746636e-03 -4.310948791885e+07 -2.773426473171e+05 -2.029899399709e+07 -2.590070009166e+07 2.060914545182e-04 -1.625036997158e-05 3.112831597172e-04 0.000000000000e+00 2.976972733587e+07 2.059492214442e+07  2.756996872840e-04
1.500000000000e+01 1.261522918597e+06 1.000000000000e+00 5.387297891050e+01 0.000000000000e+00 8.902606514732e-03 -4.336265662149e+07 -2.835818418624e+05 -2.036374950646e+07 -2.619679870389e+07 2.076859940171e-04 -1.671385299495e-05 3.198759035377e-04 0.000000000000e+00 2.997440161061e+07 2.071380435168e+07  2.825922494203e-04
1.600000000000e+01 1.305126560981e+06 1.000000000000e+00 5.440179052023e+01 0.000000000000e+00 9.182715206498e-03 -4.359813632595e+07 -2.894447288000e+05 -2.042156429986e+07 -2.647042335606e+07 2.091028063610e-04 -1.714938173888e-05 3.278916982924e-04 0.000000000000e+00 3.016337466062e+07 2.082790685411e+07  2.890608569554e-04
1.700000000000e+01 1.347593761466e+06 1.000000000000e+00 5.489050806219e+01 0.000000000000e+00 9.447069330541e-03 -4.381633698307e+07 -2.949940768080e+05 -2.047367491338e+07 -2.672312375393e+07 2.103842253029e-04 -1.756161901948e-05 3.353421759968e-04 0.000000000000e+00 3.033771188346e+07 2.093604010838e+07  2.951108685525e-04
1.800000000000e+01 1.389052735390e+06 1.000000000000e+00 5.534178435914e+01 0.000000000000e+00 9.696727717744e-03 -4.401814626972e+07 -3.002675049645e+05 -2.052075260388e+07 -2.695629563430e+07 2.115491216412e-04 -1.795335939681e-05 3.422542459059e-04 0.000000000000e+00 3.049839816930e+07 2.103795895205e+07  3.007563531321e-04
1.900000000000e+01 1.429591500330e+06 1.000000000000e+00 5.575796323472e+01 0.000000000000e+00 9.932584219112e-03 -4.420448448881e+07 -3.052831969832e+05 -2.056309395874e+07 -2.717112400786e+07 2.126073273786e-04 -1.832595366106e-05 3.486609066004e-04 0.000000000000e+00 3.064623415180e+07 2.113381134085e+07  3.060162767984e-04
2.000000000000e+01 1.469293608682e+06 1.000000000000e+00 5.614111083334e+01 0.000000000000e+00 1.015517059591e-02 -4.437808197108e+07 -3.099554148560e+05 -2.059863900194e+07 -2.736853287069e+07 2.134917500851e-04 -1.867303270304e-05 3.546729913296e-04 0.000000000000e+00 3.078175128124e+07 2.122727685868e+07  3.109629350215e-04
2.100000000000e+01 1.508082098440e+06 1.000000000000e+00 5.651572149916e+01 0.000000000000e+00 1.036824474867e-02 -4.454378421735e+07 -3.144606502961e+05 -2.063534251419e+07 -2.756084351478e+07 2.144800620039e-04 -1.900770733573e-05 3.604526847980e-04 0.000000000000e+00 3.091332341544e+07 2.131419405811e+07  3.157559177669e-04
2.200000000000e+01 1.546103877700e+06 1.000000000000e+00 5.687205991380e+01 0.000000000000e+00 1.057191506593e-02 -4.470014781534e+07 -3.187881291339e+05 -2.067014281663e+07 -2.774337270809e+07 2.154519269731e-04 -1.932917719226e-05 3.659397578877e-04 0.000000000000e+00 3.103788778002e+07 2.139642141342e+07  3.203277454719e-04
2.300000000000e+01 1.583429864235e+06 1.000000000000e+00 5.720737052371e+01 0.000000000000e+00 1.076616609416e-02 -4.484868958724e+07 -3.228478162679e+05 -2.070002587884e+07 -2.791471849943e+07 2.162989334092e-04 -1.963075395078e-05 3.711940878265e-04 0.000000000000e+00 3.115447798851e+07 2.147783170607e+07  3.247114005524e-04
2.400000000000e+01 1.620108796691e+06 1.000000000000e+00 5.752132531308e+01 0.000000000000e+00 1.095146237634e-02 -4.498848309373e+07 -3.267095787274e+05 -2.072624056334e+07 -2.807486488035e+07 2.170548973166e-04 -1.991762773349e-05 3.761686936935e-04 0.000000000000e+00 3.126319617914e+07 2.155654898073e+07  3.288716969647e-04
2.500000000000e+01 1.656192917748e+06 1.000000000000e+00 5.781431139797e+01 0.000000000000e+00 1.112815898190e-02 -4.511945974946e+07 -3.303933450884e+05 -2.074911572033e+07 -2.822402596694e+07 2.177303190345e-04 -2.019127894888e-05 3.808593139358e-04 0.000000000000e+00 3.136420047891e+07 2.163213573098e+07  3.328043751888e-04
2.600000000000e+01 1.691716213409e+06 1.000000000000e+00 5.808694277237e+01 0.000000000000e+00 1.129659358600e-02 -4.524163028359e+07 -3.339149554855e+05 -2.076895023320e+07 -2.836250969175e+07 2.183362375455e-04 -2.045288429266e-05 3.852662846652e-04 0.000000000000e+00 3.145769673618e+07 2.170423831004e+07  3.365088306508e-04
2.700000000000e+01 1.726707846541e+06 1.000000000000e+00 5.833989622005e+01 0.000000000000e+00 1.145708229457e-02 -4.535517335458e+07 -3.372876461023e+05 -2.078599417415e+07 -2.849068156579e+07 2.188795930874e-04 -2.070342702419e-05 3.893938936086e-04 0.000000000000e+00 3.154394969817e+07 2.177269430312e+07  3.399873517318e-04
2.800000000000e+01 1.761207355485e+06 1.000000000000e+00 5.857384815821e+01 0.000000000000e+00 1.160994196686e-02 -4.546011629903e+07 -3.405325971214e+05 -2.080069344519e+07 -2.860892028395e+07 2.193734361108e-04 -2.094448052847e-05 3.932396445015e-04 0.000000000000e+00 3.162324334273e+07 2.183705707836e+07  3.432372419235e-04
2.900000000000e+01 1.795239383678e+06 1.000000000000e+00 5.878945157670e+01 0.000000000000e+00 1.175543355969e-02 -4.555670430936e+07 -3.436520016400e+05 -2.081308868619e+07 -2.871754010468e+07 2.198203319259e-04 -2.117620772128e-05 3.968137003199e-04 0.000000000000e+00 3.169577770008e+07 2.189740735379e+07  3.462653131529e-04
3.000000000000e+01 1.828814801809e+06 1.000000000000e+00 5.898732735168e+01 0.000000000000e+00 1.189382598480e-02 -4.564517197705e+07 -3.466585400666e+05 -2.082341122875e+07 -2.881689807089e+07 2.202248287281e-04 -2.139955057582e-05 4.001207303413e-04 0.000000000000e+00 3.176182709223e+07 2.195367251808e+07  3.490743144687e-04
3.100000000000e+01 1.861850495525e+06 1.000000000000e+00 5.918598549435e+01 0.000000000000e+00 1.202764093782e-02 -4.572971959836e+07 -3.496318068027e+05 -2.083669139037e+07 -2.891616941089e+07 2.207717097077e-04 -2.162042181908e-05 4.033146883955e-04 0.000000000000e+00 3.182752679987e+07 2.200420122109e+07  3.518021323051e-04
3.200000000000e+01 1.894421488072e+06 1.000000000000e+00 5.937697639130e+01 0.000000000000e+00 1.215666000126e-02 -4.580915459170e+07 -3.525507346056e+05 -2.085022545071e+07 -2.901128782833e+07 2.213542368886e-04 -2.183725645587e-05 4.063449645161e-04 0.000000000000e+00 3.189022262358e+07 2.205068210871e+07  3.543985696228e-04
3.300000000000e+01 1.926555659600e+06 1.000000000000e+00 5.955745626517e+01 0.000000000000e+00 1.228085747283e-02 -4.588290870895e+07 -3.554146251363e+05 -2.086322042493e+07 -2.910085901120e+07 2.219417278975e-04 -2.205000260957e-05 4.091892236947e-04 0.000000000000e+00 3.194899604836e+07 2.209342210591e+07  3.568422562862e-04
3.400000000000e+01 1.958279953357e+06 1.000000000000e+00 5.972658109677e+01 0.000000000000e+00 1.240022430337e-02 -4.595095768339e+07 -3.582201677424e+05 -2.087540295492e+07 -2.918450005167e+07 2.225208617786e-04 -2.225841434603e-05 4.118433969413e-04 0.000000000000e+00 3.200362022999e+07 2.213265202310e+07  3.591282235543e-04
3.500000000000e+01 1.989627564578e+06 1.000000000000e+00 5.988415469201e+01 0.000000000000e+00 1.251494092654e-02 -4.601242934735e+07 -3.610107897806e+05 -2.088766596647e+07 -2.926214900343e+07 2.231217324679e-04 -2.246571769744e-05 4.142720175772e-04 0.000000000000e+00 3.205408143908e+07 2.216686226582e+07  3.612279712137e-04
3.600000000000e+01 2.020634135390e+06 1.000000000000e+00 6.003022103162e+01 0.000000000000e+00 1.262520567626e-02 -4.606638776730e+07 -3.638412176487e+05 -2.090125409859e+07 -2.933391404721e+07 2.237831213535e-04 -2.267597805336e-05 4.164328742961e-04 0.000000000000e+00 3.210051863770e+07 2.219418466351e+07  3.631076640544e-04
3.700000000000e+01 2.051361737692e+06 1.000000000000e+00 6.016492785138e+01 0.000000000000e+00 1.273156604822e-02 -4.610942944822e+07 -3.668846739442e+05 -2.092010137528e+07 -2.940000610724e+07 2.246392782915e-04 -2.290206337817e-05 4.181876805343e-04 0.000000000000e+00 3.214317897691e+07 2.220837102987e+07  3.646585749401e-04
3.800000000000e+01 2.083287020103e+06 1.000000000000e+00 6.028866548787e+01 0.000000000000e+00 1.284887189104e-02 -4.603251420927e+07 -3.755976768348e+05 -2.106827421632e+07 -2.946506905249e+07 2.299127537047e-04 -2.354931502146e-05 4.151007415482e-04 0.000000000000e+00 3.218861915936e+07 2.201188454743e+07  3.624848356961e-04
3.900000000000e+01 2.113075158540e+06 1.000000000000e+00 6.040116681718e+01 0.000000000000e+00 1.294139647311e-02 -4.610175047322e+07 -3.767124022559e+05 -2.104408242300e+07 -2.951833669777e+07 2.293196335828e-04 -2.363212319561e-05 4.179778064103e-04 0.000000000000e+00 3.222138986466e+07 2.208575105674e+07  3.648531969526e-04
4.000000000000e+01 2.142460697470e+06 1.000000000000e+00 6.050277272890e+01 0.000000000000e+00 1.302839750665e-02 -4.617309663866e+07 -3.773485676429e+05 -2.100896943285e+07 -2.956514799258e+07 2.284083383878e-04 -2.367938119579e-05 4.210207084232e-04 0.000000000000e+00 3.224907135470e+07 2.217115016701e+07  3.673503842517e-04
4.200000000000e+01 2.199743116275e+06 1.000000000000e+00 6.070353137102e+01 0.000000000000e+00 1.319188386428e-02 -4.630527509095e+07 -3.785995439798e+05 -2.094559836742e+07 -2.965668914288e+07 2.268989528857e-04 -2.377231086652e-05 4.267745907217e-04 0.000000000000e+00 3.230252086708e+07 2.232746902112e+07  3.721294756467e-04
4.400000000000e+01 2.255508367281e+06 1.000000000000e+00 6.088145664395e+01 0.000000000000e+00 1.334402547862e-02 -4.642405312824e+07 -3.797527829416e+05 -2.088216816811e+07 -2.973618836242e+07 2.254400253691e-04 -2.385798004654e-05 4.320833977076e-04 0.000000000000e+00 3.234746988626e+07 2.247366975392e+07  3.765872875017e-04
5.000000000000e+01 2.407029548280e+06 1.000000000000e+00 6.110376251630e+01 0.000000000000e+00 1.365707732464e-02 -4.663039888016e+07 -3.819196344225e+05 -2.069722634096e+07 -2.982226167601e+07 2.209727633740e-04 -2.401894615655e-05 4.421496743637e-04 0.000000000000e+00 3.238329563238e+07 2.279456470006e+07  3.851661857529e-04
6.500000000000e+01 2.738412900207e+06 1.000000000000e+00 6.116215475679e+01 0.000000000000e+00 1.418046938711e-02 -4.678438366968e+07 -3.857281988871e+05 -2.023492329245e+07 -2.975380785672e+07 2.127107579037e-04 -2.430186808821e-05 4.567783600202e-04 0.000000000000e+00 3.225770493962e+07 2.330682560594e+07  3.981236088635e-04
8.000000000000e+01 2.993465893724e+06 1.000000000000e+00 6.080672396127e+01 0.000000000000e+00 1.441736548890e-02 -4.669790919150e+07 -3.872474826679e+05 -1.986280821147e+07 -2.949459839920e+07 2.062948872428e-04 -2.441472916906e-05 4.609719974633e-04 0.000000000000e+00 3.201843860072e+07 2.355576036474e+07  4.021751281596e-04
1.000000000000e+02 3.294145306883e+06 1.000000000000e+00 6.031955409285e+01 0.000000000000e+00 1.461061611150e-02 -4.651664620570e+07 -3.885274026949e+05 -1.946709210354e+07 -2.915364565503e+07 2.003635533604e-04 -2.450980894250e-05 4.630060652598e-04 0.000000000000e+00 3.171246132142e+07 2.374749677555e+07  4.044166437264e-04
1.860000000000e+02 3.892626698402e+06 1.000000000000e+00 5.884437027137e+01 0.000000000000e+00 1.481956935731e-02 -4.581791349965e+07 -3.902031400018e+05 -1.857881060429e+07 -2.816624475296e+07 1.896415917938e-04 -2.463429228530e-05 4.593244874408e-04 0.000000000000e+00 3.085432295230e+07 2.394141370705e+07  4.020652138918e-04
2.720000000000e+02 4.182948269365e+06 1.000000000000e+00 5.740652461788e+01 0.000000000000e+00 1.458697849274e-02 -4.514863691314e+07 -3.877906486487e+05 -1.818272700372e+07 -2.734582394279e+07 1.840276634864e-04 -2.445507864193e-05 4.435633910844e-04 0.000000000000e+00 3.022572928655e+07 2.375884132211e+07  3.883051390123e-04
3.580000000000e+02 4.324314095300e+06 1.000000000000e+00 5.632819007730e+01 0.000000000000e+00 1.435667648341e-02 -4.463068315862e+07 -3.855924765504e+05 -1.793662723335e+07 -2.674059998061e+07 1.807861986304e-04 -2.429178585748e-05 4.302244925316e-04 0.000000000000e+00 2.976930345753e+07 2.356936277607e+07  3.765214278195e-04
4.440000000000e+02 4.396443065099e+06 1.000000000000e+00 5.547754095058e+01 0.000000000000e+00 1.414543775912e-02 -4.422341191452e+07 -3.835789634033e+05 -1.777469290314e+07 -2.627305923865e+07 1.785476172812e-04 -2.414221059513e-05 4.188733972377e-04 0.000000000000e+00 2.942372135210e+07 2.339716783962e+07  3.664612756189e-04
5.300000000000e+02 4.435407630124e+06 1.000000000000e+00 5.480783314931e+01 0.000000000000e+00 1.396417151301e-02 -4.390348043452e+07 -3.818520406827e+05 -1.766356401275e+07 -2.591000697945e+07 1.769459883397e-04 -2.401392490731e-05 4.095162435392e-04 0.000000000000e+00 2.915901714224e+07 2.325055900714e+07  3.581636299600e-04
6.160000000000e+02 4.457923140021e+06 1.000000000000e+00 5.428842769212e+01 0.000000000000e+00 1.381488653062e-02 -4.365582396374e+07 -3.804295549933e+05 -1.758693929655e+07 -2.563139740394e+07 1.757963015928e-04 -2.390825454181e-05 4.020139487648e-04 0.000000000000e+00 2.895805355474e+07 2.313058977544e+07  3.515135888971e-04
7.020000000000e+02 4.471733458232e+06 1.000000000000e+00 5.390298112949e+01 0.000000000000e+00 1.370070176767e-02 -4.347230087719e+07 -3.793402534716e+05 -1.753396758017e+07 -2.542587041232e+07 1.749790136899e-04 -2.382733500020e-05 3.963476099701e-04 0.000000000000e+00 2.881071295656e+07 2.303927419897e+07  3.464964573695e-04
7.880000000000e+02 4.481352036468e+06 1.000000000000e+00 5.359220289655e+01 0.000000000000e+00 1.359868349991e-02 -4.332647885280e+07 -3.783550547398e+05 -1.750302545413e+07 -2.526428751497e+07 1.743936098372e-04 -2.375414880870e-05 3.914952384646e-04 0.000000000000e+00 2.869793060730e+07 2.295854530910e+07  3.421990119499e-04
8.740000000000e+02 4.489738131595e+06 1.000000000000e+00 5.310537577069e+01 0.000000000000e+00 1.345353397693e-02 -4.309446252470e+07 -3.769828757865e+05 -1.743576607311e+07 -2.500452655449e+07 1.733630949204e-04 -2.365221551502e-05 3.843451797990e-04 0.000000000000e+00 2.851158505077e+07 2.284461992196e+07  3.358913394593e-04
9.370000000000e+02 4.495111994429e+06 1.000000000000e+00 5.275159323252e+01 0.000000000000e+00 1.333561332140e-02 -4.292415661340e+07 -3.758868321028e+05 -1.739924070467e+07 -2.481886933816e+07 1.727929035908e-04 -2.357079512709e-05 3.788059968774e-04 0.000000000000e+00 2.838075555208e+07 2.275105924994e+07  3.310032172840e-04
1.000000000000e+03 4.499302027140e+06 1.000000000000e+00 5.246388243437e+01 0.000000000000e+00 1.323737716028e-02 -4.278175905034e+07 -3.750050683900e+05 -1.736983024238e+07 -2.466676793667e+07 1.724324753061e-04 -2.350529267985e-05 3.742489048497e-04 0.000000000000e+00 2.827278574313e+07 2.267165743071e+07  3.269862881368e-04
1.100000000000e+03 4.503447343828e+06 1.000000000000e+00 5.216936964690e+01 0.000000000000e+00 1.313491100137e-02 -4.263389535542e+07 -3.741013266660e+05 -1.734059850987e+07 -2.451067980342e+07 1.721269961680e-04 -2.343815758035e-05 3.695370956795e-04 0.000000000000e+00 2.816172455624e+07 2.258817814514e+07  3.228406717460e-04
1.200000000000e+03 4.506708720430e+06 1.000000000000e+00 5.192025738058e+01 0.000000000000e+00 1.304955795052e-02 -4.251040423009e+07 -3.733373161040e+05 -1.731523694282e+07 -2.437895332354e+07 1.718211115703e-04 -2.338140251003e-05 3.655863989170e-04 0.000000000000e+00 2.806819816548e+07 2.251975066722e+07  3.193751993619e-04
1.300000000000e+03 4.509614096533e+06 1.000000000000e+00 5.168219822456e+01 0.000000000000e+00 1.296826849474e-02 -4.239292696508e+07 -3.726062856230e+05 -1.729093348394e+07 -2.425321662111e+07 1.715143324665e-04 -2.332709738859e-05 3.618188784426e-04 0.000000000000e+00 2.797902569004e+07 2.245512822538e+07  3.160781612936e-04
1.400000000000e+03 4.512353612459e+06 1.000000000000e+00 5.143780994797e+01 0.000000000000e+00 1.288434008362e-02 -4.227218687660e+07 -3.718535313009e+05 -1.726633583917e+07 -2.412419742099e+07 1.712068226053e-04 -2.327117849609e-05 3.579403635292e-04 0.000000000000e+00 2.788757337892e+07 2.238863576856e+07  3.126913668040e-04
1.500000000000e+03 4.514993501238e+06 1.000000000000e+00 5.117703367254e+01 0.000000000000e+00 1.279386149723e-02 -4.214283853802e+07 -3.710469217529e+05 -1.724068101410e+07 -2.398654267504e+07 1.708982989031e-04 -2.321125892967e-05 3.537803664680e-04 0.000000000000e+00 2.779002074239e+07 2.231704766840e+07  3.090673083242e-04
1.600000000000e+03 4.517554546543e+06 1.000000000000e+00 5.089373351050e+01 0.000000000000e+00 1.269443707016e-02 -4.200163014085e+07 -3.701665492900e+05 -1.721353066590e+07 -2.383699782279e+07 1.705886591429e-04 -2.314585983242e-05 3.492342848891e-04 0.000000000000e+00 2.768405287651e+07 2.223843744122e+07  3.051177813015e-04
1.700000000000e+03 4.520041835520e+06 1.000000000000e+00 5.058412186792e+01 0.000000000000e+00 1.258458543840e-02 -4.184656063698e+07 -3.692005203624e+05 -1.718462198942e+07 -2.367355807757e+07 1.702777644644e-04 -2.307409768352e-05 3.442374166219e-04 0.000000000000e+00 2.756824690132e+07 2.215167471752e+07  3.007909245271e-04
1.800000000000e+03 4.522455244882e+06 1.000000000000e+00 5.024591284061e+01 0.000000000000e+00 1.246341259537e-02 -4.167641601863e+07 -3.681412955579e+05 -1.715379042679e+07 -2.349500982055e+07 1.699656293135e-04 -2.299541241232e-05 3.387507965443e-04 0.000000000000e+00 2.744173875532e+07 2.205614346093e+07  2.960587643835e-04
1.900000000000e+03 4.524794537194e+06 1.000000000000e+00 4.987782121186e+01 0.000000000000e+00 1.233041025964e-02 -4.149052364259e+07 -3.669846627833e+05 -1.712095534226e+07 -2.330067725365e+07 1.696521365104e-04 -2.290949112050e-05 3.327523186279e-04 0.000000000000e+00 2.730405207950e+07 2.195157625498e+07  2.909095143528e-04
2.000000000000e+03 4.527058883136e+06 1.000000000000e+00 4.947924582705e+01 0.000000000000e+00 1.218534709587e-02 -4.128856264774e+07 -3.657286447149e+05 -1.708606448182e+07 -2.309023804606e+07 1.693372314657e-04 -2.281618692113e-05 3.262319514477e-04 0.000000000000e+00 2.715495505854e+07 2.183795526850e+07  2.853434838732e-04