 TITLE = "Time curves in points"
 VARIABLES = "TIME"  "PRESSURE1"  "SATURATION1"  "TEMPERATURE1"  "DISPLACEMENT_X1"  "DISPLACEMENT_Y1"  "STRESS_XX"  "STRESS_XY"  "STRESS_YY"  "STRESS_ZZ"  "STRAIN_XX"  "STRAIN_XY"  "STRAIN_YY"  "STRAIN_PLS"  p_(1st_Invariant)  q_(2nd_Invariant)   Effective_Strain
 ZONE T="POINT=POINT10"
0.000000000000e+00 1.000000000000e+05 1.000000000000e+00 2.500000000000e+01 0.000000000000e+00 0.000000000000e+00 -3.864302542005e+07 -1.960132696367e+04 -1.523974570659e+07 -1.317212244625e+07 0.000000000000e+00 0.000000000000e+00 0.000000000000e+00 0.000000000000e+00 2.235163119096e+07 2.450263017377e+07  0.000000000000e+00
1.000000000000e-03 1.740556493452e+05 1.000000000000e+00 2.500000447452e+01 0.000000000000e+00 -7.462809036888e-04 -4.769442545378e+07 1.334123855357e+05 -5.614839661351e+06 -1.300007133056e+07 -3.425853284070e-04 1.136673292852e-05 3.511060402404e-04 0.000000000000e+00 2.210311214856e+07 3.891682276654e+07  6.010919602581e-04
2.000000000000e-03 1.919940503962e+05 1.000000000000e+00 2.500004424458e+01 0.000000000000e+00 -7.463059988604e-04 -4.768352587065e+07 1.333349440923e+05 -5.612450212923e+06 -1.299609254015e+07 -3.423282703919e-04 1.136098013559e-05 3.510470075381e-04 0.000000000000e+00 2.209735620791e+07 3.890898534604e+07  6.008187553137e-04
3.000000000000e-03 2.044247639721e+05 1.000000000000e+00 2.500022317481e+01 0.000000000000e+00 -7.461995085224e-04 -4.767366513589e+07 1.332223013500e+05 -5.613551105953e+06 -1.299350562644e+07 -3.420580998958e-04 1.135261238901e-05 3.509100318593e-04 0.000000000000e+00 2.209357395610e+07 3.889946576514e+07  6.004663673514e-04
4.000000000000e-03 2.130107233903e+05 1.000000000000e+00 2.500077028311e+01 0.000000000000e+00 -7.460876663861e-04 -4.766420193746e+07 1.330601780176e+05 -5.617974104342e+06 -1.299213084519e+07 -3.417576729720e-04 1.134056894147e-05 3.506946857582e-04 0.000000000000e+00 2.209143562900e+07 3.888780147120e+07  6.000195787593e-04
1.000000000000e-02 2.252844771433e+05 1.000000000000e+00 2.508185242243e+01 0.000000000000e+00 -7.419278560271e-04 -4.761399604550e+07 1.309011935465e+05 -5.709154351699e+06 -1.302988918600e+07 -3.384904300403e-04 1.118018723790e-05 3.487104435153e-04 0.000000000000e+00 2.211767986107e+07 3.876707477938e+07  5.954703035337e-04
2.000000000000e-02 2.219294927555e+05 1.000000000000e+00 2.544179078192e+01 0.000000000000e+00 -7.276371640433e-04 -4.759168167623e+07 1.273198276313e+05 -5.919294025116e+06 -1.320363816818e+07 -3.312080769868e-04 1.091414291277e-05 3.473587892691e-04 0.000000000000e+00 2.223820462318e+07 3.855051465598e+07  5.880155702944e-04
3.000000000000e-02 2.111384217562e+05 1.000000000000e+00 2.593979075627e+01 0.000000000000e+00 -7.099994709716e-04 -4.762705379302e+07 1.245643650816e+05 -6.139606928287e+06 -1.344551219019e+07 -3.235380062216e-04 1.070945140908e-05 3.481596308259e-04 0.000000000000e+00 2.240405763717e+07 3.836049649759e+07  5.821330774483e-04
4.000000000000e-02 1.974241964817e+05 1.000000000000e+00 2.649896841115e+01 0.000000000000e+00 -6.902282019365e-04 -4.769944007394e+07 1.225444909800e+05 -6.350475609416e+06 -1.371794290623e+07 -3.161077843451e-04 1.055940361867e-05 3.504462206944e-04 0.000000000000e+00 2.258928619653e+07 3.820241281208e+07  5.777975132282e-04
5.000000000000e-02 1.829113713786e+05 1.000000000000e+00 2.707130627529e+01 0.000000000000e+00 -6.704607286440e-04 -4.779342750001e+07 1.210702770785e+05 -6.546650948896e+06 -1.399831358320e+07 -3.091849778837e-04 1.044989058599e-05 3.535734760865e-04 0.000000000000e+00 2.277946401070e+07 3.807244098160e+07  5.746797034564e-04
6.000000000000e-02 1.682270725788e+05 1.000000000000e+00 2.763110811857e+01 0.000000000000e+00 -6.492166276667e-04 -4.789560958112e+07 1.199419669312e+05 -6.724234449883e+06 -1.427239296347e+07 -3.028002210573e-04 1.036607326076e-05 3.571576087459e-04 0.000000000000e+00 2.296407899816e+07 3.796487744819e+07  5.724677289268e-04
7.000000000000e-02 1.542556228615e+05 1.000000000000e+00 2.816623668210e+01 0.000000000000e+00 -6.291820626849e-04 -4.800188875305e+07 1.190717874400e+05 -6.887679173786e+06 -1.453585890431e+07 -2.969618553552e-04 1.030143135570e-05 3.608726825178e-04 0.000000000000e+00 2.314180894372e+07 3.787435217201e+07  5.708758326774e-04
8.000000000000e-02 1.416079441769e+05 1.000000000000e+00 2.867201626895e+01 0.000000000000e+00 -6.092786511011e-04 -4.810665858800e+07 1.183613623256e+05 -7.037570904127e+06 -1.478537308309e+07 -2.915856368702e-04 1.024865691863e-05 3.645729448882e-04 0.000000000000e+00 2.330986752507e+07 3.779610116112e+07  5.696972485455e-04
9.000000000000e-02 1.312089199408e+05 1.000000000000e+00 2.914763495597e+01 0.000000000000e+00 -5.910542800547e-04 -4.820946104953e+07 1.177791937807e+05 -7.177650865512e+06 -1.502146535389e+07 -2.866348725256e-04 1.020541011244e-05 3.681391163809e-04 0.000000000000e+00 2.346952575631e+07 3.772705370573e+07  5.687881143622e-04
1.000000000000e-01 1.240701125961e+05 1.000000000000e+00 2.959416633005e+01 0.000000000000e+00 -5.744560755138e-04 -4.830957564361e+07 1.172972973243e+05 -7.308921930146e+06 -1.524445785224e+07 -2.820708360814e-04 1.016961208996e-05 3.715459124904e-04 0.000000000000e+00 2.362098514200e+07 3.766570656310e+07  5.680870099421e-04
2.000000000000e-01 1.432624336946e+05 1.000000000000e+00 3.250759920630e+01 0.000000000000e+00 -3.999881771915e-04 -4.896980590023e+07 1.143527936796e+05 -8.085298246750e+06 -1.668427786622e+07 -2.531146450937e-04 9.950877533498e-06 3.961881069643e-04 0.000000000000e+00 2.457979400440e+07 3.733576834864e+07  5.671067903283e-04
3.000000000000e-01 1.717948314734e+05 1.000000000000e+00 3.457268545528e+01 0.000000000000e+00 -2.252607633708e-04 -4.940488256467e+07 1.115790354246e+05 -8.625146297130e+06 -1.769441256622e+07 -2.317553466299e-04 9.744826920269e-06 4.136558968075e-04 0.000000000000e+00 2.524148047601e+07 3.708683787760e+07  5.665453135985e-04
4.000000000000e-01 2.008799525264e+05 1.000000000000e+00 3.613564746535e+01 0.000000000000e+00 -6.624860607675e-05 -4.972789697751e+07 1.090451483155e+05 -9.044081258294e+06 -1.846128143825e+07 -2.152693238604e-04 9.556595306454e-06 4.265791563536e-04 0.000000000000e+00 2.574441989135e+07 3.688854234753e+07  5.660512790671e-04
5.000000000000e-01 2.285057154166e+05 1.000000000000e+00 3.737741631547e+01 0.000000000000e+00 8.250392324285e-05 -4.997707399890e+07 1.066155524676e+05 -9.387267205640e+06 -1.907197743193e+07 -2.018414763181e-04 9.376111043467e-06 4.365152437890e-04 0.000000000000e+00 2.614543954549e+07 3.671865481436e+07  5.653814245614e-04
6.000000000000e-01 2.541974450547e+05 1.000000000000e+00 3.839981986304e+01 0.000000000000e+00 2.235860092319e-04 -5.017774726944e+07 1.042574736355e+05 -9.678681950714e+06 -1.957640777398e+07 -1.905590708050e-04 9.200939473084e-06 4.444272516765e-04 0.000000000000e+00 2.647761233138e+07 3.656943029912e+07  5.645989350683e-04
7.000000000000e-01 2.780400045055e+05 1.000000000000e+00 3.926450008438e+01 0.000000000000e+00 3.582673063040e-04 -5.034742410973e+07 1.020029250963e+05 -9.930052138318e+06 -2.000466919978e+07 -1.809545004859e-04 9.033458724453e-06 4.509974976667e-04 0.000000000000e+00 2.676071514927e+07 3.644041073531e+07  5.639132124609e-04
8.000000000000e-01 3.003027005535e+05 1.000000000000e+00 4.001102928039e+01 0.000000000000e+00 4.872155083107e-04 -5.049948361978e+07 9.991519029969e+04 -1.014618158087e+07 -2.037593810327e+07 -1.728124373006e-04 8.878369853850e-06 4.567598205018e-04 0.000000000000e+00 2.700720110131e+07 3.633541520822e+07  5.636168257835e-04
9.000000000000e-01 3.210277039390e+05 1.000000000000e+00 4.066608925883e+01 0.000000000000e+00 6.113799299084e-04 -5.063524936457e+07 9.792114919912e+04 -1.033822432251e+07 -2.070322488486e+07 -1.656987987910e-04 8.730241086378e-06 4.617831705572e-04 0.000000000000e+00 2.722556619064e+07 3.624408285955e+07  5.634228931470e-04
1.000000000000e+00 3.403771986573e+05 1.000000000000e+00 4.124850062972e+01 0.000000000000e+00 7.313329852373e-04 -5.075884067106e+07 9.598776307243e+04 -1.051233786077e+07 -2.099615628967e+07 -1.594090237110e-04 8.586618116967e-06 4.661964056003e-04 0.000000000000e+00 2.742244494050e+07 3.616326935442e+07  5.632827259393e-04
2.000000000000e+00 4.704530123069e+05 1.000000000000e+00 4.452435316778e+01 0.000000000000e+00 1.693580765734e-03 -5.156904672499e+07 7.988409337119e+04 -1.162291129274e+07 -2.271933131989e+07 -1.254987474485e-04 7.390345510589e-06 4.889501792495e-04 0.000000000000e+00 2.863709644587e+07 3.571532333016e+07  5.624488421893e-04
3.000000000000e+00 5.717561879422e+05 1.000000000000e+00 4.671041876856e+01 0.000000000000e+00 2.503435238315e-03 -5.216933841961e+07 6.586121746814e+04 -1.245661949107e+07 -2.391591955989e+07 -1.033505900487e-04 6.348646157791e-06 5.024285807973e-04 0.000000000000e+00 2.951395915685e+07 3.540266449172e+07  5.613938274262e-04
4.000000000000e+00 6.567912669109e+05 1.000000000000e+00 4.835209967221e+01 0.000000000000e+00 3.204051630964e-03 -5.265113435930e+07 5.358743395748e+04 -1.313260700236e+07 -2.483937446282e+07 -8.694611427089e-05 5.436879382713e-06 5.116202267726e-04 0.000000000000e+00 3.020770527483e+07 3.515873737104e+07  5.602561493658e-04
5.000000000000e+00 7.317200884834e+05 1.000000000000e+00 4.969152725563e+01 0.000000000000e+00 3.822421822845e-03 -5.306095935876e+07 4.281258367764e+04 -1.370416024938e+07 -2.560410480327e+07 -7.376391589147e-05 4.636461933354e-06 5.187953759571e-04 0.000000000000e+00 3.078974147047e+07 3.496037883166e+07  5.593948750363e-04
6.000000000000e+00 7.997471659688e+05 1.000000000000e+00 5.085993147088e+01 0.000000000000e+00 4.378867638258e-03 -5.341899465032e+07 3.312681779513e+04 -1.421306234216e+07 -2.627444978950e+07 -6.216384151823e-05 3.916947896367e-06 5.247918262851e-04 0.000000000000e+00 3.130216892733e+07 3.478085030102e+07  5.585158077349e-04
7.000000000000e+00 8.629641263324e+05 1.000000000000e+00 5.185897481082e+01 0.000000000000e+00 4.881413116586e-03 -5.373231996971e+07 2.449386976116e+04 -1.465603445846e+07 -2.685243917295e+07 -5.233346199590e-05 3.275643185273e-06 5.298067533505e-04 0.000000000000e+00 3.174693120037e+07 3.462831188971e+07  5.578465723178e-04
8.000000000000e+00 9.220342046367e+05 1.000000000000e+00 5.279544710174e+01 0.000000000000e+00 5.344057172789e-03 -5.402567678935e+07 1.663334205104e+04 -1.506400588327e+07 -2.739169172250e+07 -4.320019202811e-05 2.691718269664e-06 5.346829094125e-04 0.000000000000e+00 3.216045813171e+07 3.449169797571e+07  5.575591543608e-04
9.000000000000e+00 9.779873130336e+05 1.000000000000e+00 5.365098589801e+01 0.000000000000e+00 5.771999059583e-03 -5.429429349370e+07 9.458411634776e+03 -1.543505646837e+07 -2.788408035475e+07 -3.488866327747e-05 2.158723438742e-06 5.391897511637e-04 0.000000000000e+00 3.253781010561e+07 3.436945149933e+07  5.574660496541e-04
1.000000000000e+01 1.031317419010e+06 1.000000000000e+00 5.443079723345e+01 0.000000000000e+00 6.169778602591e-03 -5.453727126845e+07 2.821326716030e+03 -1.577600552498e+07 -2.833322605263e+07 -2.723099756107e-05 1.665682844777e-06 5.432084835537e-04 0.000000000000e+00 3.288216761535e+07 3.425471896577e+07  5.573306166197e-04
1.100000000000e+01 1.082320970988e+06 1.000000000000e+00 5.515968595864e+01 0.000000000000e+00 6.541879988681e-03 -5.476648550325e+07 -3.304385434838e+03 -1.609012080661e+07 -2.875226740694e+07 -2.018027597929e-05 1.210629942142e-06 5.471057376819e-04 0.000000000000e+00 3.320295790560e+07 3.415355582770e+07  5.574738320261e-04
1.200000000000e+01 1.131384670317e+06 1.000000000000e+00 5.583133115128e+01 0.000000000000e+00 6.890617409500e-03 -5.498031131965e+07 -8.953443911070e+03 -1.637669510877e+07 -2.913839136062e+07 -1.378063088053e-05 7.909855981929e-07 5.508032961669e-04 0.000000000000e+00 3.349846592968e+07 3.406541783052e+07  5.578229743769e-04
1.300000000000e+01 1.178764923901e+06 1.000000000000e+00 5.644833607324e+01 0.000000000000e+00 7.218292578036e-03 -5.517747291539e+07 -1.423497183046e+04 -1.664142090930e+07 -2.949384136167e+07 -7.901347254496e-06 3.986435241812e-07 5.541730521862e-04 0.000000000000e+00 3.377091172879e+07 3.398427696225e+07  5.581660985157e-04
1.400000000000e+01 1.225175125999e+06 1.000000000000e+00 5.701464568575e+01 0.000000000000e+00 7.526801464960e-03 -5.535962059168e+07 -1.917255652771e+04 -1.688493589435e+07 -2.982068497410e+07 -2.526926769148e-06 3.185151809998e-08 5.572681154890e-04 0.000000000000e+00 3.402174715337e+07 3.391072400299e+07  5.585358687333e-04
1.500000000000e+01 1.270162624619e+06 1.000000000000e+00 5.753406333436e+01 0.000000000000e+00 7.817279585390e-03 -5.552849231551e+07 -2.377300274003e+04 -1.710804969192e+07 -3.012101737842e+07 2.355898506109e-06 -3.098959148154e-07 5.601362351682e-04 0.000000000000e+00 3.425251979528e+07 3.384531661113e+07  5.589622672354e-04
1.600000000000e+01 1.313869667188e+06 1.000000000000e+00 5.801007034821e+01 0.000000000000e+00 8.091220250619e-03 -5.568309506127e+07 -2.810025069617e+04 -1.731459436111e+07 -3.039690808273e+07 6.860879823861e-06 -6.313486201291e-07 5.627119450443e-04 0.000000000000e+00 3.446486583504e+07 3.378375917469e+07  5.593141349370e-04
1.700000000000e+01 1.356427998351e+06 1.000000000000e+00 5.844572204304e+01 0.000000000000e+00 8.349931774417e-03 -5.582222950405e+07 -3.220814582971e+04 -1.750785156358e+07 -3.065005074798e+07 1.109547094417e-05 -9.365065443344e-07 5.649362622331e-04 0.000000000000e+00 3.466004393854e+07 3.372205334705e+07  5.594734016126e-04
1.800000000000e+01 1.397969984871e+06 1.000000000000e+00 5.884370166558e+01 0.000000000000e+00 8.594452794218e-03 -5.594641361537e+07 -3.612291646095e+04 -1.768934255100e+07 -3.088199594768e+07 1.509802565496e-05 -1.227318076941e-06 5.668102758321e-04 0.000000000000e+00 3.483925070468e+07 3.365919229780e+07  5.594181280675e-04
1.900000000000e+01 1.438583998883e+06 1.000000000000e+00 5.920638226482e+01 0.000000000000e+00 8.825640363802e-03 -5.605646909343e+07 -3.985636918686e+04 -1.785974289546e+07 -3.109402305806e+07 1.888554342689e-05 -1.504660279437e-06 5.683564128520e-04 0.000000000000e+00 3.500341168232e+07 3.359515818474e+07  5.591589649387e-04
2.000000000000e+01 1.478353757371e+06 1.000000000000e+00 5.953584652466e+01 0.000000000000e+00 9.043872649282e-03 -5.615732144172e+07 -4.334363729670e+04 -1.801489514978e+07 -3.128709131170e+07 2.231070562583e-05 -1.763714481882e-06 5.697647213980e-04 0.000000000000e+00 3.515310263440e+07 3.353755725408e+07  5.589517728986e-04
2.100000000000e+01 1.517204192537e+06 1.000000000000e+00 5.986576413745e+01 0.000000000000e+00 9.252684465196e-03 -5.625621585861e+07 -4.668394874020e+04 -1.816615660783e+07 -3.147839810889e+07 2.574316546555e-05 -2.011851903399e-06 5.712521197090e-04 0.000000000000e+00 3.530025685844e+07 3.348150023741e+07  5.588362905576e-04
2.200000000000e+01 1.555286536014e+06 1.000000000000e+00 6.017842232777e+01 0.000000000000e+00 9.452334840369e-03 -5.634745972801e+07 -4.989444266091e+04 -1.831099009342e+07 -3.165942547387e+07 2.907798101576e-05 -2.250345737510e-06 5.725964638006e-04 0.000000000000e+00 3.543929176510e+07 3.342504840262e+07  5.586389553197e-04
2.300000000000e+01 1.592669794476e+06 1.000000000000e+00 6.047016849763e+01 0.000000000000e+00 9.642715548420e-03 -5.643446473856e+07 -5.291014532819e+04 -1.844422420266e+07 -3.182838052318e+07 3.212183959839e-05 -2.474369364222e-06 5.739232415748e-04 0.000000000000e+00 3.556902315480e+07 3.337566623831e+07  5.585719264360e-04
2.400000000000e+01 1.629401302440e+06 1.000000000000e+00 6.074054184199e+01 0.000000000000e+00 9.824380695444e-03 -5.651472388142e+07 -5.578581601835e+04 -1.856897697077e+07 -3.198528702355e+07 3.496874144880e-05 -2.687990615491e-06 5.751175230588e-04 0.000000000000e+00 3.568966262525e+07 3.332858404543e+07  5.584742770459e-04
2.500000000000e+01 1.665534658888e+06 1.000000000000e+00 6.098989539144e+01 0.000000000000e+00 9.997700286225e-03 -5.658770096025e+07 -5.853659896535e+04 -1.868608923720e+07 -3.213036039468e+07 3.764660373420e-05 -2.892334491554e-06 5.761560783763e-04 0.000000000000e+00 3.580138353071e+07 3.328259804238e+07  5.583080427931e-04
2.600000000000e+01 1.701103973755e+06 1.000000000000e+00 6.121883417622e+01 0.000000000000e+00 1.016301650244e-02 -5.665294883450e+07 -6.117298351869e+04 -1.879620948730e+07 -3.226387293240e+07 4.018214837718e-05 -3.088180201230e-06 5.770249347735e-04 0.000000000000e+00 3.590434375140e+07 3.323672779347e+07  5.580455979784e-04
2.700000000000e+01 1.736139339791e+06 1.000000000000e+00 6.142803472053e+01 0.000000000000e+00 1.032064751514e-02 -5.671043262314e+07 -6.370556314263e+04 -1.889993520103e+07 -3.238623020489e+07 4.259173492038e-05 -3.276314687580e-06 5.777169640989e-04 0.000000000000e+00 3.599886600969e+07 3.319039802349e+07  5.576712126434e-04
2.800000000000e+01 1.770681594199e+06 1.000000000000e+00 6.161817548849e+01 0.000000000000e+00 1.047092340849e-02 -5.675978724958e+07 -6.615029804910e+04 -1.899826322839e+07 -3.249785918082e+07 4.490478218683e-05 -3.457923566347e-06 5.782109993314e-04 0.000000000000e+00 3.608530321960e+07 3.314241388363e+07  5.571497392391e-04
2.900000000000e+01 1.804755349151e+06 1.000000000000e+00 6.178991237560e+01 0.000000000000e+00 1.061409154842e-02 -5.680119247327e+07 -6.850814512227e+04 -1.909125621870e+07 -3.259906211013e+07 4.712583982413e-05 -3.633077920353e-06 5.785159399225e-04 0.000000000000e+00 3.616383693403e+07 3.309283447088e+07  5.564872736807e-04
3.000000000000e+01 1.838370950549e+06 1.000000000000e+00 6.194386924086e+01 0.000000000000e+00 1.075042268880e-02 -5.683480033834e+07 -7.078875210459e+04 -1.917947266524e+07 -3.269027046938e+07 4.926528675113e-05 -3.802494439040e-06 5.786270681092e-04 0.000000000000e+00 3.623484782432e+07 3.304129044355e+07  5.556739159677e-04
3.100000000000e+01 1.871447001257e+06 1.000000000000e+00 6.210580140263e+01 0.000000000000e+00 1.088220877939e-02 -5.686769457071e+07 -7.302584738026e+04 -1.926914101652e+07 -3.278435977380e+07 5.153824656993e-05 -3.968678659518e-06 5.787912749400e-04 0.000000000000e+00 3.630706512034e+07 3.298750808269e+07  5.548629511841e-04
3.200000000000e+01 1.904061231697e+06 1.000000000000e+00 6.226094204290e+01 0.000000000000e+00 1.100935123889e-02 -5.689565577841e+07 -7.522302455479e+04 -1.935763615040e+07 -3.287422731222e+07 5.383762456821e-05 -4.131897535340e-06 5.788422499660e-04 0.000000000000e+00 3.637583974701e+07 3.293071613863e+07  5.539355252723e-04
3.300000000000e+01 1.936240664812e+06 1.000000000000e+00 6.240572497300e+01 0.000000000000e+00 1.113185848974e-02 -5.691768020544e+07 -7.738351506236e+04 -1.944427303761e+07 -3.295812909494e+07 5.613592635096e-05 -4.292391115903e-06 5.787406603706e-04 0.000000000000e+00 3.644002744600e+07 3.287078162268e+07  5.528644725166e-04
3.400000000000e+01 1.968010593866e+06 1.000000000000e+00 6.253918901855e+01 0.000000000000e+00 1.124972645036e-02 -5.693380007924e+07 -7.950450166202e+04 -1.952866455213e+07 -3.303562380212e+07 5.841556301922e-05 -4.449950120449e-06 5.784844932408e-04 0.000000000000e+00 3.649936281117e+07 3.280810012139e+07  5.516553232958e-04
3.500000000000e+01 1.999407455002e+06 1.000000000000e+00 6.266110742446e+01 0.000000000000e+00 1.136319529172e-02 -5.694200102430e+07 -8.161945576315e+04 -1.961283440096e+07 -3.310663525779e+07 6.074852484190e-05 -4.607060996533e-06 5.779957529236e-04 0.000000000000e+00 3.655382356102e+07 3.273922703726e+07  5.502006537131e-04
3.600000000000e+01 2.030469901429e+06 1.000000000000e+00 6.277151349027e+01 0.000000000000e+00 1.147253554343e-02 -5.694002263200e+07 -8.377073406847e+04 -1.969943358020e+07 -3.317129242355e+07 6.322355985553e-05 -4.766870242071e-06 5.771807638512e-04 0.000000000000e+00 3.660358287858e+07 3.265996857437e+07  5.483717710327e-04
3.700000000000e+01 2.061269396574e+06 1.000000000000e+00 6.287055186444e+01 0.000000000000e+00 1.157853354094e-02 -5.691990771184e+07 -8.609253053103e+04 -1.979690458753e+07 -3.322979154941e+07 6.614351013631e-05 -4.939346550719e-06 5.757332368250e-04 0.000000000000e+00 3.664886794959e+07 3.255630421616e+07  5.457434362092e-04
3.800000000000e+01 2.093583371613e+06 1.000000000000e+00 6.295867248218e+01 0.000000000000e+00 1.170373608709e-02 -5.662942740064e+07 -9.283399917723e+04 -2.017241038607e+07 -3.328676928084e+07 7.904909457682e-05 -5.440141364436e-06 5.639021943326e-04 0.000000000000e+00 3.669620235585e+07 3.198462049039e+07  5.289114024569e-04
3.900000000000e+01 2.123384718586e+06 1.000000000000e+00 6.303542968280e+01 0.000000000000e+00 1.179368123359e-02 -5.668429141997e+07 -9.365326299597e+04 -2.017609795143e+07 -3.333182984518e+07 7.868496624857e-05 -5.501000962399e-06 5.654389057232e-04 0.000000000000e+00 3.673073973886e+07 3.202586110631e+07  5.305767822298e-04
4.000000000000e+01 2.152770412537e+06 1.000000000000e+00 6.310126011054e+01 0.000000000000e+00 1.187771096692e-02 -5.674996163460e+07 -9.412321250025e+04 -2.015699478402e+07 -3.336947107732e+07 7.764388975610e-05 -5.535911497003e-06 5.675465548494e-04 0.000000000000e+00 3.675880916531e+07 3.209606865726e+07  5.330694911078e-04
4.200000000000e+01 2.210053104714e+06 1.000000000000e+00 6.324270891614e+01 0.000000000000e+00 1.203551173758e-02 -5.687428498416e+07 -9.502433357442e+04 -2.012435541615e+07 -3.344752318449e+07 7.592524361013e-05 -5.602851919656e-06 5.716579524935e-04 0.000000000000e+00 3.681538786160e+07 3.222523443514e+07  5.378181512468e-04
4.400000000000e+01 2.265818595915e+06 1.000000000000e+00 6.336221829407e+01 0.000000000000e+00 1.218244753817e-02 -5.698402951780e+07 -9.586535497221e+04 -2.008960328283e+07 -3.351287623660e+07 7.427641715353e-05 -5.665327794920e-06 5.753761450956e-04 0.000000000000e+00 3.686216967908e+07 3.234449815151e+07  5.421568995540e-04
5.000000000000e+01 2.417340202335e+06 1.000000000000e+00 6.341051342750e+01 0.000000000000e+00 1.248629482188e-02 -5.714627120993e+07 -9.761598999101e+04 -1.996384688056e+07 -3.354379132321e+07 6.939857180571e-05 -5.795374967746e-06 5.811953718252e-04 0.000000000000e+00 3.688463647123e+07 3.258896899387e+07  5.498825805279e-04
6.500000000000e+01 2.748724178568e+06 1.000000000000e+00 6.313073733148e+01 0.000000000000e+00 1.299752460195e-02 -5.718507077487e+07 -1.008760078640e+05 -1.961119841743e+07 -3.335764415480e+07 6.104340742402e-05 -6.037547724022e-06 5.873797056293e-04 0.000000000000e+00 3.671797111570e+07 3.292846769509e+07  5.594594832866e-04
8.000000000000e+01 3.003777392184e+06 1.000000000000e+00 6.251553785946e+01 0.000000000000e+00 1.323286547457e-02 -5.698612248009e+07 -1.025638755825e+05 -1.929483536208e+07 -3.299228644977e+07 5.486248647167e-05 -6.162932183116e-06 5.855599043554e-04 0.000000000000e+00 3.642441476398e+07 3.304557893618e+07  5.602490222024e-04
1.000000000000e+02 3.304456935822e+06 1.000000000000e+00 6.178031670149e+01 0.000000000000e+00 1.342691562111e-02 -5.668563033260e+07 -1.041113052092e+05 -1.894996480935e+07 -3.254568778382e+07 4.943567292926e-05 -6.277884098242e-06 5.817814315789e-04 0.000000000000e+00 3.606042764192e+07 3.310306629999e+07  5.588121319427e-04
1.860000000000e+02 3.902938202522e+06 1.000000000000e+00 5.983575743522e+01 0.000000000000e+00 1.364604922839e-02 -5.571995125901e+07 -1.067328827284e+05 -1.814668336979e+07 -3.134260599167e+07 4.061785766847e-05 -6.472629856810e-06 5.669317041968e-04 0.000000000000e+00 3.506974687349e+07 3.301670900809e+07  5.478681420999e-04
2.720000000000e+02 4.193259632165e+06 1.000000000000e+00 5.817021896826e+01 0.000000000000e+00 1.343366269745e-02 -5.488208333056e+07 -1.060594418341e+05 -1.772431074641e+07 -3.038557539542e+07 3.619181572130e-05 -6.422602818949e-06 5.470729794900e-04 0.000000000000e+00 3.433065649080e+07 3.271967358162e+07  5.300215820458e-04
3.580000000000e+02 4.334625370859e+06 1.000000000000e+00 5.696011998448e+01 0.000000000000e+00 1.321973725146e-02 -5.425118654351e+07 -1.052104538147e+05 -1.744695808347e+07 -2.969186696765e+07 3.385881192331e-05 -6.359535137504e-06 5.316083367964e-04 0.000000000000e+00 3.379667053154e+07 3.246317621234e+07  5.156312124623e-04
4.440000000000e+02 4.406754288317e+06 1.000000000000e+00 5.602081320516e+01 0.000000000000e+00 1.302211959947e-02 -5.376096755087e+07 -1.043190766780e+05 -1.725286928623e+07 -2.915936547417e+07 3.228831903467e-05 -6.293318550210e-06 5.190387223646e-04 0.000000000000e+00 3.339106743709e+07 3.224833336727e+07  5.037893017681e-04
5.300000000000e+02 4.445718820727e+06 1.000000000000e+00 5.528906129963e+01 0.000000000000e+00 1.285193320546e-02 -5.337885290511e+07 -1.035046704620e+05 -1.711262118104e+07 -2.874762681180e+07 3.118799841774e-05 -6.232819802731e-06 5.089547873836e-04 0.000000000000e+00 3.307970029932e+07 3.207315464413e+07  4.942174924772e-04
6.160000000000e+02 4.468234309314e+06 1.000000000000e+00 5.472602773133e+01 0.000000000000e+00 1.271145188625e-02 -5.308478167568e+07 -1.028072726767e+05 -1.701119835169e+07 -2.843267849317e+07 3.041256367613e-05 -6.181013110112e-06 5.010238406387e-04 0.000000000000e+00 3.284288617351e+07 3.193386313765e+07  4.866487524183e-04
7.020000000000e+02 4.482044613276e+06 1.000000000000e+00 5.430995063480e+01 0.000000000000e+00 1.260388037484e-02 -5.286752895215e+07 -1.022628617736e+05 -1.693889796126e+07 -2.820072015876e+07 2.986635527233e-05 -6.140571157312e-06 4.950936884339e-04 0.000000000000e+00 3.266904902406e+07 3.182930541415e+07  4.809742564368e-04
7.880000000000e+02 4.491663181074e+06 1.000000000000e+00 5.397872581268e+01 0.000000000000e+00 1.250744315866e-02 -5.269641649060e+07 -1.017422416122e+05 -1.688961237352e+07 -2.801902900216e+07 2.947343231312e-05 -6.101896516745e-06 4.901757673049e-04 0.000000000000e+00 3.253501928876e+07 3.174135077253e+07  4.762410137624e-04
8.740000000000e+02 4.500049265801e+06 1.000000000000e+00 5.345336087711e+01 0.000000000000e+00 1.237064160243e-02 -5.242188741733e+07 -1.010575695215e+05 -1.679805858929e+07 -2.772600075029e+07 2.878631996498e-05 -6.051035161441e-06 4.826924299355e-04 0.000000000000e+00 3.231531558564e+07 3.161032421781e+07  4.690794607323e-04
9.370000000000e+02 4.505423121656e+06 1.000000000000e+00 5.307936059738e+01 0.000000000000e+00 1.225906860339e-02 -5.222355013587e+07 -1.004765981038e+05 -1.674105411541e+07 -2.751885147610e+07 2.845901737822e-05 -6.007877284692e-06 4.771156230667e-04 0.000000000000e+00 3.216115190913e+07 3.150834134749e+07  4.636585763302e-04
1.000000000000e+03 4.509613149595e+06 1.000000000000e+00 5.277859554472e+01 0.000000000000e+00 1.216602697591e-02 -5.205924656486e+07 -1.000040375614e+05 -1.669501536479e+07 -2.735070868714e+07 2.831641785406e-05 -5.972772787258e-06 4.725803302141e-04 0.000000000000e+00 3.203499020560e+07 3.142247999007e+07  4.591941070720e-04
1.100000000000e+03 4.513758462105e+06 1.000000000000e+00 5.247289760991e+01 0.000000000000e+00 1.206890951870e-02 -5.188958444980e+07 -9.951527507823e+04 -1.664860335686e+07 -2.717908690192e+07 2.824363010507e-05 -5.936464717082e-06 4.679296813431e-04 0.000000000000e+00 3.190575823619e+07 3.133277789225e+07  4.545828651944e-04
1.200000000000e+03 4.517019836215e+06 1.000000000000e+00 5.221269628220e+01 0.000000000000e+00 1.198805731953e-02 -5.174719209517e+07 -9.910537626568e+04 -1.660881902123e+07 -2.703355699914e+07 2.812709260275e-05 -5.906015091007e-06 4.640019888492e-04 0.000000000000e+00 3.179652270518e+07 3.125862373094e+07  4.507134290532e-04
1.300000000000e+03 4.519925210579e+06 1.000000000000e+00 5.196357675456e+01 0.000000000000e+00 1.191106330489e-02 -5.161153494052e+07 -9.871390144524e+04 -1.657074033309e+07 -2.689443764569e+07 2.799849664742e-05 -5.876934104346e-06 4.602490498520e-04 0.000000000000e+00 3.169223763977e+07 3.118837426197e+07  4.470239784266e-04
1.400000000000e+03 4.522664725124e+06 1.000000000000e+00 5.170814257526e+01 0.000000000000e+00 1.183155115397e-02 -5.147224477968e+07 -9.830983090254e+04 -1.653192127053e+07 -2.675179598122e+07 2.787401222657e-05 -5.846917435459e-06 4.563927817808e-04 0.000000000000e+00 3.158532067714e+07 3.111615837279e+07  4.432295039483e-04
1.500000000000e+03 4.525304612681e+06 1.000000000000e+00 5.143632875318e+01 0.000000000000e+00 1.174580339347e-02 -5.132333949171e+07 -9.787481258109e+04 -1.649096884050e+07 -2.659989679595e+07 2.776281032697e-05 -5.814601788723e-06 4.522719023007e-04 0.000000000000e+00 3.147140170939e+07 3.103860954679e+07  4.391648175686e-04
1.600000000000e+03 4.527865656785e+06 1.000000000000e+00 5.114199614483e+01 0.000000000000e+00 1.165153872924e-02 -5.116119321848e+07 -9.739788361050e+04 -1.644705451248e+07 -2.643525511104e+07 2.767012360740e-05 -5.779172779479e-06 4.477877433306e-04 0.000000000000e+00 3.134783428067e+07 3.095371149536e+07  4.347290571423e-04
1.700000000000e+03 4.530352944705e+06 1.000000000000e+00 5.082135521810e+01 0.000000000000e+00 1.154734664326e-02 -5.098355864171e+07 -9.687168308715e+04 -1.639966413901e+07 -2.625571617311e+07 2.759939019303e-05 -5.740083597744e-06 4.428793680793e-04 0.000000000000e+00 3.121297965127e+07 3.086024966330e+07  4.298598680970e-04
1.800000000000e+03 4.532766352570e+06 1.000000000000e+00 5.047211883707e+01 0.000000000000e+00 1.143237626132e-02 -5.078908904014e+07 -9.629222341136e+04 -1.634848819787e+07 -2.605998262588e+07 2.755244363989e-05 -5.697038021828e-06 4.375100855672e-04 0.000000000000e+00 3.106585328796e+07 3.075753930017e+07  4.245198568686e-04
1.900000000000e+03 4.535105643823e+06 1.000000000000e+00 5.009300096792e+01 0.000000000000e+00 1.130614423559e-02 -5.057702644038e+07 -9.565695317333e+04 -1.629335792110e+07 -2.584732634461e+07 2.753039261214e-05 -5.649846518432e-06 4.316591196855e-04 0.000000000000e+00 3.090590356870e+07 3.064523786920e+07  4.186878734601e-04
2.000000000000e+03 4.537369988248e+06 1.000000000000e+00 4.968339990058e+01 0.000000000000e+00 1.116843434052e-02 -5.034701246356e+07 -9.496517118894e+04 -1.623420505687e+07 -2.561740874802e+07 2.753397244914e-05 -5.598456999592e-06 4.253164296267e-04 0.000000000000e+00 3.073287542282e+07 3.052323337154e+07  4.123536858767e-04