 TITLE = "Time curves in points"
 VARIABLES = "TIME"  "PRESSURE1"  "SATURATION1"  "TEMPERATURE1"  "DISPLACEMENT_X1"  "DISPLACEMENT_Y1"  "STRESS_XX"  "STRESS_XY"  "STRESS_YY"  "STRESS_ZZ"  "STRAIN_XX"  "STRAIN_XY"  "STRAIN_YY"  "STRAIN_PLS"  p_(1st_Invariant)  q_(2nd_Invariant)   Effective_Strain
 ZONE T="POINT=POINT11"
0.000000000000e+00 1.000000000000e+05 1.000000000000e+00 2.500000000000e+01 0.000000000000e+00 0.000000000000e+00 -5.392170068764e+07 8.391404681268e+05 -2.357515820812e+05 -1.424861648653e+07 0.000000000000e+00 0.000000000000e+00 0.000000000000e+00 0.000000000000e+00 2.280202291875e+07 4.825308313763e+07  0.000000000000e+00
1.000000000000e-03 1.321562803133e+05 1.000000000000e+00 2.500658919670e+01 0.000000000000e+00 6.372129335736e-05 -5.402375266079e+07 8.599882058157e+05 -1.823852758964e+05 -1.426184169456e+07 2.507562765777e-05 3.154668736525e-05 4.584203425279e-05 0.000000000000e+00 2.282265987708e+07 4.838683176698e+07  6.757471328855e-05
2.000000000000e-03 1.547721087935e+05 1.000000000000e+00 2.503242649855e+01 0.000000000000e+00 6.364170210357e-05 -5.401748714535e+07 8.599604478672e+05 -1.813314556592e+05 -1.426535531526e+07 2.554313130899e-05 3.156824435204e-05 4.662374445762e-05 0.000000000000e+00 2.282139130542e+07 4.838057753061e+07  6.800713809543e-05
3.000000000000e-03 1.705465206431e+05 1.000000000000e+00 2.508821888304e+01 0.000000000000e+00 6.368687100047e-05 -5.402225291535e+07 8.600680392667e+05 -1.855786230553e+05 -1.428064093227e+07 2.599819145082e-05 3.119279608831e-05 4.414327630211e-05 0.000000000000e+00 2.282949082356e+07 4.837815780681e+07  6.630128985360e-05
4.000000000000e-03 1.815030669678e+05 1.000000000000e+00 2.517801402977e+01 0.000000000000e+00 6.367516133586e-05 -5.403943927493e+07 8.603555957379e+05 -1.934818281771e+05 -1.430855794214e+07 2.642775117564e-05 3.055173264531e-05 3.966466363545e-05 0.000000000000e+00 2.284715968175e+07 4.838184943265e+07  6.343255327813e-05
1.000000000000e-02 1.978603628676e+05 1.000000000000e+00 2.624254793578e+01 0.000000000000e+00 6.347555148065e-05 -5.433998672777e+07 8.645158570444e+05 -2.704419356888e+05 -1.466736720598e+07 2.834718533850e-05 2.467175916429e-05 1.876079036200e-06 0.000000000000e+00 2.309259862315e+07 4.852415994628e+07  5.079358354949e-05
2.000000000000e-02 1.963680346369e+05 1.000000000000e+00 2.811855859645e+01 0.000000000000e+00 6.577779867083e-05 -5.490045203721e+07 8.710163889602e+05 -4.015404250324e+05 -1.531144259180e+07 3.079525714617e-05 1.458227137016e-05 -6.147656505866e-05 0.000000000000e+00 2.353781168468e+07 4.880716256710e+07  8.519877028745e-05
3.000000000000e-02 1.864315871100e+05 1.000000000000e+00 2.977104240945e+01 0.000000000000e+00 7.024740740564e-05 -5.539893564664e+07 8.757566475370e+05 -5.276338043873e+05 -1.588554249094e+07 3.290145307074e-05 4.651337626441e-06 -1.262692175661e-04 0.000000000000e+00 2.393737064732e+07 4.905423051073e+07  1.457592757944e-04
4.000000000000e-02 1.732308016779e+05 1.000000000000e+00 3.117078428574e+01 0.000000000000e+00 7.726645097974e-05 -5.581935853658e+07 8.788778653668e+05 -6.500682401500e+05 -1.637739084300e+07 3.486306539863e-05 -5.202088315077e-06 -1.939315195982e-04 0.000000000000e+00 2.428227253991e+07 4.925090172485e+07  2.136986196534e-04
5.000000000000e-02 1.590712169439e+05 1.000000000000e+00 3.235484757263e+01 0.000000000000e+00 8.529338580353e-05 -5.617234204723e+07 8.807797390750e+05 -7.684911440767e+05 -1.679809176735e+07 3.676495829428e-05 -1.485862637251e-05 -2.635102293884e-04 0.000000000000e+00 2.457964165289e+07 4.940405354744e+07  2.848501045766e-04
6.000000000000e-02 1.446828136011e+05 1.000000000000e+00 3.336666820306e+01 0.000000000000e+00 9.585449831690e-05 -5.647167386783e+07 8.817571931009e+05 -8.817526041753e+05 -1.716121455206e+07 3.850791321482e-05 -2.426224917105e-05 -3.332402808496e-04 0.000000000000e+00 2.483821367469e+07 4.952392055116e+07  3.565533651223e-04
7.000000000000e-02 1.309553152747e+05 1.000000000000e+00 3.424269924722e+01 0.000000000000e+00 1.062242484435e-04 -5.672952455035e+07 8.820549642434e+05 -9.903408006929e+05 -1.747889990931e+07 4.011026901268e-05 -3.339354792421e-05 -4.026872567271e-04 0.000000000000e+00 2.506625508678e+07 4.961858949541e+07  4.280924453140e-04
8.000000000000e-02 1.185266125142e+05 1.000000000000e+00 3.501114549322e+01 0.000000000000e+00 1.173755441183e-04 -5.695389714694e+07 8.818397457347e+05 -1.095564208951e+06 -1.776045857214e+07 4.162484919369e-05 -4.233209236966e-05 -4.721054316594e-04 0.000000000000e+00 2.526997330934e+07 4.969237133649e+07  4.996433750208e-04
9.000000000000e-02 1.083066492509e+05 1.000000000000e+00 3.569332899835e+01 0.000000000000e+00 1.276880899091e-04 -5.715172309756e+07 8.812325591179e+05 -1.198539341087e+06 -1.801325370345e+07 4.307812506401e-05 -5.112798692865e-05 -5.417557329796e-04 0.000000000000e+00 2.545450538070e+07 4.974923418017e+07  5.714324399584e-04
1.000000000000e-01 1.013009242719e+05 1.000000000000e+00 3.630541896253e+01 0.000000000000e+00 1.370642772759e-04 -5.732889338264e+07 8.803538555066e+05 -1.297691641175e+06 -1.824228189147e+07 4.444236765265e-05 -5.964091881357e-05 -6.102190926556e-04 0.000000000000e+00 2.562295563843e+07 4.979471880968e+07  6.419759839271e-04
2.000000000000e-01 1.227583401152e+05 1.000000000000e+00 3.981142503252e+01 0.000000000000e+00 2.667615764348e-04 -5.834226369591e+07 8.677133444691e+05 -1.983694711904e+06 -1.959411628269e+07 5.302882565092e-05 -1.203546265105e-04 -1.117427340665e-03 0.000000000000e+00 2.664002489683e+07 4.996174402716e+07  1.163687022360e-03
3.000000000000e-01 1.535262526101e+05 1.000000000000e+00 4.213322259453e+01 0.000000000000e+00 4.124540546858e-04 -5.897858639548e+07 8.520192100168e+05 -2.609887738838e+06 -2.053624115015e+07 6.287500907854e-05 -1.750037508574e-04 -1.605347167187e-03 0.000000000000e+00 2.737490509482e+07 4.990467845422e+07  1.665505313746e-03
4.000000000000e-01 1.848711887700e+05 1.000000000000e+00 4.382361384831e+01 0.000000000000e+00 5.514239200833e-04 -5.943078473938e+07 8.355492217422e+05 -3.192805798774e+06 -2.126113153237e+07 7.154985291407e-05 -2.263293227277e-04 -2.071049849487e-03 0.000000000000e+00 2.796157402351e+07 4.975080879290e+07  2.143880840812e-03
5.000000000000e-01 2.146182721516e+05 1.000000000000e+00 4.513443190839e+01 0.000000000000e+00 6.861005662882e-04 -5.976989822215e+07 8.204606909370e+05 -3.747926886217e+06 -2.185376906074e+07 8.057561456164e-05 -2.742810956337e-04 -2.516439373315e-03 0.000000000000e+00 2.845719805637e+07 4.953763507814e+07  2.601425293278e-03
6.000000000000e-01 2.422349190066e+05 1.000000000000e+00 4.619629486424e+01 0.000000000000e+00 8.171581667537e-04 -6.003750800743e+07 8.058567376099e+05 -4.287113084565e+06 -2.236121805514e+07 8.841682437115e-05 -3.211604961008e-04 -2.947291386785e-03 0.000000000000e+00 2.889527971571e+07 4.928579440164e+07  3.043742168964e-03
7.000000000000e-01 2.677989511646e+05 1.000000000000e+00 4.708364073506e+01 0.000000000000e+00 9.443970806299e-04 -6.026066377495e+07 7.923695446230e+05 -4.801009178816e+06 -2.280596886183e+07 9.472596799388e-05 -3.664292821311e-04 -3.355473683146e-03 0.000000000000e+00 2.928921393853e+07 4.902332673899e+07  3.462490201635e-03
8.000000000000e-01 2.915671400692e+05 1.000000000000e+00 4.784280359403e+01 0.000000000000e+00 1.067537801253e-03 -6.045916641671e+07 7.806405846596e+05 -5.273236104305e+06 -2.319932597255e+07 9.954375042223e-05 -4.083374067709e-04 -3.727767634743e-03 0.000000000000e+00 2.964390949785e+07 4.877901039724e+07  3.844145520302e-03
9.000000000000e-01 3.136002835465e+05 1.000000000000e+00 4.850368017678e+01 0.000000000000e+00 1.187289371483e-03 -6.063486646641e+07 7.702943915978e+05 -5.716421246234e+06 -2.355308799759e+07 1.039660527832e-04 -4.471632813399e-04 -4.073426768985e-03 0.000000000000e+00 2.996812523674e+07 4.854276836620e+07  4.198449438236e-03
1.000000000000e+00 3.340884170568e+05 1.000000000000e+00 4.908706938572e+01 0.000000000000e+00 1.303848824531e-03 -6.079613241266e+07 7.615711141863e+05 -6.135007067422e+06 -2.387611204633e+07 1.082939348119e-04 -4.830937549107e-04 -4.396311206825e-03 0.000000000000e+00 3.026908384214e+07 4.831745687173e+07  4.529405299917e-03
2.000000000000e+00 4.691559606783e+05 1.000000000000e+00 5.224848730855e+01 0.000000000000e+00 2.260443374972e-03 -6.187722251941e+07 7.168512788413e+05 -9.262460466935e+06 -2.596741603961e+07 1.244918449723e-04 -7.432848512690e-04 -6.663560793570e-03 0.000000000000e+00 3.236903300865e+07 4.658307730537e+07  6.848760235015e-03
3.000000000000e+00 5.730621993731e+05 1.000000000000e+00 5.427679455463e+01 0.000000000000e+00 3.075263778832e-03 -6.268682964324e+07 6.919944712874e+05 -1.183478885150e+07 -2.752753724997e+07 1.357573561773e-04 -9.493623508055e-04 -8.463311905636e-03 0.000000000000e+00 3.401638524824e+07 4.511785336575e+07  8.689010412011e-03
4.000000000000e+00 6.596126034108e+05 1.000000000000e+00 5.575088147689e+01 0.000000000000e+00 3.784021555429e-03 -6.333949262662e+07 6.765693568864e+05 -1.401447368170e+07 -2.878118223646e+07 1.444659416316e-04 -1.120136741723e-03 -9.956260269792e-03 0.000000000000e+00 3.537838284826e+07 4.386363225412e+07  1.021520672545e-02
5.000000000000e+00 7.355452377896e+05 1.000000000000e+00 5.693149995896e+01 0.000000000000e+00 4.410852748403e-03 -6.389696073630e+07 6.660832053951e+05 -1.589238992929e+07 -2.983840589011e+07 1.517850895782e-04 -1.265197448225e-03 -1.122758029472e-02 0.000000000000e+00 3.654258551857e+07 4.278771633761e+07  1.151468414754e-02
6.000000000000e+00 8.043233661910e+05 1.000000000000e+00 5.796438519089e+01 0.000000000000e+00 4.975456846333e-03 -6.438426543075e+07 6.577576028027e+05 -1.757012727938e+07 -3.077430735782e+07 1.586507584136e-04 -1.393914044292e-03 -1.235565898050e-02 0.000000000000e+00 3.757623335598e+07 4.182187857120e+07  1.266793995337e-02
7.000000000000e+00 8.681486722727e+05 1.000000000000e+00 5.881773266898e+01 0.000000000000e+00 5.485966661408e-03 -6.480647186732e+07 6.506618161969e+05 -1.905895540295e+07 -3.158692753374e+07 1.642394149318e-04 -1.507899808601e-03 -1.335401122363e-02 0.000000000000e+00 3.848411826800e+07 4.096256607497e+07  1.368835749223e-02
8.000000000000e+00 9.277122832900e+05 1.000000000000e+00 5.964548359829e+01 0.000000000000e+00 5.954927854962e-03 -6.521161275236e+07 6.449901918634e+05 -2.039804552784e+07 -3.233938548819e+07 1.690893462170e-04 -1.610025575633e-03 -1.424755038160e-02 0.000000000000e+00 3.931634792280e+07 4.021150834543e+07  1.460160741580e-02
9.000000000000e+00 9.841048929835e+05 1.000000000000e+00 6.039584327610e+01 0.000000000000e+00 6.388888539898e-03 -6.557814237947e+07 6.399857326387e+05 -2.162401238584e+07 -3.302519969768e+07 1.738806852963e-04 -1.703172933276e-03 -1.506472812433e-02 0.000000000000e+00 4.007578482100e+07 3.952280470367e+07  1.543690795868e-02
1.000000000000e+01 1.037819556408e+06 1.000000000000e+00 6.107245844144e+01 0.000000000000e+00 6.792456815480e-03 -6.590714581174e+07 6.353365315008e+05 -2.275787385733e+07 -3.365239908035e+07 1.784216547328e-04 -1.789234183265e-03 -1.581932875843e-02 0.000000000000e+00 4.077247291647e+07 3.888020673676e+07  1.620831836914e-02
1.100000000000e+01 1.089158496838e+06 1.000000000000e+00 6.170901697769e+01 0.000000000000e+00 7.169713055900e-03 -6.622006601380e+07 6.312293515324e+05 -2.380221086589e+07 -3.423613100536e+07 1.820279828386e-04 -1.868670012526e-03 -1.651232852501e-02 0.000000000000e+00 4.141946929501e+07 3.829819791071e+07  1.691660770382e-02
1.200000000000e+01 1.138516106949e+06 1.000000000000e+00 6.228858435153e+01 0.000000000000e+00 7.523263679029e-03 -6.650987175048e+07 6.277480761141e+05 -2.476234119293e+07 -3.477209369098e+07 1.854021721368e-04 -1.941398334067e-03 -1.714836429031e-02 0.000000000000e+00 4.201476887813e+07 3.776706511474e+07  1.756665017188e-02
1.300000000000e+01 1.186155559904e+06 1.000000000000e+00 6.281335036953e+01 0.000000000000e+00 7.855705893335e-03 -6.677461515798e+07 6.245149307532e+05 -2.566060659143e+07 -3.526749595571e+07 1.884129592665e-04 -2.009493796532e-03 -1.774238458246e-02 0.000000000000e+00 4.256757256837e+07 3.726722888469e+07  1.817373933052e-02
1.400000000000e+01 1.232794460601e+06 1.000000000000e+00 6.328719669981e+01 0.000000000000e+00 8.168904125167e-03 -6.701732156922e+07 6.214879753409e+05 -2.649939855242e+07 -3.572494706662e+07 1.910347192685e-04 -2.073118126877e-03 -1.829614466224e-02 0.000000000000e+00 4.308055572942e+07 3.679906939595e+07  1.873963870860e-02
1.500000000000e+01 1.277982880797e+06 1.000000000000e+00 6.371396674996e+01 0.000000000000e+00 8.463916595159e-03 -6.724076435434e+07 6.187979021548e+05 -2.727902408855e+07 -3.614627911627e+07 1.933408086094e-04 -2.132212363058e-03 -1.881002170419e-02 0.000000000000e+00 4.355535585305e+07 3.636436012142e+07  1.926473541656e-02
1.600000000000e+01 1.321868393102e+06 1.000000000000e+00 6.409718126667e+01 0.000000000000e+00 8.742417781290e-03 -6.744299767928e+07 6.161695267726e+05 -2.801370966920e+07 -3.653637462354e+07 1.953742028270e-04 -2.188039324864e-03 -1.929370448777e-02 0.000000000000e+00 4.399769399067e+07 3.594997850438e+07  1.975897882826e-02
1.700000000000e+01 1.364582364112e+06 1.000000000000e+00 6.443989680906e+01 0.000000000000e+00 9.005842626239e-03 -6.762208774273e+07 6.137510292068e+05 -2.871279823649e+07 -3.689839868198e+07 1.976322314929e-04 -2.241029036083e-03 -1.975331885632e-02 0.000000000000e+00 4.441109488707e+07 3.554674440782e+07  2.022877134788e-02
1.800000000000e+01 1.406266469302e+06 1.000000000000e+00 6.474480269154e+01 0.000000000000e+00 9.255278685960e-03 -6.777862898855e+07 6.114260409291e+05 -2.938206743002e+07 -3.723505514470e+07 2.001145998613e-04 -2.291708754925e-03 -2.019311487156e-02 0.000000000000e+00 4.479858385442e+07 3.515052140112e+07  2.067845879711e-02
1.900000000000e+01 1.447009435937e+06 1.000000000000e+00 6.501430106622e+01 0.000000000000e+00 9.491589588588e-03 -6.791330146274e+07 6.089879382191e+05 -3.002449782357e+07 -3.754809719489e+07 2.026709812735e-04 -2.340459036253e-03 -2.061522611897e-02 0.000000000000e+00 4.516196549373e+07 3.475943624966e+07  2.111018657119e-02
2.000000000000e+01 1.486894329421e+06 1.000000000000e+00 6.525046042328e+01 0.000000000000e+00 9.714714425607e-03 -6.803593060348e+07 6.068159741368e+05 -3.062118523237e+07 -3.783480113680e+07 2.049869936287e-04 -2.385688060204e-03 -2.100703730727e-02 0.000000000000e+00 4.549730565755e+07 3.439634428558e+07  2.151088859348e-02
2.100000000000e+01 1.525849531847e+06 1.000000000000e+00 6.550408013656e+01 0.000000000000e+00 9.927874509999e-03 -6.816114951773e+07 6.050211027065e+05 -3.118975613531e+07 -3.811713926671e+07 2.072387220992e-04 -2.428732566651e-03 -2.137922069245e-02 0.000000000000e+00 4.582268163992e+07 3.405665442214e+07  2.189157037129e-02
2.200000000000e+01 1.564034463581e+06 1.000000000000e+00 6.574140182376e+01 0.000000000000e+00 1.013189016199e-02 -6.827446364761e+07 6.031912987767e+05 -3.173955372487e+07 -3.838597519334e+07 2.096004974761e-04 -2.470386859602e-03 -2.173927695220e-02 0.000000000000e+00 4.613333085527e+07 3.372298431291e+07  2.225994365998e-02
2.300000000000e+01 1.601514635910e+06 1.000000000000e+00 6.595789737850e+01 0.000000000000e+00 1.032632572126e-02 -6.838314559362e+07 6.015829507371e+05 -3.225230113046e+07 -3.863647724589e+07 2.116086726687e-04 -2.509236507144e-03 -2.207489830637e-02 0.000000000000e+00 4.642397465666e+07 3.341579952929e+07  2.260322890526e-02
2.400000000000e+01 1.638336215366e+06 1.000000000000e+00 6.615302041940e+01 0.000000000000e+00 1.051199297957e-02 -6.848267116230e+07 6.000924501715e+05 -3.274064943170e+07 -3.887126989066e+07 2.134996687661e-04 -2.546260322487e-03 -2.239435711260e-02 0.000000000000e+00 4.669819682822e+07 3.312153661566e+07  2.292998746861e-02
2.500000000000e+01 1.674554485485e+06 1.000000000000e+00 6.632710006372e+01 0.000000000000e+00 1.068933024384e-02 -6.857158249453e+07 5.985772873732e+05 -3.320847595802e+07 -3.909126055325e+07 2.152935843900e-04 -2.581821769132e-03 -2.270041967940e-02 0.000000000000e+00 4.695710633527e+07 3.283592246978e+07  2.324306500036e-02
2.600000000000e+01 1.710201348263e+06 1.000000000000e+00 6.648073203976e+01 0.000000000000e+00 1.085872073473e-02 -6.864910116481e+07 5.971530481068e+05 -3.365706539140e+07 -3.929676853937e+07 2.172574320275e-04 -2.615799083982e-03 -2.299377182069e-02 0.000000000000e+00 4.720097836519e+07 3.255724036445e+07  2.354322674773e-02
2.700000000000e+01 1.745310255366e+06 1.000000000000e+00 6.661459188943e+01 0.000000000000e+00 1.102051640325e-02 -6.871486229775e+07 5.956781094600e+05 -3.408960119780e+07 -3.948888180284e+07 2.192880183042e-04 -2.648591326588e-03 -2.327676554760e-02 0.000000000000e+00 4.743111509946e+07 3.228271881086e+07  2.383286230037e-02
2.800000000000e+01 1.779924773093e+06 1.000000000000e+00 6.672935958689e+01 0.000000000000e+00 1.117510501089e-02 -6.876807095094e+07 5.940615955229e+05 -3.451005511527e+07 -3.966882219586e+07 2.214270803586e-04 -2.680537452999e-03 -2.355223650466e-02 0.000000000000e+00 4.764898275402e+07 3.200865711003e+07  2.411488794084e-02
2.900000000000e+01 1.814068114876e+06 1.000000000000e+00 6.682569370622e+01 0.000000000000e+00 1.132272985770e-02 -6.880889965152e+07 5.923842810037e+05 -3.491786484528e+07 -3.983660476824e+07 2.237712539551e-04 -2.711496537918e-03 -2.381969325787e-02 0.000000000000e+00 4.785445642168e+07 3.173559222931e+07  2.438882251212e-02
3.000000000000e+01 1.847751175360e+06 1.000000000000e+00 6.690421870234e+01 0.000000000000e+00 1.146368136217e-02 -6.883767909338e+07 5.905902051294e+05 -3.531542595168e+07 -3.999326103347e+07 2.262726474012e-04 -2.741713064241e-03 -2.408081045548e-02 0.000000000000e+00 4.804878869285e+07 3.146201543692e+07  2.465636696306e-02
3.100000000000e+01 1.880894611771e+06 1.000000000000e+00 6.700421408375e+01 0.000000000000e+00 1.159980851233e-02 -6.886845067468e+07 5.888875951046e+05 -3.570586084204e+07 -4.015317932703e+07 2.289643122789e-04 -2.771357037738e-03 -2.433695330426e-02 0.000000000000e+00 4.824249694792e+07 3.119441894220e+07  2.491893404739e-02
3.200000000000e+01 1.913581044444e+06 1.000000000000e+00 6.709823362326e+01 0.000000000000e+00 1.173141665413e-02 -6.889071685989e+07 5.870019658685e+05 -3.609416677039e+07 -4.030846222937e+07 2.318736442245e-04 -2.800901630997e-03 -2.459224254975e-02 0.000000000000e+00 4.843111528655e+07 3.092237613445e+07  2.518073870544e-02
3.300000000000e+01 1.945836759411e+06 1.000000000000e+00 6.718200325324e+01 0.000000000000e+00 1.185857832601e-02 -6.890306022214e+07 5.849150406552e+05 -3.648067115004e+07 -4.045779070936e+07 2.349838238062e-04 -2.830394127800e-03 -2.484695925301e-02 0.000000000000e+00 4.861384069385e+07 3.064486012707e+07  2.544206414129e-02
3.400000000000e+01 1.977683955850e+06 1.000000000000e+00 6.725448079532e+01 0.000000000000e+00 1.198128189967e-02 -6.890558157587e+07 5.826506856768e+05 -3.686432270645e+07 -4.060060193122e+07 2.382503859028e-04 -2.859755399036e-03 -2.510022440968e-02 0.000000000000e+00 4.879016873784e+07 3.036289525059e+07  2.570199933160e-02
3.500000000000e+01 2.009163290122e+06 1.000000000000e+00 6.731542028234e+01 0.000000000000e+00 1.209995583828e-02 -6.889469143382e+07 5.802270025643e+05 -3.725277259634e+07 -4.073824777320e+07 2.420968232697e-04 -2.889376900666e-03 -2.535735174708e-02 0.000000000000e+00 4.896190393445e+07 3.006796355580e+07  2.596609961900e-02
3.600000000000e+01 2.040320277005e+06 1.000000000000e+00 6.736484979958e+01 0.000000000000e+00 1.221509044554e-02 -6.886550313358e+07 5.773270508884e+05 -3.765822484869e+07 -4.087325928935e+07 2.465735135857e-04 -2.920427089531e-03 -2.562681506384e-02 0.000000000000e+00 4.913232909054e+07 2.974723700600e+07  2.624309482134e-02
3.700000000000e+01 2.071240992759e+06 1.000000000000e+00 6.740291338406e+01 0.000000000000e+00 1.232819808660e-02 -6.880212219085e+07 5.734444459734e+05 -3.811459419632e+07 -4.101195141547e+07 2.527464795042e-04 -2.955348843424e-03 -2.593204492723e-02 0.000000000000e+00 4.930955593421e+07 2.936312037396e+07  2.655732155756e-02
3.800000000000e+01 2.104214843803e+06 1.000000000000e+00 6.743016255845e+01 0.000000000000e+00 1.248478380059e-02 -6.819496360782e+07 5.502042229985e+05 -3.973166507636e+07 -4.136338669172e+07 2.889740369697e-04 -3.080075755187e-03 -2.703950732716e-02 0.000000000000e+00 4.976333845864e+07 2.769992551116e+07  2.770366001186e-02
3.900000000000e+01 2.134028859186e+06 1.000000000000e+00 6.744583771760e+01 0.000000000000e+00 1.257438060077e-02 -6.829339050282e+07 5.517472956195e+05 -3.980511556404e+07 -4.142068852503e+07 2.862171656786e-04 -3.085074630707e-03 -2.708536782273e-02 0.000000000000e+00 4.983973153063e+07 2.773229657850e+07  2.774895356584e-02
4.000000000000e+01 2.163414648802e+06 1.000000000000e+00 6.745056538364e+01 0.000000000000e+00 1.265665013664e-02 -6.840912223461e+07 5.537964418963e+05 -3.980187610151e+07 -4.145569480431e+07 2.816932812988e-04 -3.084653039659e-03 -2.708052765139e-02 0.000000000000e+00 4.988889771347e+07 2.783376583267e+07  2.774180932818e-02
4.200000000000e+01 2.220697509681e+06 1.000000000000e+00 6.749194524000e+01 0.000000000000e+00 1.281080351679e-02 -6.863265749616e+07 5.577365791084e+05 -3.979620962306e+07 -4.153099394126e+07 2.733815519568e-04 -3.083877643601e-03 -2.707117479492e-02 0.000000000000e+00 4.998662035349e+07 2.802603067294e+07  2.772823301242e-02
4.400000000000e+01 2.276463149110e+06 1.000000000000e+00 6.751216664321e+01 0.000000000000e+00 1.295458197065e-02 -6.883155433894e+07 5.612713912681e+05 -3.979061184079e+07 -4.159395977441e+07 2.657614908104e-04 -3.083150668802e-03 -2.706267561151e-02 0.000000000000e+00 5.007204198471e+07 2.819933612747e+07  2.771585668132e-02
5.000000000000e+01 2.427985018064e+06 1.000000000000e+00 6.726334194247e+01 0.000000000000e+00 1.325553828411e-02 -6.913678976076e+07 5.670621027951e+05 -3.977413021644e+07 -4.162294536448e+07 2.503145251753e-04 -3.081505371919e-03 -2.704774463007e-02 0.000000000000e+00 5.017795511389e+07 2.850021827110e+07  2.769297052251e-02
6.500000000000e+01 2.759369379565e+06 1.000000000000e+00 6.641202496310e+01 0.000000000000e+00 1.376859042239e-02 -6.934785507972e+07 5.724808585234e+05 -3.973661570710e+07 -4.147657578197e+07 2.303890954806e-04 -3.078603906961e-03 -2.702793093816e-02 0.000000000000e+00 5.018701552293e+07 2.879780871818e+07  2.766265490770e-02
8.000000000000e+01 3.014422729007e+06 1.000000000000e+00 6.535760750312e+01 0.000000000000e+00 1.401369994998e-02 -6.913165685852e+07 5.704974641773e+05 -3.970698722332e+07 -4.115646590652e+07 2.246968457018e-04 -3.076987711664e-03 -2.702554722538e-02 0.000000000000e+00 4.999836999612e+07 2.874435844244e+07  2.765694861788e-02
1.000000000000e+02 3.315102353166e+06 1.000000000000e+00 6.420536454622e+01 0.000000000000e+00 1.422003963837e-02 -6.877170240530e+07 5.662552302637e+05 -3.967651754348e+07 -4.076992487157e+07 2.233478119875e-04 -3.075564803481e-03 -2.702695671305e-02 0.000000000000e+00 4.973938160679e+07 2.858101412382e+07  2.765718679913e-02
1.860000000000e+02 3.913583542837e+06 1.000000000000e+00 6.147268638692e+01 0.000000000000e+00 1.447349663926e-02 -6.753256407875e+07 5.496585982407e+05 -3.961124811804e+07 -3.973906679986e+07 2.353468944011e-04 -3.073332561657e-03 -2.704354062991e-02 0.000000000000e+00 4.896095966555e+07 2.787388976294e+07  2.767867790135e-02
2.720000000000e+02 4.203904885271e+06 1.000000000000e+00 5.942458207660e+01 0.000000000000e+00 1.429316231641e-02 -6.626465728246e+07 5.304950691496e+05 -3.958174245995e+07 -3.887023992577e+07 2.579661584288e-04 -3.073576502358e-03 -2.707695443638e-02 0.000000000000e+00 4.823887988939e+07 2.706128998869e+07  2.772279862413e-02
3.580000000000e+02 4.345270570126e+06 1.000000000000e+00 5.799349184248e+01 0.000000000000e+00 1.410291560543e-02 -6.529489012093e+07 5.155979575206e+05 -3.956381974063e+07 -3.823870866681e+07 2.770986622092e-04 -3.074076178547e-03 -2.710400688103e-02 0.000000000000e+00 4.769913950945e+07 2.643365189182e+07  2.775903978485e-02
4.440000000000e+02 4.417399455284e+06 1.000000000000e+00 5.690549126728e+01 0.000000000000e+00 1.392388765136e-02 -6.452603818929e+07 5.036463520386e+05 -3.955201396383e+07 -3.774962821951e+07 2.929129847843e-04 -3.074635436958e-03 -2.712653569955e-02 0.000000000000e+00 4.727589345754e+07 2.593692897340e+07  2.778921734819e-02
5.300000000000e+02 4.456363967567e+06 1.000000000000e+00 5.606970574270e+01 0.000000000000e+00 1.376829194877e-02 -6.391884154431e+07 4.941364088238e+05 -3.954390584978e+07 -3.736922596385e+07 3.057273530671e-04 -3.075159607481e-03 -2.714487569021e-02 0.000000000000e+00 4.694399111931e+07 2.554617226643e+07  2.781378248782e-02
6.160000000000e+02 4.478879443004e+06 1.000000000000e+00 5.543354191827e+01 0.000000000000e+00 1.363910037412e-02 -6.344684156041e+07 4.867023880716e+05 -3.953830767760e+07 -3.707689583047e+07 3.158761050841e-04 -3.075614873798e-03 -2.715945089428e-02 0.000000000000e+00 4.668734835616e+07 2.524353237756e+07  2.783330366149e-02
7.020000000000e+02 4.492689738173e+06 1.000000000000e+00 5.496615109681e+01 0.000000000000e+00 1.353989972639e-02 -6.309618071207e+07 4.811626610348e+05 -3.953444340705e+07 -3.686102778445e+07 3.234886730445e-04 -3.075973208361e-03 -2.717041743804e-02 0.000000000000e+00 4.649721730119e+07 2.501974190610e+07  2.784798708162e-02
7.880000000000e+02 4.502308299529e+06 1.000000000000e+00 5.460065469369e+01 0.000000000000e+00 1.345019693299e-02 -6.281325452605e+07 4.766421202901e+05 -3.953209893920e+07 -3.668980589724e+07 3.297954314462e-04 -3.076314805719e-03 -2.717965982500e-02 0.000000000000e+00 4.634505312083e+07 2.483836276532e+07  2.786032195111e-02
8.740000000000e+02 4.510694377837e+06 1.000000000000e+00 5.401038251121e+01 0.000000000000e+00 1.332395968306e-02 -6.237047303360e+07 4.696488907540e+05 -3.952718717164e+07 -3.641719604116e+07 3.394061612355e-04 -3.076764980056e-03 -2.719348614743e-02 0.000000000000e+00 4.610495208214e+07 2.455996499318e+07  2.787884449478e-02
9.370000000000e+02 4.516068229386e+06 1.000000000000e+00 5.360241834825e+01 0.000000000000e+00 1.322000092810e-02 -6.204588731114e+07 4.644678293230e+05 -3.952456753665e+07 -3.622342638410e+07 3.467887445593e-04 -3.077161267261e-03 -2.720398892896e-02 0.000000000000e+00 4.593129374396e+07 2.435365730038e+07  2.789297541751e-02
1.000000000000e+03 4.520258254381e+06 1.000000000000e+00 5.327981538065e+01 0.000000000000e+00 1.313310028283e-02 -6.177919207841e+07 4.602088819111e+05 -3.952257305954e+07 -3.606719872176e+07 3.530198562735e-04 -3.077497128660e-03 -2.721256463674e-02 0.000000000000e+00 4.578965461990e+07 2.418340399559e+07  2.790462037934e-02
1.100000000000e+03 4.524403564311e+06 1.000000000000e+00 5.295547262778e+01 0.000000000000e+00 1.304224059189e-02 -6.150462031259e+07 4.558199999820e+05 -3.952066487837e+07 -3.590821590605e+07 3.595379195904e-04 -3.077852578367e-03 -2.722139334689e-02 0.000000000000e+00 4.564450036567e+07 2.400798444153e+07  2.791666484157e-02
1.200000000000e+03 4.527664936884e+06 1.000000000000e+00 5.267668556675e+01 0.000000000000e+00 1.296670275351e-02 -6.127355191897e+07 4.521285932256e+05 -3.951895540981e+07 -3.577303190190e+07 3.649462060160e-04 -3.078144964487e-03 -2.722882673594e-02 0.000000000000e+00 4.552184641023e+07 2.386207718256e+07  2.792676453562e-02
1.300000000000e+03 4.530570310175e+06 1.000000000000e+00 5.240899671779e+01 0.000000000000e+00 1.289479334714e-02 -6.105313747241e+07 4.486096566823e+05 -3.951728200276e+07 -3.564365845526e+07 3.700819751850e-04 -3.078420657447e-03 -2.723591148248e-02 0.000000000000e+00 4.540469264348e+07 2.372390311336e+07  2.793638086975e-02
1.400000000000e+03 4.533309823868e+06 1.000000000000e+00 5.213500147556e+01 0.000000000000e+00 1.282049936874e-02 -6.082674503959e+07 4.449926181670e+05 -3.951560011373e+07 -3.551100994675e+07 3.753699229223e-04 -3.078706503148e-03 -2.724320144591e-02 0.000000000000e+00 4.528445170002e+07 2.358258037544e+07  2.794627895134e-02
1.500000000000e+03 4.535949710671e+06 1.000000000000e+00 5.184463135537e+01 0.000000000000e+00 1.274030898801e-02 -6.058476709728e+07 4.411241933063e+05 -3.951387252023e+07 -3.536983086522e+07 3.810551627821e-04 -3.079016746942e-03 -2.725100952698e-02 0.000000000000e+00 4.515615682758e+07 2.343198916040e+07  2.795689348858e-02
1.600000000000e+03 4.538510754033e+06 1.000000000000e+00 5.153174535744e+01 0.000000000000e+00 1.265207048161e-02 -6.032134256183e+07 4.369094426866e+05 -3.951206774884e+07 -3.521691253736e+07 3.872871971497e-04 -3.079359582893e-03 -2.725952100824e-02 0.000000000000e+00 4.501677428267e+07 2.326856272477e+07  2.796848417024e-02
1.700000000000e+03 4.540998041300e+06 1.000000000000e+00 5.119255284710e+01 0.000000000000e+00 1.255445181952e-02 -6.003286123004e+07 4.322904944876e+05 -3.951017063918e+07 -3.505027803617e+07 3.941580469419e-04 -3.079740291677e-03 -2.726885283861e-02 0.000000000000e+00 4.486443663513e+07 2.309028133855e+07  2.798121395275e-02
1.800000000000e+03 4.543411448242e+06 1.000000000000e+00 5.082476598952e+01 0.000000000000e+00 1.244665092800e-02 -5.971713698608e+07 4.272319278673e+05 -3.950819831313e+07 -3.486874056607e+07 4.017236767773e-04 -3.080164094837e-03 -2.727909272148e-02 0.000000000000e+00 4.469802528843e+07 2.289611034478e+07  2.799519908127e-02
1.900000000000e+03 4.545750738841e+06 1.000000000000e+00 5.042709828818e+01 0.000000000000e+00 1.232820878263e-02 -5.937294611431e+07 4.217142657390e+05 -3.950608898395e+07 -3.467161125040e+07 4.100149373615e-04 -3.080628506484e-03 -2.729024373892e-02 0.000000000000e+00 4.451688211622e+07 2.268575752300e+07  2.801045767460e-02
2.000000000000e+03 4.548015082330e+06 1.000000000000e+00 4.999894771924e+01 0.000000000000e+00 1.219892140160e-02 -5.899970829674e+07 4.157277266025e+05 -3.950387826926e+07 -3.445858638515e+07 4.190469273354e-04 -3.081137305376e-03 -2.730234930849e-02 0.000000000000e+00 4.432072431705e+07 2.245936331012e+07  2.802704167337e-02