 TITLE = "Time curves in points"
 VARIABLES = "TIME"  "PRESSURE1"  "SATURATION1"  "TEMPERATURE1"  "DISPLACEMENT_X1"  "DISPLACEMENT_Y1"  "STRESS_XX"  "STRESS_XY"  "STRESS_YY"  "STRESS_ZZ"  "STRAIN_XX"  "STRAIN_XY"  "STRAIN_YY"  "STRAIN_PLS"  p_(1st_Invariant)  q_(2nd_Invariant)   Effective_Strain
 ZONE T="POINT=POINT11"
0.000000000000e+00 1.000000000000e+05 1.000000000000e+00 2.500000000000e+01 0.000000000000e+00 0.000000000000e+00 -5.392170068764e+07 8.391404681268e+05 -2.357515820812e+05 -1.424861648653e+07 0.000000000000e+00 0.000000000000e+00 0.000000000000e+00 0.000000000000e+00 2.280202291875e+07 4.825308313763e+07  0.000000000000e+00
1.000000000000e-03 1.321562803133e+05 1.000000000000e+00 2.500658919670e+01 0.000000000000e+00 -1.672860320205e-05 -5.462510942478e+07 8.320742392981e+05 8.176434674623e+05 -1.393155307610e+07 -2.902155150808e-04 -2.595722089864e-04 -8.188378466929e-05 0.000000000000e+00 2.257967301114e+07 4.975719676836e+07  5.189405068745e-04
2.000000000000e-03 1.547721087935e+05 1.000000000000e+00 2.503242649855e+01 0.000000000000e+00 -1.669157111143e-05 -5.435956648156e+07 8.093673531317e+05 1.068062543380e+06 -1.359401178627e+07 -2.768381228907e-04 -3.387311888774e-04 -1.092690108208e-03 0.000000000000e+00 2.229517190815e+07 4.976424110575e+07  1.145569376057e-03
3.000000000000e-03 1.705465206431e+05 1.000000000000e+00 2.508821888304e+01 0.000000000000e+00 -1.651750356873e-05 -5.410472987115e+07 7.868683693532e+05 1.313217595796e+06 -1.326821464565e+07 -2.634583828903e-04 -4.181006955821e-04 -2.104802037709e-03 0.000000000000e+00 2.201990897367e+07 4.977500886192e+07  2.114118911329e-03
4.000000000000e-03 1.815030669678e+05 1.000000000000e+00 2.517801402977e+01 0.000000000000e+00 -1.639303796815e-05 -5.386215099638e+07 7.646076302961e+05 1.554773338197e+06 -1.295507728705e+07 -2.500944346065e-04 -4.975796950423e-04 -3.117271352799e-03 0.000000000000e+00 2.175415164841e+07 4.979190544809e+07  3.121389491150e-03
1.000000000000e-02 1.978603628676e+05 1.000000000000e+00 2.624254793578e+01 0.000000000000e+00 -1.547042850102e-05 -5.389392175235e+07 7.455417439049e+05 1.711301446274e+06 -1.297613801348e+07 -2.331009356874e-04 -5.814824445216e-04 -4.172285428389e-03 0.000000000000e+00 2.171958610652e+07 4.992625434531e+07  4.183790578496e-03
2.000000000000e-02 1.963680346369e+05 1.000000000000e+00 2.811855859645e+01 0.000000000000e+00 -1.110800066092e-05 -5.417812926370e+07 7.285785809763e+05 1.798296064123e+06 -1.328643301566e+07 -2.137646060475e-04 -6.683319373272e-04 -5.253918080546e-03 0.000000000000e+00 2.188875540508e+07 5.018079825205e+07  5.278849449506e-03
3.000000000000e-02 1.864315871100e+05 1.000000000000e+00 2.977104240945e+01 0.000000000000e+00 -4.471645419164e-06 -5.440257803217e+07 7.102145277628e+05 1.886572744150e+06 -1.352993065382e+07 -1.947170524874e-04 -7.543272717905e-04 -6.329420863982e-03 0.000000000000e+00 2.201531198061e+07 5.039710707920e+07  6.369777541504e-03
4.000000000000e-02 1.732308016779e+05 1.000000000000e+00 3.117078428574e+01 0.000000000000e+00 4.727218436273e-06 -5.455213847002e+07 6.905735752818e+05 1.976456400074e+06 -1.369416508689e+07 -1.758580200664e-04 -8.395348081639e-04 -7.399690958741e-03 0.000000000000e+00 2.208994905228e+07 5.056325620413e+07  7.456508124407e-03
5.000000000000e-02 1.590712169439e+05 1.000000000000e+00 3.235484757263e+01 0.000000000000e+00 1.463984772131e-05 -5.464099400718e+07 6.700534407177e+05 2.073993816987e+06 -1.378949590464e+07 -1.574513354127e-04 -9.235630984239e-04 -8.460036223497e-03 0.000000000000e+00 2.211883203161e+07 5.069407695652e+07  8.533690070256e-03
6.000000000000e-02 1.446828136011e+05 1.000000000000e+00 3.336666820307e+01 0.000000000000e+00 2.653759415778e-05 -5.468035817679e+07 6.491214939497e+05 2.189363426144e+06 -1.382580616481e+07 -1.391547450898e-04 -1.005369813114e-03 -9.503356192663e-03 0.000000000000e+00 2.210560030515e+07 5.080488886222e+07  9.593904900643e-03
7.000000000000e-02 1.309553152747e+05 1.000000000000e+00 3.424269924722e+01 0.000000000000e+00 3.824370560842e-05 -5.468041600499e+07 6.278221752890e+05 2.307173246570e+06 -1.381949283367e+07 -1.210537804522e-04 -1.086303640046e-03 -1.053873328077e-02 0.000000000000e+00 2.206424519736e+07 5.089024805443e+07  1.064631234143e-02
8.000000000000e-02 1.185266125142e+05 1.000000000000e+00 3.501114549322e+01 0.000000000000e+00 5.068429596298e-05 -5.464939617526e+07 6.063239025882e+05 2.427244578694e+06 -1.377957213915e+07 -1.031095042209e-04 -1.166365111060e-03 -1.156577539804e-02 0.000000000000e+00 2.200057457857e+07 5.095562832835e+07  1.169044368180e-02
9.000000000000e-02 1.083066492509e+05 1.000000000000e+00 3.569332899835e+01 0.000000000000e+00 6.218787016600e-05 -5.459494736161e+07 5.847530489990e+05 2.549521554710e+06 -1.371328022226e+07 -8.535092345644e-05 -1.245556052890e-03 -1.258416997787e-02 0.000000000000e+00 2.191956867639e+07 5.100652592673e+07  1.272590970918e-02
1.000000000000e-01 1.013009242719e+05 1.000000000000e+00 3.630541896253e+01 0.000000000000e+00 7.268424674677e-05 -5.452272723915e+07 5.632064953911e+05 2.674680788210e+06 -1.362583518611e+07 -6.781126970176e-05 -1.323839686202e-03 -1.359324675964e-02 0.000000000000e+00 2.182462721235e+07 5.104757239582e+07  1.375197567839e-02
2.000000000000e-01 1.227583401152e+05 1.000000000000e+00 3.981142503252e+01 0.000000000000e+00 2.150002538261e-04 -5.520786839412e+07 5.251811163102e+05 2.026043890673e+06 -1.471044989849e+07 -1.458244799845e-05 -1.438818352862e-03 -1.513230975341e-02 0.000000000000e+00 2.263075813398e+07 5.097806751838e+07  1.532895755616e-02
3.000000000000e-01 1.535262526101e+05 1.000000000000e+00 4.213322259454e+01 0.000000000000e+00 3.699668445625e-04 -5.556654352486e+07 4.885290158563e+05 1.480728033207e+06 -1.539697107054e+07 3.421590337514e-05 -1.542580341100e-03 -1.655228669185e-02 0.000000000000e+00 2.316092885406e+07 5.076551208259e+07  1.678345552101e-02
4.000000000000e-01 1.848711887700e+05 1.000000000000e+00 4.382361384831e+01 0.000000000000e+00 5.152670865505e-04 -5.577831945147e+07 4.544512836432e+05 1.019905989267e+06 -1.587334921409e+07 7.681521050726e-05 -1.638065331648e-03 -1.785618258733e-02 0.000000000000e+00 2.354392089210e+07 5.052260033907e+07  1.811823826107e-02
5.000000000000e-01 2.146182721516e+05 1.000000000000e+00 4.513443190839e+01 0.000000000000e+00 6.555880026964e-04 -5.589199608237e+07 4.230162006865e+05 5.715056957039e+05 -1.623541791947e+07 1.150175053723e-04 -1.730943444385e-03 -1.909148991800e-02 0.000000000000e+00 2.385196943538e+07 5.022109896386e+07  1.938253253532e-02
6.000000000000e-01 2.422349190066e+05 1.000000000000e+00 4.619629486424e+01 0.000000000000e+00 7.901209557514e-04 -5.596480788038e+07 3.947888126432e+05 1.681920250718e+05 -1.651940123071e+07 1.480077692002e-04 -1.818954941707e-03 -2.023866852170e-02 0.000000000000e+00 2.410533902867e+07 4.993127628077e+07  2.055594515585e-02
7.000000000000e-01 2.677989511646e+05 1.000000000000e+00 4.708364073506e+01 0.000000000000e+00 9.187370615469e-04 -5.601996785747e+07 3.699588975101e+05 -1.657602116721e+05 -1.674271232430e+07 1.776899739246e-04 -1.897033531688e-03 -2.127181342086e-02 0.000000000000e+00 2.430948013115e+07 4.968909273079e+07  2.161244124507e-02
8.000000000000e-01 2.915671400692e+05 1.000000000000e+00 4.784280359403e+01 0.000000000000e+00 1.042777091700e-03 -5.606598210308e+07 3.481419512291e+05 -4.734270710384e+05 -1.693233279595e+07 2.019528070867e-04 -1.971856213949e-03 -2.222394594731e-02 0.000000000000e+00 2.449058065669e+07 4.946512649158e+07  2.258533589432e-02
9.000000000000e-01 3.136002835465e+05 1.000000000000e+00 4.850368017679e+01 0.000000000000e+00 1.162717303910e-03 -5.610828883610e+07 3.301327689644e+05 -7.505730276692e+05 -1.709456012893e+07 2.237300474148e-04 -2.041044578033e-03 -2.309963278444e-02 0.000000000000e+00 2.465114066423e+07 4.926625400515e+07  2.347996509275e-02
1.000000000000e+00 3.340884170568e+05 1.000000000000e+00 4.908706938572e+01 0.000000000000e+00 1.278970006174e-03 -5.614907120675e+07 3.154065560294e+05 -1.004644943577e+06 -1.723655941454e+07 2.436947529534e-04 -2.105287012166e-03 -2.391106269768e-02 0.000000000000e+00 2.479675852162e+07 4.908748953165e+07  2.430888741166e-02
2.000000000000e+00 4.691559606783e+05 1.000000000000e+00 5.224848730855e+01 0.000000000000e+00 2.238777439606e-03 -5.713313527723e+07 2.766773134394e+05 -3.997939197714e+06 -1.919371107747e+07 3.020918855150e-04 -2.355303667029e-03 -2.652514606886e-02 0.000000000000e+00 2.677492851747e+07 4.740316316478e+07  2.698759031413e-02
3.000000000000e+00 5.730621993731e+05 1.000000000000e+00 5.427679455463e+01 0.000000000000e+00 3.052789988467e-03 -5.789544248393e+07 2.607510266637e+05 -6.417767023580e+06 -2.064454360647e+07 3.369113218632e-04 -2.556236175923e-03 -2.852914568497e-02 0.000000000000e+00 2.831925103799e+07 4.604557338391e+07  2.903860335999e-02
4.000000000000e+00 6.596126034108e+05 1.000000000000e+00 5.575088147689e+01 0.000000000000e+00 3.760043750693e-03 -5.851220860133e+07 2.540747442684e+05 -8.456190298931e+06 -2.180573708333e+07 3.631877218067e-04 -2.722369204769e-03 -3.016496226845e-02 0.000000000000e+00 2.959137866120e+07 4.489748179350e+07  3.071231479658e-02
5.000000000000e+00 7.355452377896e+05 1.000000000000e+00 5.693149995896e+01 0.000000000000e+00 4.386126815193e-03 -5.902353763705e+07 2.507324795458e+05 -1.023041351772e+07 -2.278625232761e+07 3.850273048804e-04 -2.865116866917e-03 -3.155921362632e-02 0.000000000000e+00 3.068006782746e+07 4.388585248574e+07  3.213891805409e-02
6.000000000000e+00 8.043233661910e+05 1.000000000000e+00 5.796438519089e+01 0.000000000000e+00 4.950036086901e-03 -5.946771842493e+07 2.485009147481e+05 -1.182149186485e+07 -2.365682501106e+07 4.038370840281e-04 -2.992179423846e-03 -3.278813485223e-02 0.000000000000e+00 3.164867843361e+07 4.297108690400e+07  3.339648708115e-02
7.000000000000e+00 8.681486722727e+05 1.000000000000e+00 5.881773266898e+01 0.000000000000e+00 5.459360540354e-03 -5.985742579525e+07 2.469045460831e+05 -1.322394645807e+07 -2.441131692975e+07 4.190809660887e-04 -3.103872991697e-03 -3.386117686482e-02 0.000000000000e+00 3.249756306103e+07 4.217007859843e+07  3.449416740386e-02
8.000000000000e+00 9.277122832900e+05 1.000000000000e+00 5.964548359829e+01 0.000000000000e+00 5.928078866587e-03 -6.022493325721e+07 2.460613863175e+05 -1.450545477806e+07 -2.511659679964e+07 4.329412417523e-04 -3.204995933284e-03 -3.482800975923e-02 0.000000000000e+00 3.328232827830e+07 4.144771171886e+07  3.548340711513e-02
9.000000000000e+00 9.841048929835e+05 1.000000000000e+00 6.039584327610e+01 0.000000000000e+00 6.360818767353e-03 -6.056645219900e+07 2.456832405542e+05 -1.565621014800e+07 -2.575594641326e+07 4.452757573503e-04 -3.294989016992e-03 -3.568966616804e-02 0.000000000000e+00 3.399286958675e+07 4.081095434007e+07  3.636499886821e-02
1.000000000000e+01 1.037819556408e+06 1.000000000000e+00 6.107245844144e+01 0.000000000000e+00 6.763464264822e-03 -6.087135756208e+07 2.452816134518e+05 -1.672791757502e+07 -2.634343330528e+07 4.565805427211e-04 -3.378312465079e-03 -3.648261085815e-02 0.000000000000e+00 3.464756948079e+07 4.020970012666e+07  3.717641182820e-02
1.100000000000e+01 1.089158496838e+06 1.000000000000e+00 6.170901697769e+01 0.000000000000e+00 7.139795266322e-03 -6.116539488442e+07 2.449587693296e+05 -1.771673586481e+07 -2.689308514110e+07 4.657756822342e-04 -3.455258777828e-03 -3.720554372131e-02 0.000000000000e+00 3.525840529678e+07 3.966700518427e+07  3.791589782346e-02
1.200000000000e+01 1.138516106949e+06 1.000000000000e+00 6.228858435153e+01 0.000000000000e+00 7.492266412887e-03 -6.143998244142e+07 2.449128415680e+05 -1.862162989635e+07 -2.739775948508e+07 4.740042522330e-04 -3.525090525309e-03 -3.786148083693e-02 0.000000000000e+00 3.581979060761e+07 3.917693583502e+07  3.858680737951e-02
1.300000000000e+01 1.186155559904e+06 1.000000000000e+00 6.281335036953e+01 0.000000000000e+00 7.823977861795e-03 -6.168734513470e+07 2.447157104005e+05 -1.947617316720e+07 -2.786632632075e+07 4.815520529888e-04 -3.590784525928e-03 -3.847433525080e-02 0.000000000000e+00 3.634328154088e+07 3.870657784600e+07  3.921370884057e-02
1.400000000000e+01 1.232794460601e+06 1.000000000000e+00 6.328719669981e+01 0.000000000000e+00 8.136879054232e-03 -6.190873266756e+07 2.443311588937e+05 -2.028455181420e+07 -2.830124006565e+07 4.885354391618e-04 -3.652705154155e-03 -3.904834617525e-02 0.000000000000e+00 3.683150818247e+07 3.825350616292e+07  3.980094561282e-02
1.500000000000e+01 1.277982880797e+06 1.000000000000e+00 6.371396674996e+01 0.000000000000e+00 8.430641656528e-03 -6.211991782307e+07 2.442490958381e+05 -2.101346690594e+07 -2.869715185649e+07 4.943973536645e-04 -3.708239087904e-03 -3.956289047209e-02 0.000000000000e+00 3.727684552850e+07 3.785642978414e+07  4.032715748726e-02
1.600000000000e+01 1.321868393102e+06 1.000000000000e+00 6.409718126667e+01 0.000000000000e+00 8.707578590009e-03 -6.231488261297e+07 2.440621391502e+05 -2.169252402957e+07 -2.906255547332e+07 4.993788202059e-04 -3.759968720198e-03 -4.003871121112e-02 0.000000000000e+00 3.768998737195e+07 3.748711804426e+07  4.081365400637e-02
1.700000000000e+01 1.364582364112e+06 1.000000000000e+00 6.443989680906e+01 0.000000000000e+00 8.969525733185e-03 -6.248802413379e+07 2.438745782233e+05 -2.234008875611e+07 -2.940233299064e+07 5.042624769115e-04 -3.809001257044e-03 -4.048855893448e-02 0.000000000000e+00 3.807681529351e+07 3.712648526320e+07  4.127372067042e-02
1.800000000000e+01 1.406266469302e+06 1.000000000000e+00 6.474480269154e+01 0.000000000000e+00 9.217606913499e-03 -6.263964371673e+07 2.435890470459e+05 -2.296232666720e+07 -2.971913817965e+07 5.091153680477e-04 -3.855900909129e-03 -4.091754710282e-02 0.000000000000e+00 3.844036952119e+07 3.676995844859e+07  4.171259434374e-02
1.900000000000e+01 1.447009435937e+06 1.000000000000e+00 6.501430106622e+01 0.000000000000e+00 9.452699722651e-03 -6.276978423032e+07 2.429891822138e+05 -2.356254314112e+07 -3.001451411275e+07 5.138143316604e-04 -3.901152674125e-03 -4.132888138666e-02 0.000000000000e+00 3.878228049473e+07 3.641495342697e+07  4.213351148395e-02
2.000000000000e+01 1.486894329421e+06 1.000000000000e+00 6.525046042328e+01 0.000000000000e+00 9.674750385087e-03 -6.288771346099e+07 2.424611351211e+05 -2.412187627296e+07 -3.028552709145e+07 5.180910919056e-04 -3.943170624691e-03 -4.171024211954e-02 0.000000000000e+00 3.909837227514e+07 3.608348656095e+07  4.252373695549e-02
2.100000000000e+01 1.525849531847e+06 1.000000000000e+00 6.550408013656e+01 0.000000000000e+00 9.886922954197e-03 -6.300845313153e+07 2.421430408609e+05 -2.465641408599e+07 -3.055371871197e+07 5.221154979267e-04 -3.983186022633e-03 -4.207158403989e-02 0.000000000000e+00 3.940619530983e+07 3.577232650079e+07  4.289352313510e-02
2.200000000000e+01 1.564034463581e+06 1.000000000000e+00 6.574140182376e+01 0.000000000000e+00 1.009000608539e-02 -6.311777898969e+07 2.416555267312e+05 -2.517465390962e+07 -3.080973996113e+07 5.260652562445e-04 -4.021920581644e-03 -4.241992025549e-02 0.000000000000e+00 3.970072428681e+07 3.546543885166e+07  4.325008162824e-02
2.300000000000e+01 1.601514635910e+06 1.000000000000e+00 6.595789737850e+01 0.000000000000e+00 1.028361243869e-02 -6.322221031086e+07 2.412614012764e+05 -2.565927859641e+07 -3.104878704012e+07 5.295582336788e-04 -4.058041724768e-03 -4.274409832657e-02 0.000000000000e+00 3.997675864913e+07 3.518166459670e+07  4.358184221444e-02
2.400000000000e+01 1.638336215366e+06 1.000000000000e+00 6.615302041940e+01 0.000000000000e+00 1.046855184242e-02 -6.331686572900e+07 2.408536482742e+05 -2.612270191169e+07 -3.127324159681e+07 5.328561377043e-04 -4.092530785913e-03 -4.305260315191e-02 0.000000000000e+00 4.023760307917e+07 3.490756215723e+07  4.389758355940e-02
2.500000000000e+01 1.674554485485e+06 1.000000000000e+00 6.632710006372e+01 0.000000000000e+00 1.064518948150e-02 -6.340070986100e+07 2.403164776172e+05 -2.656697666264e+07 -3.148351035138e+07 5.359732061574e-04 -4.125609904809e-03 -4.334720413428e-02 0.000000000000e+00 4.048373229168e+07 3.464065776969e+07  4.419912085974e-02
2.600000000000e+01 1.710201348263e+06 1.000000000000e+00 6.648073203976e+01 0.000000000000e+00 1.081373152242e-02 -6.347472120032e+07 2.397965076087e+05 -2.698912679744e+07 -3.167900481067e+07 5.390705285351e-04 -4.156870287505e-03 -4.362611296745e-02 0.000000000000e+00 4.071428426947e+07 3.438390720695e+07  4.448465570531e-02
2.700000000000e+01 1.745310255366e+06 1.000000000000e+00 6.661459188943e+01 0.000000000000e+00 1.097472192783e-02 -6.353726352885e+07 2.391393162927e+05 -2.739689806625e+07 -3.186188978242e+07 5.421280287021e-04 -4.187069959635e-03 -4.389478513702e-02 0.000000000000e+00 4.093201712584e+07 3.413015231761e+07  4.475977349029e-02
2.800000000000e+01 1.779924773093e+06 1.000000000000e+00 6.672935958689e+01 0.000000000000e+00 1.112854874073e-02 -6.358755017140e+07 2.382501012024e+05 -2.779424595829e+07 -3.203335525673e+07 5.451880232923e-04 -4.216562006393e-03 -4.415623028251e-02 0.000000000000e+00 4.113838379547e+07 3.387579127868e+07  4.502756418138e-02
2.900000000000e+01 1.814068114876e+06 1.000000000000e+00 6.682569370622e+01 0.000000000000e+00 1.127546089053e-02 -6.362571139626e+07 2.372081634649e+05 -2.818073359265e+07 -3.219339159505e+07 5.483539582655e-04 -4.245245983216e-03 -4.441043078648e-02 0.000000000000e+00 4.133327886132e+07 3.362124484686e+07  4.528803407732e-02
3.000000000000e+01 1.847751175360e+06 1.000000000000e+00 6.690421870234e+01 0.000000000000e+00 1.141574884283e-02 -6.365209729022e+07 2.359629428156e+05 -2.855862614698e+07 -3.234293171987e+07 5.515875793248e-04 -4.273384983638e-03 -4.465938785230e-02 0.000000000000e+00 4.151788505235e+07 3.336518099250e+07  4.554321237566e-02
3.100000000000e+01 1.880894611771e+06 1.000000000000e+00 6.700421408374e+01 0.000000000000e+00 1.155127821895e-02 -6.368064196113e+07 2.347175396319e+05 -2.893140922683e+07 -3.249644096193e+07 5.549158617275e-04 -4.301179294564e-03 -4.490462255193e-02 0.000000000000e+00 4.170283071663e+07 3.311346835348e+07  4.579466972733e-02
3.200000000000e+01 1.913581044444e+06 1.000000000000e+00 6.709823362326e+01 0.000000000000e+00 1.168235259096e-02 -6.370093943442e+07 2.331960012292e+05 -2.930414444367e+07 -3.264607004822e+07 5.583511502187e-04 -4.329117332633e-03 -4.515027752187e-02 0.000000000000e+00 4.188371797544e+07 3.285604333471e+07  4.604663718812e-02
3.300000000000e+01 1.945836759411e+06 1.000000000000e+00 6.718200325324e+01 0.000000000000e+00 1.180905343662e-02 -6.371151754227e+07 2.313903453309e+05 -2.967734038556e+07 -3.279054216176e+07 5.618884174022e-04 -4.357255150784e-03 -4.539675568567e-02 0.000000000000e+00 4.205980002986e+07 3.259175668376e+07  4.629952563399e-02
3.400000000000e+01 1.977683955850e+06 1.000000000000e+00 6.725448079532e+01 0.000000000000e+00 1.193138127455e-02 -6.371252766061e+07 2.293386109414e+05 -3.005019388014e+07 -3.292938979012e+07 5.654928565013e-04 -4.385525463851e-03 -4.564333669990e-02 0.000000000000e+00 4.223070377696e+07 3.232150707331e+07  4.655258799362e-02
3.500000000000e+01 2.009163290122e+06 1.000000000000e+00 6.731542028234e+01 0.000000000000e+00 1.204976074764e-02 -6.370038372943e+07 2.270597539479e+05 -3.043031555269e+07 -3.306395267886e+07 5.695895976363e-04 -4.414315282871e-03 -4.589531008690e-02 0.000000000000e+00 4.239821732033e+07 3.203696088352e+07  4.681136560429e-02
3.600000000000e+01 2.040320277005e+06 1.000000000000e+00 6.736484979958e+01 0.000000000000e+00 1.216470789986e-02 -6.367020681986e+07 2.242380488050e+05 -3.083038774436e+07 -3.319691949474e+07 5.742295686673e-04 -4.444830973363e-03 -4.616145539973e-02 0.000000000000e+00 4.256583801965e+07 3.172520390834e+07  4.708488657719e-02
3.700000000000e+01 2.071240992759e+06 1.000000000000e+00 6.740291338406e+01 0.000000000000e+00 1.227771625257e-02 -6.360620938494e+07 2.203927595352e+05 -3.128395997215e+07 -3.333451788828e+07 5.804908242809e-04 -4.479475296137e-03 -4.646496385780e-02 0.000000000000e+00 4.274156241513e+07 3.134963587308e+07  4.739725116354e-02
3.800000000000e+01 2.104214843803e+06 1.000000000000e+00 6.743016255845e+01 0.000000000000e+00 1.243430151115e-02 -6.299873991683e+07 1.971515262800e+05 -3.290092293858e+07 -3.368582489526e+07 6.167424546755e-04 -4.604184201547e-03 -4.757237769647e-02 0.000000000000e+00 4.319516258356e+07 2.971510438603e+07  4.854324806223e-02
3.900000000000e+01 2.134028859186e+06 1.000000000000e+00 6.744583771760e+01 0.000000000000e+00 1.252389760906e-02 -6.309716433426e+07 1.986946234380e+05 -3.297436708738e+07 -3.374312392483e+07 6.139856447950e-04 -4.609182595951e-03 -4.761823411178e-02 0.000000000000e+00 4.327155178216e+07 2.974786098806e+07  4.858851513558e-02
4.000000000000e+01 2.163414648802e+06 1.000000000000e+00 6.745056538365e+01 0.000000000000e+00 1.260616620682e-02 -6.321289737413e+07 2.007433580050e+05 -3.297109956767e+07 -3.377812148768e+07 6.094615459345e-04 -4.608758952822e-03 -4.761337585995e-02 0.000000000000e+00 4.332070614316e+07 2.984849609115e+07  4.858132874955e-02
4.200000000000e+01 2.220697509681e+06 1.000000000000e+00 6.749194524000e+01 0.000000000000e+00 1.276032129688e-02 -6.343642718032e+07 2.046837601559e+05 -3.296546809173e+07 -3.385343035324e+07 6.011502322630e-04 -4.607986147345e-03 -4.760404569016e-02 0.000000000000e+00 4.341844187509e+07 3.003891558193e+07  4.856772940748e-02
4.400000000000e+01 2.276463149109e+06 1.000000000000e+00 6.751216664321e+01 0.000000000000e+00 1.290409875517e-02 -6.363532696764e+07 2.082188248486e+05 -3.295986097032e+07 -3.391639403573e+07 5.935300037545e-04 -4.607258440811e-03 -4.759554037807e-02 0.000000000000e+00 4.350386065790e+07 3.021071229500e+07  4.855530469502e-02
5.000000000000e+01 2.427985018064e+06 1.000000000000e+00 6.726334194248e+01 0.000000000000e+00 1.320505434584e-02 -6.394055360124e+07 2.140096835037e+05 -3.294337859660e+07 -3.394537674170e+07 5.780833792007e-04 -4.605613064820e-03 -4.758060901948e-02 0.000000000000e+00 4.360976964651e+07 3.051077100185e+07  4.853235116305e-02
6.500000000000e+01 2.759369379565e+06 1.000000000000e+00 6.641202496310e+01 0.000000000000e+00 1.371810856445e-02 -6.415162783631e+07 2.194281020379e+05 -3.290588062136e+07 -3.379901520882e+07 5.581576939771e-04 -4.602712886891e-03 -4.756080592028e-02 0.000000000000e+00 4.361884122216e+07 3.081123491422e+07  4.850199096234e-02
8.000000000000e+01 3.014422729007e+06 1.000000000000e+00 6.535760750312e+01 0.000000000000e+00 1.396321618676e-02 -6.393542684282e+07 2.174448123102e+05 -3.287621476150e+07 -3.347889236202e+07 5.524653387897e-04 -4.601093871617e-03 -4.755839809846e-02 0.000000000000e+00 4.343017798878e+07 3.076460678654e+07  4.849629891658e-02
1.000000000000e+02 3.315102353166e+06 1.000000000000e+00 6.420536454622e+01 0.000000000000e+00 1.416955653641e-02 -6.357546609401e+07 2.132027347530e+05 -3.284577301956e+07 -3.309235850921e+07 5.511167130090e-04 -4.599673039073e-03 -4.755982572735e-02 0.000000000000e+00 4.317119920759e+07 3.060937292168e+07  4.849662610814e-02
1.860000000000e+02 3.913583542837e+06 1.000000000000e+00 6.147268638692e+01 0.000000000000e+00 1.442301319805e-02 -6.233633360503e+07 1.966061543295e+05 -3.278049606636e+07 -3.206149974561e+07 5.631155240744e-04 -4.597440228445e-03 -4.757640467983e-02 0.000000000000e+00 4.239277647234e+07 2.992375291818e+07  4.851836521741e-02
2.720000000000e+02 4.203904885271e+06 1.000000000000e+00 5.942458207660e+01 0.000000000000e+00 1.424267834604e-02 -6.106842873754e+07 1.774423767284e+05 -3.275098320780e+07 -3.119267111439e+07 5.857346698592e-04 -4.597683660993e-03 -4.760981385414e-02 0.000000000000e+00 4.167069435324e+07 2.912950279570e+07  4.856274563973e-02
3.580000000000e+02 4.345270570126e+06 1.000000000000e+00 5.799349184248e+01 0.000000000000e+00 1.405243209782e-02 -6.009865992365e+07 1.625456202832e+05 -3.273307307530e+07 -3.056114344373e+07 6.048673103474e-04 -4.598184236547e-03 -4.763687437579e-02 0.000000000000e+00 4.113095881423e+07 2.851504890538e+07  4.859919287041e-02
4.440000000000e+02 4.417399455284e+06 1.000000000000e+00 5.690549126728e+01 0.000000000000e+00 1.387340461997e-02 -5.932981149624e+07 1.505938759754e+05 -3.272126807224e+07 -3.007206430090e+07 6.206815001110e-04 -4.598743570595e-03 -4.765940365714e-02 0.000000000000e+00 4.070771462313e+07 2.802842044968e+07  4.862952436452e-02
5.300000000000e+02 4.456363967567e+06 1.000000000000e+00 5.606970574269e+01 0.000000000000e+00 1.371780932419e-02 -5.872260858769e+07 1.410838673627e+05 -3.271316951810e+07 -2.969166327110e+07 6.334961708599e-04 -4.599268463135e-03 -4.767774998354e-02 0.000000000000e+00 4.037581379230e+07 2.764539414293e+07  4.865421507053e-02
6.160000000000e+02 4.478879443004e+06 1.000000000000e+00 5.543354191827e+01 0.000000000000e+00 1.358861754142e-02 -5.825062004172e+07 1.336496793978e+05 -3.270755680452e+07 -2.939933184902e+07 6.436443873283e-04 -4.599722666606e-03 -4.769231557339e-02 0.000000000000e+00 4.011916956509e+07 2.734864197447e+07  4.867381719072e-02
7.020000000000e+02 4.492689738173e+06 1.000000000000e+00 5.496615109681e+01 0.000000000000e+00 1.348941491278e-02 -5.789994340044e+07 1.281102010988e+05 -3.270368227651e+07 -2.918345572844e+07 6.512575166815e-04 -4.600080194623e-03 -4.770327573947e-02 0.000000000000e+00 3.992902713513e+07 2.712912371542e+07  4.868856110952e-02
7.880000000000e+02 4.502308299529e+06 1.000000000000e+00 5.460065469368e+01 0.000000000000e+00 1.339971413050e-02 -5.761702562595e+07 1.235893169376e+05 -3.270135292679e+07 -2.901224127869e+07 6.575640307510e-04 -4.600422972033e-03 -4.771252779221e-02 0.000000000000e+00 3.977687327715e+07 2.695111894034e+07  4.870095908126e-02
8.740000000000e+02 4.510694377837e+06 1.000000000000e+00 5.401038251121e+01 0.000000000000e+00 1.327347654858e-02 -5.717426165885e+07 1.165962388969e+05 -3.269643940605e+07 -2.873963611378e+07 6.671740628433e-04 -4.600873003858e-03 -4.772635262885e-02 0.000000000000e+00 3.953677905956e+07 2.667798317451e+07  4.871956217234e-02
9.370000000000e+02 4.516068229386e+06 1.000000000000e+00 5.360241834825e+01 0.000000000000e+00 1.316951798282e-02 -5.684966230575e+07 1.114152399208e+05 -3.269382071214e+07 -2.854586267034e+07 6.745571877785e-04 -4.601269347456e-03 -4.773685628085e-02 0.000000000000e+00 3.936311522941e+07 2.647536395357e+07  4.873375373730e-02
1.000000000000e+03 4.520258254381e+06 1.000000000000e+00 5.327981538065e+01 0.000000000000e+00 1.308261755696e-02 -5.658297365661e+07 1.071561967012e+05 -3.269182123169e+07 -2.838963535874e+07 6.807880131610e-04 -4.601604841637e-03 -4.774542861099e-02 0.000000000000e+00 3.922147674902e+07 2.630807087718e+07  4.874544329887e-02
1.100000000000e+03 4.524403564311e+06 1.000000000000e+00 5.295547262778e+01 0.000000000000e+00 1.299175758290e-02 -5.630839991543e+07 1.027672638560e+05 -3.268991016476e+07 -2.823065101412e+07 6.873061362036e-04 -4.601960084929e-03 -4.775425552633e-02 0.000000000000e+00 3.907632036477e+07 2.613562128880e+07  4.875753493894e-02
1.200000000000e+03 4.527664936884e+06 1.000000000000e+00 5.267668556675e+01 0.000000000000e+00 1.291621899575e-02 -5.607732157782e+07 9.907690710703e+04 -3.268818644446e+07 -2.809545939564e+07 6.927147389459e-04 -4.602251261726e-03 -4.776167989136e-02 0.000000000000e+00 3.895365580597e+07 2.599219394948e+07  4.876766643381e-02
1.300000000000e+03 4.530570310175e+06 1.000000000000e+00 5.240899671780e+01 0.000000000000e+00 1.284431083324e-02 -5.585690814710e+07 9.555686672955e+04 -3.268652574922e+07 -2.796609038245e+07 6.978505348193e-04 -4.602528048847e-03 -4.776877282743e-02 0.000000000000e+00 3.883650809292e+07 2.585634963395e+07  4.877732987561e-02
1.400000000000e+03 4.533309823868e+06 1.000000000000e+00 5.213500147556e+01 0.000000000000e+00 1.277001657505e-02 -5.563052025380e+07 9.194002750583e+04 -3.268485053696e+07 -2.783344540476e+07 7.031383426829e-04 -4.602814375232e-03 -4.777606700844e-02 0.000000000000e+00 3.871627206518e+07 2.571738690542e+07  4.878727157178e-02
1.500000000000e+03 4.535949710671e+06 1.000000000000e+00 5.184463135536e+01 0.000000000000e+00 1.268982562469e-02 -5.538853568616e+07 8.807171915558e+04 -3.268312589905e+07 -2.769226529205e+07 7.088238595081e-04 -4.603124820722e-03 -4.778387707341e-02 0.000000000000e+00 3.858797562575e+07 2.556926139635e+07  4.879792993504e-02
1.600000000000e+03 4.538510754033e+06 1.000000000000e+00 5.153174535744e+01 0.000000000000e+00 1.260158740675e-02 -5.512511192779e+07 8.385682014676e+04 -3.268131701194e+07 -2.753934586298e+07 7.150558393681e-04 -4.603467370129e-03 -4.779238593474e-02 0.000000000000e+00 3.844859160090e+07 2.540846786705e+07  4.880956277526e-02
1.700000000000e+03 4.540998041300e+06 1.000000000000e+00 5.119255284710e+01 0.000000000000e+00 1.250396882040e-02 -5.483663358164e+07 7.923790906874e+04 -3.267942131177e+07 -2.737271271513e+07 7.219265805006e-04 -4.603848180045e-03 -4.780171860055e-02 0.000000000000e+00 3.829625586951e+07 2.523299261821e+07  4.882234185903e-02
1.800000000000e+03 4.543411448242e+06 1.000000000000e+00 5.082476598952e+01 0.000000000000e+00 1.239616789298e-02 -5.452091154917e+07 7.417920855950e+04 -3.267744808387e+07 -2.719117561603e+07 7.294921154389e-04 -4.604271936105e-03 -4.781195785493e-02 0.000000000000e+00 3.812984508302e+07 2.504180068662e+07  4.883637864473e-02
1.900000000000e+03 4.545750738841e+06 1.000000000000e+00 5.042709828818e+01 0.000000000000e+00 1.227772574099e-02 -5.417671582374e+07 6.866107665377e+04 -3.267532939008e+07 -2.699404180237e+07 7.377835125452e-04 -4.604735699492e-03 -4.782310292595e-02 0.000000000000e+00 3.794869567206e+07 2.483457972502e+07  4.885168745726e-02
2.000000000000e+03 4.548015082330e+06 1.000000000000e+00 4.999894771924e+01 0.000000000000e+00 1.214843823928e-02 -5.380348365200e+07 6.267469861708e+04 -3.267312617118e+07 -2.678102107122e+07 7.468153255465e-04 -4.605245048811e-03 -4.783521335298e-02 0.000000000000e+00 3.775254363146e+07 2.461144004739e+07  4.886833623080e-02