 TITLE = "Time curves in points"
 VARIABLES = "TIME"  "PRESSURE1"  "SATURATION1"  "TEMPERATURE1"  "DISPLACEMENT_X1"  "DISPLACEMENT_Y1"  "STRESS_XX"  "STRESS_XY"  "STRESS_YY"  "STRESS_ZZ"  "STRAIN_XX"  "STRAIN_XY"  "STRAIN_YY"  "STRAIN_PLS"  p_(1st_Invariant)  q_(2nd_Invariant)   Effective_Strain
 ZONE T="POINT=POINT10"
0.000000000000e+00 1.000000000000e+05 1.000000000000e+00 2.500000000000e+01 0.000000000000e+00 0.000000000000e+00 -3.864302542005e+07 -1.960132696367e+04 -1.523974570659e+07 -1.317212244625e+07 0.000000000000e+00 0.000000000000e+00 0.000000000000e+00 0.000000000000e+00 2.235163119096e+07 2.450263017377e+07  0.000000000000e+00
1.000000000000e-03 1.740556493452e+05 1.000000000000e+00 2.500000447452e+01 0.000000000000e+00 6.302519373759e-05 -3.869889311249e+07 -1.957678389730e+04 -1.529244328256e+07 -1.320469271454e+07 -8.653328973250e-07 1.823199215566e-09 -7.475857139294e-07 0.000000000000e+00 2.239867636986e+07 2.451710779751e+07  8.128867591474e-07
2.000000000000e-03 1.919940503962e+05 1.000000000000e+00 2.500004424458e+01 0.000000000000e+00 6.293743158356e-05 -3.868873713542e+07 -1.964293784561e+04 -1.528933201293e+07 -1.320072045958e+07 -6.356517900807e-07 -3.091094087253e-09 -7.795651690234e-07 0.000000000000e+00 2.239292986931e+07 2.451056677685e+07  7.185205079891e-07
3.000000000000e-03 2.044247639721e+05 1.000000000000e+00 2.500022317481e+01 0.000000000000e+00 6.297463384734e-05 -3.867971313737e+07 -1.974295467244e+04 -1.528963179617e+07 -1.319814423395e+07 -3.961631002924e-07 -1.052091550916e-08 -8.863883554833e-07 0.000000000000e+00 2.238916305583e+07 2.450288674683e+07  7.692900810408e-07
4.000000000000e-03 2.130107233903e+05 1.000000000000e+00 2.500077028311e+01 0.000000000000e+00 6.301289300239e-05 -3.867115103556e+07 -1.989148191249e+04 -1.529319162085e+07 -1.319678082957e+07 -1.287829102199e-07 -2.155436762650e-08 -1.069251149220e-06 0.000000000000e+00 2.238704116199e+07 2.449356891125e+07  1.011719109047e-06
1.000000000000e-02 2.252844771433e+05 1.000000000000e+00 2.508185242243e+01 0.000000000000e+00 6.668029961621e-05 -3.862675499807e+07 -2.196075945966e+04 -1.537867901283e+07 -1.323457427011e+07 2.923969131240e-06 -1.752721282734e-07 -2.840740774017e-06 0.000000000000e+00 2.241333609367e+07 2.439094051009e+07  5.001779974722e-06
2.000000000000e-02 2.219294927555e+05 1.000000000000e+00 2.544179078192e+01 0.000000000000e+00 8.011289804276e-05 -3.861467006237e+07 -2.538502576662e+04 -1.557887551024e+07 -1.340840912956e+07 9.829561521919e-06 -4.296461967909e-07 -3.819887326984e-06 0.000000000000e+00 2.253398490072e+07 2.419419570443e+07  1.221938721682e-05
3.000000000000e-02 2.111384217562e+05 1.000000000000e+00 2.593979075627e+01 0.000000000000e+00 9.687297708726e-05 -3.866061343975e+07 -2.797983143208e+04 -1.578902666306e+07 -1.365040600463e+07 1.711154857952e-05 -6.224031890818e-07 -2.637046214602e-06 0.000000000000e+00 2.270001536915e+07 2.401247960101e+07  1.860229042683e-05
4.000000000000e-02 1.974241964817e+05 1.000000000000e+00 2.649896841115e+01 0.000000000000e+00 1.157749506358e-04 -3.874352221906e+07 -2.984068928197e+04 -1.598986549047e+07 -1.392298451409e+07 2.415642427053e-05 -7.606383436452e-07 2.757054686091e-08 0.000000000000e+00 2.288545740787e+07 2.385440552872e+07  2.417857108919e-05
5.000000000000e-02 1.829113713786e+05 1.000000000000e+00 2.707130627529e+01 0.000000000000e+00 1.347287537868e-04 -3.884746779792e+07 -3.116732367629e+04 -1.617668102797e+07 -1.420353469629e+07 3.071602382318e-05 -8.591883272235e-07 3.509143064488e-06 0.000000000000e+00 2.307589450739e+07 2.371905506491e+07  2.915846183067e-05
6.000000000000e-02 1.682270725788e+05 1.000000000000e+00 2.763110811857e+01 0.000000000000e+00 1.551995239659e-04 -3.895900531160e+07 -3.215421184710e+04 -1.634531539196e+07 -1.447773596524e+07 3.675782044760e-05 -9.325000199121e-07 7.430199534459e-06 0.000000000000e+00 2.326068555627e+07 2.360302498479e+07  3.370216547440e-05
7.000000000000e-02 1.542556228615e+05 1.000000000000e+00 2.816623668210e+01 0.000000000000e+00 1.744920368083e-04 -3.907412259947e+07 -3.288749578606e+04 -1.650011497001e+07 -1.474125979710e+07 4.227006351029e-05 -9.869725410918e-07 1.146852896170e-05 0.000000000000e+00 2.343849912219e+07 2.350291570909e+07  3.790029449120e-05
8.000000000000e-02 1.416079441769e+05 1.000000000000e+00 2.867201626895e+01 0.000000000000e+00 1.936680691822e-04 -3.918744925731e+07 -3.346295178492e+04 -1.664150556193e+07 -1.499079068122e+07 4.732907762888e-05 -1.029720701007e-06 1.548516838637e-05 0.000000000000e+00 2.360658183349e+07 2.341505329479e+07  4.183436705229e-05
9.000000000000e-02 1.312089199408e+05 1.000000000000e+00 2.914763495597e+01 0.000000000000e+00 2.111960894052e-04 -3.929853135613e+07 -3.391476551321e+04 -1.677338687086e+07 -1.522690724748e+07 5.197321499081e-05 -1.063284006537e-06 1.935676365821e-05 0.000000000000e+00 2.376627515816e+07 2.333692055311e+07  4.553304135792e-05
1.000000000000e-01 1.240701125961e+05 1.000000000000e+00 2.959416633005e+01 0.000000000000e+00 2.271099488453e-04 -3.940674595819e+07 -3.426901872715e+04 -1.689663343579e+07 -1.544992239831e+07 5.623723537390e-05 -1.089599959573e-06 2.306245399189e-05 0.000000000000e+00 2.391776726410e+07 2.326730087344e+07  4.900098424932e-05
2.000000000000e-01 1.432624336946e+05 1.000000000000e+00 3.250759920630e+01 0.000000000000e+00 3.962083573978e-04 -4.012912547417e+07 -3.619223068279e+04 -1.760907352121e+07 -1.688920632074e+07 8.286511332764e-05 -1.232467133420e-06 5.005951079523e-05 0.000000000000e+00 2.487580177204e+07 2.288856319512e+07  7.231148953239e-05
3.000000000000e-01 1.717948314734e+05 1.000000000000e+00 3.457268545528e+01 0.000000000000e+00 5.664704083496e-04 -4.061580843977e+07 -3.811014796133e+04 -1.809549516299e+07 -1.789879498851e+07 1.022873251228e-04 -1.374940988398e-06 6.949142890339e-05 0.000000000000e+00 2.553669953042e+07 2.261940113584e+07  9.049494228127e-05
4.000000000000e-01 2.008799525264e+05 1.000000000000e+00 3.613564746535e+01 0.000000000000e+00 7.219119891813e-04 -4.097895805914e+07 -3.994805870536e+04 -1.847111542951e+07 -1.866471001410e+07 1.172471830679e-04 -1.511471500811e-06 8.398809138304e-05 0.000000000000e+00 2.603826116758e+07 2.241177926452e+07  1.046918714319e-04
5.000000000000e-01 2.285057154166e+05 1.000000000000e+00 3.737741631547e+01 0.000000000000e+00 8.678942262052e-04 -4.125896140763e+07 -4.182989022861e+04 -1.878038770028e+07 -1.927447980294e+07 1.294956508525e-04 -1.651264699681e-06 9.514942776839e-05 0.000000000000e+00 2.643794297028e+07 2.223576322940e+07  1.162294289007e-04
6.000000000000e-01 2.541974450547e+05 1.000000000000e+00 3.839981986304e+01 0.000000000000e+00 1.006834695358e-03 -4.148349062862e+07 -4.376174649743e+04 -1.904549708149e+07 -1.977817532096e+07 1.398646847422e-04 -1.794774022508e-06 1.040111985644e-04 0.000000000000e+00 2.676905434369e+07 2.208090323075e+07  1.258675081558e-04
7.000000000000e-01 2.780400045055e+05 1.000000000000e+00 3.926450008438e+01 0.000000000000e+00 1.139825116413e-03 -4.167174749467e+07 -4.567626797529e+04 -1.927590887554e+07 -2.020572323643e+07 1.487526380060e-04 -1.936995618007e-06 1.113333973598e-04 0.000000000000e+00 2.705112653555e+07 2.194585220018e+07  1.340618960856e-04
8.000000000000e-01 3.003027005535e+05 1.000000000000e+00 4.001102928039e+01 0.000000000000e+00 1.267530021612e-03 -4.183729215722e+07 -4.750988838085e+04 -1.947646492475e+07 -2.057636566767e+07 1.563705551292e-04 -2.073207419562e-06 1.176508915495e-04 0.000000000000e+00 2.729670758322e+07 2.183182212386e+07  1.411001138829e-04
9.000000000000e-01 3.210277039390e+05 1.000000000000e+00 4.066608925883e+01 0.000000000000e+00 1.390768624703e-03 -4.198308086896e+07 -4.931213807163e+04 -1.965681099978e+07 -2.090315033936e+07 1.630932622131e-04 -2.207088825163e-06 1.230900394255e-04 0.000000000000e+00 2.751434740270e+07 2.173009145488e+07  1.472753463160e-04
1.000000000000e+00 3.403771986573e+05 1.000000000000e+00 4.124850062972e+01 0.000000000000e+00 1.509989282637e-03 -4.211441319104e+07 -5.109116214612e+04 -1.982155512869e+07 -2.119559322604e+07 1.690773688978e-04 -2.339244899268e-06 1.278331361428e-04 0.000000000000e+00 2.771052051526e+07 2.163876373376e+07  1.527455179461e-04
2.000000000000e+00 4.704530123069e+05 1.000000000000e+00 4.452435316778e+01 0.000000000000e+00 2.468761103268e-03 -4.295897981723e+07 -6.644337785087e+04 -2.088655699608e+07 -2.291540495856e+07 2.015864728477e-04 -3.479695208764e-06 1.521546454190e-04 0.000000000000e+00 2.892031392396e+07 2.113148663369e+07  1.820773151620e-04
3.000000000000e+00 5.717561879422e+05 1.000000000000e+00 4.671041876856e+01 0.000000000000e+00 3.276523967355e-03 -4.357856847192e+07 -8.000915468643e+04 -2.169240018995e+07 -2.410942278524e+07 2.229224135216e-04 -4.487438630834e-06 1.665725603520e-04 0.000000000000e+00 2.979346381570e+07 2.078379660758e+07  2.009190743777e-04
4.000000000000e+00 6.567912669109e+05 1.000000000000e+00 4.835209967221e+01 0.000000000000e+00 3.975522739759e-03 -4.407481465165e+07 -9.193048071024e+04 -2.234678017978e+07 -2.503073050375e+07 2.387104135335e-04 -5.373022849745e-06 1.764870188459e-04 0.000000000000e+00 3.048410844506e+07 2.051875873029e+07  2.146803396263e-04
5.000000000000e+00 7.317200884834e+05 1.000000000000e+00 4.969152725563e+01 0.000000000000e+00 4.592571243937e-03 -4.449608830673e+07 -1.024186534396e+05 -2.290065075810e+07 -2.579359064028e+07 2.513979114155e-04 -6.152144252502e-06 1.842494881507e-04 0.000000000000e+00 3.106344323504e+07 2.030490557139e+07  2.257042176923e-04
6.000000000000e+00 7.997471659688e+05 1.000000000000e+00 5.085993147088e+01 0.000000000000e+00 5.147860842715e-03 -4.486430146981e+07 -1.118557422008e+05 -2.339421042427e+07 -2.646238625998e+07 2.625624026615e-04 -6.853185131900e-06 1.907582521388e-04 0.000000000000e+00 3.157363271802e+07 2.011323029867e+07  2.353352491250e-04
7.000000000000e+00 8.629641263324e+05 1.000000000000e+00 5.185897481082e+01 0.000000000000e+00 5.649384102245e-03 -4.518640675342e+07 -1.202669057654e+05 -2.382351155808e+07 -2.703890833795e+07 2.720121693090e-04 -7.478014425272e-06 1.962264586361e-04 0.000000000000e+00 3.201627554982e+07 1.995157325990e+07  2.434896727396e-04
8.000000000000e+00 9.220342046367e+05 1.000000000000e+00 5.279544710174e+01 0.000000000000e+00 6.110995649038e-03 -4.548854689698e+07 -1.279068461222e+05 -2.421777574346e+07 -2.757668371284e+07 2.807643350443e-04 -8.045552851776e-06 2.015568742467e-04 0.000000000000e+00 3.242766878443e+07 1.980733414555e+07  2.511135129370e-04
9.000000000000e+00 9.779873130336e+05 1.000000000000e+00 5.365098589801e+01 0.000000000000e+00 6.538123656253e-03 -4.576413689942e+07 -1.349082529093e+05 -2.457804380948e+07 -2.806792957880e+07 2.887744099748e-04 -8.565657355961e-06 2.064217639585e-04 0.000000000000e+00 3.280337009590e+07 1.967606157305e+07  2.580918302790e-04
1.000000000000e+01 1.031317419010e+06 1.000000000000e+00 5.443079723345e+01 0.000000000000e+00 6.935107756968e-03 -4.601422048718e+07 -1.413802477099e+05 -2.490866328696e+07 -2.851610814684e+07 2.961322235283e-04 -9.046434112575e-06 2.107882444653e-04 0.000000000000e+00 3.314633064032e+07 1.955456556498e+07  2.644811906354e-04
1.100000000000e+01 1.082320970988e+06 1.000000000000e+00 5.515968595864e+01 0.000000000000e+00 7.306536898306e-03 -4.624972604699e+07 -1.473681959175e+05 -2.521413620327e+07 -2.893444418906e+07 3.029230700176e-04 -9.491253122287e-06 2.149803034277e-04 0.000000000000e+00 3.346610214644e+07 1.944589958980e+07  2.704194433849e-04
1.200000000000e+01 1.131384670317e+06 1.000000000000e+00 5.583133115128e+01 0.000000000000e+00 7.654721647868e-03 -4.646870743500e+07 -1.529041636154e+05 -2.549361507841e+07 -2.931998618611e+07 3.091096069249e-04 -9.902496436987e-06 2.189197908131e-04 0.000000000000e+00 3.376076956651e+07 1.934960637576e+07  2.758597319720e-04
1.300000000000e+01 1.178764923901e+06 1.000000000000e+00 5.644833607324e+01 0.000000000000e+00 7.981923323773e-03 -4.667001039708e+07 -1.580860403904e+05 -2.575212478774e+07 -2.967481376971e+07 3.148119500101e-04 -1.028743585456e-05 2.224973118570e-04 0.000000000000e+00 3.403231631818e+07 1.926047874268e+07  2.808634882722e-04
1.400000000000e+01 1.225175125999e+06 1.000000000000e+00 5.701464568575e+01 0.000000000000e+00 8.290034650154e-03 -4.685523930190e+07 -1.629380976869e+05 -2.599030873040e+07 -3.000098243798e+07 3.200468555094e-04 -1.064787439658e-05 2.257653159514e-04 0.000000000000e+00 3.428217682343e+07 1.917884379622e+07  2.854551100301e-04
1.500000000000e+01 1.270162624619e+06 1.000000000000e+00 5.753406333436e+01 0.000000000000e+00 8.580184286992e-03 -4.702655073680e+07 -1.674670941730e+05 -2.620895488462e+07 -3.030070646262e+07 3.248164659855e-04 -1.098431413555e-05 2.287767797096e-04 0.000000000000e+00 3.451207069468e+07 1.910545558330e+07  2.896481518945e-04
1.600000000000e+01 1.313869667188e+06 1.000000000000e+00 5.801007034821e+01 0.000000000000e+00 8.853846653353e-03 -4.718319071843e+07 -1.717336315355e+05 -2.641171870588e+07 -3.057607408331e+07 3.292263497224e-04 -1.130125691105e-05 2.314734922600e-04 0.000000000000e+00 3.472366116921e+07 1.903640174575e+07  2.935063019419e-04
1.700000000000e+01 1.356427998351e+06 1.000000000000e+00 5.844572204304e+01 0.000000000000e+00 9.112296374433e-03 -4.732431021363e+07 -1.757849474671e+05 -2.660143706050e+07 -3.082875060993e+07 3.333698966036e-04 -1.160221180883e-05 2.338119386485e-04 0.000000000000e+00 3.491816596136e+07 1.896834916765e+07  2.970883416775e-04
1.800000000000e+01 1.397969984871e+06 1.000000000000e+00 5.884370166558e+01 0.000000000000e+00 9.356575106777e-03 -4.745039121405e+07 -1.796478143599e+05 -2.677967751172e+07 -3.106028971549e+07 3.372869119373e-04 -1.188916763515e-05 2.357916029529e-04 0.000000000000e+00 3.509678614709e+07 1.890014699625e+07  3.004243270572e-04
1.900000000000e+01 1.438583998883e+06 1.000000000000e+00 5.920638226482e+01 0.000000000000e+00 9.587545750371e-03 -4.756216310976e+07 -1.833350392580e+05 -2.694718551703e+07 -3.127196404943e+07 3.409975739284e-04 -1.216307577044e-05 2.374320665874e-04 0.000000000000e+00 3.526043755874e+07 1.883153294807e+07  3.035348319823e-04
2.000000000000e+01 1.478353757371e+06 1.000000000000e+00 5.953584652466e+01 0.000000000000e+00 9.805571166606e-03 -4.766471118270e+07 -1.867788483820e+05 -2.709961796361e+07 -3.146472507814e+07 3.443483408574e-04 -1.241890159108e-05 2.389299853523e-04 0.000000000000e+00 3.540968474148e+07 1.877000382323e+07  3.063508790011e-04
2.100000000000e+01 1.517204192537e+06 1.000000000000e+00 5.986576413745e+01 0.000000000000e+00 1.001419103268e-02 -4.776525828724e+07 -1.900794416111e+05 -2.724837212662e+07 -3.165577549311e+07 3.477098923876e-04 -1.266408851667e-05 2.405009889967e-04 0.000000000000e+00 3.555646863566e+07 1.870962371645e+07  3.091916224339e-04
2.200000000000e+01 1.555286536014e+06 1.000000000000e+00 6.017842232777e+01 0.000000000000e+00 1.021366887402e-02 -4.785801574544e+07 -1.932542643361e+05 -2.739096172567e+07 -3.183658376877e+07 3.509803513220e-04 -1.289993249052e-05 2.419205398421e-04 0.000000000000e+00 3.569518707996e+07 1.864905120167e+07  3.119336841712e-04
2.300000000000e+01 1.592669794476e+06 1.000000000000e+00 6.047016849763e+01 0.000000000000e+00 1.040388815020e-02 -4.794637639797e+07 -1.962365626751e+05 -2.752209179952e+07 -3.200531430006e+07 3.539655182473e-04 -1.312147465285e-05 2.433171282612e-04 0.000000000000e+00 3.582459416585e+07 1.859568765720e+07  3.144605840183e-04
2.400000000000e+01 1.629401302440e+06 1.000000000000e+00 6.074054184199e+01 0.000000000000e+00 1.058539973770e-02 -4.802789336502e+07 -1.990801135413e+05 -2.764481651245e+07 -3.216198973114e+07 3.567571183396e-04 -1.333270986005e-05 2.445781549353e-04 0.000000000000e+00 3.594489986953e+07 1.854507173530e+07  3.168160366058e-04
2.500000000000e+01 1.665534658888e+06 1.000000000000e+00 6.098989539144e+01 0.000000000000e+00 1.075857340516e-02 -4.810199945508e+07 -2.017999089101e+05 -2.775999109715e+07 -3.230682050112e+07 3.593840350223e-04 -1.353475180174e-05 2.456796703885e-04 0.000000000000e+00 3.605627035111e+07 1.849598576814e+07  3.190166176282e-04
2.600000000000e+01 1.701103973755e+06 1.000000000000e+00 6.121883417622e+01 0.000000000000e+00 1.092375394443e-02 -4.816829685696e+07 -2.044076338509e+05 -2.786829624988e+07 -3.244010336791e+07 3.618720665763e-04 -1.372846851162e-05 2.466074140538e-04 0.000000000000e+00 3.615889882492e+07 1.844746880043e+07  3.210789423504e-04
2.700000000000e+01 1.736139339791e+06 1.000000000000e+00 6.142803472053e+01 0.000000000000e+00 1.108125806963e-02 -4.822675470674e+07 -2.069133148756e+05 -2.797032805848e+07 -3.256224468721e+07 3.642374525869e-04 -1.391460481631e-05 2.473543387368e-04 0.000000000000e+00 3.625310915081e+07 1.839894387937e+07  3.230142801994e-04
2.800000000000e+01 1.770681594199e+06 1.000000000000e+00 6.161817548849e+01 0.000000000000e+00 1.123141451529e-02 -4.827701247025e+07 -2.093329084742e+05 -2.806706791325e+07 -3.267366815248e+07 3.665093215093e-04 -1.409434605507e-05 2.478997299839e-04 0.000000000000e+00 3.633924951199e+07 1.834924930698e+07  3.248411131811e-04
2.900000000000e+01 1.804755349151e+06 1.000000000000e+00 6.178991237560e+01 0.000000000000e+00 1.137447368214e-02 -4.831924391217e+07 -2.116676690206e+05 -2.815859788687e+07 -3.277468004225e+07 3.686925952866e-04 -1.426778540994e-05 2.482519154408e-04 0.000000000000e+00 3.641750728043e+07 1.829838992564e+07  3.265659343103e-04
3.000000000000e+01 1.838370950549e+06 1.000000000000e+00 6.194386924086e+01 0.000000000000e+00 1.151070362196e-02 -4.835360605091e+07 -2.139269975489e+05 -2.824547497583e+07 -3.286571287633e+07 3.707975068280e-04 -1.443562124348e-05 2.484062716883e-04 0.000000000000e+00 3.648826463436e+07 1.824599897428e+07  3.281968953899e-04
3.100000000000e+01 1.871447001257e+06 1.000000000000e+00 6.210580140263e+01 0.000000000000e+00 1.164239915198e-02 -4.838718561111e+07 -2.161448661222e+05 -2.833392044290e+07 -3.295964091383e+07 3.730390216992e-04 -1.460037719463e-05 2.486099100186e-04 0.000000000000e+00 3.656024898928e+07 1.819093429139e+07  3.299444112186e-04
3.200000000000e+01 1.904061231697e+06 1.000000000000e+00 6.226094204290e+01 0.000000000000e+00 1.176946150153e-02 -4.841573934942e+07 -2.183251985988e+05 -2.842135287612e+07 -3.304936740124e+07 3.753111523801e-04 -1.476234475004e-05 2.486951177455e-04 0.000000000000e+00 3.662881987560e+07 1.813291745820e+07  3.316978322608e-04
3.300000000000e+01 1.936240664812e+06 1.000000000000e+00 6.240572497300e+01 0.000000000000e+00 1.189189930975e-02 -4.843828185086e+07 -2.204708850665e+05 -2.850705502694e+07 -3.313314418536e+07 3.775855685941e-04 -1.492173860193e-05 2.486236041256e-04 0.000000000000e+00 3.669282702105e+07 1.807198642976e+07  3.334304246135e-04
3.400000000000e+01 1.968010593866e+06 1.000000000000e+00 6.253918901854e+01 0.000000000000e+00 1.200970761446e-02 -4.845483617085e+07 -2.225794162304e+05 -2.859065388352e+07 -3.321053142902e+07 3.798450771872e-04 -1.507837234553e-05 2.483928870739e-04 0.000000000000e+00 3.675200716113e+07 1.800854079486e+07  3.351306694212e-04
3.500000000000e+01 1.999407455002e+06 1.000000000000e+00 6.266110742445e+01 0.000000000000e+00 1.212312875651e-02 -4.846338632691e+07 -2.246843328890e+05 -2.867418962547e+07 -3.328145741593e+07 3.821618937615e-04 -1.523473758303e-05 2.479245247439e-04 0.000000000000e+00 3.680634445610e+07 1.793924589185e+07  3.368430922766e-04
3.600000000000e+01 2.030469901429e+06 1.000000000000e+00 6.277151349027e+01 0.000000000000e+00 1.223243502028e-02 -4.846165421291e+07 -2.268284793560e+05 -2.876033443153e+07 -3.334605215322e+07 3.846254625239e-04 -1.539401703486e-05 2.471240936181e-04 0.000000000000e+00 3.685601359922e+07 1.786002436634e+07  3.386263021991e-04
3.700000000000e+01 2.061269396574e+06 1.000000000000e+00 6.287055186444e+01 0.000000000000e+00 1.233841558296e-02 -4.844166731743e+07 -2.291463554820e+05 -2.885756368825e+07 -3.340451716130e+07 3.875393903704e-04 -1.556620211850e-05 2.456842786686e-04 0.000000000000e+00 3.690124938899e+07 1.775729193847e+07  3.406789225061e-04
3.800000000000e+01 2.093583371613e+06 1.000000000000e+00 6.295867248218e+01 0.000000000000e+00 1.246361640256e-02 -4.815116869406e+07 -2.358873871333e+05 -2.923304042945e+07 -3.346148068188e+07 4.004451271457e-04 -1.606696446974e-05 2.338537876170e-04 0.000000000000e+00 3.694856326846e+07 1.720314033914e+07  3.495321532614e-04
3.900000000000e+01 2.123384718586e+06 1.000000000000e+00 6.303542968280e+01 0.000000000000e+00 1.255356204986e-02 -4.820602957098e+07 -2.367067624096e+05 -2.923673050837e+07 -3.350654105756e+07 4.000811085282e-04 -1.612783234741e-05 2.353903986397e-04 0.000000000000e+00 3.698310037897e+07 1.724060225394e+07  3.493974849322e-04
4.000000000000e+01 2.152770412537e+06 1.000000000000e+00 6.310126011054e+01 0.000000000000e+00 1.263759247843e-02 -4.827170130983e+07 -2.371767565218e+05 -2.921762808327e+07 -3.354418296966e+07 3.990400006775e-04 -1.616274619575e-05 2.374980454500e-04 0.000000000000e+00 3.701117078758e+07 1.730627194186e+07  3.487846421644e-04
4.200000000000e+01 2.210053104714e+06 1.000000000000e+00 6.324270891614e+01 0.000000000000e+00 1.279539315619e-02 -4.839602275911e+07 -2.380778544206e+05 -2.918499468433e+07 -3.362223629742e+07 3.973214704497e-04 -1.622968489680e-05 2.416092667275e-04 0.000000000000e+00 3.706775124695e+07 1.742638180500e+07  3.478980418658e-04
4.400000000000e+01 2.265818595915e+06 1.000000000000e+00 6.336221829407e+01 0.000000000000e+00 1.294232885619e-02 -4.850576611743e+07 -2.389188762213e+05 -2.915023989873e+07 -3.368758820126e+07 3.956726449975e-04 -1.629216080200e-05 2.453275151924e-04 0.000000000000e+00 3.711453140581e+07 1.753774237114e+07  3.470869464468e-04
5.000000000000e+01 2.417340202335e+06 1.000000000000e+00 6.341051342750e+01 0.000000000000e+00 1.324617594428e-02 -4.866800537036e+07 -2.406695312046e+05 -2.902448501087e+07 -3.371850301043e+07 3.907948799435e-04 -1.642220945790e-05 2.511466753678e-04 0.000000000000e+00 3.713699779722e+07 1.777268759703e+07  3.441765866241e-04
6.500000000000e+01 2.748724178568e+06 1.000000000000e+00 6.313073733148e+01 0.000000000000e+00 1.375740470326e-02 -4.870680363277e+07 -2.439294929750e+05 -2.867183089361e+07 -3.353235375503e+07 3.824396864247e-04 -1.666437804656e-05 2.573311416651e-04 0.000000000000e+00 3.697032942714e+07 1.810587962269e+07  3.389673930994e-04
8.000000000000e+01 3.003777392184e+06 1.000000000000e+00 6.251553785946e+01 0.000000000000e+00 1.399274739388e-02 -4.850784974251e+07 -2.456176309775e+05 -2.835548308592e+07 -3.316699894565e+07 3.762590808574e-04 -1.678978258389e-05 2.555108816023e-04 0.000000000000e+00 3.667677725803e+07 1.823420190227e+07  3.340121367282e-04
1.000000000000e+02 3.304456935822e+06 1.000000000000e+00 6.178031670148e+01 0.000000000000e+00 1.418679844126e-02 -4.820735058169e+07 -2.471651118192e+05 -2.801062182172e+07 -3.272040096226e+07 3.708325531623e-04 -1.690473830355e-05 2.517320891755e-04 0.000000000000e+00 3.631279112189e+07 1.830713008948e+07  3.292304426918e-04
1.860000000000e+02 3.902938202522e+06 1.000000000000e+00 5.983575743522e+01 0.000000000000e+00 1.440593216427e-02 -4.724166953713e+07 -2.497868243720e+05 -2.720733864417e+07 -3.151731805742e+07 3.620147697802e-04 -1.709949409319e-05 2.368823850192e-04 0.000000000000e+00 3.532210874624e+07 1.826991963686e+07  3.198284131975e-04
2.720000000000e+02 4.193259632165e+06 1.000000000000e+00 5.817021896826e+01 0.000000000000e+00 1.419354615478e-02 -4.640379539706e+07 -2.491134376280e+05 -2.678496874835e+07 -3.056028641595e+07 3.575889197283e-04 -1.704947107792e-05 2.170235201805e-04 0.000000000000e+00 3.458301685379e+07 1.803525026755e+07  3.134260536062e-04
3.580000000000e+02 4.334625370858e+06 1.000000000000e+00 5.696011998447e+01 0.000000000000e+00 1.397962116541e-02 -4.577289585606e+07 -2.482645369384e+05 -2.650762135359e+07 -2.986657874245e+07 3.552560462355e-04 -1.698640988384e-05 2.015587098275e-04 0.000000000000e+00 3.404903198403e+07 1.782994857250e+07  3.099894125914e-04
4.440000000000e+02 4.406754288317e+06 1.000000000000e+00 5.602081320516e+01 0.000000000000e+00 1.378200359449e-02 -4.528267498881e+07 -2.473730522287e+05 -2.631353546726e+07 -2.933407755986e+07 3.536856345226e-04 -1.692018530540e-05 1.889889988232e-04 0.000000000000e+00 3.364342933865e+07 1.765894743797e+07  3.079392046972e-04
5.300000000000e+02 4.445718820727e+06 1.000000000000e+00 5.528906129963e+01 0.000000000000e+00 1.361181753286e-02 -4.490056104503e+07 -2.465587219516e+05 -2.617328942211e+07 -2.892233972609e+07 3.525853186091e-04 -1.685969219910e-05 1.789050181033e-04 0.000000000000e+00 3.333206339774e+07 1.752050632472e+07  3.067521430335e-04
6.160000000000e+02 4.468234309314e+06 1.000000000000e+00 5.472602773133e+01 0.000000000000e+00 1.347133388755e-02 -4.460649161952e+07 -2.458611473557e+05 -2.607185382451e+07 -2.860738811816e+07 3.518096946905e-04 -1.680787237198e-05 1.709744234340e-04 0.000000000000e+00 3.309524452073e+07 1.741114199897e+07  3.061035262123e-04
7.020000000000e+02 4.482044613276e+06 1.000000000000e+00 5.430995063480e+01 0.000000000000e+00 1.336376502376e-02 -4.438923508637e+07 -2.453168804417e+05 -2.599956576512e+07 -2.837543234019e+07 3.512637227399e-04 -1.676744111551e-05 1.650439081721e-04 0.000000000000e+00 3.292141106389e+07 1.732956491594e+07  3.057698451163e-04
7.880000000000e+02 4.491663181074e+06 1.000000000000e+00 5.397872581268e+01 0.000000000000e+00 1.326732698094e-02 -4.421812406433e+07 -2.447963899133e+05 -2.595028108677e+07 -2.819374188826e+07 3.508707724866e-04 -1.672877610483e-05 1.601259794391e-04 0.000000000000e+00 3.278738234645e+07 1.726104833405e+07  3.056250284673e-04
8.740000000000e+02 4.500049265801e+06 1.000000000000e+00 5.345336087711e+01 0.000000000000e+00 1.313052492828e-02 -4.394359560726e+07 -2.441115793908e+05 -2.585871769793e+07 -2.790071093986e+07 3.501835370946e-04 -1.667790446602e-05 1.526428986557e-04 0.000000000000e+00 3.256767474835e+07 1.716048129608e+07  3.054665145161e-04
9.370000000000e+02 4.505423121656e+06 1.000000000000e+00 5.307936059738e+01 0.000000000000e+00 1.301895300516e-02 -4.374525605456e+07 -2.435306364457e+05 -2.580172809791e+07 -2.769356544646e+07 3.498564592972e-04 -1.663474870438e-05 1.470656797586e-04 0.000000000000e+00 3.241351653298e+07 1.708159621476e+07  3.056241529456e-04
1.000000000000e+03 4.509613149595e+06 1.000000000000e+00 5.277859554472e+01 0.000000000000e+00 1.292591037057e-02 -4.358095395147e+07 -2.430580784621e+05 -2.575568589186e+07 -2.752542206124e+07 3.497137831038e-04 -1.659964439702e-05 1.425304931041e-04 0.000000000000e+00 3.228735396819e+07 1.701479819395e+07  3.059353496876e-04
1.100000000000e+03 4.513758462105e+06 1.000000000000e+00 5.247289760991e+01 0.000000000000e+00 1.282879283652e-02 -4.341128553433e+07 -2.425692405599e+05 -2.570926992945e+07 -2.735379719905e+07 3.496411151447e-04 -1.656333072429e-05 1.378798768263e-04 0.000000000000e+00 3.215811755428e+07 1.694493725383e+07  3.063891768939e-04
1.200000000000e+03 4.517019836215e+06 1.000000000000e+00 5.221269628220e+01 0.000000000000e+00 1.274793991920e-02 -4.326889758367e+07 -2.421593142105e+05 -2.566948412876e+07 -2.720826817795e+07 3.495244468142e-04 -1.653287905262e-05 1.339522714968e-04 0.000000000000e+00 3.204888329679e+07 1.688790801158e+07  3.067751043270e-04
1.300000000000e+03 4.519925210579e+06 1.000000000000e+00 5.196357675456e+01 0.000000000000e+00 1.267094600149e-02 -4.313324238276e+07 -2.417678561840e+05 -2.563140306704e+07 -2.706914869855e+07 3.493957736131e-04 -1.650379931351e-05 1.301994159828e-04 0.000000000000e+00 3.194459804945e+07 1.683429992615e+07  3.071730701820e-04
1.400000000000e+03 4.522664725124e+06 1.000000000000e+00 5.170814257527e+01 0.000000000000e+00 1.259143587293e-02 -4.299394952635e+07 -2.413638528700e+05 -2.559258933298e+07 -2.692650782395e+07 3.492714186519e-04 -1.647378763876e-05 1.263429793345e-04 0.000000000000e+00 3.183768222776e+07 1.677943528604e+07  3.076349097922e-04
1.500000000000e+03 4.525304612681e+06 1.000000000000e+00 5.143632875318e+01 0.000000000000e+00 1.250568780706e-02 -4.284504518986e+07 -2.409289488490e+05 -2.555163918795e+07 -2.677460960963e+07 3.491602174753e-04 -1.644148048291e-05 1.222220510462e-04 0.000000000000e+00 3.172376466248e+07 1.672071661275e+07  3.081995719452e-04
1.600000000000e+03 4.527865656785e+06 1.000000000000e+00 5.114199614483e+01 0.000000000000e+00 1.241142241906e-02 -4.268289507996e+07 -2.404518630848e+05 -2.550772261684e+07 -2.660996610079e+07 3.490676055149e-04 -1.640603982614e-05 1.177379076452e-04 0.000000000000e+00 3.160019459920e+07 1.665664189439e+07  3.089002962848e-04
1.700000000000e+03 4.530352944705e+06 1.000000000000e+00 5.082135521810e+01 0.000000000000e+00 1.230723020612e-02 -4.250526496118e+07 -2.399257388019e+05 -2.546033318133e+07 -2.643042878165e+07 3.489967666440e-04 -1.636695630798e-05 1.128295576815e-04 0.000000000000e+00 3.146534230806e+07 1.658638793127e+07  3.097672241833e-04
1.800000000000e+03 4.532766352570e+06 1.000000000000e+00 5.047211883707e+01 0.000000000000e+00 1.219226046628e-02 -4.231079372633e+07 -2.393462942732e+05 -2.540915688289e+07 -2.623469463724e+07 3.489498585749e-04 -1.632391185728e-05 1.074602662600e-04 0.000000000000e+00 3.131821508215e+07 1.650956574815e+07  3.108293393572e-04
1.900000000000e+03 4.535105643823e+06 1.000000000000e+00 5.009300096791e+01 0.000000000000e+00 1.206602947827e-02 -4.209873185841e+07 -2.387111395377e+05 -2.535403128575e+07 -2.602203997941e+07 3.489278406638e-04 -1.627672893407e-05 1.016091868627e-04 0.000000000000e+00 3.115826770785e+07 1.642609437304e+07  3.121147007047e-04
2.000000000000e+03 4.537369988248e+06 1.000000000000e+00 4.968339990059e+01 0.000000000000e+00 1.192831705991e-02 -4.186872028407e+07 -2.380191621862e+05 -2.529486555996e+07 -2.579211924509e+07 3.489312147220e-04 -1.622532490225e-05 9.526685797488e-05 0.000000000000e+00 3.098523502971e+07 1.633610941043e+07  3.136510319836e-04