 TITLE = "Time curves in points"
 VARIABLES = "TIME"  "PRESSURE1"  "SATURATION1"  "TEMPERATURE1"  "DISPLACEMENT_X1"  "DISPLACEMENT_Y1"  "STRESS_XX"  "STRESS_XY"  "STRESS_YY"  "STRESS_ZZ"  "STRAIN_XX"  "STRAIN_XY"  "STRAIN_YY"  "STRAIN_PLS"  p_(1st_Invariant)  q_(2nd_Invariant)   Effective_Strain
 ZONE T="POINT=POINT2"
0.000000000000e+00 -7.000000000000e+07 6.684759947500e-01 2.500000000000e+01 0.000000000000e+00 0.000000000000e+00 0.000000000000e+00 0.000000000000e+00 0.000000000000e+00 0.000000000000e+00 0.000000000000e+00 0.000000000000e+00 0.000000000000e+00 0.000000000000e+00 -0.000000000000e+00 0.000000000000e+00  0.000000000000e+00
1.000000000000e-03 -6.999999537629e+07 6.684760111000e-01 3.309920063102e+01 0.000000000000e+00 6.438695672042e-05 1.960253130028e+06 -7.348791806548e+03 1.447353872876e+06 1.051710073704e+06 6.646942591958e-05 2.713242778644e-05 9.701000042206e-04 0.000000000000e+00 -1.486439025536e+06 7.891052456585e+05  9.398078092454e-04
2.000000000000e-03 -7.015897611663e+07 6.679155787534e-01 3.680474757738e+01 0.000000000000e+00 6.430628274193e-05 1.739704238924e+06 -1.069593265623e+04 1.369098153031e+06 9.572280222664e+05 5.606368399115e-05 3.956073419765e-05 9.836047629376e-04 0.000000000000e+00 -1.355343471407e+06 6.782113693397e+05  9.592560215111e-04
3.000000000000e-03 -7.037098644128e+07 6.671689084845e-01 3.938015885731e+01 0.000000000000e+00 6.414043880925e-05 1.493012496894e+06 -1.422220690329e+04 1.253833599065e+06 8.443692751956e+05 4.524869782879e-05 5.078160979449e-05 9.775115118042e-04 0.000000000000e+00 -1.197071790385e+06 5.686911436622e+05  9.597298541897e-04
4.000000000000e-03 -7.061767541777e+07 6.663004323391e-01 4.141326417304e+01 0.000000000000e+00 6.384106254626e-05 1.229283125489e+06 -1.774130615186e+04 1.114345566643e+06 7.191880640573e+05 3.420582830546e-05 6.132563817585e-05 9.604163417044e-04 0.000000000000e+00 -1.020938918730e+06 4.644596805128e+05  9.497369390046e-04
1.000000000000e-02 -7.212436584080e+07 6.610101988942e-01 4.814031443772e+01 0.000000000000e+00 6.095374132922e-05 1.671389041569e+05 -3.328442590125e+04 -6.254196941973e+03 4.089615370738e+04 1.330537421435e-05 5.633246301434e-05 6.011436974881e-04 0.000000000000e+00 -6.726028697411e+04 1.656391758636e+05  6.025548732927e-04
2.000000000000e-02 -7.521838996300e+07 6.501913288293e-01 5.432127419821e+01 0.000000000000e+00 5.861556276242e-05 -1.760567011720e+06 -5.129858453071e+04 -2.319242420352e+06 -1.270187052256e+06 -1.722051471314e-05 2.693422621438e-05 -1.754858554637e-04 0.000000000000e+00 1.783332161443e+06 9.134815681867e+05  1.739144400680e-04
3.000000000000e-02 -7.885304633079e+07 6.375369856498e-01 5.823716280856e+01 0.000000000000e+00 5.842397637328e-05 -3.871270376700e+06 -5.541935302662e+04 -5.024131391146e+06 -2.756306614102e+06 -4.780517963226e-05 -1.417546824220e-05 -1.054989921208e-03 0.000000000000e+00 3.883902793983e+06 1.966429474714e+06  1.032210210208e-03
4.000000000000e-02 -8.260242327411e+07 6.245443995564e-01 6.095065630048e+01 0.000000000000e+00 6.042875889401e-05 -5.929646828688e+06 -4.153290961511e+04 -7.817040170296e+06 -4.252545082173e+06 -7.531099122084e-05 -6.089333405052e-05 -1.914521366231e-03 0.000000000000e+00 5.999744027053e+06 3.089571088586e+06  1.880958080273e-03
5.000000000000e-02 -8.623995779398e+07 6.178036143255e-01 6.295232042415e+01 0.000000000000e+00 6.345573049434e-05 -7.807823317953e+06 -1.195401919307e+04 -1.054430055794e+07 -5.670881811908e+06 -9.813326777991e-05 -1.113955887955e-04 -2.713986307927e-03 0.000000000000e+00 8.007668562599e+06 4.231187442715e+06  2.673246416693e-03
6.000000000000e-02 -8.968091226371e+07 6.112976906321e-01 6.450103477421e+01 0.000000000000e+00 6.885657363261e-05 -9.574127135767e+06 3.033551469942e+04 -1.319766748330e+07 -7.037554920991e+06 -1.217101323787e-04 -1.724089861463e-04 -3.620765332807e-03 0.000000000000e+00 9.936449846685e+06 5.362683632844e+06  3.573967780930e-03
7.000000000000e-02 -9.292392938875e+07 6.047947063201e-01 6.575112486100e+01 0.000000000000e+00 7.434124438521e-05 -1.118064300424e+07 8.177529709005e+04 -1.571058155909e+07 -8.311124889367e+06 -1.423652969154e-04 -2.323787458472e-04 -4.455895263185e-03 0.000000000000e+00 1.173411648423e+07 6.463225190437e+06  4.404872900168e-03
8.000000000000e-02 -9.597684695761e+07 5.987103585852e-01 6.679366742605e+01 0.000000000000e+00 8.059180856053e-05 -1.265059063258e+07 1.389465753745e+05 -1.808268792692e+07 -9.498451271472e+06 -1.607439488197e-04 -2.899569437301e-04 -5.222492752090e-03 0.000000000000e+00 1.341057661032e+07 7.524912605089e+06  5.168463034860e-03
9.000000000000e-02 -9.886346754405e+07 5.929822425977e-01 6.768829038096e+01 0.000000000000e+00 8.631177681644e-05 -1.401255789723e+07 1.990049710283e+05 -2.032709865004e+07 -1.061227471185e+07 -1.775216902456e-04 -3.443645702008e-04 -5.928682515364e-03 0.000000000000e+00 1.498397708637e+07 8.545489239379e+06  5.872314828844e-03
1.000000000000e-01 -1.016032165072e+08 5.873455843141e-01 6.846872345115e+01 0.000000000000e+00 9.138050937566e-05 -1.528678429300e+07 2.601235680145e+05 -2.245540557265e+07 -1.166235729202e+07 -1.931707288788e-04 -3.952328919203e-04 -6.581344956006e-03 0.000000000000e+00 1.646818238589e+07 9.524218575515e+06  6.522938009429e-03
2.000000000000e-01 -1.181504402572e+08 5.520553179435e-01 7.270598302649e+01 0.000000000000e+00 1.817568601979e-04 -2.235104717080e+07 6.439192370548e+05 -3.572258550918e+07 -1.790501688489e+07 -2.329267294469e-04 -7.682043810815e-04 -1.062715925724e-02 0.000000000000e+00 2.532621652162e+07 1.610153356707e+07  1.059650098874e-02
3.000000000000e-01 -1.336338813975e+08 5.238622770480e-01 7.551347421724e+01 0.000000000000e+00 2.876613204389e-04 -2.922828307606e+07 9.475295347489e+05 -4.786095961897e+07 -2.373860812199e+07 -2.903056421165e-04 -1.063003205030e-03 -1.423312833075e-02 0.000000000000e+00 3.360928360567e+07 2.196119169482e+07  1.421000314665e-02
4.000000000000e-01 -1.468337436515e+08 5.053221643792e-01 7.753845443330e+01 0.000000000000e+00 3.899663895742e-04 -3.515561040920e+07 1.196630521103e+06 -5.814594433950e+07 -2.870867600696e+07 -3.408819619253e-04 -1.299207405402e-03 -1.723955815998e-02 0.000000000000e+00 4.067007691855e+07 2.688180362177e+07  1.721934177899e-02
5.000000000000e-01 -1.576243856302e+08 4.899377762349e-01 7.910019779374e+01 0.000000000000e+00 4.897467324618e-04 -4.002552416742e+07 1.399865199507e+06 -6.649976805401e+07 -3.275418541278e+07 -3.827655511179e-04 -1.472179599064e-03 -1.950276195694e-02 0.000000000000e+00 4.642649254474e+07 3.085676619404e+07  1.948181681218e-02
6.000000000000e-01 -1.663707386255e+08 4.767885865080e-01 8.034131145665e+01 0.000000000000e+00 5.873972854937e-04 -4.403658244392e+07 1.566260082809e+06 -7.331650711232e+07 -3.606790757655e+07 -4.194256566583e-04 -1.611340356847e-03 -2.137554929559e-02 0.000000000000e+00 5.114033237760e+07 3.408072005539e+07  2.135213865183e-02
7.000000000000e-01 -1.732967288043e+08 4.680998904366e-01 8.134433199461e+01 0.000000000000e+00 6.831405716246e-04 -4.728101333837e+07 1.702512062450e+06 -7.877957687573e+07 -3.873552439364e+07 -4.511227393988e-04 -1.726018367756e-03 -2.295495986433e-02 0.000000000000e+00 5.493203820258e+07 3.664766233572e+07  2.292848900254e-02
8.000000000000e-01 -1.786683261392e+08 4.623781740773e-01 8.216160041108e+01 0.000000000000e+00 7.769070618754e-04 -4.985193290983e+07 1.809235299583e+06 -8.304159361687e+07 -4.082734187779e+07 -4.777186599615e-04 -1.811235960916e-03 -2.416971579437e-02 0.000000000000e+00 5.790695613483e+07 3.863081584209e+07  2.413915449174e-02
9.000000000000e-01 -1.827329828006e+08 4.580426417477e-01 8.284030409014e+01 0.000000000000e+00 8.687107338111e-04 -5.187963874993e+07 1.888747480973e+06 -8.629152840987e+07 -4.244178745933e+07 -5.035006867883e-04 -1.870172723926e-03 -2.508622061512e-02 0.000000000000e+00 6.020431820638e+07 4.010894645003e+07  2.504862643809e-02
1.000000000000e+00 -1.857446764972e+08 4.548262746498e-01 8.340750005276e+01 0.000000000000e+00 9.584976543617e-04 -5.346790869548e+07 1.948044173228e+06 -8.874834038700e+07 -4.367875014676e+07 -5.266478860749e-04 -1.911832593075e-03 -2.579123203852e-02 0.000000000000e+00 6.196499974308e+07 4.119814138077e+07  2.574582338595e-02
2.000000000000e+00 -1.865346209102e+08 4.540266981427e-01 8.537368196158e+01 0.000000000000e+00 1.706615899954e-03 -5.650378478602e+07 1.988923268835e+06 -9.228357966649e+07 -4.573101610338e+07 -5.775622805674e-04 -2.056264802979e-03 -2.785215338697e-02 0.000000000000e+00 6.483946018530e+07 4.235045652464e+07  2.779702048908e-02
3.000000000000e+00 -1.779756229599e+08 4.632179859253e-01 8.594055503270e+01 0.000000000000e+00 2.343476893763e-03 -5.532754361839e+07 1.863251461351e+06 -8.858681127706e+07 -4.427976794930e+07 -5.988956798927e-04 -2.052310791057e-03 -2.799974992462e-02 0.000000000000e+00 6.273137428158e+07 4.007603122143e+07  2.793226953468e-02
4.000000000000e+00 -1.659453122592e+08 4.777255350771e-01 8.593358505496e+01 0.000000000000e+00 2.898729878784e-03 -5.243408927801e+07 1.671299895514e+06 -8.191695679799e+07 -4.138326846055e+07 -6.089262072236e-04 -1.964777295095e-03 -2.713222342221e-02 0.000000000000e+00 5.857810484552e+07 3.640809984208e+07  2.704788099860e-02
5.000000000000e+00 -1.534804877826e+08 4.962754146721e-01 8.574019148796e+01 0.000000000000e+00 3.391271842123e-03 -4.919224181455e+07 1.471281134803e+06 -7.468761857649e+07 -3.820909030955e+07 -6.180031978637e-04 -1.858033387475e-03 -2.608430611871e-02 0.000000000000e+00 5.402965023353e+07 3.251395767053e+07  2.598094750502e-02
6.000000000000e+00 -1.417531261417e+08 5.128625754617e-01 8.559242980945e+01 0.000000000000e+00 3.835780630640e-03 -4.604590538178e+07 1.284538709863e+06 -6.776346329355e+07 -3.515253551952e+07 -6.246245581746e-04 -1.745289345345e-03 -2.495580481388e-02 0.000000000000e+00 4.965396806495e+07 2.884172911835e+07  2.483409845129e-02
7.000000000000e+00 -1.313745199588e+08 5.275460241650e-01 8.532214681570e+01 0.000000000000e+00 4.239903000125e-03 -4.315998881498e+07 1.120316928073e+06 -6.155595609145e+07 -3.238437006996e+07 -6.232965337413e-04 -1.635041393630e-03 -2.375676530296e-02 0.000000000000e+00 4.570010499213e+07 2.562262342638e+07  2.362170543884e-02
8.000000000000e+00 -1.218730959906e+08 5.455279995570e-01 8.524103736831e+01 0.000000000000e+00 4.613225264887e-03 -4.048149277714e+07 9.679803325041e+05 -5.575645010463e+07 -2.979614526042e+07 -6.226858545440e-04 -1.515308663841e-03 -2.245586579546e-02 0.000000000000e+00 4.201136271407e+07 2.266120380804e+07  2.230603455020e-02
9.000000000000e+00 -1.135456723911e+08 5.638272292629e-01 8.515896216799e+01 0.000000000000e+00 4.959744603249e-03 -3.825583069624e+07 8.371684206548e+05 -5.078993509329e+07 -2.761090399429e+07 -6.307425264179e-04 -1.421671232551e-03 -2.153832043743e-02 0.000000000000e+00 3.888555659461e+07 2.014808708044e+07  2.137230441560e-02
1.000000000000e+01 -1.059793814307e+08 5.802612876493e-01 8.507174828328e+01 0.000000000000e+00 5.282093421879e-03 -3.623193510802e+07 7.168664718394e+05 -4.623112608744e+07 -2.560672688025e+07 -6.374175416885e-04 -1.325357577600e-03 -2.058871462009e-02 0.000000000000e+00 3.602326269191e+07 1.790709493490e+07  2.040704733899e-02
1.100000000000e+01 -9.909822239385e+07 5.940697235376e-01 8.503712413052e+01 0.000000000000e+00 5.586136932868e-03 -3.435295199128e+07 6.069611773715e+05 -4.203440662723e+07 -2.375201359531e+07 -6.413395843279e-04 -1.228112746986e-03 -1.960124654646e-02 0.000000000000e+00 3.337979073794e+07 1.593488227754e+07  1.940551236332e-02
1.200000000000e+01 -9.295714370289e+07 6.064074931299e-01 8.500709436574e+01 0.000000000000e+00 5.870402090850e-03 -3.265960026421e+07 5.121552469030e+05 -3.825637133654e+07 -2.207760900118e+07 -6.437485024830e-04 -1.133728431427e-03 -1.862277219474e-02 0.000000000000e+00 3.099786020064e+07 1.425883154772e+07  1.841438826320e-02
1.300000000000e+01 -8.732663386457e+07 6.177177505005e-01 8.495625991997e+01 0.000000000000e+00 6.138154250869e-03 -3.110743921193e+07 4.244603834820e+05 -3.476757280390e+07 -2.053155464581e+07 -6.452310282690e-04 -1.040619737982e-03 -1.764908849693e-02 0.000000000000e+00 2.880218888721e+07 1.282558234482e+07  1.742892930305e-02
1.400000000000e+01 -8.200086889634e+07 6.338216818148e-01 8.486705774908e+01 0.000000000000e+00 6.391032520148e-03 -2.962157657523e+07 3.407371717461e+05 -3.142448687467e+07 -1.904738156225e+07 -6.458690926353e-04 -9.455772355540e-04 -1.664807041887e-02 0.000000000000e+00 2.669781500405e+07 1.159640962877e+07  1.641661567882e-02
1.500000000000e+01 -7.695663969346e+07 6.518493195536e-01 8.476324701420e+01 0.000000000000e+00 6.631866785275e-03 -2.823794283133e+07 2.668314449865e+05 -2.832299851844e+07 -1.767800516359e+07 -6.492944139269e-04 -8.675514305339e-04 -1.586492150541e-02 0.000000000000e+00 2.474631550445e+07 1.061278935204e+07  1.562287582847e-02
1.600000000000e+01 -7.222795146696e+07 6.687652458732e-01 8.464730144316e+01 0.000000000000e+00 6.858022730127e-03 -2.691541505286e+07 1.990982425719e+05 -2.539969884185e+07 -1.638138663245e+07 -6.505668310490e-04 -7.924902560056e-04 -1.508272108822e-02 0.000000000000e+00 2.289883350905e+07 9.869927714064e+06  1.483184132137e-02
1.700000000000e+01 -6.776362494508e+07 6.847516233467e-01 8.451638002229e+01 0.000000000000e+00 7.071709832909e-03 -2.564796620375e+07 1.341216201705e+05 -2.260007412590e+07 -1.513597086880e+07 -6.503262015022e-04 -7.150490334726e-04 -1.425546527027e-02 0.000000000000e+00 2.112800373282e+07 9.370497882367e+06  1.399658519144e-02
1.800000000000e+01 -6.352441181018e+07 6.999404065213e-01 8.436963525027e+01 0.000000000000e+00 7.274039661281e-03 -2.443253307547e+07 7.041593274262e+04 -1.990134338030e+07 -1.393426303759e+07 -6.497621173407e-04 -6.344536246147e-04 -1.338578623936e-02 0.000000000000e+00 1.942271316445e+07 9.120886801176e+06  1.311912655062e-02
1.900000000000e+01 -5.947137322035e+07 7.144609247882e-01 8.420550107586e+01 0.000000000000e+00 7.465554526364e-03 -2.325929755335e+07 7.676825443910e+03 -1.728298236617e+07 -1.276737414690e+07 -6.486635276733e-04 -5.508401276990e-04 -1.247948537246e-02 0.000000000000e+00 1.776988468880e+07 9.115587506439e+06  1.220547447121e-02
2.000000000000e+01 -5.570661916702e+07 7.279403840183e-01 8.402769552271e+01 0.000000000000e+00 7.648661684074e-03 -2.216126855983e+07 -5.145347033925e+04 -1.481736801201e+07 -1.166810919497e+07 -6.471598270509e-04 -4.673952955372e-04 -1.157353579593e-02 0.000000000000e+00 1.621558192227e+07 9.326654935379e+06  1.129296215898e-02
2.100000000000e+01 -5.208363472869e+07 7.403246089115e-01 8.393963600303e+01 0.000000000000e+00 7.822164417642e-03 -2.108391941317e+07 -1.091309867497e+05 -1.240939474391e+07 -1.059089671816e+07 -6.448008416528e-04 -3.819571191666e-04 -1.063819789670e-02 0.000000000000e+00 1.469473695841e+07 9.714146797813e+06  1.035206150388e-02
2.200000000000e+01 -4.869859103963e+07 7.518073448756e-01 8.385004954402e+01 0.000000000000e+00 7.988286969968e-03 -2.007861042144e+07 -1.633452131295e+05 -1.014956309477e+07 -9.579828082883e+06 -6.421540721005e-04 -2.985922006072e-04 -9.721638898077e-03 0.000000000000e+00 1.326933386637e+07 1.022973849478e+07  9.431187974896e-03
2.300000000000e+01 -4.556372566460e+07 7.623569474486e-01 8.375183754585e+01 0.000000000000e+00 8.147760148843e-03 -1.914554080678e+07 -2.143513749578e+05 -8.035772354565e+06 -8.634567124547e+06 -6.394790033345e-04 -2.172350896346e-04 -8.830205480761e-03 0.000000000000e+00 1.193862676197e+07 1.082916795185e+07  8.536761943536e-03
2.400000000000e+01 -4.249966813182e+07 7.735265781505e-01 8.363904537339e+01 0.000000000000e+00 8.299593931083e-03 -1.821155242469e+07 -2.644384766318e+05 -5.938565124610e+06 -7.692664555066e+06 -6.359359472821e-04 -1.339460697365e-04 -7.911254701268e-03 0.000000000000e+00 1.061426070145e+07 1.150586047067e+07  7.616766956756e-03
2.500000000000e+01 -3.946992246748e+07 7.878662754900e-01 8.350995262075e+01 0.000000000000e+00 8.445159183719e-03 -1.727045993180e+07 -3.130523517066e+05 -3.848487396898e+06 -6.751099309645e+06 -6.319062073031e-04 -5.027248223847e-05 -6.983943083751e-03 0.000000000000e+00 9.290015546114e+06 1.224376292632e+07  6.690975372338e-03
2.600000000000e+01 -3.648795378572e+07 8.025711787031e-01 8.336809681710e+01 0.000000000000e+00 8.583790235707e-03 -1.633643689184e+07 -3.599214115856e+05 -1.786079946158e+06 -5.822360232712e+06 -6.276804234381e-04 3.220425766566e-05 -6.068562924025e-03 0.000000000000e+00 7.981625690237e+06 1.302550410402e+07  5.780608261562e-03
2.700000000000e+01 -3.356096605393e+07 8.175875760967e-01 8.321341883346e+01 0.000000000000e+00 8.716181170224e-03 -1.540255268729e+07 -4.061501499899e+05 2.632592056170e+05 -4.896853232467e+06 -6.226147763158e-04 1.165052789461e-04 -5.125087713337e-03 0.000000000000e+00 6.678715571380e+06 1.384564717409e+07  4.848086048010e-03
2.800000000000e+01 -3.067654675071e+07 8.329529107597e-01 8.304585324656e+01 0.000000000000e+00 8.842514141428e-03 -1.446504405519e+07 -4.519209734652e+05 2.305753917271e+06 -3.971523934620e+06 -6.166003598390e-04 2.027818720520e-04 -4.150382084379e-03 0.000000000000e+00 5.376938024179e+06 1.469699360041e+07  3.894881490660e-03
2.900000000000e+01 -2.782237962269e+07 8.487208743021e-01 8.286538415682e+01 0.000000000000e+00 8.963018576390e-03 -1.351886584643e+07 -4.973972871776e+05 4.352707530618e+06 -3.041257198309e+06 -6.096392972321e-04 2.916597404350e-04 -3.137354870743e-03 0.000000000000e+00 4.069138504708e+06 1.557768526988e+07  2.925268714445e-03
3.000000000000e+01 -2.498527270894e+07 8.648790606948e-01 8.267204394571e+01 0.000000000000e+00 9.077751963269e-03 -1.255708747937e+07 -5.427511464949e+05 6.413034063741e+06 -2.101126413793e+06 -6.015701781393e-04 3.834645926315e-04 -2.080187287135e-03 0.000000000000e+00 2.748393276476e+06 1.648409892358e+07  1.969472638374e-03
3.100000000000e+01 -2.214934943915e+07 8.814778676295e-01 8.255052594415e+01 0.000000000000e+00 9.188668560884e-03 -1.157406888836e+07 -5.881211215104e+05 8.497740548458e+06 -1.145988813647e+06 -5.923084520524e-04 4.787771080028e-04 -9.707965997579e-04 0.000000000000e+00 1.407439051181e+06 1.741693461610e+07  1.185726303435e-03
3.200000000000e+01 -1.935151182058e+07 8.982243904119e-01 8.242766297742e+01 0.000000000000e+00 9.295545360956e-03 -1.058989143957e+07 -6.330375325453e+05 1.057169642555e+07 -1.928474461790e+05 -5.820587083164e-04 5.760337701709e-04 1.726716351411e-04 0.000000000000e+00 7.034748673163e+04 1.836016269870e+07  1.210189066036e-03
3.300000000000e+01 -1.652325329260e+07 9.153678531470e-01 8.229794208306e+01 0.000000000000e+00 9.398472264381e-03 -9.569026353274e+06 -6.780715812227e+05 1.269340000334e+07 7.876788721895e+05 -5.703975551842e-04 6.777888688603e-04 1.383795148480e-03 0.000000000000e+00 -1.304017507418e+06 1.933108704237e+07  2.099463980577e-03
3.400000000000e+01 -1.363663608733e+07 9.328905707185e-01 8.215991165291e+01 0.000000000000e+00 9.497280193830e-03 -8.493828617575e+06 -7.232558152664e+05 1.488931442824e+07 1.809594177258e+06 -5.570527701373e-04 7.852786098759e-04 2.680605549214e-03 0.000000000000e+00 -2.735026662642e+06 2.033653824622e+07  3.292291015602e-03
3.500000000000e+01 -1.065694982479e+07 9.506820818212e-01 8.201296658974e+01 0.000000000000e+00 9.592581865947e-03 -7.351603084557e+06 -7.687832432079e+05 1.718483596860e+07 2.885191217052e+06 -5.419990496459e-04 8.999416713359e-04 4.081191069412e-03 0.000000000000e+00 -4.239474700364e+06 2.138755251371e+07  4.646673028236e-03
3.600000000000e+01 -7.548471276706e+06 9.684051340386e-01 8.185688129035e+01 0.000000000000e+00 9.683879936290e-03 -6.126983524200e+06 -8.145059761162e+05 1.960211054604e+07 4.026722003880e+06 -5.247084664071e-04 1.022464971980e-03 5.601394780858e-03 0.000000000000e+00 -5.833949675239e+06 2.249063433716e+07  6.142177593307e-03
3.700000000000e+01 -4.219398421637e+06 9.854151069978e-01 8.169151075588e+01 0.000000000000e+00 9.767668446685e-03 -4.800606597890e+06 -8.623244242147e+05 2.220037587606e+07 5.259895882833e+06 -5.052033638417e-04 1.156511859082e-03 7.282555109482e-03 0.000000000000e+00 -7.553221720334e+06 2.368235891544e+07  7.809133738178e-03
3.800000000000e+01 2.090572734685e+06 1.000000000000e+00 8.151767899883e+01 0.000000000000e+00 9.757503414759e-03 -2.858607926270e+06 -9.704236404763e+05 2.658843888229e+07 7.266790812313e+06 -4.717512177418e-04 1.392418251605e-03 1.024910274391e-02 0.000000000000e+00 -1.033220725611e+07 2.596756324487e+07  1.076653002267e-02
3.900000000000e+01 2.140131956349e+06 1.000000000000e+00 8.133875720498e+01 0.000000000000e+00 9.948299350785e-03 -2.913946731910e+06 -9.708057852180e+05 2.651460679165e+07 7.226372772769e+06 -4.714142011718e-04 1.387323445378e-03 1.019961295632e-02 0.000000000000e+00 -1.027567761084e+07 2.594760679667e+07  1.071618295981e-02
4.000000000000e+01 2.169517864080e+06 1.000000000000e+00 8.114888553295e+01 0.000000000000e+00 1.002323724455e-02 -2.922521488640e+06 -9.712676990834e+05 2.651846622234e+07 7.225296636692e+06 -4.716429310155e-04 1.387681949309e-03 1.020175243037e-02 0.000000000000e+00 -1.027374712346e+07 2.595800963501e+07  1.071852451133e-02
4.200000000000e+01 2.226800933249e+06 1.000000000000e+00 8.087411831808e+01 0.000000000000e+00 1.016353996725e-02 -2.939716281157e+06 -9.721691371164e+05 2.652523615293e+07 7.222702526001e+06 -4.720717527192e-04 1.388376022226e-03 1.020606797106e-02 0.000000000000e+00 -1.026940746592e+07 2.597803552389e+07  1.072321945604e-02
4.400000000000e+01 2.282566755688e+06 1.000000000000e+00 8.057884030626e+01 0.000000000000e+00 1.029433453389e-02 -2.956087742656e+06 -9.730460246538e+05 2.653182485717e+07 7.220318388395e+06 -4.724742603313e-04 1.389018553610e-03 1.021006375432e-02 0.000000000000e+00 -1.026535183430e+07 2.599722508970e+07  1.072756933052e-02
5.000000000000e+01 2.434088948783e+06 1.000000000000e+00 7.938388861324e+01 0.000000000000e+00 1.056795773252e-02 -2.996367424889e+06 -9.754131761876e+05 2.654876588066e+07 7.215233876768e+06 -4.733800025645e-04 1.390261691747e-03 1.021741161219e-02 0.000000000000e+00 -1.025587744418e+07 2.604501629984e+07  1.073567835442e-02
6.500000000000e+01 2.765473785960e+06 1.000000000000e+00 7.672160526678e+01 0.000000000000e+00 1.103206359342e-02 -3.077518666535e+06 -9.806027680774e+05 2.658411893466e+07 7.205707628740e+06 -4.749372582703e-04 1.392404243384e-03 1.023168026176e-02 0.000000000000e+00 -1.023743596562e+07 2.614239663553e+07  1.075121487461e-02
8.000000000000e+01 3.020527303102e+06 1.000000000000e+00 7.427524819115e+01 0.000000000000e+00 1.125222535318e-02 -3.134122824268e+06 -9.845803566431e+05 2.660871491572e+07 7.199734205893e+06 -4.758029295690e-04 1.393293730881e-03 1.023790605205e-02 0.000000000000e+00 -1.022477543245e+07 2.621020718169e+07  1.075807309476e-02
1.000000000000e+02 3.321207026676e+06 1.000000000000e+00 7.180475266375e+01 0.000000000000e+00 1.143643341806e-02 -3.202524546422e+06 -9.892697244795e+05 2.663157601269e+07 7.189729797924e+06 -4.766303867101e-04 1.394019033980e-03 1.024387929901e-02 0.000000000000e+00 -1.020626042140e+07 2.628621138824e+07  1.076460175628e-02
1.860000000000e+02 3.919688121244e+06 1.000000000000e+00 6.658180883606e+01 0.000000000000e+00 1.165531360863e-02 -3.328712668376e+06 -9.986205645750e+05 2.667857216170e+07 7.173645145617e+06 -4.778472371372e-04 1.394918013720e-03 1.025430909921e-02 0.000000000000e+00 -1.017450154631e+07 2.643068575180e+07  1.077574012080e-02
2.720000000000e+02 4.210009356002e+06 1.000000000000e+00 6.332445349263e+01 0.000000000000e+00 1.148694979387e-02 -3.381694001826e+06 -1.003102690553e+06 2.669197340494e+07 7.166076714056e+06 -4.778047335564e-04 1.393652653635e-03 1.024759800169e-02 0.000000000000e+00 -1.015878537239e+07 2.648564582937e+07  1.076869147842e-02
3.580000000000e+02 4.351374974385e+06 1.000000000000e+00 6.119532452327e+01 0.000000000000e+00 1.131091720664e-02 -3.400188235486e+06 -1.005276661974e+06 2.669957173690e+07 7.165549012961e+06 -4.775246923832e-04 1.392492181544e-03 1.024107514850e-02 0.000000000000e+00 -1.015497750479e+07 2.650728093166e+07  1.076174334000e-02
4.440000000000e+02 4.423503819664e+06 1.000000000000e+00 5.963761477377e+01 0.000000000000e+00 1.114627561530e-02 -3.403959982078e+06 -1.006374792615e+06 2.670404484887e+07 7.167708161904e+06 -4.771818740522e-04 1.391432646985e-03 1.023471761290e-02 0.000000000000e+00 -1.015593100957e+07 2.651412184792e+07  1.075496272987e-02
5.300000000000e+02 4.462468307096e+06 1.000000000000e+00 5.847322533476e+01 0.000000000000e+00 1.100357285798e-02 -3.402113387072e+06 -1.006960175029e+06 2.670674599820e+07 7.170498979814e+06 -4.768549753115e-04 1.390527349789e-03 1.022912179312e-02 0.000000000000e+00 -1.015837719698e+07 2.651482892714e+07  1.074899204008e-02
6.160000000000e+02 4.484983766297e+06 1.000000000000e+00 5.760610204719e+01 0.000000000000e+00 1.088530994917e-02 -3.398723124780e+06 -1.007293747468e+06 2.670825298994e+07 7.173011606222e+06 -4.765734061101e-04 1.389781937968e-03 1.022443108512e-02 0.000000000000e+00 -1.016084715713e+07 2.651325221542e+07  1.074398839718e-02
7.020000000000e+02 4.498794050609e+06 1.000000000000e+00 5.697669359629e+01 0.000000000000e+00 1.079461176466e-02 -3.395461549475e+06 -1.007493570745e+06 2.670911026923e+07 7.174996374721e+06 -4.763532620167e-04 1.389210118770e-03 1.022079735326e-02 0.000000000000e+00 -1.016288169816e+07 2.651123997976e+07  1.074011337875e-02
7.880000000000e+02 4.508412604012e+06 1.000000000000e+00 5.650296308085e+01 0.000000000000e+00 1.071289630386e-02 -3.392874230725e+06 -1.007630169288e+06 2.670882332937e+07 7.176225883819e+06 -4.761591544059e-04 1.388691813785e-03 1.021740065513e-02 0.000000000000e+00 -1.016405832749e+07 2.650879427236e+07  1.073650349998e-02
8.740000000000e+02 4.516798674396e+06 1.000000000000e+00 5.570721299604e+01 0.000000000000e+00 1.059732983776e-02 -3.385929033599e+06 -1.007744288974e+06 2.671029985208e+07 7.179700892662e+06 -4.758642843976e-04 1.387976140264e-03 1.021283463459e-02 0.000000000000e+00 -1.016802390371e+07 2.650427433361e+07  1.073162590820e-02
9.370000000000e+02 4.522172520628e+06 1.000000000000e+00 5.519188171239e+01 0.000000000000e+00 1.050240771184e-02 -3.381256740077e+06 -1.007814170850e+06 2.671014520390e+07 7.181642517744e+06 -4.756275567190e-04 1.387395810297e-03 1.020910209775e-02 0.000000000000e+00 -1.017017699386e+07 2.650022514306e+07  1.072764274691e-02
1.000000000000e+03 4.526362541987e+06 1.000000000000e+00 5.480037704128e+01 0.000000000000e+00 1.042287123680e-02 -3.377466239557e+06 -1.007868787993e+06 2.670991741631e+07 7.183154490601e+06 -4.754290827175e-04 1.386928798838e-03 1.020618223445e-02 0.000000000000e+00 -1.017186855578e+07 2.649685483959e+07  1.072451485860e-02
1.100000000000e+03 4.530507848734e+06 1.000000000000e+00 5.441729925187e+01 0.000000000000e+00 1.033966619183e-02 -3.373615884430e+06 -1.007923901651e+06 2.670954528845e+07 7.184627846967e+06 -4.752211285851e-04 1.386447663052e-03 1.020321105007e-02 0.000000000000e+00 -1.017351908366e+07 2.649331011303e+07  1.072132658261e-02
1.200000000000e+03 4.533769219407e+06 1.000000000000e+00 5.407980824842e+01 0.000000000000e+00 1.027054289990e-02 -3.370224995352e+06 -1.007965559696e+06 2.670932822397e+07 7.185961141729e+06 -4.750477601344e-04 1.386041409019e-03 1.020066938290e-02 0.000000000000e+00 -1.017502145678e+07 2.649028517476e+07  1.071860362820e-02
1.300000000000e+03 4.536674591374e+06 1.000000000000e+00 5.375342288870e+01 0.000000000000e+00 1.020474794889e-02 -3.366911442689e+06 -1.008002510751e+06 2.670915587962e+07 7.187272749560e+06 -4.748826821089e-04 1.385653441950e-03 1.019823161068e-02 0.000000000000e+00 -1.017650572883e+07 2.648736458063e+07  1.071599325823e-02
1.400000000000e+03 4.539414104015e+06 1.000000000000e+00 5.342073486203e+01 0.000000000000e+00 1.013675688313e-02 -3.363451174714e+06 -1.008036125549e+06 2.670895781114e+07 7.188627017457e+06 -4.747121627012e-04 1.385254221316e-03 1.019572441093e-02 0.000000000000e+00 -1.017804455130e+07 2.648429979879e+07  1.071330808199e-02
1.500000000000e+03 4.542053989886e+06 1.000000000000e+00 5.307167410396e+01 0.000000000000e+00 1.006336442676e-02 -3.359707419826e+06 -1.008068683912e+06 2.670867786310e+07 7.190058265100e+06 -4.745279255057e-04 1.384825323386e-03 1.019303618676e-02 0.000000000000e+00 -1.017967623613e+07 2.648092781012e+07  1.071042797007e-02
1.600000000000e+03 4.544615032333e+06 1.000000000000e+00 5.270009877828e+01 0.000000000000e+00 9.982588310778e-03 -3.355588137213e+06 -1.008098197324e+06 2.670829581144e+07 7.191594560002e+06 -4.743251065470e-04 1.384356620998e-03 1.019010781611e-02 0.000000000000e+00 -1.018143407808e+07 2.647715411933e+07  1.070728888881e-02
1.700000000000e+03 4.547102318795e+06 1.000000000000e+00 5.230221775521e+01 0.000000000000e+00 9.893212965340e-03 -3.351035370940e+06 -1.008126108673e+06 2.670779110194e+07 7.193250901806e+06 -4.741005582389e-04 1.383841090826e-03 1.018689634431e-02 0.000000000000e+00 -1.018333554427e+07 2.647291267179e+07  1.070384464604e-02
1.800000000000e+03 4.549515724596e+06 1.000000000000e+00 5.187574288738e+01 0.000000000000e+00 9.794494459860e-03 -3.346013389474e+06 -1.008151958647e+06 2.670716052852e+07 7.195039583882e+06 -4.738525278499e-04 1.383275274803e-03 1.018338251687e-02 0.000000000000e+00 -1.018539557431e+07 2.646817094475e+07  1.070007423845e-02
1.900000000000e+03 4.551855014388e+06 1.000000000000e+00 5.141938747193e+01 0.000000000000e+00 9.685997902909e-03 -3.340499274084e+06 -1.008175723347e+06 2.670640995860e+07 7.196970857269e+06 -4.735801837544e-04 1.382657854284e-03 1.017956051417e-02 0.000000000000e+00 -1.018762718060e+07 2.646291513600e+07  1.069597105536e-02
2.000000000000e+03 4.554119356722e+06 1.000000000000e+00 5.093254934562e+01 0.000000000000e+00 9.567564032472e-03 -3.334487119138e+06 -1.008199101383e+06 2.670551134876e+07 7.199038116994e+06 -4.732825951376e-04 1.381985887504e-03 1.017540863016e-02 0.000000000000e+00 -1.019002078221e+07 2.645711579483e+07  1.069151233402e-02