 TITLE = "Time curves in points"
 VARIABLES = "TIME"  "PRESSURE1"  "SATURATION1"  "TEMPERATURE1"  "DISPLACEMENT_X1"  "DISPLACEMENT_Y1"  "STRESS_XX"  "STRESS_XY"  "STRESS_YY"  "STRESS_ZZ"  "STRAIN_XX"  "STRAIN_XY"  "STRAIN_YY"  "STRAIN_PLS"  p_(1st_Invariant)  q_(2nd_Invariant)   Effective_Strain
 ZONE T="POINT=POINT15"
0.000000000000e+00 1.000000000000e+05 1.000000000000e+00 2.500000000000e+01 0.000000000000e+00 0.000000000000e+00 -3.444049899891e+07 -5.858766693045e+04 -1.446208944789e+07 -1.168309508854e+07 0.000000000000e+00 0.000000000000e+00 0.000000000000e+00 0.000000000000e+00 2.019522784511e+07 2.150325191297e+07  0.000000000000e+00
1.000000000000e-03 1.960039119575e+05 1.000000000000e+00 2.500000003922e+01 0.000000000000e+00 6.243937377105e-05 -3.448773376255e+07 -5.848524701571e+04 -1.449381018034e+07 -1.170678174595e+07 -8.746439455308e-07 7.608336523925e-09 -2.984085011570e-07 0.000000000000e+00 2.022944189628e+07 2.152343845245e+07  7.702091511651e-07
2.000000000000e-03 2.110301634482e+05 1.000000000000e+00 2.499999991814e+01 0.000000000000e+00 6.232522261218e-05 -3.448091904728e+07 -5.857419182508e+04 -1.449155637493e+07 -1.170406115981e+07 -7.225762921223e-07 1.001007827509e-09 -3.157460710825e-07 0.000000000000e+00 2.022551219401e+07 2.151918435330e+07  6.274268563716e-07
3.000000000000e-03 2.214048532335e+05 1.000000000000e+00 2.499999996345e+01 0.000000000000e+00 6.227529622756e-05 -3.447540634799e+07 -5.868038577988e+04 -1.449132273251e+07 -1.170233724591e+07 -5.818499776395e-07 -6.887685957535e-09 -3.710990118840e-07 0.000000000000e+00 2.022302210881e+07 2.151482482672e+07  5.103746094656e-07
4.000000000000e-03 2.285516429807e+05 1.000000000000e+00 2.500000020706e+01 0.000000000000e+00 6.216156538317e-05 -3.447070180300e+07 -5.880921691280e+04 -1.449309517315e+07 -1.170145754626e+07 -4.397842937683e-07 -1.645799868836e-08 -4.696070800073e-07 0.000000000000e+00 2.022175150747e+07 2.150996562601e+07  4.563198590585e-07
1.000000000000e-02 2.383748876322e+05 1.000000000000e+00 2.500562013607e+01 0.000000000000e+00 6.382914597267e-05 -3.443581870849e+07 -6.064918571689e+04 -1.454076512255e+07 -1.170706586336e+07 1.064182422983e-06 -1.531413955639e-07 -2.031896279601e-06 0.000000000000e+00 2.022788323147e+07 2.145298679108e+07  2.737471805814e-06
2.000000000000e-02 2.339019572337e+05 1.000000000000e+00 2.506208476331e+01 0.000000000000e+00 7.446381708753e-05 -3.436712761875e+07 -6.506128083820e+04 -1.466060773914e+07 -1.174086393898e+07 4.870922850723e-06 -4.808970331470e-07 -5.227836372552e-06 0.000000000000e+00 2.025619976562e+07 2.131718831779e+07  8.787168831440e-06
3.000000000000e-02 2.226011893648e+05 1.000000000000e+00 2.517761121051e+01 0.000000000000e+00 8.990636255451e-05 -3.430911108527e+07 -6.957753660324e+04 -1.479620685843e+07 -1.180241549632e+07 9.312023367093e-06 -8.163903185496e-07 -7.978174387762e-06 0.000000000000e+00 2.030257781334e+07 2.116951358228e+07  1.505514767556e-05
4.000000000000e-02 2.085792893110e+05 1.000000000000e+00 2.534734615133e+01 0.000000000000e+00 1.089108693074e-04 -3.426996558164e+07 -7.366443672663e+04 -1.493387270063e+07 -1.188872155354e+07 1.397165277006e-05 -1.119988613430e-06 -9.885823544539e-06 0.000000000000e+00 2.036418661194e+07 2.102510495042e+07  2.085236211257e-05
5.000000000000e-02 1.938518400507e+05 1.000000000000e+00 2.555910063164e+01 0.000000000000e+00 1.290152254457e-04 -3.425176440760e+07 -7.715263635597e+04 -1.506936487197e+07 -1.199518147225e+07 1.860192192959e-05 -1.379112014467e-06 -1.096416435642e-05 0.000000000000e+00 2.043877025061e+07 2.089026393626e+07  2.599816875736e-05
6.000000000000e-02 1.789834898879e+05 1.000000000000e+00 2.579984334791e+01 0.000000000000e+00 1.514281881966e-04 -3.424978313974e+07 -8.009876376092e+04 -1.519596187277e+07 -1.211401387732e+07 2.308928692396e-05 -1.597967193121e-06 -1.125256362610e-05 0.000000000000e+00 2.051991962995e+07 2.076749002686e+07  3.045011537680e-05
7.000000000000e-02 1.648571695325e+05 1.000000000000e+00 2.605851251381e+01 0.000000000000e+00 1.731054498130e-04 -3.426298700437e+07 -8.253992520719e+04 -1.531699217410e+07 -1.224215541493e+07 2.735840049192e-05 -1.779310614843e-06 -1.098843199304e-05 0.000000000000e+00 2.060737819780e+07 2.065627316495e+07  3.434168716266e-05
8.000000000000e-02 1.520598724209e+05 1.000000000000e+00 2.632667934489e+01 0.000000000000e+00 1.949496717911e-04 -3.428663777369e+07 -8.459305129632e+04 -1.543046175768e+07 -1.237469194078e+07 3.140272859148e-05 -1.931828552893e-06 -1.028023128009e-05 0.000000000000e+00 2.069726382405e+07 2.055564897067e+07  3.776026636005e-05
9.000000000000e-02 1.415311319150e+05 1.000000000000e+00 2.659830396968e+01 0.000000000000e+00 2.152413659772e-04 -3.431937633472e+07 -8.631321615310e+04 -1.553937452054e+07 -1.251001957237e+07 3.521317978383e-05 -2.059612227968e-06 -9.299107584343e-06 0.000000000000e+00 2.078959014254e+07 2.046409296496e+07  4.082424019059e-05
1.000000000000e-01 1.342880976520e+05 1.000000000000e+00 2.686923310750e+01 0.000000000000e+00 2.339571138650e-04 -3.435904042416e+07 -8.775731678764e+04 -1.564381149267e+07 -1.264605566455e+07 3.879271131412e-05 -2.166888275105e-06 -8.125425982843e-06 0.000000000000e+00 2.088296919379e+07 2.038070471320e+07  4.359117476451e-05
2.000000000000e-01 1.519776802304e+05 1.000000000000e+00 2.902104310329e+01 0.000000000000e+00 4.279766147614e-04 -3.477317096811e+07 -9.476747201811e+04 -1.626052826783e+07 -1.369842857074e+07 6.249885619715e-05 -2.687642663654e-06 8.056087455737e-06 0.000000000000e+00 2.157737593556e+07 1.991834514919e+07  5.906929480620e-05
3.000000000000e-01 1.790572852396e+05 1.000000000000e+00 3.070768399391e+01 0.000000000000e+00 6.181732476586e-04 -3.511891393111e+07 -9.967433190765e+04 -1.666680133062e+07 -1.450895019484e+07 7.976206360924e-05 -3.052152255449e-06 2.307103401848e-05 0.000000000000e+00 2.209822181885e+07 1.962099635583e+07  7.128823899596e-05
4.000000000000e-01 2.066914115448e+05 1.000000000000e+00 3.205934977555e+01 0.000000000000e+00 7.894336178598e-04 -3.541469390621e+07 -1.035200008523e+05 -1.697197573182e+07 -1.515912973272e+07 9.292547594138e-05 -3.337830519909e-06 3.588551052393e-05 0.000000000000e+00 2.251526645692e+07 1.941355766734e+07  8.137357763671e-05
5.000000000000e-01 2.329672035767e+05 1.000000000000e+00 3.317184845531e+01 0.000000000000e+00 9.482359002145e-04 -3.566636389193e+07 -1.069434711895e+05 -1.721271848880e+07 -1.569419834818e+07 1.034517107601e-04 -3.592145459245e-06 4.681761383855e-05 0.000000000000e+00 2.285776024297e+07 1.925875060881e+07  8.994161276309e-05
6.000000000000e-01 2.574499089701e+05 1.000000000000e+00 3.410964206560e+01 0.000000000000e+00 1.097826433804e-03 -3.588404745523e+07 -1.101647793020e+05 -1.740941335902e+07 -1.614536868130e+07 1.121240764963e-04 -3.831442633316e-06 5.626955960361e-05 0.000000000000e+00 2.314627649852e+07 1.913894160277e+07  9.732902609543e-05
7.000000000000e-01 2.802222965386e+05 1.000000000000e+00 3.491618489167e+01 0.000000000000e+00 1.239941448383e-03 -3.607679025842e+07 -1.132011065824e+05 -1.757304049462e+07 -1.653360057779e+07 1.193850999619e-04 -4.056998374145e-06 6.461202215096e-05 0.000000000000e+00 2.339447711028e+07 1.904576515263e+07  1.037457492311e-04
8.000000000000e-01 3.015584664199e+05 1.000000000000e+00 3.562141889441e+01 0.000000000000e+00 1.375715439277e-03 -3.625173938310e+07 -1.160293993543e+05 -1.771016850576e+07 -1.687334719164e+07 1.255061495597e-04 -4.267100122914e-06 7.213785596606e-05 0.000000000000e+00 2.361175169350e+07 1.897489105853e+07  1.093459817792e-04
9.000000000000e-01 3.214760045040e+05 1.000000000000e+00 3.624655662569e+01 0.000000000000e+00 1.506106038699e-03 -3.641149846388e+07 -1.187506761638e+05 -1.782848297358e+07 -1.717503707904e+07 1.307778652340e-04 -4.469252114480e-06 7.894894297885e-05 0.000000000000e+00 2.380500617217e+07 1.891932230814e+07  1.143281857233e-04
1.000000000000e+00 3.401226122245e+05 1.000000000000e+00 3.680707518524e+01 0.000000000000e+00 1.631737735405e-03 -3.655949727870e+07 -1.213946867984e+05 -1.793218726041e+07 -1.744632588442e+07 1.353572077405e-04 -4.665664333048e-06 8.517351081090e-05 0.000000000000e+00 2.397933680784e+07 1.887610235935e+07  1.187962848971e-04
2.000000000000e+00 4.671720763694e+05 1.000000000000e+00 4.007010834523e+01 0.000000000000e+00 2.628455375676e-03 -3.760851953599e+07 -1.433061620235e+05 -1.847416438404e+07 -1.906493360052e+07 1.565132390677e-04 -6.293373921199e-06 1.251626471024e-04 0.000000000000e+00 2.504920584018e+07 1.884755096333e+07  1.438446752257e-04
3.000000000000e+00 5.669204485162e+05 1.000000000000e+00 4.231089734745e+01 0.000000000000e+00 3.462295009552e-03 -3.843463674793e+07 -1.623358143184e+05 -1.881882364236e+07 -2.020075549634e+07 1.680165558975e-04 -7.707005234530e-06 1.545486879238e-04 0.000000000000e+00 2.581807196221e+07 1.896473572764e+07  1.622538613415e-04
4.000000000000e+00 6.510622430743e+05 1.000000000000e+00 4.402956206316e+01 0.000000000000e+00 4.181339419540e-03 -3.912366791637e+07 -1.789287319484e+05 -1.906818014911e+07 -2.108448621325e+07 1.752482534122e-04 -8.939621972759e-06 1.781111585870e-04 0.000000000000e+00 2.642544475958e+07 1.912971836165e+07  1.773742264386e-04
5.000000000000e+00 7.254035437310e+05 1.000000000000e+00 4.544864994937e+01 0.000000000000e+00 4.815037250353e-03 -3.971877686939e+07 -1.934847010432e+05 -1.926576323693e+07 -2.181974375732e+07 1.804537725083e-04 -1.002092253409e-05 1.980819241047e-04 0.000000000000e+00 2.693476128788e+07 1.930606883175e+07  1.906741693686e-04
6.000000000000e+00 7.929929650988e+05 1.000000000000e+00 4.668777858518e+01 0.000000000000e+00 5.384761641231e-03 -4.024442094798e+07 -2.065808510389e+05 -1.943872161670e+07 -2.246372537259e+07 1.848491667280e-04 -1.099377939091e-05 2.155770728519e-04 0.000000000000e+00 2.738228931242e+07 1.947353282560e+07  2.028695049853e-04
7.000000000000e+00 8.558563136304e+05 1.000000000000e+00 4.776451332755e+01 0.000000000000e+00 5.898911307396e-03 -4.071204907493e+07 -2.182027620960e+05 -1.958232621551e+07 -2.302473720764e+07 1.883177044573e-04 -1.185712135515e-05 2.310807701982e-04 0.000000000000e+00 2.777303749936e+07 1.963978178746e+07  2.139323583752e-04
8.000000000000e+00 9.146399701799e+05 1.000000000000e+00 4.876058458216e+01 0.000000000000e+00 6.372286296917e-03 -4.114094377775e+07 -2.288137269211e+05 -1.971701954475e+07 -2.354305281039e+07 1.916390521689e-04 -1.264536445645e-05 2.453295975001e-04 0.000000000000e+00 2.813367204430e+07 1.979422846337e+07  2.244484838856e-04
9.000000000000e+00 9.703372484239e+05 1.000000000000e+00 4.967363714009e+01 0.000000000000e+00 6.810202761263e-03 -4.153428075373e+07 -2.385321430841e+05 -1.983933140589e+07 -2.401790697586e+07 1.946668334928e-04 -1.336730394284e-05 2.584240259464e-04 0.000000000000e+00 2.846383971183e+07 1.994111402135e+07  2.343237522384e-04
1.000000000000e+01 1.023443027822e+06 1.000000000000e+00 5.051032884249e+01 0.000000000000e+00 7.217054185018e-03 -4.189547325677e+07 -2.474993524595e+05 -1.995000630678e+07 -2.445289563032e+07 1.974078334029e-04 -1.403343949644e-05 2.704699653650e-04 0.000000000000e+00 2.876612506462e+07 2.008096837487e+07  2.435606233824e-04
1.100000000000e+01 1.074252378356e+06 1.000000000000e+00 5.129075261320e+01 0.000000000000e+00 7.597766343268e-03 -4.223233571921e+07 -2.558063569101e+05 -2.005198287569e+07 -2.485823056804e+07 1.999510967703e-04 -1.465053125563e-05 2.817375619208e-04 0.000000000000e+00 2.904751638765e+07 2.021534343390e+07  2.523225605995e-04
1.200000000000e+01 1.123145537297e+06 1.000000000000e+00 5.201381134970e+01 0.000000000000e+00 7.954643788495e-03 -4.254625028457e+07 -2.634790723502e+05 -2.014329333455e+07 -2.523340191162e+07 2.022263485329e-04 -1.522050440261e-05 2.922809662102e-04 0.000000000000e+00 2.930764851025e+07 2.034641161906e+07  2.605988065402e-04
1.300000000000e+01 1.170375194811e+06 1.000000000000e+00 5.268259098611e+01 0.000000000000e+00 8.289890953566e-03 -4.283805715520e+07 -2.706452656891e+05 -2.022568878250e+07 -2.558027354058e+07 2.042716109852e-04 -1.575285019350e-05 3.021043672189e-04 0.000000000000e+00 2.954800649276e+07 2.047268142918e+07  2.683785588258e-04
1.400000000000e+01 1.216652637515e+06 1.000000000000e+00 5.330105528490e+01 0.000000000000e+00 8.605483057922e-03 -4.310948739229e+07 -2.773428288658e+05 -2.029899521323e+07 -2.590070029854e+07 2.060914817601e-04 -1.625038345806e-05 3.112831222302e-04 0.000000000000e+00 2.976972763469e+07 2.059492074299e+07  2.756996663396e-04
1.500000000000e+01 1.261522918597e+06 1.000000000000e+00 5.387297891050e+01 0.000000000000e+00 8.902606920666e-03 -4.336265558298e+07 -2.835818983468e+05 -2.036375298623e+07 -2.619679943626e+07 2.076860597930e-04 -1.671385719093e-05 3.198758014917e-04 0.000000000000e+00 2.997440266849e+07 2.071380072501e+07  2.825921832676e-04
1.600000000000e+01 1.305126560981e+06 1.000000000000e+00 5.440179052023e+01 0.000000000000e+00 9.182714209608e-03 -4.359813610768e+07 -2.894445358687e+05 -2.042156083790e+07 -2.647042225200e+07 2.091027734598e-04 -1.714936740684e-05 3.278917858712e-04 0.000000000000e+00 3.016337306586e+07 2.082790935741e+07  2.890609169317e-04
1.700000000000e+01 1.347593761466e+06 1.000000000000e+00 5.489050806219e+01 0.000000000000e+00 9.447069314223e-03 -4.381633671081e+07 -2.949940730826e+05 -2.047367512280e+07 -2.672312373508e+07 2.103842347152e-04 -1.756161874273e-05 3.353421675181e-04 0.000000000000e+00 3.033771185623e+07 2.093603970218e+07  2.951108632531e-04
1.800000000000e+01 1.389052735390e+06 1.000000000000e+00 5.534178435914e+01 0.000000000000e+00 9.696727743028e-03 -4.401814597651e+07 -3.002674603180e+05 -2.052075241151e+07 -2.695629548863e+07 2.115491271210e-04 -1.795335608021e-05 3.422542476406e-04 0.000000000000e+00 3.049839795888e+07 2.103795884115e+07  3.007563546386e-04
1.900000000000e+01 1.429591500330e+06 1.000000000000e+00 5.575796323472e+01 0.000000000000e+00 9.932584234116e-03 -4.420448412170e+07 -3.052832008679e+05 -2.056309509130e+07 -2.717112423749e+07 2.126073495433e-04 -1.832595394964e-05 3.486608730634e-04 0.000000000000e+00 3.064623448350e+07 2.113381012057e+07  3.060162530621e-04
2.000000000000e+01 1.469293608682e+06 1.000000000000e+00 5.614111083334e+01 0.000000000000e+00 1.015517154802e-02 -4.437808267564e+07 -3.099556468114e+05 -2.059864252734e+07 -2.736853413968e+07 2.134917710495e-04 -1.867304993401e-05 3.546729075201e-04 0.000000000000e+00 3.078175311422e+07 2.122727470290e+07  3.109628737428e-04
2.100000000000e+01 1.508082098440e+06 1.000000000000e+00 5.651572149916e+01 0.000000000000e+00 1.036824476371e-02 -4.454378448083e+07 -3.144606117262e+05 -2.063534225585e+07 -2.756084351632e+07 2.144800522748e-04 -1.900770447054e-05 3.604526944506e-04 0.000000000000e+00 3.091332341767e+07 2.131419449564e+07  3.157559239347e-04
2.200000000000e+01 1.546103877700e+06 1.000000000000e+00 5.687205991380e+01 0.000000000000e+00 1.057191465453e-02 -4.470014810776e+07 -3.187880949930e+05 -2.067014004054e+07 -2.774337196299e+07 2.154518884366e-04 -1.932917465608e-05 3.659398333243e-04 0.000000000000e+00 3.103788670376e+07 2.139642388181e+07  3.203278019141e-04
2.300000000000e+01 1.583429864235e+06 1.000000000000e+00 5.720737052371e+01 0.000000000000e+00 1.076616667585e-02 -4.484868988731e+07 -3.228479328701e+05 -2.070002679285e+07 -2.791471886365e+07 2.162989357922e-04 -1.963076261266e-05 3.711940674059e-04 0.000000000000e+00 3.115447851460e+07 2.147783124856e+07  3.247113858062e-04
2.400000000000e+01 1.620108796691e+06 1.000000000000e+00 5.752132531308e+01 0.000000000000e+00 1.095146261978e-02 -4.498848326899e+07 -3.267094798223e+05 -2.072624219115e+07 -2.807486542127e+07 2.170549108983e-04 -1.991762038625e-05 3.761686533234e-04 0.000000000000e+00 3.126319696047e+07 2.155654783009e+07  3.288716639723e-04
2.500000000000e+01 1.656192917748e+06 1.000000000000e+00 5.781431139797e+01 0.000000000000e+00 1.112815915334e-02 -4.511945940513e+07 -3.303933991605e+05 -2.074911636123e+07 -2.822402605591e+07 2.177303351285e-04 -2.019128296566e-05 3.808592934358e-04 0.000000000000e+00 3.136420060742e+07 2.163213491392e+07  3.328043604858e-04
2.600000000000e+01 1.691716213409e+06 1.000000000000e+00 5.808694277237e+01 0.000000000000e+00 1.129659354321e-02 -4.524163061244e+07 -3.339149303214e+05 -2.076895022893e+07 -2.836250978913e+07 2.183362289479e-04 -2.045288242333e-05 3.852662884406e-04 0.000000000000e+00 3.145769687683e+07 2.170423860447e+07  3.365088327509e-04
2.700000000000e+01 1.726707846541e+06 1.000000000000e+00 5.833989622005e+01 0.000000000000e+00 1.145708277610e-02 -4.535517449829e+07 -3.372877249248e+05 -2.078599432923e+07 -2.849068195543e+07 2.188795650791e-04 -2.070343287958e-05 3.893939023207e-04 0.000000000000e+00 3.154395026098e+07 2.177269519813e+07  3.399873579831e-04
2.800000000000e+01 1.761207355485e+06 1.000000000000e+00 5.857384815821e+01 0.000000000000e+00 1.160994101536e-02 -4.546011578226e+07 -3.405324570566e+05 -2.080069125739e+07 -2.860891947258e+07 2.193734251686e-04 -2.094447012366e-05 3.932396956259e-04 0.000000000000e+00 3.162324217074e+07 2.183705837506e+07  3.432372815280e-04
2.900000000000e+01 1.795239383678e+06 1.000000000000e+00 5.878945157670e+01 0.000000000000e+00 1.175543355899e-02 -4.555670431148e+07 -3.436520030592e+05 -2.081308865426e+07 -2.871754009574e+07 2.198203315149e-04 -2.117620782670e-05 3.968137011738e-04 0.000000000000e+00 3.169577768716e+07 2.189740738150e+07  3.462653138544e-04
3.000000000000e+01 1.828814801809e+06 1.000000000000e+00 5.898732735168e+01 0.000000000000e+00 1.189382680125e-02 -4.564517162007e+07 -3.466586089844e+05 -2.082341366554e+07 -2.881689869484e+07 2.202248651623e-04 -2.139955569544e-05 4.001206630071e-04 0.000000000000e+00 3.176182799348e+07 2.195367023598e+07  3.490742615741e-04
3.100000000000e+01 1.861850495525e+06 1.000000000000e+00 5.918598549435e+01 0.000000000000e+00 1.202764056705e-02 -4.572971913982e+07 -3.496319087088e+05 -2.083669025836e+07 -2.891616893373e+07 2.207717090159e-04 -2.162042938925e-05 4.033147127183e-04 0.000000000000e+00 3.182752611064e+07 2.200420173423e+07  3.518021539156e-04
3.200000000000e+01 1.894421488072e+06 1.000000000000e+00 5.937697639130e+01 0.000000000000e+00 1.215665963701e-02 -4.580915319388e+07 -3.525505834419e+05 -2.085022470387e+07 -2.901128718493e+07 2.213542649098e-04 -2.183724522657e-05 4.063449683584e-04 0.000000000000e+00 3.189022169423e+07 2.205068146484e+07  3.543985721902e-04
3.300000000000e+01 1.926555659600e+06 1.000000000000e+00 5.955745626517e+01 0.000000000000e+00 1.228085758143e-02 -4.588290953196e+07 -3.554145235500e+05 -2.086322028788e+07 -2.910085921699e+07 2.219417049719e-04 -2.204999506316e-05 4.091892364288e-04 0.000000000000e+00 3.194899634561e+07 2.209342294296e+07  3.568422644149e-04
3.400000000000e+01 1.958279953357e+06 1.000000000000e+00 5.972658109677e+01 0.000000000000e+00 1.240022312413e-02 -4.595096048063e+07 -3.582198802616e+05 -2.087539240585e+07 -2.918449772613e+07 2.225206715037e-04 -2.225839299032e-05 4.118437023863e-04 0.000000000000e+00 3.200361687087e+07 2.213266305362e+07  3.591284664402e-04
3.500000000000e+01 1.989627564578e+06 1.000000000000e+00 5.988415469201e+01 0.000000000000e+00 1.251494192836e-02 -4.601242844444e+07 -3.610108975917e+05 -2.088767238116e+07 -2.926215065696e+07 2.231218274215e-04 -2.246572570626e-05 4.142718407344e-04 0.000000000000e+00 3.205408382752e+07 2.216685625882e+07  3.612278287148e-04
3.600000000000e+01 2.020634135390e+06 1.000000000000e+00 6.003022103161e+01 0.000000000000e+00 1.262520553691e-02 -4.606638704869e+07 -3.638411631221e+05 -2.090125534229e+07 -2.933391420474e+07 2.237831538955e-04 -2.267597400281e-05 4.164328339527e-04 0.000000000000e+00 3.210051886524e+07 2.219418301173e+07  3.631076308544e-04
3.700000000000e+01 2.051361737692e+06 1.000000000000e+00 6.016492785138e+01 0.000000000000e+00 1.273156483256e-02 -4.610943155633e+07 -3.668846643135e+05 -2.092009278799e+07 -2.940000416348e+07 2.246391277935e-04 -2.290206266274e-05 4.181879272944e-04 0.000000000000e+00 3.214317616927e+07 2.220837988757e+07  3.646587753669e-04
3.800000000000e+01 2.083287020103e+06 1.000000000000e+00 6.028866548787e+01 0.000000000000e+00 1.284887168856e-02 -4.603251362859e+07 -3.755977287172e+05 -2.106827437151e+07 -2.946506892484e+07 2.299127705317e-04 -2.354931887559e-05 4.151007310428e-04 0.000000000000e+00 3.218861897498e+07 2.201188390836e+07  3.624848287867e-04
3.900000000000e+01 2.113075158540e+06 1.000000000000e+00 6.040116681718e+01 0.000000000000e+00 1.294139650892e-02 -4.610175087536e+07 -3.767124446607e+05 -2.104408298926e+07 -2.951833698829e+07 2.293196294368e-04 -2.363212634567e-05 4.179777961686e-04 0.000000000000e+00 3.222139028430e+07 2.208575095481e+07  3.648531888194e-04
4.000000000000e+01 2.142460697470e+06 1.000000000000e+00 6.050277272890e+01 0.000000000000e+00 1.302839717649e-02 -4.617309585979e+07 -3.773484596303e+05 -2.100896895525e+07 -2.956514761564e+07 2.284083533167e-04 -2.367937317199e-05 4.210207121618e-04 0.000000000000e+00 3.224907081023e+07 2.217114985940e+07  3.673503865500e-04
4.200000000000e+01 2.199743116275e+06 1.000000000000e+00 6.070353137102e+01 0.000000000000e+00 1.319188288577e-02 -4.630527680595e+07 -3.785993443078e+05 -2.094559307022e+07 -2.965668806822e+07 2.268988492696e-04 -2.377229603375e-05 4.267747475591e-04 0.000000000000e+00 3.230251931480e+07 2.232747485700e+07  3.721296010957e-04
4.400000000000e+01 2.255508367281e+06 1.000000000000e+00 6.088145664395e+01 0.000000000000e+00 1.334402552794e-02 -4.642405362631e+07 -3.797528547453e+05 -2.088216846569e+07 -2.973618860112e+07 2.254400157351e-04 -2.385798538053e-05 4.320833955205e-04 0.000000000000e+00 3.234747023104e+07 2.247366995620e+07  3.765872864203e-04
5.000000000000e+01 2.407029548280e+06 1.000000000000e+00 6.110376251630e+01 0.000000000000e+00 1.365707797938e-02 -4.663039854086e+07 -3.819196486297e+05 -2.069722793385e+07 -2.982226205209e+07 2.209727899450e-04 -2.401894721195e-05 4.421496291679e-04 0.000000000000e+00 3.238329617560e+07 2.279456309435e+07  3.851661470256e-04
6.500000000000e+01 2.738412900207e+06 1.000000000000e+00 6.116215475679e+01 0.000000000000e+00 1.418047049623e-02 -4.678438245583e+07 -3.857283850146e+05 -2.023492982308e+07 -2.975380945175e+07 2.127108622336e-04 -2.430188191483e-05 4.567781766982e-04 0.000000000000e+00 3.225770724355e+07 2.330681917008e+07  3.981234459295e-04
8.000000000000e+01 2.993465893724e+06 1.000000000000e+00 6.080672396127e+01 0.000000000000e+00 1.441736527344e-02 -4.669790928885e+07 -3.872474832761e+05 -1.986280750156e+07 -2.949459821543e+07 2.062948768011e-04 -2.441472921424e-05 4.609720170058e-04 0.000000000000e+00 3.201843833528e+07 2.355576103482e+07  4.021751461834e-04
1.000000000000e+02 3.294145306883e+06 1.000000000000e+00 6.031955409286e+01 0.000000000000e+00 1.461061628502e-02 -4.651664698692e+07 -3.885274705535e+05 -1.946709283927e+07 -2.915364611012e+07 2.003635412467e-04 -2.450981398343e-05 4.630060548361e-04 0.000000000000e+00 3.171246197877e+07 2.374749686679e+07  4.044166362239e-04
1.860000000000e+02 3.892626698402e+06 1.000000000000e+00 5.884437027137e+01 0.000000000000e+00 1.481956965037e-02 -4.581791213148e+07 -3.902031368804e+05 -1.857881452854e+07 -2.816624551978e+07 1.896416710935e-04 -2.463429205342e-05 4.593243701651e-04 0.000000000000e+00 3.085432405993e+07 2.394140927695e+07  4.020650996363e-04
2.720000000000e+02 4.182948269365e+06 1.000000000000e+00 5.740652461788e+01 0.000000000000e+00 1.458697777774e-02 -4.514863681872e+07 -3.877905537373e+05 -1.818272644676e+07 -2.734582374738e+07 1.840276597352e-04 -2.445507159137e-05 4.435634045131e-04 0.000000000000e+00 3.022572900429e+07 2.375884168750e+07  3.883051502025e-04
3.580000000000e+02 4.324314095300e+06 1.000000000000e+00 5.632819007730e+01 0.000000000000e+00 1.435667671660e-02 -4.463068305767e+07 -3.855924864320e+05 -1.793662869641e+07 -2.674060038924e+07 1.807862175580e-04 -2.429178659154e-05 4.302244533671e-04 0.000000000000e+00 2.976930404777e+07 2.356936150054e+07  3.765213908879e-04
4.440000000000e+02 4.396443065099e+06 1.000000000000e+00 5.547754095058e+01 0.000000000000e+00 1.414543778339e-02 -4.422341244406e+07 -3.835790062514e+05 -1.777469361441e+07 -2.627305961089e+07 1.785476114388e-04 -2.414221377813e-05 4.188733846452e-04 0.000000000000e+00 2.942372188979e+07 2.339716773778e+07  3.664612654146e-04
5.300000000000e+02 4.435407630124e+06 1.000000000000e+00 5.480783314931e+01 0.000000000000e+00 1.396417135728e-02 -4.390348164403e+07 -3.818521277541e+05 -1.766356272994e+07 -2.591000695746e+07 1.769459425983e-04 -2.401393137547e-05 4.095162903697e-04 0.000000000000e+00 2.915901711048e+07 2.325056111792e+07  3.581636767899e-04
6.160000000000e+02 4.457923140021e+06 1.000000000000e+00 5.428842769212e+01 0.000000000000e+00 1.381488779670e-02 -4.365582268613e+07 -3.804296574646e+05 -1.758694468746e+07 -2.563139863793e+07 1.757963948807e-04 -2.390826215396e-05 4.020137943649e-04 0.000000000000e+00 2.895805533717e+07 2.313058432126e+07  3.515134457866e-04
7.020000000000e+02 4.471733458232e+06 1.000000000000e+00 5.390298112949e+01 0.000000000000e+00 1.370070175247e-02 -4.347230060753e+07 -3.793403374577e+05 -1.753396957181e+07 -2.542587092891e+07 1.749790428936e-04 -2.382734123917e-05 3.963475551827e-04 0.000000000000e+00 2.881071370275e+07 2.303927236963e+07  3.464964078656e-04
7.880000000000e+02 4.481352036468e+06 1.000000000000e+00 5.359220289655e+01 0.000000000000e+00 1.359868370914e-02 -4.332647896022e+07 -3.783550347208e+05 -1.750302702736e+07 -2.526428801917e+07 1.743936245746e-04 -2.375414732157e-05 3.914951987576e-04 0.000000000000e+00 2.869793133558e+07 2.295854414697e+07  3.421989754113e-04
8.740000000000e+02 4.489738131595e+06 1.000000000000e+00 5.310537577069e+01 0.000000000000e+00 1.345353335994e-02 -4.309446150429e+07 -3.769827300981e+05 -1.743576406674e+07 -2.500452564646e+07 1.733630990944e-04 -2.365220469245e-05 3.843452205944e-04 0.000000000000e+00 2.851158373916e+07 2.284462060591e+07  3.358913730917e-04
9.370000000000e+02 4.495111994429e+06 1.000000000000e+00 5.275159323252e+01 0.000000000000e+00 1.333561287265e-02 -4.292415704453e+07 -3.758867792778e+05 -1.739923765227e+07 -2.481886855178e+07 1.727928583690e-04 -2.357079120294e-05 3.788060810436e-04 0.000000000000e+00 2.838075441620e+07 2.275106205539e+07  3.310032930677e-04
1.000000000000e+03 4.499302027140e+06 1.000000000000e+00 5.246388243437e+01 0.000000000000e+00 1.323737750885e-02 -4.278175860760e+07 -3.750050358190e+05 -1.736983052681e+07 -2.466676788918e+07 1.724324899866e-04 -2.350529026029e-05 3.742488925211e-04 0.000000000000e+00 2.827278567453e+07 2.267165681025e+07  3.269862760955e-04
1.100000000000e+03 4.503447343828e+06 1.000000000000e+00 5.216936964690e+01 0.000000000000e+00 1.313491181198e-02 -4.263389648176e+07 -3.741013943813e+05 -1.734060224060e+07 -2.451068126054e+07 1.721270084543e-04 -2.343816261063e-05 3.695370112311e-04 0.000000000000e+00 2.816172666097e+07 2.258817619681e+07  3.228405982097e-04
1.200000000000e+03 4.506708720429e+06 1.000000000000e+00 5.192025738058e+01 0.000000000000e+00 1.304955900325e-02 -4.251040312350e+07 -3.733375274641e+05 -1.731524256070e+07 -2.437895467692e+07 1.718212029408e-04 -2.338141821107e-05 3.655862405215e-04 0.000000000000e+00 2.806820012038e+07 2.251974525693e+07  3.193750609649e-04
1.300000000000e+03 4.509614096533e+06 1.000000000000e+00 5.168219822456e+01 0.000000000000e+00 1.296826913611e-02 -4.239292609233e+07 -3.726063428836e+05 -1.729093788545e+07 -2.425321767974e+07 1.715144042034e-04 -2.332710164223e-05 3.618187542784e-04 0.000000000000e+00 2.797902721917e+07 2.245512398192e+07  3.160780516585e-04
1.400000000000e+03 4.512353612459e+06 1.000000000000e+00 5.143780994797e+01 0.000000000000e+00 1.288434007250e-02 -4.227218685295e+07 -3.718535424471e+05 -1.726633539144e+07 -2.412419727957e+07 1.712068182312e-04 -2.327117932409e-05 3.579403749066e-04 0.000000000000e+00 2.788757317466e+07 2.238863610059e+07  3.126913770066e-04
1.500000000000e+03 4.514993501238e+06 1.000000000000e+00 5.117703367255e+01 0.000000000000e+00 1.279386123125e-02 -4.214283915850e+07 -3.710467553340e+05 -1.724068068331e+07 -2.398654276195e+07 1.708982790847e-04 -2.321124656712e-05 3.537803819827e-04 0.000000000000e+00 2.779002086792e+07 2.231704847101e+07  3.090673193929e-04
1.600000000000e+03 4.517554546543e+06 1.000000000000e+00 5.089373351050e+01 0.000000000000e+00 1.269443727015e-02 -4.200163110978e+07 -3.701665425612e+05 -1.721353165405e+07 -2.383699840991e+07 1.705886449616e-04 -2.314585933257e-05 3.492342699937e-04 0.000000000000e+00 2.768405372458e+07 2.223843752638e+07  3.051177684898e-04
1.700000000000e+03 4.520041835520e+06 1.000000000000e+00 5.058412186792e+01 0.000000000000e+00 1.258458566209e-02 -4.184656019007e+07 -3.692004815346e+05 -1.718462220933e+07 -2.367355800948e+07 1.702777785344e-04 -2.307409479917e-05 3.442374059243e-04 0.000000000000e+00 2.756824680296e+07 2.215167414682e+07  3.007909145624e-04
1.800000000000e+03 4.522455244882e+06 1.000000000000e+00 5.024591284061e+01 0.000000000000e+00 1.246341271489e-02 -4.167641450652e+07 -3.681413368389e+05 -1.715379498749e+07 -2.349501073512e+07 1.699657194477e-04 -2.299541547892e-05 3.387506611166e-04 0.000000000000e+00 2.744174007638e+07 2.205613856271e+07  2.960586491954e-04
1.900000000000e+03 4.524794537194e+06 1.000000000000e+00 4.987782121186e+01 0.000000000000e+00 1.233040983795e-02 -4.149052349652e+07 -3.669846152420e+05 -1.712095557732e+07 -2.330067728035e+07 1.696521429276e-04 -2.290948758886e-05 3.327523108886e-04 0.000000000000e+00 2.730405211806e+07 2.195157594012e+07  2.909095069949e-04
2.000000000000e+03 4.527058883136e+06 1.000000000000e+00 4.947924582705e+01 0.000000000000e+00 1.218534794024e-02 -4.128856203932e+07 -3.657286956481e+05 -1.708606764979e+07 -2.309023881392e+07 1.693372825846e-04 -2.281619070474e-05 3.262318623011e-04 0.000000000000e+00 2.715495616768e+07 2.183795227503e+07  2.853434104265e-04