 TITLE = "Time curves in points"
 VARIABLES = "TIME"  "PRESSURE1"  "SATURATION1"  "TEMPERATURE1"  "DISPLACEMENT_X1"  "DISPLACEMENT_Y1"  "STRESS_XX"  "STRESS_XY"  "STRESS_YY"  "STRESS_ZZ"  "STRAIN_XX"  "STRAIN_XY"  "STRAIN_YY"  "STRAIN_PLS"  p_(1st_Invariant)  q_(2nd_Invariant)   Effective_Strain
 ZONE T="POINT=POINT9"
0.000000000000e+00 1.000000000000e+05 1.000000000000e+00 2.500000000000e+01 0.000000000000e+00 0.000000000000e+00 -6.854419775061e+07 7.586938602830e+05 -6.954707405871e+06 -1.965222756120e+07 0.000000000000e+00 0.000000000000e+00 0.000000000000e+00 0.000000000000e+00 3.171704423923e+07 5.633990941714e+07  0.000000000000e+00
1.000000000000e-03 1.375363589691e+05 1.000000000000e+00 2.500341806563e+01 0.000000000000e+00 -1.438850157365e-03 -1.002643397969e+08 1.577728820970e+06 2.515295375874e+07 -1.953705864437e+07 -1.182454407203e-03 6.084259707957e-05 1.188292569203e-03 0.000000000000e+00 3.154948156085e+07 1.101329288249e+08  2.055831925400e-03
2.000000000000e-03 1.596543478277e+05 1.000000000000e+00 2.501822531954e+01 0.000000000000e+00 -1.438791904316e-03 -1.002492256645e+08 1.577510395350e+06 2.515200533518e+07 -1.953756845325e+07 -1.181874089383e-03 6.082637117639e-05 1.188276277801e-03 0.000000000000e+00 3.154492959419e+07 1.101179585392e+08  2.055314905699e-03
3.000000000000e-03 1.750698885853e+05 1.000000000000e+00 2.505296841804e+01 0.000000000000e+00 -1.438565079302e-03 -1.002432604621e+08 1.577435889613e+06 2.514503726800e+07 -1.954914092957e+07 -1.181222689887e-03 6.082083646448e-05 1.188447298712e-03 0.000000000000e+00 3.154912137455e+07 1.101050987090e+08  2.054899623421e-03
4.000000000000e-03 1.857698591436e+05 1.000000000000e+00 2.511280776572e+01 0.000000000000e+00 -1.438344519811e-03 -1.002489297637e+08 1.577562866854e+06 2.513334263228e+07 -1.957391812956e+07 -1.180512967948e-03 6.083026905955e-05 1.188933222527e-03 0.000000000000e+00 3.156316842033e+07 1.100973276828e+08  2.054708039417e-03
1.000000000000e-02 2.016789261239e+05 1.000000000000e+00 2.596898026496e+01 0.000000000000e+00 -1.436183095366e-03 -1.005246878800e+08 1.581612067134e+06 2.501143684929e+07 -1.998083957423e+07 -1.175641187181e-03 6.113106679465e-05 1.199519518533e-03 0.000000000000e+00 3.183136353499e+07 1.101951542268e+08  2.059707466883e-03
2.000000000000e-02 1.999775693425e+05 1.000000000000e+00 2.761199769072e+01 0.000000000000e+00 -1.429555291960e-03 -1.011132931957e+08 1.588858808914e+06 2.479666008995e+07 -2.078160675349e+07 -1.167760889390e-03 6.166939618404e-05 1.221284876987e-03 0.000000000000e+00 3.236607995309e+07 1.104513952501e+08  2.071902580474e-03
3.000000000000e-02 1.899417041039e+05 1.000000000000e+00 2.912015475881e+01 0.000000000000e+00 -1.421011544638e-03 -1.016590563953e+08 1.594685911510e+06 2.459397057448e+07 -2.152380874020e+07 -1.160464591584e-03 6.210226666261e-05 1.241323911633e-03 0.000000000000e+00 3.286296485369e+07 1.106878323115e+08  2.083181615372e-03
4.000000000000e-02 1.766791368651e+05 1.000000000000e+00 3.042921154463e+01 0.000000000000e+00 -1.410314095891e-03 -1.021247495365e+08 1.598989937686e+06 2.440555020265e+07 -2.217150102730e+07 -1.153704623308e-03 6.242199432137e-05 1.258382582771e-03 0.000000000000e+00 3.329690012040e+07 1.108765101666e+08  2.092379602802e-03
5.000000000000e-02 1.624755378777e+05 1.000000000000e+00 3.155419129749e+01 0.000000000000e+00 -1.399053617254e-03 -1.025165388909e+08 1.602141707360e+06 2.423226562812e+07 -2.273024268891e+07 -1.147503537610e-03 6.265612578283e-05 1.272699560292e-03 0.000000000000e+00 3.367150531722e+07 1.110224996214e+08  2.099698349201e-03
6.000000000000e-02 1.480496728640e+05 1.000000000000e+00 3.252596160028e+01 0.000000000000e+00 -1.385606851168e-03 -1.028466242562e+08 1.604358991518e+06 2.407241147435e+07 -2.321419731439e+07 -1.141788393660e-03 6.282083832034e-05 1.284737577812e-03 0.000000000000e+00 3.399613669874e+07 1.111333258496e+08  2.105461756519e-03
7.000000000000e-02 1.342905968549e+05 1.000000000000e+00 3.337380904241e+01 0.000000000000e+00 -1.372621935939e-03 -1.031286585055e+08 1.605902467169e+06 2.392329564086e+07 -2.363802779951e+07 -1.136521676329e-03 6.293549651152e-05 1.294941264873e-03 0.000000000000e+00 3.428113022137e+07 1.112171579529e+08  2.110015603615e-03
8.000000000000e-02 1.218339410025e+05 1.000000000000e+00 3.412173995213e+01 0.000000000000e+00 -1.359057180235e-03 -1.033701188879e+08 1.606891992935e+06 2.378224379185e+07 -2.401288255923e+07 -1.131567028030e-03 6.300900413988e-05 1.303625372985e-03 0.000000000000e+00 3.453358588509e+07 1.112770439195e+08  2.113511993057e-03
9.000000000000e-02 1.115908125434e+05 1.000000000000e+00 3.478854389704e+01 0.000000000000e+00 -1.346517334117e-03 -1.035794977574e+08 1.607476673414e+06 2.364754111975e+07 -2.434821397773e+07 -1.126888790496e-03 6.305243754686e-05 1.311077297851e-03 0.000000000000e+00 3.476005687179e+07 1.113180401951e+08  2.116168038495e-03
1.000000000000e-01 1.045672294376e+05 1.000000000000e+00 3.538879911632e+01 0.000000000000e+00 -1.335056491585e-03 -1.037640006588e+08 1.607775121672e+06 2.351953945444e+07 -2.465106108179e+07 -1.122493148682e-03 6.307460798892e-05 1.317571557005e-03 0.000000000000e+00 3.496517409538e+07 1.113460219167e+08  2.118227074895e-03
2.000000000000e-01 1.257459073664e+05 1.000000000000e+00 3.885749510603e+01 0.000000000000e+00 -1.190852788824e-03 -1.047212910797e+08 1.603559190762e+06 2.264523063300e+07 -2.641130671513e+07 -1.092669097933e-03 6.276142454985e-05 1.350477781447e-03 0.000000000000e+00 3.616245572060e+07 1.113028678279e+08  2.122535824015e-03
3.000000000000e-01 1.562400344316e+05 1.000000000000e+00 4.116519335709e+01 0.000000000000e+00 -1.034264171409e-03 -1.052170022421e+08 1.595108897556e+06 2.190366891283e+07 -2.758886875240e+07 -1.067343208298e-03 6.213368848312e-05 1.366672078939e-03 0.000000000000e+00 3.696740069391e+07 1.110192993648e+08  2.115964092987e-03
4.000000000000e-01 1.873099579768e+05 1.000000000000e+00 4.284986299412e+01 0.000000000000e+00 -8.870634693869e-04 -1.055179616381e+08 1.585609695992e+06 2.125798813220e+07 -2.846190429580e+07 -1.046094665680e-03 6.142803350984e-05 1.375116684413e-03 0.000000000000e+00 3.757395926725e+07 1.106727836124e+08  2.105963528524e-03
5.000000000000e-01 2.167971561645e+05 1.000000000000e+00 4.415870677105e+01 0.000000000000e+00 -7.462492313642e-04 -1.057054605869e+08 1.576007382959e+06 2.067482262504e+07 -2.915092635273e+07 -1.027466664521e-03 6.071471882738e-05 1.379048499119e-03 0.000000000000e+00 3.806052143821e+07 1.102952418588e+08  2.094146055669e-03
6.000000000000e-01 2.441751622672e+05 1.000000000000e+00 4.522029184852e+01 0.000000000000e+00 -6.106340933381e-04 -1.058272595569e+08 1.566674530835e+06 2.013847794207e+07 -2.971980444318e+07 -1.010860868617e-03 6.002142124100e-05 1.380256882825e-03 0.000000000000e+00 3.846952868600e+07 1.099097058600e+08  2.081586928956e-03
7.000000000000e-01 2.695236793827e+05 1.000000000000e+00 4.610823858705e+01 0.000000000000e+00 -4.799282130192e-04 -1.059156963137e+08 1.557884302840e+06 1.964642120478e+07 -3.020469844927e+07 -9.961353136445e-04 5.936843287563e-05 1.379990838524e-03 0.000000000000e+00 3.882465785274e+07 1.095392548476e+08  2.069273233946e-03
8.000000000000e-01 2.931001250057e+05 1.000000000000e+00 4.686835872746e+01 0.000000000000e+00 -3.542622846649e-04 -1.059980896154e+08 1.549946860412e+06 1.920545457918e+07 -3.062775801460e+07 -9.834819952819e-04 5.877879429526e-05 1.379325719142e-03 0.000000000000e+00 3.914013101695e+07 1.092116693709e+08  2.058320462152e-03
9.000000000000e-01 3.149678576752e+05 1.000000000000e+00 4.753046133627e+01 0.000000000000e+00 -2.326883217501e-04 -1.060710051612e+08 1.542972603499e+06 1.880060466008e+07 -3.100286488639e+07 -9.722577460292e-04 5.826070663894e-05 1.378220977385e-03 0.000000000000e+00 3.942442179583e+07 1.089100885806e+08  2.048157010103e-03
1.000000000000e+00 3.353127068989e+05 1.000000000000e+00 4.811530493389e+01 0.000000000000e+00 -1.147459450199e-04 -1.061388785088e+08 1.536787629523e+06 1.842156913335e+07 -3.134169756982e+07 -9.621935421261e-04 5.780125142927e-05 1.376727728919e-03 0.000000000000e+00 3.968633564841e+07 1.086289013189e+08  2.038601760059e-03
2.000000000000e+00 4.697379131332e+05 1.000000000000e+00 5.129669003549e+01 0.000000000000e+00 8.462718664114e-04 -1.065626328901e+08 1.496065826114e+06 1.560523812348e+07 -3.342844618122e+07 -9.004251850105e-04 5.477620317600e-05 1.349628954119e-03 0.000000000000e+00 4.146194698263e+07 1.065160303612e+08  1.963798621450e-03
3.000000000000e+00 5.733073282760e+05 1.000000000000e+00 5.334711567617e+01 0.000000000000e+00 1.662207232753e-03 -1.068350949397e+08 1.465048244908e+06 1.328373235010e+07 -3.492574332139e+07 -8.549313102150e-04 5.247204000069e-05 1.319015490600e-03 0.000000000000e+00 4.282570197031e+07 1.047294592326e+08  1.899114792778e-03
4.000000000000e+00 6.596594526311e+05 1.000000000000e+00 5.484331776306e+01 0.000000000000e+00 2.371157561582e-03 -1.070273440592e+08 1.439563237333e+06 1.130243276361e+07 -3.610296229207e+07 -8.183467157430e-04 5.057886800944e-05 1.289149639156e-03 0.000000000000e+00 4.394262452921e+07 1.031792361530e+08  1.842347464046e-03
5.000000000000e+00 7.354601095239e+05 1.000000000000e+00 5.604440420721e+01 0.000000000000e+00 2.997847207203e-03 -1.071884398538e+08 1.418149519343e+06 9.587394207716e+06 -3.708756610990e+07 -7.877592748819e-04 4.898813467307e-05 1.262019206028e-03 0.000000000000e+00 4.489620391867e+07 1.018365031053e+08  1.792937254393e-03
6.000000000000e+00 8.041390168034e+05 1.000000000000e+00 5.709454643067e+01 0.000000000000e+00 3.562214133855e-03 -1.073199566117e+08 1.399216808401e+06 8.051432361875e+06 -3.795653000780e+07 -7.603683811084e-04 4.758170471731e-05 1.237244996533e-03 0.000000000000e+00 4.574168475253e+07 1.006238584814e+08  1.748281810051e-03
7.000000000000e+00 8.678837899245e+05 1.000000000000e+00 5.796631024017e+01 0.000000000000e+00 4.072406968685e-03 -1.074238317723e+08 1.382278666155e+06 6.687232830857e+06 -3.870332192545e+07 -7.364886158492e-04 4.632344272189e-05 1.214312713751e-03 0.000000000000e+00 4.647997362231e+07 9.953795799955e+07  1.708138144837e-03
8.000000000000e+00 9.273815367560e+05 1.000000000000e+00 5.880767264491e+01 0.000000000000e+00 4.541381699555e-03 -1.075470550996e+08 1.367510726636e+06 5.450657525923e+06 -3.940666668937e+07 -7.149412482012e-04 4.522639578621e-05 1.194507007942e-03 0.000000000000e+00 4.716768808768e+07 9.857736971681e+07  1.672760171773e-03
9.000000000000e+00 9.837160278318e+05 1.000000000000e+00 5.957121469890e+01 0.000000000000e+00 4.975093917024e-03 -1.076582039507e+08 1.354143457082e+06 4.323584362278e+06 -4.004627198937e+07 -6.953128658159e-04 4.423339861938e-05 1.176401058720e-03 0.000000000000e+00 4.779363052595e+07 9.770102516610e+07  1.640492610308e-03
1.000000000000e+01 1.037379889223e+06 1.000000000000e+00 6.026073641101e+01 0.000000000000e+00 5.378465011123e-03 -1.077466897561e+08 1.341684563150e+06 3.280562064677e+06 -4.062793752566e+07 -6.769947615229e-04 4.330788078443e-05 1.159264950443e-03 0.000000000000e+00 4.836468840568e+07 9.687810534096e+07  1.610173949838e-03
1.100000000000e+01 1.088673728867e+06 1.000000000000e+00 6.090878588780e+01 0.000000000000e+00 5.755460484758e-03 -1.078413288353e+08 1.330399927641e+06 2.321252114291e+06 -4.117172464086e+07 -6.603121201875e-04 4.246959357519e-05 1.143831245136e-03 0.000000000000e+00 4.889726712062e+07 9.613243254945e+07  1.582737706369e-03
1.200000000000e+01 1.137991997935e+06 1.000000000000e+00 6.149982004481e+01 0.000000000000e+00 6.108640066939e-03 -1.079327266418e+08 1.320169491398e+06 1.440808381045e+06 -4.167092229508e+07 -6.451652687021e-04 4.170961831141e-05 1.129670676487e-03 0.000000000000e+00 4.938761351863e+07 9.545227940050e+07  1.557702610761e-03
1.300000000000e+01 1.185597008333e+06 1.000000000000e+00 6.203604871768e+01 0.000000000000e+00 6.440626787339e-03 -1.080126989150e+08 1.310540947708e+06 6.186822443545e+05 -4.213001537727e+07 -6.310836386511e-04 4.099435506584e-05 1.116186591605e-03 0.000000000000e+00 4.984134401597e+07 9.481313520951e+07  1.534140728010e-03
1.400000000000e+01 1.232205376244e+06 1.000000000000e+00 6.252137197228e+01 0.000000000000e+00 6.753278072000e-03 -1.080843541383e+08 1.301526971592e+06 -1.470572158515e+05 -4.255188158091e+07 -6.180758022392e-04 4.032474541153e-05 1.103414156361e-03 0.000000000000e+00 5.026109764502e+07 9.421596995888e+07  1.512088735142e-03
1.500000000000e+01 1.277367068418e+06 1.000000000000e+00 6.295962029591e+01 0.000000000000e+00 7.047685909389e-03 -1.081493586599e+08 1.293167238197e+06 -8.573095003965e+05 -4.293863075886e+07 -6.061252864329e-04 3.970373664503e-05 1.091398326688e-03 0.000000000000e+00 5.064843297306e+07 9.366134243681e+07  1.491573482547e-03
1.600000000000e+01 1.321228595387e+06 1.000000000000e+00 6.335431152615e+01 0.000000000000e+00 7.325525073126e-03 -1.082010802388e+08 1.285197356975e+06 -1.524343530756e+06 -4.329318494759e+07 -5.948772180684e-04 3.911168832567e-05 1.079791932570e-03 0.000000000000e+00 5.100620290573e+07 9.313298967769e+07  1.471992634374e-03
1.700000000000e+01 1.363922199809e+06 1.000000000000e+00 6.370850785819e+01 0.000000000000e+00 7.588262666920e-03 -1.082333561921e+08 1.277495409217e+06 -2.158069612869e+06 -4.361774042249e+07 -5.840211215503e-04 3.853954363507e-05 1.068308452874e-03 0.000000000000e+00 5.133638874248e+07 9.261706239920e+07  1.452836608493e-03
1.800000000000e+01 1.405587802916e+06 1.000000000000e+00 6.402490199352e+01 0.000000000000e+00 7.836975172240e-03 -1.082455905530e+08 1.269964243782e+06 -2.763140883159e+06 -4.391445686877e+07 -5.734546440923e-04 3.798008563132e-05 1.056855273696e-03 0.000000000000e+00 5.164106276830e+07 9.210903759096e+07  1.433938396138e-03
1.900000000000e+01 1.446313785953e+06 1.000000000000e+00 6.430589182614e+01 0.000000000000e+00 8.072509834958e-03 -1.082384673711e+08 1.262553056096e+06 -3.341353687241e+06 -4.418491741372e+07 -5.631443913809e-04 3.742954026040e-05 1.045424475500e-03 0.000000000000e+00 5.192157949068e+07 9.160792176590e+07  1.415263855597e-03
2.000000000000e+01 1.486183570755e+06 1.000000000000e+00 6.455355167662e+01 0.000000000000e+00 8.294900017841e-03 -1.082277012844e+08 1.255626455397e+06 -3.878380932540e+06 -4.443026461455e+07 -5.536316121320e-04 3.691499277993e-05 1.034590645277e-03 0.000000000000e+00 5.217878227718e+07 9.113947673890e+07  1.397768221903e-03
2.100000000000e+01 1.525125187764e+06 1.000000000000e+00 6.481651432677e+01 0.000000000000e+00 8.507401002641e-03 -1.082279052453e+08 1.249209554769e+06 -4.391359448605e+06 -4.467689760625e+07 -5.444785338449e-04 3.643830873325e-05 1.024697811514e-03 0.000000000000e+00 5.243205410006e+07 9.070018342500e+07  1.381438269275e-03
2.200000000000e+01 1.563296828247e+06 1.000000000000e+00 6.506310005153e+01 0.000000000000e+00 8.710733823980e-03 -1.082188726185e+08 1.242923669977e+06 -4.885851171353e+06 -4.490947539511e+07 -5.355044326915e-04 3.597135729155e-05 1.014969579684e-03 0.000000000000e+00 5.267139972833e+07 9.026891145265e+07  1.365404983776e-03
2.300000000000e+01 1.600764538218e+06 1.000000000000e+00 6.528885293821e+01 0.000000000000e+00 8.904528401493e-03 -1.082137192623e+08 1.237072769456e+06 -5.347298266757e+06 -4.512601155300e+07 -5.272702507385e-04 3.553671896714e-05 1.005872887719e-03 0.000000000000e+00 5.289567636068e+07 8.986959318193e+07  1.350536785307e-03
2.400000000000e+01 1.637574350694e+06 1.000000000000e+00 6.549323240318e+01 0.000000000000e+00 9.089566430156e-03 -1.082036256080e+08 1.231440953929e+06 -5.786452481091e+06 -4.532689698637e+07 -5.194338846250e-04 3.511835552798e-05 9.970229044264e-04 0.000000000000e+00 5.310565835848e+07 8.948548984632e+07  1.336208669871e-03
2.500000000000e+01 1.673781468387e+06 1.000000000000e+00 6.567656819956e+01 0.000000000000e+00 9.266271616566e-03 -1.081861155266e+08 1.225950336573e+06 -6.206161446887e+06 -4.551235867833e+07 -5.118949330425e-04 3.471048109581e-05 9.883222913983e-04 0.000000000000e+00 5.330154521726e+07 8.911202415424e+07  1.322251488871e-03
2.600000000000e+01 1.709418522054e+06 1.000000000000e+00 6.583945686769e+01 0.000000000000e+00 9.435020014440e-03 -1.081595393195e+08 1.220611951131e+06 -6.608013541495e+06 -4.568258709758e+07 -5.045850469204e-04 3.431391532010e-05 9.797191263134e-04 0.000000000000e+00 5.348337998617e+07 8.874639036763e+07  1.308563942539e-03
2.700000000000e+01 1.744518245017e+06 1.000000000000e+00 6.598257449112e+01 0.000000000000e+00 9.596157060618e-03 -1.081227963126e+08 1.215350820051e+06 -6.994244271107e+06 -4.583815934274e+07 -4.974419089874e-04 3.392308843991e-05 9.711518111767e-04 0.000000000000e+00 5.365173330880e+07 8.838572351985e+07  1.295039857234e-03
2.800000000000e+01 1.779123728188e+06 1.000000000000e+00 6.610660116461e+01 0.000000000000e+00 9.750064417100e-03 -1.080739742465e+08 1.210095423321e+06 -7.368015818609e+06 -4.597968841784e+07 -4.903717237434e-04 3.353268753994e-05 9.625256622020e-04 0.000000000000e+00 5.380722616098e+07 8.802567137478e+07  1.281518150229e-03
2.900000000000e+01 1.813258571779e+06 1.000000000000e+00 6.621219502953e+01 0.000000000000e+00 9.896979691243e-03 -1.080133423573e+08 1.204873597431e+06 -7.729175557894e+06 -4.610743963307e+07 -4.833746370080e-04 3.314478047384e-05 9.538562027371e-04 0.000000000000e+00 5.394998584943e+07 8.766657395637e+07  1.268013533199e-03
3.000000000000e+01 1.846933373120e+06 1.000000000000e+00 6.629998114533e+01 0.000000000000e+00 1.003719359301e-02 -1.079407315095e+08 1.199642691147e+06 -8.079612324263e+06 -4.622214768338e+07 -4.764170779334e-04 3.275619886415e-05 9.451005647119e-04 0.000000000000e+00 5.408083050570e+07 8.730668523531e+07  1.254459750112e-03
3.100000000000e+01 1.880068624474e+06 1.000000000000e+00 6.640753112562e+01 0.000000000000e+00 1.017261620467e-02 -1.078732222883e+08 1.194602157948e+06 -8.423963231969e+06 -4.634336175506e+07 -4.694073556275e-04 3.238175925514e-05 9.368126250880e-04 0.000000000000e+00 5.421351575844e+07 8.695551188491e+07  1.241311255125e-03
3.200000000000e+01 1.912746249129e+06 1.000000000000e+00 6.650903867135e+01 0.000000000000e+00 1.030348431283e-02 -1.077964374723e+08 1.189494003306e+06 -8.764683969034e+06 -4.645858396062e+07 -4.622756662547e-04 3.200229633887e-05 9.284369653465e-04 0.000000000000e+00 5.433990180064e+07 8.659948021732e+07  1.227990328902e-03
3.300000000000e+01 1.944992531707e+06 1.000000000000e+00 6.660028914584e+01 0.000000000000e+00 1.042986568975e-02 -1.077082871229e+08 1.184285278348e+06 -9.101992167817e+06 -4.656578215349e+07 -4.550198632556e-04 3.161536248485e-05 9.198900222696e-04 0.000000000000e+00 5.445868714805e+07 8.623676150141e+07  1.214416549050e-03
3.400000000000e+01 1.976830069253e+06 1.000000000000e+00 6.668024522067e+01 0.000000000000e+00 1.055175224487e-02 -1.076092277303e+08 1.178991331399e+06 -9.435019182669e+06 -4.666447006630e+07 -4.476749633431e-04 3.122209785434e-05 9.111859984797e-04 0.000000000000e+00 5.456957232643e+07 8.586853570179e+07  1.200630006822e-03
3.500000000000e+01 2.008299353080e+06 1.000000000000e+00 6.674866227775e+01 0.000000000000e+00 1.066953411797e-02 -1.074927912877e+08 1.173505240841e+06 -9.770245034355e+06 -4.675456579313e+07 -4.400037684792e-04 3.081455969856e-05 9.020811652708e-04 0.000000000000e+00 5.467253403841e+07 8.548371409740e+07  1.186221509025e-03
3.600000000000e+01 2.039444665063e+06 1.000000000000e+00 6.680556849252e+01 0.000000000000e+00 1.078367191247e-02 -1.073503185191e+08 1.167567681677e+06 -1.011702237748e+07 -4.683628722538e+07 -4.316765553044e-04 3.037348387501e-05 8.922362314383e-04 0.000000000000e+00 5.476787604067e+07 8.506687239669e+07  1.170621736328e-03
3.700000000000e+01 2.070350556992e+06 1.000000000000e+00 6.685110766982e+01 0.000000000000e+00 1.089555550009e-02 -1.071542731150e+08 1.160571345053e+06 -1.050291003483e+07 -4.690969144883e+07 -4.216684262799e-04 2.985375601150e-05 8.806297038933e-04 0.000000000000e+00 5.485562486622e+07 8.457077182276e+07  1.152093927907e-03
3.800000000000e+01 2.103243222911e+06 1.000000000000e+00 6.688581947385e+01 0.000000000000e+00 1.104701159264e-02 -1.060189628350e+08 1.131769688247e+06 -1.181836145956e+07 -4.697639486803e+07 -3.770222031672e-04 2.771420436304e-05 8.342476351165e-04 0.000000000000e+00 5.493790638753e+07 8.247287693705e+07  1.074685521968e-03
3.900000000000e+01 2.133056539558e+06 1.000000000000e+00 6.690898290706e+01 0.000000000000e+00 1.113657010550e-02 -1.061106609715e+08 1.131687627039e+06 -1.189274983315e+07 -4.703484172212e+07 -3.782572507991e-04 2.770810838758e-05 8.336555215351e-04 0.000000000000e+00 5.501275084225e+07 8.249126657685e+07  1.075034669147e-03
4.000000000000e+01 2.162442327634e+06 1.000000000000e+00 6.692119997969e+01 0.000000000000e+00 1.121901933797e-02 -1.062427574311e+08 1.132666611293e+06 -1.190168820712e+07 -4.708194194978e+07 -3.814142536984e-04 2.778083293215e-05 8.350729618148e-04 0.000000000000e+00 5.507546252932e+07 8.260020364999e+07  1.078725052563e-03
4.200000000000e+01 2.219725185797e+06 1.000000000000e+00 6.697479430470e+01 0.000000000000e+00 1.137356067996e-02 -1.064986533100e+08 1.134623302557e+06 -1.191973945209e+07 -4.718372301077e+07 -3.871385183666e-04 2.792618714039e-05 8.381829264097e-04 0.000000000000e+00 5.520070525763e+07 8.280913192280e+07  1.085937089597e-03
4.400000000000e+01 2.275490822840e+06 1.000000000000e+00 6.700716833757e+01 0.000000000000e+00 1.151766221551e-02 -1.067248995195e+08 1.136292230346e+06 -1.193500276475e+07 -4.726834075436e+07 -3.923990042426e-04 2.805016463324e-05 8.407589481304e-04 0.000000000000e+00 5.530941434621e+07 8.299517648834e+07  1.092303069965e-03
5.000000000000e+01 2.427012687568e+06 1.000000000000e+00 6.679475867122e+01 0.000000000000e+00 1.181877989881e-02 -1.070540601565e+08 1.137917982349e+06 -1.194771740751e+07 -4.729905821920e+07 -4.034840363497e-04 2.817093478205e-05 8.414276243790e-04 0.000000000000e+00 5.543361192773e+07 8.328674302913e+07  1.101218976197e-03
6.500000000000e+01 2.758397042868e+06 1.000000000000e+00 6.601327623856e+01 0.000000000000e+00 1.233113948585e-02 -1.072104309716e+08 1.135815358579e+06 -1.192027218726e+07 -4.706901121605e+07 -4.178366981706e-04 2.801473987345e-05 8.339024152997e-04 0.000000000000e+00 5.539990479163e+07 8.348766090220e+07  1.104884724004e-03
8.000000000000e+01 3.013450390124e+06 1.000000000000e+00 6.501253148982e+01 0.000000000000e+00 1.257466623658e-02 -1.068713367494e+08 1.129626616308e+06 -1.185435823195e+07 -4.660093267125e+07 -4.226275444374e-04 2.755500473331e-05 8.189648734045e-04 0.000000000000e+00 5.510887588419e+07 8.329384307179e+07  1.094400499576e-03
1.000000000000e+02 3.314130012986e+06 1.000000000000e+00 6.391116451659e+01 0.000000000000e+00 1.277909145635e-02 -1.063536424434e+08 1.121610608392e+06 -1.177050811902e+07 -4.603848462324e+07 -4.242898262871e-04 2.695952985953e-05 8.011883786728e-04 0.000000000000e+00 5.472087839523e+07 8.296303344666e+07  1.078907411028e-03
1.860000000000e+02 3.912611203897e+06 1.000000000000e+00 6.127460325842e+01 0.000000000000e+00 1.302743807366e-02 -1.046707800635e+08 1.098824911349e+06 -1.153636255026e+07 -4.454718659323e+07 -4.171745790023e-04 2.526687807917e-05 7.544941443980e-04 0.000000000000e+00 5.358477640232e+07 8.181022313382e+07  1.029547019679e-03
2.720000000000e+02 4.202932547735e+06 1.000000000000e+00 5.927316544670e+01 0.000000000000e+00 1.284274833287e-02 -1.030597785491e+08 1.080205516005e+06 -1.134907701143e+07 -4.331040189207e+07 -4.032750973702e-04 2.388372299652e-05 7.155127469400e-04 0.000000000000e+00 5.257308581754e+07 8.065162161827e+07  9.822673080974e-04
3.580000000000e+02 4.344298233456e+06 1.000000000000e+00 5.786901889816e+01 0.000000000000e+00 1.264932928217e-02 -1.018395847906e+08 1.066530434869e+06 -1.121220542436e+07 -4.241368141467e+07 -3.912603754994e-04 2.286785982640e-05 6.872897881563e-04 0.000000000000e+00 5.182182387654e+07 7.976564708514e+07  9.465357953981e-04
4.440000000000e+02 4.416427119135e+06 1.000000000000e+00 5.679914770245e+01 0.000000000000e+00 1.246784194113e-02 -1.008793758576e+08 1.055990645729e+06 -1.110707394282e+07 -4.172086943233e+07 -3.813284887604e-04 2.208490406171e-05 6.654616552693e-04 0.000000000000e+00 5.123577307758e+07 7.906544834908e+07  9.184080505245e-04
5.300000000000e+02 4.455391631741e+06 1.000000000000e+00 5.597604559742e+01 0.000000000000e+00 1.231033106398e-02 -1.001246771571e+08 1.047819493606e+06 -1.102574778346e+07 -4.118284729830e+07 -3.732805020077e-04 2.147790418972e-05 6.484986619248e-04 0.000000000000e+00 5.077775741297e+07 7.851368265450e+07  8.962949597522e-04
6.160000000000e+02 4.477907107390e+06 1.000000000000e+00 5.534879673767e+01 0.000000000000e+00 1.217966731997e-02 -9.954015014046e+07 1.041556550411e+06 -1.096353008147e+07 -4.076989904685e+07 -3.669075764418e-04 2.101265698096e-05 6.354715272303e-04 0.000000000000e+00 5.042452642293e+07 7.808549387007e+07  8.791638896047e-04
7.020000000000e+02 4.491717402700e+06 1.000000000000e+00 5.488766029124e+01 0.000000000000e+00 1.207937669089e-02 -9.910673853067e+07 1.036939427536e+06 -1.091768369332e+07 -4.046515344548e+07 -3.621285532722e-04 2.066967071022e-05 6.258552707393e-04 0.000000000000e+00 5.016319188982e+07 7.776776106917e+07  8.664604310756e-04
7.880000000000e+02 4.501335964160e+06 1.000000000000e+00 5.452634175001e+01 0.000000000000e+00 1.198880997330e-02 -9.875962057809e+07 1.033317333617e+06 -1.088183606323e+07 -4.022408921104e+07 -3.581894151699e-04 2.040060087622e-05 6.182329397204e-04 0.000000000000e+00 4.995518195079e+07 7.751221752642e+07  8.562737141596e-04
8.740000000000e+02 4.509722042572e+06 1.000000000000e+00 5.394399363726e+01 0.000000000000e+00 1.186120019928e-02 -9.821227413663e+07 1.027483692039e+06 -1.082394361083e+07 -3.983923974249e+07 -3.521538133190e-04 1.996724464471e-05 6.060888219777e-04 0.000000000000e+00 4.962515249665e+07 7.711145570698e+07  8.402312365099e-04
9.370000000000e+02 4.515095894190e+06 1.000000000000e+00 5.354017250226e+01 0.000000000000e+00 1.175626177446e-02 -9.781375093831e+07 1.023330275293e+06 -1.078285071818e+07 -3.956630201969e+07 -3.474892099425e-04 1.965870511500e-05 5.974774425722e-04 0.000000000000e+00 4.938763455873e+07 7.681768415084e+07  8.285556130685e-04
1.000000000000e+03 4.519285919232e+06 1.000000000000e+00 5.322023010413e+01 0.000000000000e+00 1.166857296489e-02 -9.748637025130e+07 1.019932896567e+06 -1.074929161982e+07 -3.934622299191e+07 -3.435037197422e-04 1.940632840966e-05 5.905495594796e-04 0.000000000000e+00 4.919396162101e+07 7.657553001922e+07  8.189806925677e-04
1.100000000000e+03 4.523431229204e+06 1.000000000000e+00 5.289815656035e+01 0.000000000000e+00 1.157691061145e-02 -9.714951678205e+07 1.016450775775e+06 -1.071492661438e+07 -3.912228760641e+07 -3.393096194886e-04 1.914765657938e-05 5.835083739345e-04 0.000000000000e+00 4.899557700095e+07 7.632586355510e+07  8.091371595192e-04
1.200000000000e+03 4.526692601801e+06 1.000000000000e+00 5.262163524845e+01 0.000000000000e+00 1.150069084052e-02 -9.686588561317e+07 1.013508681219e+06 -1.068586333959e+07 -3.893185241913e+07 -3.358480544581e-04 1.892910098384e-05 5.775145600418e-04 0.000000000000e+00 4.882786712396e+07 7.611618599012e+07  8.008427166098e-04
1.300000000000e+03 4.529597975110e+06 1.000000000000e+00 5.235621127184e+01 0.000000000000e+00 1.142812938765e-02 -9.659531865536e+07 1.010700328141e+06 -1.065811906956e+07 -3.874961618852e+07 -3.325671988762e-04 1.872048046942e-05 5.717762872203e-04 0.000000000000e+00 4.866768463781e+07 7.591636473066e+07  7.929277847241e-04
1.400000000000e+03 4.532337488817e+06 1.000000000000e+00 5.208448046145e+01 0.000000000000e+00 1.135316504795e-02 -9.631750225237e+07 1.007819483860e+06 -1.062966637227e+07 -3.856278516645e+07 -3.291877418704e-04 1.850647489431e-05 5.658936637286e-04 0.000000000000e+00 4.850331793036e+07 7.571118110864e+07  7.848012067948e-04
1.500000000000e+03 4.534977375631e+06 1.000000000000e+00 5.179637451914e+01 0.000000000000e+00 1.127226277108e-02 -9.602066663811e+07 1.004747348559e+06 -1.059932623593e+07 -3.836395083126e+07 -3.255476943623e-04 1.827825912910e-05 5.596353077711e-04 0.000000000000e+00 4.832798123510e+07 7.549183318764e+07  7.761206397253e-04
1.600000000000e+03 4.537538419005e+06 1.000000000000e+00 5.148575254412e+01 0.000000000000e+00 1.118325280154e-02 -9.569770361206e+07 1.001411843442e+06 -1.056640959606e+07 -3.814862469668e+07 -3.215497526794e-04 1.803047874893e-05 5.528600979677e-04 0.000000000000e+00 4.813757930160e+07 7.525300408883e+07  7.666784551770e-04
1.700000000000e+03 4.540025706284e+06 1.000000000000e+00 5.114882396046e+01 0.000000000000e+00 1.108479343218e-02 -9.534416315226e+07 9.977685325270e+05 -1.053046711369e+07 -3.791401025791e+07 -3.171325004693e-04 1.775983279527e-05 5.454808538729e-04 0.000000000000e+00 4.792954684129e+07 7.499139012110e+07  7.563453754241e-04
1.800000000000e+03 4.542439113240e+06 1.000000000000e+00 5.078330097052e+01 0.000000000000e+00 1.097607519646e-02 -9.495740436398e+07 9.937907016904e+05 -1.049123902311e+07 -3.765843659086e+07 -3.122599102523e-04 1.746433679026e-05 5.374451610329e-04 0.000000000000e+00 4.770235999265e+07 7.470504380126e+07  7.450443876687e-04
1.900000000000e+03 4.544778403850e+06 1.000000000000e+00 5.038789710238e+01 0.000000000000e+00 1.085663807741e-02 -9.453592571022e+07 9.894632292874e+05 -1.044856800076e+07 -3.738095577431e+07 -3.069114191561e-04 1.714286741176e-05 5.287236543907e-04 0.000000000000e+00 4.745514982843e+07 7.439288289551e+07  7.327320674984e-04
2.000000000000e+03 4.547042747354e+06 1.000000000000e+00 4.996201034884e+01 0.000000000000e+00 1.072627748077e-02 -9.407902511426e+07 9.847786635748e+05 -1.040242958169e+07 -3.708113914466e+07 -3.010768718357e-04 1.679487110168e-05 5.193013208553e-04 0.000000000000e+00 4.718753128020e+07 7.405438516039e+07  7.193865198248e-04