 TITLE = "Time curves in points"
 VARIABLES = "TIME"  "PRESSURE1"  "SATURATION1"  "TEMPERATURE1"  "DISPLACEMENT_X1"  "DISPLACEMENT_Y1"  "STRESS_XX"  "STRESS_XY"  "STRESS_YY"  "STRESS_ZZ"  "STRAIN_XX"  "STRAIN_XY"  "STRAIN_YY"  "STRAIN_PLS"  p_(1st_Invariant)  q_(2nd_Invariant)   Effective_Strain
 ZONE T="POINT=POINT6"
0.000000000000e+00 1.000000000000e+05 1.000000000000e+00 2.500000000000e+01 0.000000000000e+00 0.000000000000e+00 -3.096833482140e+07 1.077886406635e+03 -1.276457505907e+07 -1.019441292181e+07 0.000000000000e+00 0.000000000000e+00 0.000000000000e+00 0.000000000000e+00 1.797577426743e+07 1.961553518206e+07  0.000000000000e+00
1.000000000000e-03 2.334135896320e+05 1.000000000000e+00 2.447870096528e+01 0.000000000000e+00 5.466344584500e-05 -3.075880332796e+07 1.660338009486e+04 -1.275660081693e+07 -9.958655650378e+06 -9.741003254429e-07 1.153322388268e-06 -8.460512516372e-06 0.000000000000e+00 1.782468659842e+07 1.955192560652e+07  8.263063177899e-06
2.000000000000e-03 2.334135767170e+05 1.000000000000e+00 2.447870184588e+01 0.000000000000e+00 5.278816493700e-05 -3.075998716445e+07 1.564638498431e+04 -1.276705803751e+07 -9.961607031652e+06 -9.084486620769e-07 1.082231322913e-06 -8.739300833783e-06 0.000000000000e+00 1.782955074454e+07 1.954725222273e+07  8.530833827589e-06
3.000000000000e-03 2.334099446350e+05 1.000000000000e+00 2.447870265160e+01 0.000000000000e+00 5.122332899799e-05 -3.076049353289e+07 1.476699174136e+04 -1.277500187958e+07 -9.963643186489e+06 -8.516280242653e-07 1.016904967723e-06 -8.958729216583e-06 0.000000000000e+00 1.783304619965e+07 1.954343803463e+07  8.743962588282e-06
4.000000000000e-03 2.333989359300e+05 1.000000000000e+00 2.447870339123e+01 0.000000000000e+00 4.963293375403e-05 -3.076072166696e+07 1.395854595234e+04 -1.278158094847e+07 -9.965224679955e+06 -8.013603898352e-07 9.568489948241e-07 -9.144353446587e-06 0.000000000000e+00 1.783584243180e+07 1.954015388360e+07  8.926373047573e-06
1.000000000000e-02 2.311936456360e+05 1.000000000000e+00 2.447870657472e+01 0.000000000000e+00 4.116434132882e-05 -3.076075760773e+07 1.073957767835e+04 -1.280798432074e+07 -9.971266871618e+06 -5.782710706823e-07 7.177256373272e-07 -9.900625869260e-06 0.000000000000e+00 1.784666960003e+07 1.952629831378e+07  9.704480139804e-06
2.000000000000e-02 2.212675572970e+05 1.000000000000e+00 2.447871069638e+01 0.000000000000e+00 3.350073065700e-05 -3.076018483219e+07 7.736122059644e+03 -1.284053107034e+07 -9.978985817044e+06 -2.702928637259e-07 4.946117913664e-07 -1.082280145265e-05 0.000000000000e+00 1.785990057319e+07 1.950847282304e+07  1.072449001072e-05
3.000000000000e-02 2.075009229160e+05 1.000000000000e+00 2.447871456597e+01 0.000000000000e+00 3.069363652818e-05 -3.075921211073e+07 5.995110681869e+03 -1.286750866160e+07 -9.985607788612e+06 1.179573479212e-08 3.652795175888e-07 -1.157886732700e-05 0.000000000000e+00 1.787077618698e+07 1.949309181650e+07  1.160203328481e-05
4.000000000000e-02 1.919972533250e+05 1.000000000000e+00 2.447871851270e+01 0.000000000000e+00 3.291876338718e-05 -3.075682752764e+07 4.953141432176e+03 -1.288880210868e+07 -9.990493644502e+06 2.818406109423e-07 2.878760876116e-07 -1.218829214273e-05 0.000000000000e+00 1.787870776028e+07 1.947956999620e+07  1.234170462763e-05
5.000000000000e-02 1.762362105500e+05 1.000000000000e+00 2.447872261597e+01 0.000000000000e+00 3.742749550700e-05 -3.075404785018e+07 4.313653448306e+03 -1.290780775011e+07 -9.994807220227e+06 5.453043006174e-07 2.403712659527e-07 -1.273399744031e-05 0.000000000000e+00 1.788555427351e+07 1.946689550204e+07  1.302187721470e-05
6.000000000000e-02 1.604597903140e+05 1.000000000000e+00 2.447872687006e+01 0.000000000000e+00 4.677630613400e-05 -3.074907889302e+07 3.916866531410e+03 -1.292099725618e+07 -9.996863759626e+06 8.062513157063e-07 2.108956664119e-07 -1.314750763087e-05 0.000000000000e+00 1.788897996961e+07 1.945566211350e+07  1.357352659996e-05
7.000000000000e-02 1.455698547290e+05 1.000000000000e+00 2.447873122071e+01 0.000000000000e+00 5.634363715700e-05 -3.074436578040e+07 3.671917442497e+03 -1.293424623155e+07 -9.999109235647e+06 1.064713179770e-06 1.926994483783e-07 -1.355620903534e-05 0.000000000000e+00 1.789257374920e+07 1.944455113308e+07  1.412265170656e-05
8.000000000000e-02 1.319055427570e+05 1.000000000000e+00 2.447873561305e+01 0.000000000000e+00 6.753861195100e-05 -3.073908065988e+07 3.526960914991e+03 -1.294587100227e+07 -1.000076029362e+07 1.322342666519e-06 1.819312491922e-07 -1.392666122289e-05 0.000000000000e+00 1.789523731859e+07 1.943386211303e+07  1.463610597872e-05
9.000000000000e-02 1.205674320160e+05 1.000000000000e+00 2.447873993944e+01 0.000000000000e+00 7.760223547500e-05 -3.073466183685e+07 3.449815617078e+03 -1.295926076563e+07 -1.000324659294e+07 1.578818639240e-06 1.762004556329e-07 -1.433164703051e-05 0.000000000000e+00 1.789905639847e+07 1.942285448196e+07  1.518581529478e-05
1.000000000000e-01 1.126213907650e+05 1.000000000000e+00 2.447874405795e+01 0.000000000000e+00 8.646834669969e-05 -3.073107348133e+07 3.420386002449e+03 -1.297437579899e+07 -1.000653339527e+07 1.834181645252e-06 1.740142556890e-07 -1.477098132583e-05 0.000000000000e+00 1.790399422520e+07 1.941153050494e+07  1.577116410889e-05
2.000000000000e-01 1.225914106110e+05 1.000000000000e+00 2.448021059699e+01 0.000000000000e+00 2.602023956070e-04 -3.064966621873e+07 4.212985063116e+03 -1.301486064114e+07 -9.994016266660e+06 4.392958050576e-06 2.328930430529e-07 -1.673962595378e-05 0.000000000000e+00 1.788618104218e+07 1.932314480012e+07  1.931870465668e-05
3.000000000000e-01 1.420620612730e+05 1.000000000000e+00 2.448611462932e+01 0.000000000000e+00 4.663654012570e-04 -3.055435301184e+07 5.190093999387e+03 -1.301435040838e+07 -9.966948245692e+06 6.927779242033e-06 3.054782783187e-07 -1.772605808747e-05 0.000000000000e+00 1.784521722197e+07 1.924551568416e+07  2.202928570661e-05
4.000000000000e-01 1.621984937820e+05 1.000000000000e+00 2.449981673137e+01 0.000000000000e+00 6.660330920261e-04 -3.046952478546e+07 6.094303344329e+03 -1.302083210212e+07 -9.948037483332e+06 9.376142191525e-06 3.726481153716e-07 -1.866920645657e-05 0.000000000000e+00 1.781279812364e+07 1.917068865562e+07  2.473687624392e-05
5.000000000000e-01 1.815513874540e+05 1.000000000000e+00 2.452393734028e+01 0.000000000000e+00 8.611610646280e-04 -3.039613894214e+07 6.871654616927e+03 -1.303000310235e+07 -9.937131878410e+06 1.169683676049e-05 4.303942099074e-07 -1.941490893380e-05 0.000000000000e+00 1.778775797430e+07 1.910130597322e+07  2.722872411913e-05
6.000000000000e-01 1.998797458080e+05 1.000000000000e+00 2.455991550361e+01 0.000000000000e+00 1.052347936292e-03 -3.033516832913e+07 7.527027109317e+03 -1.303970613828e+07 -9.934348063379e+06 1.385806068557e-05 4.790790236278e-07 -1.987870625516e-05 0.000000000000e+00 1.776974084359e+07 1.903903974234e+07  2.938328906218e-05
7.000000000000e-01 2.172260171510e+05 1.000000000000e+00 2.460807585663e+01 0.000000000000e+00 1.239772444644e-03 -3.028699654846e+07 8.079707896511e+03 -1.304871478075e+07 -9.939526077673e+06 1.583962449848e-05 5.201353106765e-07 -2.002098673037e-05 0.000000000000e+00 1.775841246896e+07 1.898480127554e+07  3.113952710034e-05
8.000000000000e-01 2.338742176340e+05 1.000000000000e+00 2.466791995127e+01 0.000000000000e+00 1.423629226377e-03 -3.025128135691e+07 8.549415219483e+03 -1.305609946492e+07 -9.952093843246e+06 1.763299147706e-05 5.550278546687e-07 -1.982847227821e-05 0.000000000000e+00 1.775315822169e+07 1.893893586594e+07  3.247537762307e-05
9.000000000000e-01 2.497064717590e+05 1.000000000000e+00 2.473844571409e+01 0.000000000000e+00 1.603745480574e-03 -3.022747699901e+07 8.954513242849e+03 -1.306219925118e+07 -9.971625556707e+06 1.924261698474e-05 5.851208506902e-07 -1.932957212507e-05 0.000000000000e+00 1.775376726897e+07 1.890103707041e+07  3.341989406135e-05
1.000000000000e+00 2.648014421000e+05 1.000000000000e+00 2.481840735633e+01 0.000000000000e+00 1.780147808158e-03 -3.021460824439e+07 9.307982662896e+03 -1.306696507253e+07 -9.997367334916e+06 2.067672249012e-05 6.113785790366e-07 -1.855046515605e-05 0.000000000000e+00 1.775964688394e+07 1.887063123537e+07  3.400486409081e-05
2.000000000000e+00 3.766350511870e+05 1.000000000000e+00 2.591890828956e+01 0.000000000000e+00 3.262752306623e-03 -3.053273976439e+07 1.090533698326e+04 -1.304972022358e+07 -1.047477605438e+07 2.659273275562e-05 7.300391856918e-07 -1.776183292941e-07 0.000000000000e+00 1.801907868078e+07 1.890249892857e+07  2.671193014524e-05
3.000000000000e+00 4.686151700600e+05 1.000000000000e+00 2.708342743637e+01 0.000000000000e+00 4.537430840431e-03 -3.101088458988e+07 1.167026833883e+04 -1.300658083645e+07 -1.101444673770e+07 2.887797890400e-05 7.868626578202e-07 2.146961285901e-05 0.000000000000e+00 1.834397072134e+07 1.907854679817e+07  2.601423404990e-05
4.000000000000e+00 5.483132884460e+05 1.000000000000e+00 2.823167826303e+01 0.000000000000e+00 5.653304186581e-03 -3.153509297328e+07 1.205955050288e+04 -1.295602839066e+07 -1.155963875599e+07 2.965737105681e-05 8.157807614353e-07 4.359726438214e-05 0.000000000000e+00 1.868358670664e+07 1.931516487842e+07  3.859141572315e-05
5.000000000000e+00 6.197397654110e+05 1.000000000000e+00 2.933713694020e+01 0.000000000000e+00 6.645802401430e-03 -3.206059120146e+07 1.228113105892e+04 -1.290554320736e+07 -1.208996568905e+07 2.983672295235e-05 8.322410313128e-07 6.517028584702e-05 0.000000000000e+00 1.901870003262e+07 1.957559473757e+07  5.652438682354e-05
6.000000000000e+00 6.851606366850e+05 1.000000000000e+00 3.039255406408e+01 0.000000000000e+00 7.542331120941e-03 -3.256997784720e+07 1.243837643510e+04 -1.285848120745e+07 -1.259875742579e+07 2.981462633231e-05 8.439221164000e-07 8.581628177946e-05 0.000000000000e+00 1.934240549348e+07 1.984264510620e+07  7.547782721382e-05
7.000000000000e+00 7.462730414350e+05 1.000000000000e+00 3.139551191406e+01 0.000000000000e+00 8.356344818894e-03 -3.305837069731e+07 1.254357007914e+04 -1.281372518764e+07 -1.308342339496e+07 2.967619932619e-05 8.517365013860e-07 1.054805270844e-04 0.000000000000e+00 1.965183975997e+07 2.011116447043e+07  9.422703231490e-05
8.000000000000e+00 8.036369444830e+05 1.000000000000e+00 3.234847821821e+01 0.000000000000e+00 9.107001059665e-03 -3.352254935954e+07 1.264572704282e+04 -1.277251835952e+07 -1.354427838149e+07 2.955274851444e-05 8.593253044021e-07 1.241285373429e-04 0.000000000000e+00 1.994644870018e+07 2.037512786208e+07  1.123171162380e-04
9.000000000000e+00 8.580655136630e+05 1.000000000000e+00 3.325456045260e+01 0.000000000000e+00 9.803154165371e-03 -3.396404427333e+07 1.273747171806e+04 -1.273399871158e+07 -1.398264007984e+07 2.943637194084e-05 8.661406231347e-07 1.418412730625e-04 0.000000000000e+00 2.022689435492e+07 2.063409104884e+07  1.296626579449e-04
1.000000000000e+01 9.100569319250e+05 1.000000000000e+00 3.411648238339e+01 0.000000000000e+00 1.045146454342e-02 -3.438430609620e+07 1.281678666168e+04 -1.269747248925e+07 -1.439970778774e+07 2.931773338492e-05 8.720325903746e-07 1.586890476136e-04 0.000000000000e+00 2.049382879107e+07 2.088781357727e+07  1.462587483087e-04
1.100000000000e+01 9.599017900680e+05 1.000000000000e+00 3.493739274946e+01 0.000000000000e+00 1.105912744920e-02 -3.478426839948e+07 1.289048109868e+04 -1.266255527069e+07 -1.479676285197e+07 2.920975022018e-05 8.775070342662e-07 1.747337324030e-04 0.000000000000e+00 2.074786217404e+07 2.113559093982e+07  1.621217694348e-04
1.200000000000e+01 1.007946846100e+06 1.000000000000e+00 3.572000571424e+01 0.000000000000e+00 1.163009324278e-02 -3.516559210611e+07 1.295326590659e+04 -1.262866090224e+07 -1.517508753171e+07 2.909835779280e-05 8.821710485678e-07 1.900447256215e-04 0.000000000000e+00 2.098978018002e+07 2.137777860921e+07  1.773021641642e-04
1.300000000000e+01 1.054427457860e+06 1.000000000000e+00 3.646655380801e+01 0.000000000000e+00 1.216753471662e-02 -3.552953168350e+07 1.300503209182e+04 -1.259562646052e+07 -1.553579741434e+07 2.897839770167e-05 8.860165366135e-07 2.046695148114e-04 0.000000000000e+00 2.122031851945e+07 2.161433596973e+07  1.918351331346e-04
1.400000000000e+01 1.100043684190e+06 1.000000000000e+00 3.717896992581e+01 0.000000000000e+00 1.267452910512e-02 -3.587684178298e+07 1.304581305260e+04 -1.256269522405e+07 -1.587957341598e+07 2.884713121055e-05 8.890459794144e-07 2.186614979415e-04 0.000000000000e+00 2.143970347434e+07 2.184539853164e+07  2.057659397168e-04
1.500000000000e+01 1.144328323690e+06 1.000000000000e+00 3.785899718853e+01 0.000000000000e+00 1.315294414835e-02 -3.620861541680e+07 1.307562676724e+04 -1.253024066434e+07 -1.620746956448e+07 2.870311032715e-05 8.912607125021e-07 2.320459528179e-04 0.000000000000e+00 2.164877521521e+07 2.207073066915e+07  2.191144340611e-04
1.600000000000e+01 1.187416062120e+06 1.000000000000e+00 3.850823173461e+01 0.000000000000e+00 1.360480244800e-02 -3.652559602127e+07 1.309603785565e+04 -1.249828143147e+07 -1.652027641857e+07 2.854808531311e-05 8.927769647836e-07 2.448515503335e-04 0.000000000000e+00 2.184805129044e+07 2.229015625244e+07  2.319043403645e-04
1.700000000000e+01 1.229427499770e+06 1.000000000000e+00 3.912814233171e+01 0.000000000000e+00 1.403188456995e-02 -3.682846392279e+07 1.310826275383e+04 -1.246682487133e+07 -1.681871708814e+07 2.838364526897e-05 8.936851000770e-07 2.571048760084e-04 0.000000000000e+00 2.203800196075e+07 2.250354885887e+07  2.441584956697e-04
1.800000000000e+01 1.270471825970e+06 1.000000000000e+00 3.972008145039e+01 0.000000000000e+00 1.443576165308e-02 -3.711783639693e+07 1.311321650806e+04 -1.243581780930e+07 -1.710343647220e+07 2.821081620907e-05 8.940530932490e-07 2.688318582918e-04 0.000000000000e+00 2.221903022614e+07 2.271085579220e+07  2.559000782165e-04
1.900000000000e+01 1.310633782880e+06 1.000000000000e+00 4.028529438307e+01 0.000000000000e+00 1.481781661506e-02 -3.739428856536e+07 1.311137967883e+04 -1.240518610202e+07 -1.737502266776e+07 2.803008007370e-05 8.939166430776e-07 2.800570946828e-04 0.000000000000e+00 2.239149911172e+07 2.291207712040e+07  2.671517099755e-04
2.000000000000e+01 1.349995946340e+06 1.000000000000e+00 4.082492863823e+01 0.000000000000e+00 1.517928750663e-02 -3.765833045653e+07 1.310151088149e+04 -1.237456190978e+07 -1.763392161887e+07 2.783905658594e-05 8.931835324181e-07 2.908108114360e-04 0.000000000000e+00 2.255560466173e+07 2.310744247716e+07  2.779432240850e-04
2.100000000000e+01 1.388472754850e+06 1.000000000000e+00 4.134131914436e+01 0.000000000000e+00 1.552472467759e-02 -3.791000913737e+07 1.309954473431e+04 -1.234474327748e+07 -1.788120850059e+07 2.767593261873e-05 8.930374757703e-07 3.011033019567e-04 0.000000000000e+00 2.271198697181e+07 2.329580595504e+07  2.882676422131e-04
2.200000000000e+01 1.426190233860e+06 1.000000000000e+00 4.183639356871e+01 0.000000000000e+00 1.585493815952e-02 -3.815076712021e+07 1.309824798244e+04 -1.231549041219e+07 -1.811792128805e+07 2.752568250473e-05 8.929411456315e-07 3.109820262016e-04 0.000000000000e+00 2.286139294015e+07 2.347813523439e+07  2.981776036720e-04
2.300000000000e+01 1.463228482370e+06 1.000000000000e+00 4.231146548328e+01 0.000000000000e+00 1.617049420580e-02 -3.838154385580e+07 1.309298044496e+04 -1.228632195838e+07 -1.834465792283e+07 2.737562161704e-05 8.925498428468e-07 3.204870723490e-04 0.000000000000e+00 2.300417457900e+07 2.365525171058e+07  3.077178014214e-04
2.400000000000e+01 1.499644120820e+06 1.000000000000e+00 4.276749054018e+01 0.000000000000e+00 1.647192686994e-02 -3.860295783799e+07 1.308378302155e+04 -1.225731167370e+07 -1.856196077494e+07 2.722292249989e-05 8.918666056794e-07 3.296358460015e-04 0.000000000000e+00 2.314074342888e+07 2.382733999524e+07  3.169063168632e-04
2.500000000000e+01 1.535482131400e+06 1.000000000000e+00 4.320524538876e+01 0.000000000000e+00 1.675975341730e-02 -3.881545090054e+07 1.307061993352e+04 -1.222845837695e+07 -1.877023402974e+07 2.706618678370e-05 8.908887762827e-07 3.384434036305e-04 0.000000000000e+00 2.327138110241e+07 2.399452796561e+07  3.257583837725e-04
2.600000000000e+01 1.570774235150e+06 1.000000000000e+00 4.362540764395e+01 0.000000000000e+00 1.703446567960e-02 -3.901938031575e+07 1.305363561524e+04 -1.219977226174e+07 -1.896982530628e+07 2.690505591877e-05 8.896270840681e-07 3.469222781811e-04 0.000000000000e+00 2.339632596125e+07 2.415689004051e+07  3.342863445424e-04
2.700000000000e+01 1.605546318150e+06 1.000000000000e+00 4.402858938007e+01 0.000000000000e+00 1.729653735785e-02 -3.921504902335e+07 1.303304909684e+04 -1.217125171758e+07 -1.916103948900e+07 2.673960213723e-05 8.880977998442e-07 3.550838537507e-04 0.000000000000e+00 2.351578007664e+07 2.431448563481e+07  3.425012623267e-04
2.800000000000e+01 1.639831833480e+06 1.000000000000e+00 4.441535216502e+01 0.000000000000e+00 1.754640641166e-02 -3.940273635381e+07 1.300924680496e+04 -1.214293075780e+07 -1.934416741332e+07 2.657025276651e-05 8.863296295898e-07 3.629376694463e-04 0.000000000000e+00 2.362994484165e+07 2.446734572737e+07  3.504122448776e-04
2.900000000000e+01 1.673654166930e+06 1.000000000000e+00 4.478621585322e+01 0.000000000000e+00 1.778449018933e-02 -3.958269722395e+07 1.298234055536e+04 -1.211480890689e+07 -1.951946764888e+07 2.639714348229e-05 8.843308796194e-07 3.704933469438e-04 0.000000000000e+00 2.373899125991e+07 2.461552408454e+07  3.580286432653e-04
3.000000000000e+01 1.707028523550e+06 1.000000000000e+00 4.514166471358e+01 0.000000000000e+00 1.801119242865e-02 -3.975515583650e+07 1.295257724026e+04 -1.208686645625e+07 -1.968717131870e+07 2.622053132378e-05 8.821198904979e-07 3.777602028464e-04 0.000000000000e+00 2.384306453715e+07 2.475907793571e+07  3.653594781750e-04
3.100000000000e+01 1.739862169900e+06 1.000000000000e+00 4.548316211200e+01 0.000000000000e+00 1.822961077494e-02 -3.991997709382e+07 1.293147326627e+04 -1.205963752151e+07 -1.984791294514e+07 2.606900217688e-05 8.805521667160e-07 3.847419665474e-04 0.000000000000e+00 2.394250918683e+07 2.489723395967e+07  3.723955701269e-04
3.200000000000e+01 1.772216944290e+06 1.000000000000e+00 4.581188528851e+01 0.000000000000e+00 1.843995953289e-02 -4.007813578148e+07 1.291302625607e+04 -1.203291736891e+07 -2.000233682250e+07 2.593028065122e-05 8.791818173862e-07 3.914701733745e-04 0.000000000000e+00 2.403779665763e+07 2.503082725915e+07  3.791736587849e-04
3.300000000000e+01 1.804125471630e+06 1.000000000000e+00 4.612855743917e+01 0.000000000000e+00 1.864235559839e-02 -4.023021792132e+07 1.289469160220e+04 -1.200650847374e+07 -2.015081262042e+07 2.579633080849e-05 8.778198145278e-07 3.979658905461e-04 0.000000000000e+00 2.412917967183e+07 2.516039526608e+07  3.857182296200e-04
3.400000000000e+01 1.835622427100e+06 1.000000000000e+00 4.643364730800e+01 0.000000000000e+00 1.883685343408e-02 -4.037659355355e+07 1.287543513163e+04 -1.198037552182e+07 -2.029360447580e+07 2.566321909717e-05 8.763893338564e-07 4.042402405321e-04 0.000000000000e+00 2.421685785039e+07 2.528618614090e+07  3.920420528387e-04
3.500000000000e+01 1.866724724140e+06 1.000000000000e+00 4.672750835819e+01 0.000000000000e+00 1.902357941855e-02 -4.051749182062e+07 1.285566529563e+04 -1.195461617177e+07 -2.043093383269e+07 2.553065957618e-05 8.749207174684e-07 4.102978210752e-04 0.000000000000e+00 2.430101394169e+07 2.540823321121e+07  3.981497695862e-04
3.600000000000e+01 1.897454081370e+06 1.000000000000e+00 4.701043929426e+01 0.000000000000e+00 1.920263210115e-02 -4.065311028792e+07 1.283614117197e+04 -1.192941938723e+07 -2.056302099294e+07 2.539949674270e-05 8.734703539963e-07 4.161397961676e-04 0.000000000000e+00 2.438185022270e+07 2.552647813667e+07  4.040420916728e-04
3.700000000000e+01 1.927826208290e+06 1.000000000000e+00 4.728270804192e+01 0.000000000000e+00 1.937414819780e-02 -4.078363551369e+07 1.281975784608e+04 -1.190533662288e+07 -2.069018102267e+07 2.527450374660e-05 8.722533069304e-07 4.217573856617e-04 0.000000000000e+00 2.445971771975e+07 2.564056880625e+07  4.097080262251e-04
3.800000000000e+01 1.957851141680e+06 1.000000000000e+00 4.754456181106e+01 0.000000000000e+00 1.953832863469e-02 -4.091055818166e+07 1.289882178563e+04 -1.189961826751e+07 -2.081812283602e+07 2.531235771801e-05 8.781266281542e-07 4.267219062143e-04 0.000000000000e+00 2.454276642840e+07 2.573792255445e+07  4.146483769163e-04
3.900000000000e+01 1.987546620950e+06 1.000000000000e+00 4.779623193571e+01 0.000000000000e+00 1.969528196019e-02 -4.103063769044e+07 1.284955950023e+04 -1.187032388013e+07 -2.093337286897e+07 2.513297718728e-05 8.744671440959e-07 4.320906989694e-04 0.000000000000e+00 2.461144481318e+07 2.584921471207e+07  4.200911890013e-04
4.000000000000e+01 2.016929925280e+06 1.000000000000e+00 4.803793683095e+01 0.000000000000e+00 1.984517445671e-02 -4.114577903052e+07 1.279094564645e+04 -1.183977489156e+07 -2.104327548878e+07 2.493839614889e-05 8.701129721006e-07 4.373074729949e-04 0.000000000000e+00 2.467627647029e+07 2.595821577199e+07  4.253895553831e-04
4.200000000000e+01 2.074208403470e+06 1.000000000000e+00 4.848775660010e+01 0.000000000000e+00 2.012587603518e-02 -4.135796274061e+07 1.269208136381e+04 -1.178057173204e+07 -2.124646484111e+07 2.460432000310e-05 8.627687682471e-07 4.470534805779e-04 0.000000000000e+00 2.479499977125e+07 2.616198105574e+07  4.352757439542e-04
4.400000000000e+01 2.129970192110e+06 1.000000000000e+00 4.890720119697e+01 0.000000000000e+00 2.038756491354e-02 -4.155477391865e+07 1.259569435827e+04 -1.172232903265e+07 -2.143470133323e+07 2.428583166918e-05 8.556085906931e-07 4.562084219767e-04 0.000000000000e+00 2.490393476151e+07 2.635453676630e+07  4.445657669663e-04
5.000000000000e+01 2.281485240722e+06 1.000000000000e+00 4.980573480116e+01 0.000000000000e+00 2.093498722974e-02 -4.197954930427e+07 1.230132569283e+04 -1.157833252392e+07 -2.183309798722e+07 2.330605020874e-05 8.337412041177e-07 4.763544537354e-04 0.000000000000e+00 2.513032660514e+07 2.678875328416e+07  4.651417871221e-04
6.500000000000e+01 2.612859593381e+06 1.000000000000e+00 5.137611536001e+01 0.000000000000e+00 2.186370413415e-02 -4.267583689553e+07 1.163591262800e+04 -1.120262070948e+07 -2.247783497259e+07 2.139131341853e-05 7.843105193011e-07 5.142568377282e-04 0.000000000000e+00 2.545209752587e+07 2.761932193066e+07  5.039036611055e-04
8.000000000000e+01 2.867909414203e+06 1.000000000000e+00 5.216638751426e+01 0.000000000000e+00 2.230445552304e-02 -4.300953187342e+07 1.111159060132e+04 -1.092545065215e+07 -2.277061809175e+07 1.987173009403e-05 7.453608830336e-07 5.354265271406e-04 0.000000000000e+00 2.556853353911e+07 2.810080631719e+07  5.257739693811e-04
1.000000000000e+02 3.168586946530e+06 1.000000000000e+00 5.286387895362e+01 0.000000000000e+00 2.267344130663e-02 -4.328283193512e+07 1.057255118606e+04 -1.062292188070e+07 -2.300503283891e+07 1.842741841139e-05 7.053179550432e-07 5.553701435461e-04 0.000000000000e+00 2.563692888491e+07 2.855850314182e+07  5.463909044847e-04
1.860000000000e+02 3.767070137304e+06 1.000000000000e+00 5.367399317868e+01 0.000000000000e+00 2.311209652039e-02 -4.349172217461e+07 9.526857515446e+03 -9.925291762911e+06 -2.314008268783e+07 1.568477533320e-05 6.276378537974e-07 5.862982565954e-04 0.000000000000e+00 2.551903220845e+07 2.928758887429e+07  5.786163523605e-04
2.720000000000e+02 4.057393745366e+06 1.000000000000e+00 5.333862578740e+01 0.000000000000e+00 2.277587582618e-02 -4.327561498554e+07 8.952661399208e+03 -9.686595594763e+06 -2.288536824310e+07 1.425079155122e-05 5.849832851625e-07 5.857032920364e-04 0.000000000000e+00 2.528252627447e+07 2.931034344881e+07  5.787103960123e-04
3.580000000000e+02 4.198760828878e+06 1.000000000000e+00 5.291604569850e+01 0.000000000000e+00 2.242404700686e-02 -4.303667402825e+07 8.596139304234e+03 -9.547493788478e+06 -2.262349325649e+07 1.339895617633e-05 5.584987866787e-07 5.811431453386e-04 0.000000000000e+00 2.506922035774e+07 2.923358811198e+07  5.745616691242e-04
4.440000000000e+02 4.270890553149e+06 1.000000000000e+00 5.250802911794e+01 0.000000000000e+00 2.209482778134e-02 -4.282083446306e+07 8.344215596698e+03 -9.468263398466e+06 -2.239178625604e+07 1.280959429519e-05 5.397844541190e-07 5.754797283795e-04 0.000000000000e+00 2.489362803919e+07 2.912694515453e+07  5.691838154216e-04
5.300000000000e+02 4.309855588322e+06 1.000000000000e+00 5.214927465920e+01 0.000000000000e+00 2.180949580682e-02 -4.263723427514e+07 8.160680515820e+03 -9.421391561574e+06 -2.219681171711e+07 1.238711840083e-05 5.261504195395e-07 5.699787708754e-04 0.000000000000e+00 2.475181251794e+07 2.901994866686e+07  5.638879994581e-04
6.160000000000e+02 4.332371405394e+06 1.000000000000e+00 5.184945747612e+01 0.000000000000e+00 2.157301155509e-02 -4.248705312024e+07 8.026868604463e+03 -9.394135147438e+06 -2.203845332095e+07 1.208339229679e-05 5.162101061244e-07 5.651092686860e-04 0.000000000000e+00 2.463988052954e+07 2.892374130678e+07  5.591662153231e-04
7.020000000000e+02 4.346181928998e+06 1.000000000000e+00 5.161929376212e+01 0.000000000000e+00 2.139160499489e-02 -4.237301204209e+07 7.930630507799e+03 -9.377630879256e+06 -2.191859581664e+07 1.186735361094e-05 5.090609903722e-07 5.612704342012e-04 0.000000000000e+00 2.455641291266e+07 2.884748256031e+07  5.554325495552e-04
7.880000000000e+02 4.355800657703e+06 1.000000000000e+00 5.141141553677e+01 0.000000000000e+00 2.122813163548e-02 -4.227422337460e+07 7.861212625120e+03 -9.376237944947e+06 -2.181569451303e+07 1.171459855522e-05 5.039042333732e-07 5.575001233415e-04 0.000000000000e+00 2.448871861086e+07 2.877124692302e+07  5.517367950065e-04
8.740000000000e+02 4.364186902747e+06 1.000000000000e+00 5.110955643582e+01 0.000000000000e+00 2.099704573931e-02 -4.212441644029e+07 7.742827716531e+03 -9.354962383339e+06 -2.165856800364e+07 1.144272862354e-05 4.951099258780e-07 5.524542309953e-04 0.000000000000e+00 2.437931560909e+07 2.867112783264e+07  5.468233397929e-04
9.370000000000e+02 4.369560866174e+06 1.000000000000e+00 5.085470718014e+01 0.000000000000e+00 2.080711076842e-02 -4.200079799817e+07 7.672246902898e+03 -9.350149222865e+06 -2.153075892075e+07 1.128707625189e-05 4.898667797224e-07 5.478858110195e-04 0.000000000000e+00 2.429390204726e+07 2.857844442121e+07  5.423310345065e-04
1.000000000000e+03 4.373750967670e+06 1.000000000000e+00 5.063409317228e+01 0.000000000000e+00 2.064808599400e-02 -4.189214767028e+07 7.621783046995e+03 -9.344702957005e+06 -2.141925498775e+07 1.118108520495e-05 4.861180361410e-07 5.439465262403e-04 0.000000000000e+00 2.421870187168e+07 2.849798806449e+07  5.384437171614e-04
1.100000000000e+03 4.377896344590e+06 1.000000000000e+00 5.039952478691e+01 0.000000000000e+00 2.048171186900e-02 -4.177599312440e+07 7.574502487962e+03 -9.338966217937e+06 -2.130053191449e+07 1.108568275931e-05 4.826057660414e-07 5.397498909702e-04 0.000000000000e+00 2.413849708561e+07 2.841200999966e+07  5.342939638709e-04
1.200000000000e+03 4.381157757110e+06 1.000000000000e+00 5.020666365626e+01 0.000000000000e+00 2.034344839500e-02 -4.168094526707e+07 7.531464606258e+03 -9.334257603295e+06 -2.120305381617e+07 1.099541666584e-05 4.794086662577e-07 5.363041672909e-04 0.000000000000e+00 2.407275222885e+07 2.834184984235e+07  5.308925133775e-04
1.300000000000e+03 4.384063158280e+06 1.000000000000e+00 5.002355940255e+01 0.000000000000e+00 2.021184910640e-02 -4.159090605939e+07 7.489565477194e+03 -9.329941439274e+06 -2.111061355660e+07 1.090623473825e-05 4.762961595272e-07 5.330309865989e-04 0.000000000000e+00 2.401048701842e+07 2.827540266130e+07  5.276630536074e-04
1.400000000000e+03 4.386802694110e+06 1.000000000000e+00 4.983346618981e+01 0.000000000000e+00 2.007587303840e-02 -4.149746197836e+07 7.447411117819e+03 -9.325766545068e+06 -2.101474941263e+07 1.081634668620e-05 4.731646928308e-07 5.296253858933e-04 0.000000000000e+00 2.394599264535e+07 2.820631271865e+07  5.243015378626e-04
1.500000000000e+03 4.389442600510e+06 1.000000000000e+00 4.962660281772e+01 0.000000000000e+00 1.992907992300e-02 -4.139571748408e+07 7.404184952067e+03 -9.321624154494e+06 -2.091053611295e+07 1.072464820002e-05 4.699536062321e-07 5.259084664123e-04 0.000000000000e+00 2.387595925051e+07 2.813088452249e+07  5.206296307402e-04
1.600000000000e+03 4.392003663130e+06 1.000000000000e+00 4.939698227315e+01 0.000000000000e+00 1.976752180740e-02 -4.128268516301e+07 7.359412791683e+03 -9.317472479477e+06 -2.079496914159e+07 1.063050404649e-05 4.666276743178e-07 5.217701839768e-04 0.000000000000e+00 2.379837559469e+07 2.804687669128e+07  5.165376130308e-04
1.700000000000e+03 4.394490967350e+06 1.000000000000e+00 4.914090603614e+01 0.000000000000e+00 1.958875601360e-02 -4.115652251718e+07 7.312792263960e+03 -9.313290898825e+06 -2.066619490046e+07 1.053350193524e-05 4.631644351156e-07 5.171424565876e-04 0.000000000000e+00 2.371200277215e+07 2.795293970115e+07  5.119576130551e-04
1.800000000000e+03 4.396904398280e+06 1.000000000000e+00 4.885614509573e+01 0.000000000000e+00 1.939130946880e-02 -4.101611891138e+07 7.264141247240e+03 -9.309066570592e+06 -2.052309607722e+07 1.043339385880e-05 4.595503595878e-07 5.119842610586e-04 0.000000000000e+00 2.361609385306e+07 2.784830270775e+07  5.068487342330e-04
1.900000000000e+03 4.399243705860e+06 1.000000000000e+00 4.854145211274e+01 0.000000000000e+00 1.917434646960e-02 -4.086085759546e+07 7.213352558382e+03 -9.304803379809e+06 -2.036505216674e+07 1.033004034656e-05 4.557774855583e-07 5.062724057558e-04 0.000000000000e+00 2.351023771401e+07 2.773258023748e+07  5.011878563821e-04
2.000000000000e+03 4.401508073670e+06 1.000000000000e+00 4.819625178811e+01 0.000000000000e+00 1.893748703050e-02 -4.069044922769e+07 7.160384469406e+03 -9.300493403850e+06 -2.019177258254e+07 1.022339516483e-05 4.518427132344e-07 4.999963917354e-04 0.000000000000e+00 2.339423840470e+07 2.760566373591e+07  4.949645051404e-04