 TITLE = "Time curves in points"
 VARIABLES = "TIME"  "PRESSURE1"  "SATURATION1"  "TEMPERATURE1"  "DISPLACEMENT_X1"  "DISPLACEMENT_Y1"  "STRESS_XX"  "STRESS_XY"  "STRESS_YY"  "STRESS_ZZ"  "STRAIN_XX"  "STRAIN_XY"  "STRAIN_YY"  "STRAIN_PLS"  p_(1st_Invariant)  q_(2nd_Invariant)   Effective_Strain
 ZONE T="POINT=POINT9"
0.000000000000e+00 1.000000000000e+05 1.000000000000e+00 2.500000000000e+01 0.000000000000e+00 0.000000000000e+00 -6.854419775061e+07 7.586938602830e+05 -6.954707405871e+06 -1.965222756120e+07 0.000000000000e+00 0.000000000000e+00 0.000000000000e+00 0.000000000000e+00 3.171704423923e+07 5.633990941714e+07  0.000000000000e+00
1.000000000000e-03 1.375363589691e+05 1.000000000000e+00 2.500341806563e+01 0.000000000000e+00 6.387954842637e-05 -6.866534984254e+07 7.657313366674e+05 -6.992247739765e+06 -1.970092210760e+07 -2.691280262493e-06 5.227839599816e-07 4.142993216353e-07 0.000000000000e+00 3.178617322997e+07 5.641859258018e+07  3.057701452515e-06
2.000000000000e-03 1.596543478277e+05 1.000000000000e+00 2.501822531954e+01 0.000000000000e+00 6.381953788316e-05 -6.865311026514e+07 7.656398098701e+05 -6.990609974561e+06 -1.970151842637e+07 -2.214518405155e-06 5.159848264685e-07 4.972795833822e-07 0.000000000000e+00 3.178174622203e+07 5.640747603473e+07  2.655434910549e-06
3.000000000000e-03 1.750698885853e+05 1.000000000000e+00 2.505296841804e+01 0.000000000000e+00 6.391505409048e-05 -6.865031664670e+07 7.656958466023e+05 -6.994685645390e+06 -1.971317465897e+07 -1.677809652012e-06 5.201475551472e-07 7.788433062123e-07 0.000000000000e+00 3.178605898368e+07 5.639830850150e+07  2.353731798222e-06
4.000000000000e-03 1.857698591436e+05 1.000000000000e+00 2.511280776572e+01 0.000000000000e+00 6.399976081454e-05 -6.865935862779e+07 7.659552703660e+05 -7.003335736770e+06 -1.973805029949e+07 -1.089702301586e-06 5.394190347356e-07 1.381506560167e-06 0.000000000000e+00 3.180024822135e+07 5.639349540125e+07  2.339735251100e-06
1.000000000000e-02 2.016789261239e+05 1.000000000000e+00 2.596898026496e+01 0.000000000000e+00 6.524470263303e-05 -6.895668126238e+07 7.708127802366e+05 -7.105303277732e+06 -2.014545962703e+07 2.999232007950e-06 9.002626251272e-07 1.272648720454e-05 0.000000000000e+00 3.206914805572e+07 5.648778145671e+07  1.162843926823e-05
2.000000000000e-02 1.999775693425e+05 1.000000000000e+00 2.761199769072e+01 0.000000000000e+00 7.026693582640e-05 -6.958321607162e+07 7.794465264199e+05 -7.285132498610e+06 -2.094712139283e+07 9.503947537035e-06 1.541626627311e-06 3.582312458727e-05 0.000000000000e+00 3.260515665436e+07 5.673101481706e+07  3.225352717558e-05
3.000000000000e-02 1.899417041039e+05 1.000000000000e+00 2.912015475881e+01 0.000000000000e+00 7.716610182214e-05 -7.016827297224e+07 7.866971528545e+05 -7.451969777190e+06 -2.169035581877e+07 1.537911276340e-05 2.080244591024e-06 5.723216148907e-05 0.000000000000e+00 3.310353285606e+07 5.696441051008e+07  5.142800604284e-05
4.000000000000e-02 1.766791368651e+05 1.000000000000e+00 3.042921154463e+01 0.000000000000e+00 8.623139390155e-05 -7.067322201994e+07 7.924278442776e+05 -7.604839651216e+06 -2.233915972848e+07 2.072229335220e-05 2.505953096742e-06 7.565256852893e-05 0.000000000000e+00 3.353907379988e+07 5.716060825285e+07  6.785181833721e-05
5.000000000000e-02 1.624755378777e+05 1.000000000000e+00 3.155419129749e+01 0.000000000000e+00 9.596797926056e-05 -7.110235288384e+07 7.969474208798e+05 -7.745056803414e+06 -2.289918361625e+07 2.558403423907e-05 2.841693072906e-06 9.124539013592e-05 0.000000000000e+00 3.391553110117e+07 5.731993895963e+07  8.167046285022e-05
6.000000000000e-02 1.480496728640e+05 1.000000000000e+00 3.252596160028e+01 0.000000000000e+00 1.079618339599e-04 -7.146765035209e+07 8.005020591127e+05 -7.873137767700e+06 -2.338416991578e+07 3.002961940072e-05 3.105751913060e-06 1.045018740163e-04 0.000000000000e+00 3.424165267852e+07 5.744876004447e+07  9.334455150531e-05
7.000000000000e-02 1.342905968549e+05 1.000000000000e+00 3.337380904241e+01 0.000000000000e+00 1.195524131117e-04 -7.178303416577e+07 8.033585824536e+05 -7.991427065910e+06 -2.380875730964e+07 3.408575237863e-05 3.317950789815e-06 1.158786604259e-04 0.000000000000e+00 3.452773951377e+07 5.755415112033e+07  1.033098133016e-04
8.000000000000e-02 1.218339410025e+05 1.000000000000e+00 3.412173995213e+01 0.000000000000e+00 1.317510505149e-04 -7.205682326819e+07 8.056449183348e+05 -8.102108163807e+06 -2.418419946002e+07 3.786143701733e-05 3.487792883850e-06 1.257126423754e-04 0.000000000000e+00 3.478104363067e+07 5.763905679844e+07  1.118659450952e-04
9.000000000000e-02 1.115908125434e+05 1.000000000000e+00 3.478854389704e+01 0.000000000000e+00 1.429734811429e-04 -7.229757678318e+07 8.075001084458e+05 -8.207341587919e+06 -2.452010249776e+07 4.139556214815e-05 3.625607006378e-06 1.342803708818e-04 0.000000000000e+00 3.500834028962e+07 5.770729504807e+07  1.192712631361e-04
1.000000000000e-01 1.045672294376e+05 1.000000000000e+00 3.538879911632e+01 0.000000000000e+00 1.531457016132e-04 -7.251286191047e+07 8.090489256589e+05 -8.306468330245e+06 -2.482352179270e+07 4.466911694659e-05 3.740661999351e-06 1.418683799788e-04 0.000000000000e+00 3.521428401114e+07 5.776449841171e+07  1.258046487491e-04
2.000000000000e-01 1.257459073664e+05 1.000000000000e+00 3.885749510603e+01 0.000000000000e+00 2.871768427260e-04 -7.370937098418e+07 8.145553911704e+05 -8.947710262730e+06 -2.658561295521e+07 6.567645167304e-05 4.149713723064e-06 1.834999228081e-04 0.000000000000e+00 3.641423140071e+07 5.800774898440e+07  1.612006654285e-04
3.000000000000e-01 1.562400344316e+05 1.000000000000e+00 4.116519335709e+01 0.000000000000e+00 4.352718866022e-04 -7.440568058321e+07 8.142745699617e+05 -9.492579429413e+06 -2.776434675740e+07 8.359506493332e-05 4.128852718990e-06 2.070434664127e-04 0.000000000000e+00 3.722086892334e+07 5.799551906050e+07  1.805504420403e-04
4.000000000000e-01 1.873099579768e+05 1.000000000000e+00 4.284986299412e+01 0.000000000000e+00 5.756745820418e-04 -7.486280586307e+07 8.114226348949e+05 -9.978804702278e+06 -2.863639541362e+07 9.900650462702e-05 3.916994685458e-06 2.213740492232e-04 0.000000000000e+00 3.782600199299e+07 5.787430673875e+07  1.921908305339e-04
5.000000000000e-01 2.167971561645e+05 1.000000000000e+00 4.415870677105e+01 0.000000000000e+00 7.111835411608e-04 -7.517251348327e+07 8.073543719835e+05 -1.043458595927e+07 -2.932386479692e+07 1.130376558277e-04 3.614780869180e-06 2.299796082004e-04 0.000000000000e+00 3.831032141315e+07 5.767934477768e+07  1.992761298954e-04
6.000000000000e-01 2.441751622672e+05 1.000000000000e+00 4.522029184852e+01 0.000000000000e+00 8.426815714779e-04 -7.538956728745e+07 8.024004530414e+05 -1.087130349548e+07 -2.989143119361e+07 1.260566949781e-04 3.246775462051e-06 2.348397087326e-04 0.000000000000e+00 3.871743399218e+07 5.743829335609e+07  2.036381257689e-04
7.000000000000e-01 2.695236793827e+05 1.000000000000e+00 4.610823858705e+01 0.000000000000e+00 9.701286101515e-04 -7.555234230981e+07 7.970963215958e+05 -1.128419289599e+07 -3.037487647833e+07 1.379673047229e-04 2.852754268949e-06 2.374603558601e-04 0.000000000000e+00 3.907047056138e+07 5.718244845644e+07  2.066035990052e-04
8.000000000000e-01 2.931001250057e+05 1.000000000000e+00 4.686835872746e+01 0.000000000000e+00 1.093377324982e-03 -7.569118705253e+07 7.920499330481e+05 -1.166399782973e+07 -3.079652296840e+07 1.484713696245e-04 2.477879691122e-06 2.390144708096e-04 0.000000000000e+00 3.938390261688e+07 5.694220490884e+07  2.090532914754e-04
9.000000000000e-01 3.149678576752e+05 1.000000000000e+00 4.753046133627e+01 0.000000000000e+00 1.213138299235e-03 -7.580630369341e+07 7.872701162541e+05 -1.202241125910e+07 -3.117035922181e+07 1.580809552326e-04 2.122807586428e-06 2.395873185598e-04 0.000000000000e+00 3.966635805811e+07 5.670588659717e+07  2.110236915100e-04
1.000000000000e+00 3.353127068989e+05 1.000000000000e+00 4.811530493389e+01 0.000000000000e+00 1.329641302195e-03 -7.590679502760e+07 7.828143195255e+05 -1.236416308841e+07 -3.150779219199e+07 1.668816445698e-04 1.791805543727e-06 2.394269037920e-04 0.000000000000e+00 3.992625010267e+07 5.647606949569e+07  2.126697011706e-04
2.000000000000e+00 4.697379131332e+05 1.000000000000e+00 5.129669003549e+01 0.000000000000e+00 2.283863655054e-03 -7.647255934442e+07 7.492307245891e+05 -1.500473649541e+07 -3.358441650317e+07 2.229993015028e-04 -7.029757944057e-07 2.184802230902e-04 0.000000000000e+00 4.168723744767e+07 5.461803104943e+07  2.207778107870e-04
3.000000000000e+00 5.733073282760e+05 1.000000000000e+00 5.334711567617e+01 0.000000000000e+00 3.095758825147e-03 -7.682137863971e+07 7.217812006805e+05 -1.722434038080e+07 -3.507405025067e+07 2.653724097279e-04 -2.742083284755e-06 1.913670465401e-04 0.000000000000e+00 4.303992309039e+07 5.299237845155e+07  2.372401423150e-04
4.000000000000e+00 6.596594526311e+05 1.000000000000e+00 5.484331776306e+01 0.000000000000e+00 3.801615312930e-03 -7.706891103704e+07 6.987437643032e+05 -1.912925132364e+07 -3.624493761161e+07 2.996684512334e-04 -4.453435701358e-06 1.641033134978e-04 0.000000000000e+00 4.414769999076e+07 5.157265335496e+07  2.600269056003e-04
5.000000000000e+00 7.354601095239e+05 1.000000000000e+00 5.604440420721e+01 0.000000000000e+00 4.425797662678e-03 -7.727299521874e+07 6.792077725157e+05 -2.078311801500e+07 -3.722408638619e+07 3.284565646833e-04 -5.904680805574e-06 1.390423623032e-04 0.000000000000e+00 4.509339987331e+07 5.033932213162e+07  2.857476377805e-04
6.000000000000e+00 8.041390168034e+05 1.000000000000e+00 5.709454643067e+01 0.000000000000e+00 4.987978150275e-03 -7.744243682644e+07 6.618681682638e+05 -2.226617422747e+07 -3.808855604903e+07 3.542718924458e-04 -7.192765692855e-06 1.160662904602e-04 0.000000000000e+00 4.593238903431e+07 4.922460802268e+07  3.130752957721e-04
7.000000000000e+00 8.678837899245e+05 1.000000000000e+00 5.796631024017e+01 0.000000000000e+00 5.496238934936e-03 -7.757863817690e+07 6.462967543536e+05 -2.358330058090e+07 -3.883092387035e+07 3.767866470775e-04 -8.349499297616e-06 9.471811640998e-05 0.000000000000e+00 4.666428754272e+07 4.822799010447e+07  3.397945260126e-04
8.000000000000e+00 9.273815367560e+05 1.000000000000e+00 5.880767264491e+01 0.000000000000e+00 5.963282110697e-03 -7.773335483396e+07 6.327705719624e+05 -2.477368790049e+07 -3.952986023762e+07 3.970005220278e-04 -9.354301418104e-06 7.646422389496e-05 0.000000000000e+00 4.734563432402e+07 4.735177047746e+07  3.651881215052e-04
9.000000000000e+00 9.837160278318e+05 1.000000000000e+00 5.957121469890e+01 0.000000000000e+00 6.395467894784e-03 -7.786961548639e+07 6.203870190733e+05 -2.586439426733e+07 -4.016608903895e+07 4.155707675589e-04 -1.027422248986e-05 5.958362860478e-05 0.000000000000e+00 4.796669959756e+07 4.654539018139e+07  3.896212729270e-04
1.000000000000e+01 1.037379889223e+06 1.000000000000e+00 6.026073641101e+01 0.000000000000e+00 6.797360938870e-03 -7.798344450043e+07 6.088194532545e+05 -2.687306228129e+07 -4.074505125276e+07 4.328471435500e-04 -1.113352737926e-05 4.362312745621e-05 0.000000000000e+00 4.853385267816e+07 4.579096606886e+07  4.132182802249e-04
1.100000000000e+01 1.088673728867e+06 1.000000000000e+00 6.090878588780e+01 0.000000000000e+00 7.173098849119e-03 -7.810066641968e+07 5.982812898834e+05 -2.780352760681e+07 -4.128695983250e+07 4.486212195111e-04 -1.191636237254e-05 2.919101975601e-05 0.000000000000e+00 4.906371795300e+07 4.510544176174e+07  4.352509648753e-04
1.200000000000e+01 1.137991997935e+06 1.000000000000e+00 6.149982004481e+01 0.000000000000e+00 7.525251908570e-03 -7.821049873048e+07 5.886566757424e+05 -2.866039472151e+07 -4.178461485244e+07 4.630260629934e-04 -1.263133370873e-05 1.584885623622e-05 0.000000000000e+00 4.955183610148e+07 4.447685958863e+07  4.558338946623e-04
1.300000000000e+01 1.185597008333e+06 1.000000000000e+00 6.203604871768e+01 0.000000000000e+00 7.856353384689e-03 -7.830510791991e+07 5.795560282702e+05 -2.946173559485e+07 -4.224186343051e+07 4.764955260003e-04 -1.330738180667e-05 3.068285269461e-06 0.000000000000e+00 5.000290231509e+07 4.388382163065e+07  4.755277444072e-04
1.400000000000e+01 1.232205376244e+06 1.000000000000e+00 6.252137197229e+01 0.000000000000e+00 8.168270098866e-03 -7.838746491783e+07 5.709771985639e+05 -3.020985374338e+07 -4.266165377303e+07 4.890287645139e-04 -1.394466629913e-05 -9.126747525390e-06 0.000000000000e+00 5.041965747808e+07 4.332677702170e+07  4.942459238713e-04
1.500000000000e+01 1.277367068418e+06 1.000000000000e+00 6.295962029591e+01 0.000000000000e+00 8.462071807043e-03 -7.846087202486e+07 5.629751089014e+05 -3.090544471048e+07 -4.304652533137e+07 5.005974441338e-04 -1.453910724549e-05 -2.066775413654e-05 0.000000000000e+00 5.080428068890e+07 4.280772186921e+07  5.118645709068e-04
1.600000000000e+01 1.321228595387e+06 1.000000000000e+00 6.335431152615e+01 0.000000000000e+00 8.739395819077e-03 -7.851961811463e+07 5.553108240943e+05 -3.155998437739e+07 -4.339943856432e+07 5.115236523093e-04 -1.510845411687e-05 -3.187102168368e-05 0.000000000000e+00 5.115968035211e+07 4.231227427410e+07  5.288286929308e-04
1.700000000000e+01 1.363922199809e+06 1.000000000000e+00 6.370850785820e+01 0.000000000000e+00 9.001651331323e-03 -7.855871032530e+07 5.478836147961e+05 -3.218211423767e+07 -4.372256004989e+07 5.220733110913e-04 -1.566018966474e-05 -4.297704702993e-05 0.000000000000e+00 5.148779487096e+07 4.182899101677e+07  5.455093606805e-04
1.800000000000e+01 1.405587802916e+06 1.000000000000e+00 6.402490199352e+01 0.000000000000e+00 9.249914034122e-03 -7.857747243638e+07 5.406053158288e+05 -3.277647110252e+07 -4.401802049960e+07 5.323506779546e-04 -1.620086330231e-05 -5.407891387809e-05 0.000000000000e+00 5.179065467950e+07 4.135343636777e+07  5.620481506297e-04
1.900000000000e+01 1.446313785953e+06 1.000000000000e+00 6.430589182614e+01 0.000000000000e+00 9.485049084563e-03 -7.857627099132e+07 5.334172305382e+05 -3.334518101200e+07 -4.428740669722e+07 5.424010761115e-04 -1.673483535247e-05 -6.519665174700e-05 0.000000000000e+00 5.206961956685e+07 4.088408750292e+07  5.784915115844e-04
2.000000000000e+01 1.486183570755e+06 1.000000000000e+00 6.455355167662e+01 0.000000000000e+00 9.707059389187e-03 -7.857134957310e+07 5.266942335734e+05 -3.387329977715e+07 -4.453183475454e+07 5.516626280598e-04 -1.723425798414e-05 -7.573373518087e-05 0.000000000000e+00 5.232549470159e+07 4.044671206293e+07  5.939173209881e-04
2.100000000000e+01 1.525125187764e+06 1.000000000000e+00 6.481651432677e+01 0.000000000000e+00 9.919206077844e-03 -7.857726068550e+07 5.204640504327e+05 -3.437808810787e+07 -4.477772283608e+07 5.605760583424e-04 -1.769707158888e-05 -8.535003015039e-05 0.000000000000e+00 5.257769054315e+07 4.003594206977e+07  6.085350337844e-04
2.200000000000e+01 1.563296828247e+06 1.000000000000e+00 6.506310005153e+01 0.000000000000e+00 1.012221726829e-02 -7.857346795569e+07 5.143447494835e+05 -3.486521686875e+07 -4.500966370549e+07 5.693318777417e-04 -1.815164823082e-05 -9.482843754812e-05 0.000000000000e+00 5.281611617664e+07 3.963229285302e+07  6.229835623785e-04
2.300000000000e+01 1.600764538218e+06 1.000000000000e+00 6.528885293821e+01 0.000000000000e+00 1.031571753834e-02 -7.857295655823e+07 5.086464611792e+05 -3.531981258346e+07 -4.522553703679e+07 5.773690248103e-04 -1.857494964771e-05 -1.036952689314e-04 0.000000000000e+00 5.303943539283e+07 3.925914260858e+07  6.364064913031e-04
2.400000000000e+01 1.637574350694e+06 1.000000000000e+00 6.549323240318e+01 0.000000000000e+00 1.050047174574e-02 -7.856713396293e+07 5.031590059476e+05 -3.575234855485e+07 -4.542571831498e+07 5.850205972540e-04 -1.898258917920e-05 -1.123255861078e-04 0.000000000000e+00 5.324840027759e+07 3.890085074338e+07  6.493534738903e-04
2.500000000000e+01 1.673781468387e+06 1.000000000000e+00 6.567656819956e+01 0.000000000000e+00 1.067691014970e-02 -7.855338982653e+07 4.978001345913e+05 -3.616580576827e+07 -4.561043426473e+07 5.923919718826e-04 -1.938067676567e-05 -1.208216901866e-04 0.000000000000e+00 5.344320995317e+07 3.855277837409e+07  6.619869789973e-04
2.600000000000e+01 1.709418522054e+06 1.000000000000e+00 6.583945686769e+01 0.000000000000e+00 1.084541152737e-02 -7.853028406581e+07 4.925831340640e+05 -3.656185930153e+07 -4.577996424949e+07 5.995470138576e-04 -1.976822537627e-05 -1.292354219880e-04 0.000000000000e+00 5.362403587228e+07 3.821231092829e+07  6.743986029516e-04
2.700000000000e+01 1.744518245017e+06 1.000000000000e+00 6.598257449113e+01 0.000000000000e+00 1.100631189639e-02 -7.849677313022e+07 4.874344256498e+05 -3.694260529407e+07 -4.593486069492e+07 6.065450022954e-04 -2.015070085847e-05 -1.376241194523e-04 0.000000000000e+00 5.379141303973e+07 3.787686112331e+07  6.866808663047e-04
2.800000000000e+01 1.779123728188e+06 1.000000000000e+00 6.610660116461e+01 0.000000000000e+00 1.116000344060e-02 -7.845090851555e+07 4.822818854734e+05 -3.731134232939e+07 -4.607576665179e+07 6.134821949528e-04 -2.053346098585e-05 -1.460864166517e-04 0.000000000000e+00 5.394600583224e+07 3.754213915914e+07  6.989906503342e-04
2.900000000000e+01 1.813258571779e+06 1.000000000000e+00 6.621219502953e+01 0.000000000000e+00 1.130672051717e-02 -7.839298448822e+07 4.771540711229e+05 -3.766782912457e+07 -4.620292834235e+07 6.203568073313e-04 -2.091438433760e-05 -1.546042062520e-04 0.000000000000e+00 5.408791398504e+07 3.720854719531e+07  7.113135983518e-04
3.000000000000e+01 1.846933373120e+06 1.000000000000e+00 6.629998114533e+01 0.000000000000e+00 1.144674966605e-02 -7.832283072057e+07 4.720102034092e+05 -3.801400662049e+07 -4.631709573558e+07 6.272030218784e-04 -2.129650022491e-05 -1.632217243520e-04 0.000000000000e+00 5.421797769221e+07 3.687442489657e+07  7.237117820439e-04
3.100000000000e+01 1.880068624474e+06 1.000000000000e+00 6.640753112562e+01 0.000000000000e+00 1.158200598339e-02 -7.825754760151e+07 4.670464024101e+05 -3.835447705931e+07 -4.643781349723e+07 6.341116260189e-04 -2.166523972770e-05 -1.713839666469e-04 0.000000000000e+00 5.434994605268e+07 3.654722724902e+07  7.359040235502e-04
3.200000000000e+01 1.912746249129e+06 1.000000000000e+00 6.650903867135e+01 0.000000000000e+00 1.171272918589e-02 -7.818267544915e+07 4.620053234605e+05 -3.869183573221e+07 -4.655260088264e+07 6.411561231359e-04 -2.203971987824e-05 -1.796509001821e-04 0.000000000000e+00 5.447570402133e+07 3.621505461059e+07  7.483295681761e-04
3.300000000000e+01 1.944992531707e+06 1.000000000000e+00 6.660028914584e+01 0.000000000000e+00 1.183898393582e-02 -7.809620484336e+07 4.568540935110e+05 -3.902617700737e+07 -4.665941292151e+07 6.483351927947e-04 -2.242238267449e-05 -1.881019861017e-04 0.000000000000e+00 5.459393159075e+07 3.587657694053e+07  7.610402791905e-04
3.400000000000e+01 1.976830069253e+06 1.000000000000e+00 6.668024522067e+01 0.000000000000e+00 1.196076317761e-02 -7.799854002233e+07 4.516089659296e+05 -3.935672105715e+07 -4.675777431625e+07 6.556161665234e-04 -2.281202072340e-05 -1.967259132888e-04 0.000000000000e+00 5.470434513191e+07 3.553290663690e+07  7.739970909252e-04
3.500000000000e+01 2.008299353080e+06 1.000000000000e+00 6.674866227776e+01 0.000000000000e+00 1.207845925981e-02 -7.788322188486e+07 4.461610782459e+05 -3.968996577313e+07 -4.684761119390e+07 6.632362099423e-04 -2.321672095133e-05 -2.057667758553e-04 0.000000000000e+00 5.480693295063e+07 3.517357097021e+07  7.875984136411e-04
3.600000000000e+01 2.039444665063e+06 1.000000000000e+00 6.680556849251e+01 0.000000000000e+00 1.219253289061e-02 -7.774154622639e+07 4.402518461246e+05 -4.003528048321e+07 -4.692913296928e+07 6.715264003425e-04 -2.365569248034e-05 -2.155647991443e-04 0.000000000000e+00 5.490198655963e+07 3.478401514524e+07  8.024039618279e-04
3.700000000000e+01 2.070350556992e+06 1.000000000000e+00 6.685110766982e+01 0.000000000000e+00 1.230438477808e-02 -7.754589636236e+07 4.332697490853e+05 -4.042041540319e+07 -4.700243003355e+07 6.815158576791e-04 -2.417436254611e-05 -2.271473480707e-04 0.000000000000e+00 5.498958059970e+07 3.431948371170e+07  8.201326119336e-04
3.800000000000e+01 2.103243222911e+06 1.000000000000e+00 6.688581947385e+01 0.000000000000e+00 1.245584021708e-02 -7.641050051163e+07 4.044683112902e+05 -4.173580877563e+07 -4.706909036584e+07 7.261636587626e-04 -2.631389792518e-05 -2.735288609905e-04 0.000000000000e+00 5.507179988437e+07 3.234716414572e+07  8.960109816561e-04
3.900000000000e+01 2.133056539558e+06 1.000000000000e+00 6.690898290706e+01 0.000000000000e+00 1.254539892867e-02 -7.650218650582e+07 4.043860551294e+05 -4.181020390813e+07 -4.712753560491e+07 7.249290021440e-04 -2.632000838283e-05 -2.741212856034e-04 0.000000000000e+00 5.514664200629e+07 3.237019429176e+07  8.952436740537e-04
4.000000000000e+01 2.162442327634e+06 1.000000000000e+00 6.692119997969e+01 0.000000000000e+00 1.262784856019e-02 -7.663428526034e+07 4.053651450500e+05 -4.181914790266e+07 -4.717463820722e+07 7.217720022051e-04 -2.624727598874e-05 -2.727039658858e-04 0.000000000000e+00 5.520935712341e+07 3.247792939471e+07  8.911897228615e-04
4.200000000000e+01 2.219725185797e+06 1.000000000000e+00 6.697479430470e+01 0.000000000000e+00 1.278238907423e-02 -7.689018570906e+07 4.073222443640e+05 -4.183719424366e+07 -4.727641916794e+07 7.160475640791e-04 -2.610189146827e-05 -2.695938228677e-04 0.000000000000e+00 5.533459970689e+07 3.268231949898e+07  8.834539431809e-04
4.400000000000e+01 2.275490822840e+06 1.000000000000e+00 6.700716833757e+01 0.000000000000e+00 1.292649165895e-02 -7.711642336143e+07 4.089907629447e+05 -4.185246548383e+07 -4.736103672266e+07 7.107873890234e-04 -2.597794437370e-05 -2.670181026130e-04 0.000000000000e+00 5.544330852264e+07 3.286546635128e+07  8.765472264959e-04
5.000000000000e+01 2.427012687568e+06 1.000000000000e+00 6.679475867123e+01 0.000000000000e+00 1.322761035355e-02 -7.744556705046e+07 4.106160222929e+05 -4.186519005447e+07 -4.739175208148e+07 6.997029081874e-04 -2.585721082212e-05 -2.663498733376e-04 0.000000000000e+00 5.556750306214e+07 3.317189731016e+07  8.653889193750e-04
6.500000000000e+01 2.758397042868e+06 1.000000000000e+00 6.601327623856e+01 0.000000000000e+00 1.373996987040e-02 -7.760193470941e+07 4.085133702921e+05 -4.183776951679e+07 -4.716171153625e+07 6.853506034606e-04 -2.601340782790e-05 -2.738757593323e-04 0.000000000000e+00 5.553380525415e+07 3.342924136460e+07  8.569973105592e-04
8.000000000000e+01 3.013450390124e+06 1.000000000000e+00 6.501253148982e+01 0.000000000000e+00 1.398349675473e-02 -7.726282999333e+07 4.023239778284e+05 -4.177184526745e+07 -4.669362675510e+07 6.805599153290e-04 -2.647319126806e-05 -2.888131505142e-04 0.000000000000e+00 5.524276733863e+07 3.331126914382e+07  8.632681953427e-04
1.000000000000e+02 3.314130012986e+06 1.000000000000e+00 6.391116451659e+01 0.000000000000e+00 1.418792392193e-02 -7.674510727289e+07 3.943082186023e+05 -4.168803325489e+07 -4.613118161283e+07 6.788987968041e-04 -2.706864766771e-05 -3.065909524745e-04 0.000000000000e+00 5.485477404687e+07 3.306724454942e+07  8.747822313279e-04
1.860000000000e+02 3.912611203897e+06 1.000000000000e+00 6.127460325841e+01 0.000000000000e+00 1.443627155378e-02 -7.506223083967e+07 3.715214951177e+05 -4.145391106592e+07 -4.463988638079e+07 6.860146699909e-04 -2.876137569799e-05 -3.532859512171e-04 0.000000000000e+00 5.371867609546e+07 3.214044810223e+07  9.166613803378e-04
2.720000000000e+02 4.202932547734e+06 1.000000000000e+00 5.927316544670e+01 0.000000000000e+00 1.425158116857e-02 -7.345121377165e+07 3.529018231836e+05 -4.126661907007e+07 -4.340309507642e+07 6.999144840692e-04 -3.014455132739e-05 -3.922673541054e-04 0.000000000000e+00 5.270697597271e+07 3.117731018813e+07  9.597049790413e-04
3.580000000000e+02 4.344298233456e+06 1.000000000000e+00 5.786901889816e+01 0.000000000000e+00 1.405816357394e-02 -7.223101462417e+07 3.392264407676e+05 -4.112976763674e+07 -4.250637902846e+07 7.119295706228e-04 -3.116043687829e-05 -4.204908969342e-04 0.000000000000e+00 5.195572042979e+07 3.044196964607e+07  9.929396407215e-04
4.440000000000e+02 4.416427119135e+06 1.000000000000e+00 5.679914770244e+01 0.000000000000e+00 1.387667550073e-02 -7.127078876264e+07 3.286868471881e+05 -4.102464491695e+07 -4.181356459608e+07 7.218619951342e-04 -3.194337811562e-05 -4.423194462588e-04 0.000000000000e+00 5.136966609189e+07 2.986492824079e+07  1.019355663514e-03
5.300000000000e+02 4.455391631741e+06 1.000000000000e+00 5.597604559742e+01 0.000000000000e+00 1.371916581801e-02 -7.051610432412e+07 3.205156882893e+05 -4.094332572721e+07 -4.127554883152e+07 7.299096887384e-04 -3.255037849096e-05 -4.592824618951e-04 0.000000000000e+00 5.091165962762e+07 2.941331393678e+07  1.040250851354e-03
6.160000000000e+02 4.477907107390e+06 1.000000000000e+00 5.534879673767e+01 0.000000000000e+00 1.358849970593e-02 -6.993157471230e+07 3.142528842672e+05 -4.088107759905e+07 -4.086259067368e+07 7.362823427433e-04 -3.301561536117e-05 -4.723088344262e-04 0.000000000000e+00 5.055841432835e+07 2.906484204828e+07  1.056508433944e-03
7.020000000000e+02 4.491717402700e+06 1.000000000000e+00 5.488766029124e+01 0.000000000000e+00 1.348821149808e-02 -6.949814412333e+07 3.096354474237e+05 -4.083525213634e+07 -4.055784565618e+07 7.410620925411e-04 -3.335862495526e-05 -4.819258464611e-04 0.000000000000e+00 5.029708063862e+07 2.880758972426e+07  1.068597640037e-03
7.880000000000e+02 4.501335964160e+06 1.000000000000e+00 5.452634175001e+01 0.000000000000e+00 1.339764377438e-02 -6.915104612614e+07 3.060134149873e+05 -4.079940719385e+07 -4.031678821464e+07 7.450007417505e-04 -3.362769022197e-05 -4.895480249975e-04 0.000000000000e+00 5.008908051154e+07 2.860091472134e+07  1.078327167599e-03
8.740000000000e+02 4.509722042572e+06 1.000000000000e+00 5.394399363726e+01 0.000000000000e+00 1.327003383431e-02 -6.860370504009e+07 3.001794911495e+05 -4.074150010663e+07 -3.993193596226e+07 7.510360412874e-04 -3.406106742134e-05 -5.016917025605e-04 0.000000000000e+00 4.975904703633e+07 2.828046009412e+07  1.093626407376e-03
9.370000000000e+02 4.515095894190e+06 1.000000000000e+00 5.354017250226e+01 0.000000000000e+00 1.316509666358e-02 -6.820516713979e+07 2.960260863687e+05 -4.070042062756e+07 -3.965899785295e+07 7.557011763807e-04 -3.436960606221e-05 -5.103035945409e-04 0.000000000000e+00 4.952152854010e+07 2.804465378387e+07  1.104841555497e-03
1.000000000000e+03 4.519285919232e+06 1.000000000000e+00 5.322023010413e+01 0.000000000000e+00 1.307740718218e-02 -6.787779472192e+07 2.926293092220e+05 -4.066686448436e+07 -3.943892219246e+07 7.596864845122e-04 -3.462193807882e-05 -5.172314623259e-04 0.000000000000e+00 4.932786046625e+07 2.784982790690e+07  1.114083357497e-03
1.100000000000e+03 4.523431229204e+06 1.000000000000e+00 5.289815656035e+01 0.000000000000e+00 1.298574551955e-02 -6.754091914490e+07 2.891467315275e+05 -4.063250426737e+07 -3.921498161117e+07 7.638812129249e-04 -3.488064385041e-05 -5.242730187144e-04 0.000000000000e+00 4.912946834115e+07 2.764898310843e+07  1.123614254536e-03
1.200000000000e+03 4.526692601801e+06 1.000000000000e+00 5.262163524845e+01 0.000000000000e+00 1.290952463353e-02 -6.725729700833e+07 2.862050340573e+05 -4.060343468324e+07 -3.902454724077e+07 7.673424728114e-04 -3.509916994819e-05 -5.302665679185e-04 0.000000000000e+00 4.896175964411e+07 2.748182037063e+07  1.131631131730e-03
1.300000000000e+03 4.529597975110e+06 1.000000000000e+00 5.235621127184e+01 0.000000000000e+00 1.283696361763e-02 -6.698672199242e+07 2.833966897188e+05 -4.057569388054e+07 -3.884230963293e+07 7.706235765397e-04 -3.530778981334e-05 -5.360050206809e-04 0.000000000000e+00 4.880157516863e+07 2.732340440025e+07  1.139280520793e-03
1.400000000000e+03 4.532337488817e+06 1.000000000000e+00 5.208448046145e+01 0.000000000000e+00 1.276200023819e-02 -6.670890892531e+07 2.805151878801e+05 -4.054723079042e+07 -3.865547649378e+07 7.740028310067e-04 -3.552184423565e-05 -5.418873367875e-04 0.000000000000e+00 4.863720540317e+07 2.716136356083e+07  1.147139923981e-03
1.500000000000e+03 4.534977375631e+06 1.000000000000e+00 5.179637451914e+01 0.000000000000e+00 1.268109795916e-02 -6.641208322946e+07 2.774432555769e+05 -4.051691248437e+07 -3.845665168319e+07 7.776428638878e-04 -3.575004492102e-05 -5.481461498132e-04 0.000000000000e+00 4.846188246567e+07 2.698863227347e+07  1.155546954570e-03
1.600000000000e+03 4.537538419005e+06 1.000000000000e+00 5.148575254413e+01 0.000000000000e+00 1.259208735609e-02 -6.608911943341e+07 2.741076309911e+05 -4.048398361825e+07 -3.824132164974e+07 7.816406893559e-04 -3.599783417597e-05 -5.549210503142e-04 0.000000000000e+00 4.827147490047e+07 2.680114889495e+07  1.164704230198e-03
1.700000000000e+03 4.540025706284e+06 1.000000000000e+00 5.114882396046e+01 0.000000000000e+00 1.249362758053e-02 -6.573557883779e+07 2.704643939914e+05 -4.044803870289e+07 -3.800670644033e+07 7.860579179867e-04 -3.626847463881e-05 -5.623002326645e-04 0.000000000000e+00 4.806344132700e+07 2.659651349007e+07  1.174740549659e-03
1.800000000000e+03 4.542439113240e+06 1.000000000000e+00 5.078330097052e+01 0.000000000000e+00 1.238490966071e-02 -6.534881577993e+07 2.664867224437e+05 -4.040881011528e+07 -3.775113134330e+07 7.909306136744e-04 -3.656395881092e-05 -5.703359601573e-04 0.000000000000e+00 4.783625241283e+07 2.637352286206e+07  1.185732382671e-03
1.900000000000e+03 4.544778403850e+06 1.000000000000e+00 5.038789710238e+01 0.000000000000e+00 1.226547407577e-02 -6.492733729258e+07 2.621589809596e+05 -4.036615126497e+07 -3.747365422828e+07 7.962792360752e-04 -3.688544817831e-05 -5.790577814180e-04 0.000000000000e+00 4.758904759528e+07 2.613173813558e+07  1.197723604476e-03
2.000000000000e+03 4.547042747354e+06 1.000000000000e+00 4.996201034884e+01 0.000000000000e+00 1.213511125877e-02 -6.447043581776e+07 2.574745121511e+05 -4.031998853452e+07 -3.717383004156e+07 8.021135353476e-04 -3.723343728980e-05 -5.884794926508e-04 0.000000000000e+00 4.732141813128e+07 2.587126652187e+07  1.210735557314e-03