 TITLE = "Time curves in points"
 VARIABLES = "TIME"  "PRESSURE1"  "SATURATION1"  "TEMPERATURE1"  "DISPLACEMENT_X1"  "DISPLACEMENT_Y1"  "STRESS_XX"  "STRESS_XY"  "STRESS_YY"  "STRESS_ZZ"  "STRAIN_XX"  "STRAIN_XY"  "STRAIN_YY"  "STRAIN_PLS"  p_(1st_Invariant)  q_(2nd_Invariant)   Effective_Strain
 ZONE T="POINT=POINT9"
0.000000000000e+00 1.000000000000e+05 1.000000000000e+00 2.500000000000e+01 0.000000000000e+00 0.000000000000e+00 -6.854419775061e+07 7.586938602830e+05 -6.954707405871e+06 -1.965222756120e+07 0.000000000000e+00 0.000000000000e+00 0.000000000000e+00 0.000000000000e+00 3.171704423923e+07 5.633990941714e+07  0.000000000000e+00
1.000000000000e-03 1.375363589691e+05 1.000000000000e+00 2.500341806563e+01 0.000000000000e+00 6.387990655568e-05 -6.866535888678e+07 7.657308396863e+05 -6.992230121487e+06 -1.970091953539e+07 -2.691711730765e-06 5.227470413851e-07 4.148581755719e-07 0.000000000000e+00 3.178616951455e+07 5.641861386825e+07  3.058413211618e-06
2.000000000000e-03 1.596543478277e+05 1.000000000000e+00 2.501822531954e+01 0.000000000000e+00 6.381885657089e-05 -6.865311098135e+07 7.656398714034e+05 -6.990599921734e+06 -1.970151562538e+07 -2.214649043758e-06 5.159893975130e-07 4.975489374688e-07 0.000000000000e+00 3.178174217616e+07 5.640748426660e+07  2.655721518875e-06
3.000000000000e-03 1.750698885853e+05 1.000000000000e+00 2.505296841804e+01 0.000000000000e+00 6.391522341500e-05 -6.865031662300e+07 7.656954672814e+05 -6.994685315867e+06 -1.971317455300e+07 -1.677812707693e-06 5.201193770263e-07 7.788516097490e-07 0.000000000000e+00 3.178605883062e+07 5.639830871412e+07  2.353721508467e-06
4.000000000000e-03 1.857698591436e+05 1.000000000000e+00 2.511280776572e+01 0.000000000000e+00 6.399972393463e-05 -6.865935825930e+07 7.659551736838e+05 -7.003335409662e+06 -1.973805009081e+07 -1.089696365862e-06 5.394118526329e-07 1.381510958987e-06 0.000000000000e+00 3.180024791993e+07 5.639349531874e+07  2.339729388468e-06
1.000000000000e-02 2.016789261239e+05 1.000000000000e+00 2.596898026496e+01 0.000000000000e+00 6.524514309441e-05 -6.895667542137e+07 7.708128818914e+05 -7.105308085712e+06 -2.014545931712e+07 2.999437448904e-06 9.002701766252e-07 1.272629711151e-05 0.000000000000e+00 3.206914760807e+07 5.648777265036e+07  1.162819806380e-05
2.000000000000e-02 1.999775693425e+05 1.000000000000e+00 2.761199769072e+01 0.000000000000e+00 7.026761628382e-05 -6.958321654173e+07 7.794462989414e+05 -7.285126996012e+06 -2.094711988308e+07 9.503873999669e-06 1.541609728911e-06 3.582327289312e-05 0.000000000000e+00 3.260515447361e+07 5.673101941654e+07  3.225368679102e-05
3.000000000000e-02 1.899417041039e+05 1.000000000000e+00 2.912015475881e+01 0.000000000000e+00 7.716832625830e-05 -7.016828194736e+07 7.866965890163e+05 -7.451983383127e+06 -2.169036259309e+07 1.537903101912e-05 2.080202705901e-06 5.723190774328e-05 0.000000000000e+00 3.310354264119e+07 5.696440802020e+07  5.142777755696e-05
4.000000000000e-02 1.766791368651e+05 1.000000000000e+00 3.042921154463e+01 0.000000000000e+00 8.623347732033e-05 -7.067321866974e+07 7.924281089938e+05 -7.604857375263e+06 -2.233916404064e+07 2.072257795394e-05 2.505972761377e-06 7.565207037290e-05 0.000000000000e+00 3.353908002855e+07 5.716059166951e+07  6.785126941720e-05
5.000000000000e-02 1.624755378777e+05 1.000000000000e+00 3.155419129749e+01 0.000000000000e+00 9.596658746668e-05 -7.110235881075e+07 7.969478459920e+05 -7.745051888587e+06 -2.289918391988e+07 2.558382537403e-05 2.841724652670e-06 9.124558396420e-05 0.000000000000e+00 3.391553153974e+07 5.731994802347e+07  8.167070358733e-05
6.000000000000e-02 1.480496728640e+05 1.000000000000e+00 3.252596160028e+01 0.000000000000e+00 1.079624084562e-04 -7.146764739930e+07 8.005019785171e+05 -7.873144362829e+06 -2.338417100848e+07 3.002976966174e-05 3.105745925963e-06 1.045016696404e-04 0.000000000000e+00 3.424165425687e+07 5.744875232061e+07  9.334431920729e-05
7.000000000000e-02 1.342905968549e+05 1.000000000000e+00 3.337380904241e+01 0.000000000000e+00 1.195530330346e-04 -7.178304736520e+07 8.033581689572e+05 -7.991427677402e+06 -2.380876145291e+07 3.408541600725e-05 3.317920072943e-06 1.158787916065e-04 0.000000000000e+00 3.452774549850e+07 5.755416233878e+07  1.033100135082e-04
8.000000000000e-02 1.218339410025e+05 1.000000000000e+00 3.412173995213e+01 0.000000000000e+00 1.317523040407e-04 -7.205682373948e+07 8.056446846578e+05 -8.102129870519e+06 -2.418420611342e+07 3.786166663836e-05 3.487775524988e-06 1.257120832525e-04 0.000000000000e+00 3.478105324114e+07 5.763904034018e+07  1.118653584544e-04
9.000000000000e-02 1.115908125434e+05 1.000000000000e+00 3.478854389704e+01 0.000000000000e+00 1.429725747237e-04 -7.229758241895e+07 8.075002797824e+05 -8.207330247535e+06 -2.452010078638e+07 4.139528925385e-05 3.625619734241e-06 1.342807285303e-04 0.000000000000e+00 3.500833781762e+07 5.770730888462e+07  1.192716637919e-04
1.000000000000e-01 1.045672294376e+05 1.000000000000e+00 3.538879911632e+01 0.000000000000e+00 1.531485276450e-04 -7.251285268249e+07 8.090484135634e+05 -8.306496664579e+06 -2.482352752461e+07 4.466967259955e-05 3.740623957976e-06 1.418675404601e-04 0.000000000000e+00 3.521429229056e+07 5.776446810781e+07  1.258037316786e-04
2.000000000000e-01 1.257459073664e+05 1.000000000000e+00 3.885749510603e+01 0.000000000000e+00 2.871764451926e-04 -7.370936568388e+07 8.145556683565e+05 -8.947711092986e+06 -2.658561161419e+07 6.567659873223e-05 4.149734314030e-06 1.834998421610e-04 0.000000000000e+00 3.641422946369e+07 5.800774363561e+07  1.612005678580e-04
3.000000000000e-01 1.562400344316e+05 1.000000000000e+00 4.116519335709e+01 0.000000000000e+00 4.352729429686e-04 -7.440568051573e+07 8.142742452285e+05 -9.492583136649e+06 -2.776434784932e+07 8.359510799720e-05 4.128828595951e-06 2.070433692726e-04 0.000000000000e+00 3.722087050057e+07 5.799551605615e+07  1.805503467266e-04
4.000000000000e-01 1.873099579768e+05 1.000000000000e+00 4.284986299412e+01 0.000000000000e+00 5.756728009177e-04 -7.486280793014e+07 8.114231887859e+05 -9.978781739184e+06 -2.863638914482e+07 9.900619500862e-05 3.917035831642e-06 2.213746692968e-04 0.000000000000e+00 3.782599293805e+07 5.787432681300e+07  1.921914063820e-04
5.000000000000e-01 2.167971561645e+05 1.000000000000e+00 4.415870677105e+01 0.000000000000e+00 7.111819916192e-04 -7.517251195185e+07 8.073547918936e+05 -1.043457808713e+07 -2.932386197585e+07 1.130376079266e-04 3.614812062499e-06 2.299797958117e-04 0.000000000000e+00 3.831031733827e+07 5.767934969330e+07  1.992762953692e-04
6.000000000000e-01 2.441751622672e+05 1.000000000000e+00 4.522029184852e+01 0.000000000000e+00 8.426803809144e-04 -7.538956999386e+07 8.024004996997e+05 -1.087128916022e+07 -2.989142770496e+07 1.260564648759e-04 3.246778928098e-06 2.348401116063e-04 0.000000000000e+00 3.871742895301e+07 5.743830717866e+07  2.036384560841e-04
7.000000000000e-01 2.695236793827e+05 1.000000000000e+00 4.610823858705e+01 0.000000000000e+00 9.701290406118e-04 -7.555234276173e+07 7.970962919207e+05 -1.128419086211e+07 -3.037487600374e+07 1.379672703097e-04 2.852752064518e-06 2.374604137767e-04 0.000000000000e+00 3.907046987586e+07 5.718245047840e+07  2.066036429382e-04
8.000000000000e-01 2.931001250057e+05 1.000000000000e+00 4.686835872746e+01 0.000000000000e+00 1.093376610381e-03 -7.569118869086e+07 7.920503048324e+05 -1.166399048748e+07 -3.079652125722e+07 1.484712452141e-04 2.477907309387e-06 2.390146799637e-04 0.000000000000e+00 3.938390014519e+07 5.694221223978e+07  2.090534400789e-04
9.000000000000e-01 3.149678576752e+05 1.000000000000e+00 4.753046133627e+01 0.000000000000e+00 1.213139537380e-03 -7.580629766874e+07 7.872700651949e+05 -1.202241443484e+07 -3.117035836713e+07 1.580811472609e-04 2.122803793453e-06 2.395871688583e-04 0.000000000000e+00 3.966635682357e+07 5.670587870539e+07  2.110236123437e-04
1.000000000000e+00 3.353127068989e+05 1.000000000000e+00 4.811530493389e+01 0.000000000000e+00 1.329642029714e-03 -7.590679355399e+07 7.828141215069e+05 -1.236417162611e+07 -3.150779431122e+07 1.668817780179e-04 1.791790833773e-06 2.394266653917e-04 0.000000000000e+00 3.992625316377e+07 5.647606135537e+07  2.126695555379e-04
2.000000000000e+00 4.697379131332e+05 1.000000000000e+00 5.129669003549e+01 0.000000000000e+00 2.283863716509e-03 -7.647256014471e+07 7.492306249104e+05 -1.500473737449e+07 -3.358441700698e+07 2.229992904910e-04 -7.029831991056e-07 2.184802091515e-04 0.000000000000e+00 4.168723817539e+07 5.461803105356e+07  2.207777984295e-04
3.000000000000e+00 5.733073282760e+05 1.000000000000e+00 5.334711567617e+01 0.000000000000e+00 3.095758181702e-03 -7.682137659305e+07 7.217813639125e+05 -1.722434243265e+07 -3.507405025223e+07 2.653724858044e-04 -2.742071158953e-06 1.913669703864e-04 0.000000000000e+00 4.303992309264e+07 5.299237500147e+07  2.372401774728e-04
4.000000000000e+00 6.596594526311e+05 1.000000000000e+00 5.484331776306e+01 0.000000000000e+00 3.801615146101e-03 -7.706889273339e+07 6.987438129236e+05 -1.912924630053e+07 -3.624493061358e+07 2.996688711565e-04 -4.453432089556e-06 1.641032401438e-04 0.000000000000e+00 4.414768988250e+07 5.157264109450e+07  2.600272528236e-04
5.000000000000e+00 7.354601095239e+05 1.000000000000e+00 5.604440420721e+01 0.000000000000e+00 4.425797818081e-03 -7.727299820333e+07 6.792077235173e+05 -2.078312136238e+07 -3.722408828578e+07 3.284565243833e-04 -5.904684445453e-06 1.390423085282e-04 0.000000000000e+00 4.509340261716e+07 5.033932212126e+07  2.857476062273e-04
6.000000000000e+00 8.041390168034e+05 1.000000000000e+00 5.709454643067e+01 0.000000000000e+00 4.987978576329e-03 -7.744243991159e+07 6.618679607647e+05 -2.226617499748e+07 -3.808855720559e+07 3.542718208120e-04 -7.192781107075e-06 1.160663048171e-04 0.000000000000e+00 4.593239070489e+07 4.922461014489e+07  3.130752262525e-04
7.000000000000e+00 8.678837899245e+05 1.000000000000e+00 5.796631024017e+01 0.000000000000e+00 5.496237720968e-03 -7.757864488950e+07 6.462968648270e+05 -2.358327785323e+07 -3.883091906583e+07 3.767862192988e-04 -8.349491091019e-06 9.471878212684e-05 0.000000000000e+00 4.666428060285e+07 4.822801404920e+07  3.397939271549e-04
8.000000000000e+00 9.273815367560e+05 1.000000000000e+00 5.880767264491e+01 0.000000000000e+00 5.963282066299e-03 -7.773335445975e+07 6.327704463710e+05 -2.477369015422e+07 -3.952986080147e+07 3.970005568702e-04 -9.354310747749e-06 7.646416112822e-05 0.000000000000e+00 4.734563513848e+07 4.735176836112e+07  3.651881774271e-04
9.000000000000e+00 9.837160278318e+05 1.000000000000e+00 5.957121469890e+01 0.000000000000e+00 6.395469720336e-03 -7.786961522911e+07 6.203868025258e+05 -2.586442294925e+07 -4.016609756634e+07 4.155710938467e-04 -1.027423857625e-05 5.958288000806e-05 0.000000000000e+00 4.796671191490e+07 4.654536735150e+07  3.896218820170e-04
1.000000000000e+01 1.037379889223e+06 1.000000000000e+00 6.026073641101e+01 0.000000000000e+00 6.797359910966e-03 -7.798344653013e+07 6.088193874646e+05 -2.687304901933e+07 -4.074504788308e+07 4.328469430017e-04 -1.113353226651e-05 4.362349488395e-05 0.000000000000e+00 4.853384781084e+07 4.579097829411e+07  4.132179274795e-04
1.100000000000e+01 1.088673728867e+06 1.000000000000e+00 6.090878588780e+01 0.000000000000e+00 7.173100960840e-03 -7.810066396344e+07 5.982809671970e+05 -2.780354671991e+07 -4.128696482956e+07 4.486214963481e-04 -1.191638634353e-05 2.919049544577e-05 0.000000000000e+00 4.906372517097e+07 4.510542457145e+07  4.352514779462e-04
1.200000000000e+01 1.137991997935e+06 1.000000000000e+00 6.149982004481e+01 0.000000000000e+00 7.525252415313e-03 -7.821049597536e+07 5.886566964805e+05 -2.866040072300e+07 -4.178461582635e+07 4.630262015004e-04 -1.263133216819e-05 1.584866949757e-05 0.000000000000e+00 4.955183750824e+07 4.447685244295e+07  4.558341211685e-04
1.300000000000e+01 1.185597008333e+06 1.000000000000e+00 6.203604871768e+01 0.000000000000e+00 7.856353308902e-03 -7.830510642860e+07 5.795559659374e+05 -2.946173463637e+07 -4.224186269558e+07 4.764955540943e-04 -1.330738643710e-05 3.068293572276e-06 0.000000000000e+00 5.000290125352e+07 4.388382105341e+07  4.755277687503e-04
1.400000000000e+01 1.232205376244e+06 1.000000000000e+00 6.252137197228e+01 0.000000000000e+00 8.168271078496e-03 -7.838747240527e+07 5.709766160513e+05 -3.020986569700e+07 -4.266165960535e+07 4.890287030379e-04 -1.394470957150e-05 -9.126974888060e-06 0.000000000000e+00 5.041966590254e+07 4.332677431834e+07  4.942459828191e-04
1.500000000000e+01 1.277367068418e+06 1.000000000000e+00 6.295962029591e+01 0.000000000000e+00 8.462072005745e-03 -7.846087090859e+07 5.629751995069e+05 -3.090544287255e+07 -4.304652444510e+07 5.005974526771e-04 -1.453910051479e-05 -2.066771878881e-05 0.000000000000e+00 5.080427940875e+07 4.280772231344e+07  5.118645601489e-04
1.600000000000e+01 1.321228595387e+06 1.000000000000e+00 6.335431152615e+01 0.000000000000e+00 8.739395316067e-03 -7.851961480740e+07 5.553110905522e+05 -3.155998649379e+07 -4.339943820707e+07 5.115237618799e-04 -1.510843432286e-05 -3.187111356197e-05 0.000000000000e+00 5.115967983608e+07 4.231226970458e+07  5.288288504942e-04
1.700000000000e+01 1.363922199809e+06 1.000000000000e+00 6.370850785819e+01 0.000000000000e+00 9.001650644101e-03 -7.855870923306e+07 5.478838485946e+05 -3.218211640107e+07 -4.372256037124e+07 5.220733635961e-04 -1.566017229686e-05 -4.297711544898e-05 0.000000000000e+00 5.148779533512e+07 4.182898837842e+07  5.455094496322e-04
1.800000000000e+01 1.405587802916e+06 1.000000000000e+00 6.402490199352e+01 0.000000000000e+00 9.249915152984e-03 -7.857747187015e+07 5.406051563521e+05 -3.277647326041e+07 -4.401802097710e+07 5.323507167218e-04 -1.620087514915e-05 -5.407897629260e-05 0.000000000000e+00 5.179065536922e+07 4.135343418844e+07  5.620482258017e-04
1.900000000000e+01 1.446313785953e+06 1.000000000000e+00 6.430589182614e+01 0.000000000000e+00 9.485049582478e-03 -7.857626691798e+07 5.334171775335e+05 -3.334518752113e+07 -4.428740742796e+07 5.424012545486e-04 -1.673483928997e-05 -6.519686637310e-05 0.000000000000e+00 5.206962062236e+07 4.088407885920e+07  5.784918140928e-04
2.000000000000e+01 1.486183570755e+06 1.000000000000e+00 6.455355167662e+01 0.000000000000e+00 9.707059668452e-03 -7.857134757994e+07 5.266943006646e+05 -3.387330733538e+07 -4.453183642406e+07 5.516627641022e-04 -1.723425300023e-05 -7.573395390441e-05 0.000000000000e+00 5.232549711313e+07 4.044670447075e+07  5.939175850634e-04
2.100000000000e+01 1.525125187764e+06 1.000000000000e+00 6.481651432677e+01 0.000000000000e+00 9.919204804034e-03 -7.857726412283e+07 5.204641871902e+05 -3.437806985951e+07 -4.477771839277e+07 5.605757656329e-04 -1.769706142975e-05 -8.534951739132e-05 0.000000000000e+00 5.257768412504e+07 4.003595916499e+07  6.085344346392e-04
2.200000000000e+01 1.563296828247e+06 1.000000000000e+00 6.506310005153e+01 0.000000000000e+00 1.012221803684e-02 -7.857347253031e+07 5.143443407449e+05 -3.486521258944e+07 -4.500966379408e+07 5.693317111179e-04 -1.815167859426e-05 -9.482827531164e-05 0.000000000000e+00 5.281611630461e+07 3.963230017794e+07  6.229833012496e-04
2.300000000000e+01 1.600764538218e+06 1.000000000000e+00 6.528885293821e+01 0.000000000000e+00 1.031571689483e-02 -7.857296527181e+07 5.086462274952e+05 -3.531979416945e+07 -4.522553412667e+07 5.773685930724e-04 -1.857496700709e-05 -1.036946930730e-04 0.000000000000e+00 5.303943118931e+07 3.925916443583e+07  6.364057109144e-04
2.400000000000e+01 1.637574350694e+06 1.000000000000e+00 6.549323240318e+01 0.000000000000e+00 1.050047195220e-02 -7.856713364877e+07 5.031588390495e+05 -3.575234742731e+07 -4.542571788247e+07 5.850205928582e-04 -1.898260157735e-05 -1.123255602922e-04 0.000000000000e+00 5.324839965285e+07 3.890085132134e+07  6.493534545426e-04
2.500000000000e+01 1.673781468387e+06 1.000000000000e+00 6.567656819956e+01 0.000000000000e+00 1.067690996868e-02 -7.855338576888e+07 4.978003477256e+05 -3.616581363635e+07 -4.561043540786e+07 5.923921650543e-04 -1.938066093283e-05 -1.208219399707e-04 0.000000000000e+00 5.344321160437e+07 3.855276878061e+07  6.619873254495e-04
2.600000000000e+01 1.709418522054e+06 1.000000000000e+00 6.583945686769e+01 0.000000000000e+00 1.084540923927e-02 -7.853029198587e+07 4.925833596004e+05 -3.656183055717e+07 -4.577995800220e+07 5.995464876417e-04 -1.976820862213e-05 -1.292345863826e-04 0.000000000000e+00 5.362402684841e+07 3.821233985589e+07  6.743975516896e-04
2.700000000000e+01 1.744518245017e+06 1.000000000000e+00 6.598257449112e+01 0.000000000000e+00 1.100631446541e-02 -7.849677140042e+07 4.874341055366e+05 -3.694262481118e+07 -4.593486603111e+07 6.065452647465e-04 -2.015072463831e-05 -1.376246461720e-04 0.000000000000e+00 5.379142074757e+07 3.787684473554e+07  6.866814647118e-04
2.800000000000e+01 1.779123728188e+06 1.000000000000e+00 6.610660116461e+01 0.000000000000e+00 1.116000286922e-02 -7.845090281208e+07 4.822820322554e+05 -3.731134153804e+07 -4.607576470335e+07 6.134823344248e-04 -2.053345008205e-05 -1.460864596295e-04 0.000000000000e+00 5.394600301782e+07 3.754213471923e+07  6.989908142004e-04
2.900000000000e+01 1.813258571779e+06 1.000000000000e+00 6.621219502953e+01 0.000000000000e+00 1.130671978706e-02 -7.839297985856e+07 4.771543794401e+05 -3.766783365864e+07 -4.620292831367e+07 6.203569782249e-04 -2.091436143405e-05 -1.546043757256e-04 0.000000000000e+00 5.408791394362e+07 3.720853967874e+07  7.113138746811e-04
3.000000000000e+01 1.846933373120e+06 1.000000000000e+00 6.629998114533e+01 0.000000000000e+00 1.144675081124e-02 -7.832283175970e+07 4.720095443902e+05 -3.801400936473e+07 -4.631709687059e+07 6.272030254397e-04 -2.129654918061e-05 -1.632217841233e-04 0.000000000000e+00 5.421797933167e+07 3.687442371652e+07  7.237118292345e-04
3.100000000000e+01 1.880068624474e+06 1.000000000000e+00 6.640753112562e+01 0.000000000000e+00 1.158200632133e-02 -7.825755064618e+07 4.670458875641e+05 -3.835447511894e+07 -4.643781382852e+07 6.341115252364e-04 -2.166527797341e-05 -1.713838822711e-04 0.000000000000e+00 5.434994653121e+07 3.654723138308e+07  7.359038723479e-04
3.200000000000e+01 1.912746249129e+06 1.000000000000e+00 6.650903867135e+01 0.000000000000e+00 1.171272939255e-02 -7.818266935922e+07 4.620045195543e+05 -3.869184186762e+07 -4.655260089628e+07 6.411563498402e-04 -2.203977959699e-05 -1.796511275621e-04 0.000000000000e+00 5.447570404104e+07 3.621504458443e+07  7.483299468958e-04
3.300000000000e+01 1.944992531707e+06 1.000000000000e+00 6.660028914584e+01 0.000000000000e+00 1.183898415449e-02 -7.809620680189e+07 4.568538896374e+05 -3.902617843915e+07 -4.665941393860e+07 6.483351578269e-04 -2.242239781939e-05 -1.881020015043e-04 0.000000000000e+00 5.459393305988e+07 3.587657758792e+07  7.610402567861e-04
3.400000000000e+01 1.976830069253e+06 1.000000000000e+00 6.668024522067e+01 0.000000000000e+00 1.196076040650e-02 -7.799855233617e+07 4.516092008180e+05 -3.935667855133e+07 -4.675776525865e+07 6.556153727273e-04 -2.281200327454e-05 -1.967246709261e-04 0.000000000000e+00 5.470433204872e+07 3.553294933225e+07  7.739954741737e-04
3.500000000000e+01 2.008299353080e+06 1.000000000000e+00 6.674866227775e+01 0.000000000000e+00 1.207845991588e-02 -7.788322590154e+07 4.461612397559e+05 -3.968996564639e+07 -4.684761236088e+07 6.632361040963e-04 -2.321670895344e-05 -2.057667278028e-04 0.000000000000e+00 5.480693463627e+07 3.517357461478e+07  7.875982768340e-04
3.600000000000e+01 2.039444665063e+06 1.000000000000e+00 6.680556849252e+01 0.000000000000e+00 1.219253474708e-02 -7.774153482132e+07 4.402515458317e+05 -4.003531702947e+07 -4.692914051164e+07 6.715271041039e-04 -2.365571478781e-05 -2.155658764320e-04 0.000000000000e+00 5.490199745414e+07 3.478397787780e+07  8.024053875058e-04
3.700000000000e+01 2.070350556992e+06 1.000000000000e+00 6.685110766982e+01 0.000000000000e+00 1.230438384349e-02 -7.754591029518e+07 4.332695552462e+05 -4.042039215997e+07 -4.700242724043e+07 6.815152364298e-04 -2.417437694559e-05 -2.271465884955e-04 0.000000000000e+00 5.498957656519e+07 3.431951321602e+07  8.201314849559e-04
3.800000000000e+01 2.103243222911e+06 1.000000000000e+00 6.688581947385e+01 0.000000000000e+00 1.245583943298e-02 -7.641050096274e+07 4.044682956124e+05 -4.173580388553e+07 -4.706908903414e+07 7.261635925442e-04 -2.631389908981e-05 -2.735287288212e-04 0.000000000000e+00 5.507179796080e+07 3.234716810981e+07  8.960108240797e-04
3.900000000000e+01 2.133056539558e+06 1.000000000000e+00 6.690898290706e+01 0.000000000000e+00 1.254539896699e-02 -7.650219030183e+07 4.043861429837e+05 -4.181020592464e+07 -4.712753734867e+07 7.249289259174e-04 -2.632000185652e-05 -2.741212957342e-04 0.000000000000e+00 5.514664452505e+07 3.237019615739e+07  8.952436072866e-04
4.000000000000e+01 2.162442327634e+06 1.000000000000e+00 6.692119997969e+01 0.000000000000e+00 1.262784857230e-02 -7.663428237651e+07 4.053651220759e+05 -4.181914569369e+07 -4.717463667938e+07 7.217720525704e-04 -2.624727769538e-05 -2.727039405868e-04 0.000000000000e+00 5.520935491653e+07 3.247792847331e+07  8.911897535227e-04
4.200000000000e+01 2.219725185797e+06 1.000000000000e+00 6.697479430470e+01 0.000000000000e+00 1.278238875402e-02 -7.689018793688e+07 4.073223716771e+05 -4.183719107614e+07 -4.727641888603e+07 7.160474708608e-04 -2.610188201072e-05 -2.695937156880e-04 0.000000000000e+00 5.533459929968e+07 3.268232377425e+07  8.834537764232e-04
4.400000000000e+01 2.275490822840e+06 1.000000000000e+00 6.700716833757e+01 0.000000000000e+00 1.292649172319e-02 -7.711642459101e+07 4.089907291419e+05 -4.185246445488e+07 -4.736103678285e+07 7.107873455890e-04 -2.597794688477e-05 -2.670180621595e-04 0.000000000000e+00 5.544330860958e+07 3.286546818233e+07  8.765471561580e-04
5.000000000000e+01 2.427012687568e+06 1.000000000000e+00 6.679475867122e+01 0.000000000000e+00 1.322761005470e-02 -7.744556828819e+07 4.106161690742e+05 -4.186518674290e+07 -4.739175145933e+07 6.997028391060e-04 -2.585719991837e-05 -2.663497734452e-04 0.000000000000e+00 5.556750216347e+07 3.317190082197e+07  8.653887807829e-04
6.500000000000e+01 2.758397042868e+06 1.000000000000e+00 6.601327623856e+01 0.000000000000e+00 1.373996957365e-02 -7.760193171438e+07 4.085132938811e+05 -4.183775559647e+07 -4.716170646165e+07 6.853505262193e-04 -2.601341350414e-05 -2.738754307771e-04 0.000000000000e+00 5.553379792416e+07 3.342924885719e+07  8.569970005901e-04
8.000000000000e+01 3.013450390124e+06 1.000000000000e+00 6.501253148982e+01 0.000000000000e+00 1.398349684520e-02 -7.726282927621e+07 4.023240666826e+05 -4.177185825388e+07 -4.669363043589e+07 6.805600786800e-04 -2.647318466746e-05 -2.888134961520e-04 0.000000000000e+00 5.524277265533e+07 3.331125914152e+07  8.632686027170e-04
1.000000000000e+02 3.314130012986e+06 1.000000000000e+00 6.391116451659e+01 0.000000000000e+00 1.418792397896e-02 -7.674511457924e+07 3.943079409373e+05 -4.168803723141e+07 -4.613118499769e+07 6.788986511490e-04 -2.706866829425e-05 -3.065909744507e-04 0.000000000000e+00 5.485477893611e+07 3.306724808010e+07  8.747821109084e-04
1.860000000000e+02 3.912611203897e+06 1.000000000000e+00 6.127460325842e+01 0.000000000000e+00 1.443627142526e-02 -7.506222905498e+07 3.715215460389e+05 -4.145390966187e+07 -4.463988542417e+07 6.860147007478e-04 -2.876137191528e-05 -3.532859345985e-04 0.000000000000e+00 5.371867471367e+07 3.214044753526e+07  9.166613963032e-04
2.720000000000e+02 4.202932547735e+06 1.000000000000e+00 5.927316544670e+01 0.000000000000e+00 1.425158095629e-02 -7.345121660609e+07 3.529021213042e+05 -4.126662060353e+07 -4.340309638678e+07 6.999144274610e-04 -3.014452918128e-05 -3.922673623914e-04 0.000000000000e+00 5.270697786547e+07 3.117731159656e+07  9.597049305094e-04
3.580000000000e+02 4.344298233456e+06 1.000000000000e+00 5.786901889816e+01 0.000000000000e+00 1.405816372985e-02 -7.223101435964e+07 3.392265035388e+05 -4.112976846782e+07 -4.250637919842e+07 7.119295867613e-04 -3.116043221529e-05 -4.204909214901e-04 0.000000000000e+00 5.195572067529e+07 3.044196886141e+07  9.929396744730e-04
4.440000000000e+02 4.416427119135e+06 1.000000000000e+00 5.679914770245e+01 0.000000000000e+00 1.387667631248e-02 -7.127079973190e+07 3.286867202164e+05 -4.102463727068e+07 -4.181356559298e+07 7.218616247324e-04 -3.194338754781e-05 -4.423191252271e-04 0.000000000000e+00 5.136966753185e+07 2.986494269544e+07  1.019355068763e-03
5.300000000000e+02 4.455391631741e+06 1.000000000000e+00 5.597604559742e+01 0.000000000000e+00 1.371916552376e-02 -7.051610437439e+07 3.205156317146e+05 -4.094331307726e+07 -4.127554505162e+07 7.299095464750e-04 -3.255038269365e-05 -4.592821324363e-04 0.000000000000e+00 5.091165416775e+07 2.941332227340e+07  1.040250459477e-03
6.160000000000e+02 4.477907107390e+06 1.000000000000e+00 5.534879673767e+01 0.000000000000e+00 1.358850098979e-02 -6.993156541509e+07 3.142527410790e+05 -4.088108495566e+07 -4.086259009150e+07 7.362826664446e-04 -3.301562599801e-05 -4.723091292955e-04 0.000000000000e+00 5.055841348741e+07 2.906482936522e+07  1.056508967452e-03
7.020000000000e+02 4.491717402700e+06 1.000000000000e+00 5.488766029124e+01 0.000000000000e+00 1.348821207132e-02 -6.949814915526e+07 3.096356461980e+05 -4.083526171643e+07 -4.055785003979e+07 7.410620684605e-04 -3.335861018917e-05 -4.819260394735e-04 0.000000000000e+00 5.029708697049e+07 2.880758781868e+07  1.068597770497e-03
7.880000000000e+02 4.501335964160e+06 1.000000000000e+00 5.452634175001e+01 0.000000000000e+00 1.339764446729e-02 -6.915104675024e+07 3.060131154485e+05 -4.079940407321e+07 -4.031678746567e+07 7.450006907510e-04 -3.362771247342e-05 -4.895479369065e-04 0.000000000000e+00 5.008907942971e+07 2.860091723990e+07  1.078327052447e-03
8.740000000000e+02 4.509722042572e+06 1.000000000000e+00 5.394399363726e+01 0.000000000000e+00 1.327003300761e-02 -6.860368770309e+07 3.001802339190e+05 -4.074150005018e+07 -3.993193074423e+07 7.510364914202e-04 -3.406101224418e-05 -5.016918942762e-04 0.000000000000e+00 4.975903949916e+07 2.828044553585e+07  1.093626968369e-03
9.370000000000e+02 4.515095894190e+06 1.000000000000e+00 5.354017250226e+01 0.000000000000e+00 1.316509611457e-02 -6.820516746171e+07 2.960263331275e+05 -4.070042191927e+07 -3.965899833703e+07 7.557011824042e-04 -3.436958773155e-05 -5.103036245383e-04 0.000000000000e+00 4.952152923934e+07 2.804465324858e+07  1.104841583411e-03
1.000000000000e+03 4.519285919232e+06 1.000000000000e+00 5.322023010413e+01 0.000000000000e+00 1.307740723735e-02 -6.787778513553e+07 2.926291656247e+05 -4.066686577458e+07 -3.943891970361e+07 7.596867481352e-04 -3.462194874604e-05 -5.172316026914e-04 0.000000000000e+00 4.932785687124e+07 2.784981904831e+07  1.114083712475e-03
1.100000000000e+03 4.523431229204e+06 1.000000000000e+00 5.289815656035e+01 0.000000000000e+00 1.298574550021e-02 -6.754092053207e+07 2.891467568483e+05 -4.063250417069e+07 -3.921498199831e+07 7.638811757812e-04 -3.488064196943e-05 -5.242730007436e-04 0.000000000000e+00 4.912946890036e+07 2.764898433114e+07  1.123614205950e-03
1.200000000000e+03 4.526692601801e+06 1.000000000000e+00 5.262163524845e+01 0.000000000000e+00 1.290952558434e-02 -6.725729419601e+07 2.862050607207e+05 -4.060345806442e+07 -3.902455341143e+07 7.673428064647e-04 -3.509916796748e-05 -5.302672071664e-04 0.000000000000e+00 4.896176855729e+07 2.748180354947e+07  1.131631952239e-03
1.300000000000e+03 4.529597975110e+06 1.000000000000e+00 5.235621127184e+01 0.000000000000e+00 1.283696346722e-02 -6.698673315276e+07 2.833965575724e+05 -4.057569464660e+07 -3.884231321085e+07 7.706232949068e-04 -3.530779962993e-05 -5.360049162401e-04 0.000000000000e+00 4.880158033674e+07 2.732341323569e+07  1.139280180495e-03
1.400000000000e+03 4.532337488817e+06 1.000000000000e+00 5.208448046145e+01 0.000000000000e+00 1.276200018712e-02 -6.670890802570e+07 2.805153204230e+05 -4.054723142936e+07 -3.865547641558e+07 7.740028615161e-04 -3.552183438960e-05 -5.418873634242e-04 0.000000000000e+00 4.863720529021e+07 2.716136242476e+07  1.147139972427e-03
1.500000000000e+03 4.534977375631e+06 1.000000000000e+00 5.179637451914e+01 0.000000000000e+00 1.268109740721e-02 -6.641208391602e+07 2.774433695672e+05 -4.051689838717e+07 -3.845664766000e+07 7.776426889542e-04 -3.575003645318e-05 -5.481457756357e-04 0.000000000000e+00 4.846187665440e+07 2.698864142410e+07  1.155546491170e-03
1.600000000000e+03 4.537538419005e+06 1.000000000000e+00 5.148575254412e+01 0.000000000000e+00 1.259208725144e-02 -6.608910757386e+07 2.741077392070e+05 -4.048398014355e+07 -3.824131704946e+07 7.816409589859e-04 -3.599782613707e-05 -5.549210921213e-04 0.000000000000e+00 4.827146825562e+07 2.680114116864e+07  1.164704508583e-03
1.700000000000e+03 4.540025706284e+06 1.000000000000e+00 5.114882396046e+01 0.000000000000e+00 1.249362772187e-02 -6.573557463684e+07 2.704645548341e+05 -4.044803809513e+07 -3.800670499772e+07 7.860580204391e-04 -3.626846269049e-05 -5.623002636735e-04 0.000000000000e+00 4.806343924323e+07 2.659651038724e+07  1.174740666844e-03
1.800000000000e+03 4.542439113240e+06 1.000000000000e+00 5.078330097052e+01 0.000000000000e+00 1.238491064610e-02 -6.534881105991e+07 2.664865987246e+05 -4.040883071979e+07 -3.775113610865e+07 7.909309659879e-04 -3.656396800148e-05 -5.703365484691e-04 0.000000000000e+00 4.783625929612e+07 2.637350671954e+07  1.185733182451e-03
1.900000000000e+03 4.544778403850e+06 1.000000000000e+00 5.038789710238e+01 0.000000000000e+00 1.226547377264e-02 -6.492733839144e+07 2.621590434730e+05 -4.036615937313e+07 -3.747365699038e+07 7.962792978530e-04 -3.688544353446e-05 -5.790579799858e-04 0.000000000000e+00 4.758905158498e+07 2.613173426563e+07  1.197723822059e-03
2.000000000000e+03 4.547042747354e+06 1.000000000000e+00 4.996201034884e+01 0.000000000000e+00 1.213511142190e-02 -6.447044027954e+07 2.574746981828e+05 -4.031998877996e+07 -3.717383145373e+07 8.021134220762e-04 -3.723342347030e-05 -5.884794493152e-04 0.000000000000e+00 4.732142017108e+07 2.587127003324e+07  1.210735418051e-03