 TITLE = "Profiles along polylines"
 VARIABLES = "DIST" "PRESSURE1" "SATURATION1" "VELOCITY_X1" "VELOCITY_Y1" "TEMPERATURE1" "DISPLACEMENT_X1" "DISPLACEMENT_Y1" "STRESS_XX" "STRESS_XY" "STRESS_YY" "STRESS_ZZ" "STRAIN_XX" "STRAIN_XY" "STRAIN_YY" "STRAIN_PLS"  p_(1st_Invariant)  q_(2nd_Invariant)   Effective_Strain
 ZONE T="TIME=0.000000000000e+00"
0.000000000000e+00 -7.000000000000e+07 0.000000000000e+00 0.000000000000e+00 0.000000000000e+00 2.500000000000e+01 0.000000000000e+00 0.000000000000e+00 0.000000000000e+00 0.000000000000e+00 0.000000000000e+00 0.000000000000e+00 0.000000000000e+00 0.000000000000e+00 0.000000000000e+00 0.000000000000e+00 -0.000000000000e+00 0.000000000000e+00  0.000000000000e+00
1.856488293236e-01 -7.000000000000e+07 0.000000000000e+00 0.000000000000e+00 0.000000000000e+00 2.500000000000e+01 0.000000000000e+00 0.000000000000e+00 0.000000000000e+00 0.000000000000e+00 0.000000000000e+00 0.000000000000e+00 0.000000000000e+00 0.000000000000e+00 0.000000000000e+00 0.000000000000e+00 -0.000000000000e+00 0.000000000000e+00  0.000000000000e+00
3.329966101904e-01 -7.000000000000e+07 0.000000000000e+00 0.000000000000e+00 0.000000000000e+00 2.500000000000e+01 0.000000000000e+00 0.000000000000e+00 0.000000000000e+00 0.000000000000e+00 0.000000000000e+00 0.000000000000e+00 0.000000000000e+00 0.000000000000e+00 0.000000000000e+00 0.000000000000e+00 -0.000000000000e+00 0.000000000000e+00  0.000000000000e+00
4.500000000000e-01 -7.000000000000e+07 6.684759947500e-01 0.000000000000e+00 0.000000000000e+00 2.500000000000e+01 0.000000000000e+00 0.000000000000e+00 0.000000000000e+00 0.000000000000e+00 0.000000000000e+00 0.000000000000e+00 0.000000000000e+00 0.000000000000e+00 0.000000000000e+00 0.000000000000e+00 -0.000000000000e+00 0.000000000000e+00  0.000000000000e+00
5.425413849766e-01 -7.000000000000e+07 6.684759947500e-01 0.000000000000e+00 0.000000000000e+00 2.500000000000e+01 0.000000000000e+00 0.000000000000e+00 0.000000000000e+00 0.000000000000e+00 0.000000000000e+00 0.000000000000e+00 0.000000000000e+00 0.000000000000e+00 0.000000000000e+00 0.000000000000e+00 -0.000000000000e+00 0.000000000000e+00  0.000000000000e+00
6.536499690359e-01 -7.000000000000e+07 6.684759947500e-01 0.000000000000e+00 0.000000000000e+00 2.500000000000e+01 0.000000000000e+00 0.000000000000e+00 0.000000000000e+00 0.000000000000e+00 0.000000000000e+00 0.000000000000e+00 0.000000000000e+00 0.000000000000e+00 0.000000000000e+00 0.000000000000e+00 -0.000000000000e+00 0.000000000000e+00  0.000000000000e+00
7.871337589362e-01 -7.000000000000e+07 6.684759947500e-01 0.000000000000e+00 0.000000000000e+00 2.500000000000e+01 0.000000000000e+00 0.000000000000e+00 0.000000000000e+00 0.000000000000e+00 0.000000000000e+00 0.000000000000e+00 0.000000000000e+00 0.000000000000e+00 0.000000000000e+00 0.000000000000e+00 -0.000000000000e+00 0.000000000000e+00  0.000000000000e+00
9.474533848814e-01 -7.000000000000e+07 6.504857124747e-01 0.000000000000e+00 0.000000000000e+00 2.500000000000e+01 0.000000000000e+00 0.000000000000e+00 0.000000000000e+00 0.000000000000e+00 0.000000000000e+00 0.000000000000e+00 0.000000000000e+00 0.000000000000e+00 0.000000000000e+00 0.000000000000e+00 -0.000000000000e+00 0.000000000000e+00  0.000000000000e+00
1.140000000000e+00 1.000000000000e+05 9.737398629779e-01 0.000000000000e+00 0.000000000000e+00 2.500000000000e+01 0.000000000000e+00 0.000000000000e+00 3.304572143556e+04 5.605493944878e+02 -4.446166165700e+06 1.775888667205e+05 0.000000000000e+00 0.000000000000e+00 0.000000000000e+00 0.000000000000e+00 1.411843859181e+06 4.553204604223e+06  0.000000000000e+00
1.240000000000e+00 1.000000000000e+05 1.000000000000e+00 0.000000000000e+00 0.000000000000e+00 2.500000000000e+01 0.000000000000e+00 0.000000000000e+00 -1.262331305483e+06 1.487475914788e+03 -1.327249178965e+07 -1.357396928539e+06 0.000000000000e+00 0.000000000000e+00 0.000000000000e+00 0.000000000000e+00 5.297406674556e+06 1.196291125004e+07  0.000000000000e+00
1.487693532361e+00 1.000000000000e+05 1.000000000000e+00 0.000000000000e+00 0.000000000000e+00 2.500000000000e+01 0.000000000000e+00 0.000000000000e+00 -6.266898055332e+06 1.626371943122e+02 -1.670623109008e+07 -3.888888743625e+06 0.000000000000e+00 0.000000000000e+00 0.000000000000e+00 0.000000000000e+00 8.954005963013e+06 1.180929437947e+07  0.000000000000e+00
1.823812918126e+00 1.000000000000e+05 1.000000000000e+00 0.000000000000e+00 0.000000000000e+00 2.500000000000e+01 0.000000000000e+00 0.000000000000e+00 -1.222332787539e+07 -2.874861964183e+03 -1.817378474036e+07 -6.116083784726e+06 0.000000000000e+00 0.000000000000e+00 0.000000000000e+00 0.000000000000e+00 1.217106546683e+07 1.044257078524e+07  0.000000000000e+00
2.280000000000e+00 1.000000000000e+05 1.000000000000e+00 0.000000000000e+00 0.000000000000e+00 2.500000000000e+01 0.000000000000e+00 0.000000000000e+00 -1.862400571852e+07 -6.140100975330e+03 -1.726483383688e+07 -7.763601866620e+06 0.000000000000e+00 0.000000000000e+00 0.000000000000e+00 0.000000000000e+00 1.455081380734e+07 1.024864271960e+07  0.000000000000e+00
2.850000000000e+00 1.000000000000e+05 1.000000000000e+00 0.000000000000e+00 0.000000000000e+00 2.500000000000e+01 0.000000000000e+00 0.000000000000e+00 -2.290522887646e+07 -8.679469202581e+03 -1.624244662485e+07 -8.741252650395e+06 0.000000000000e+00 0.000000000000e+00 0.000000000000e+00 0.000000000000e+00 1.596297605057e+07 1.227353357649e+07  0.000000000000e+00
3.420000000000e+00 1.000000000000e+05 1.000000000000e+00 0.000000000000e+00 0.000000000000e+00 2.500000000000e+01 0.000000000000e+00 0.000000000000e+00 -2.538927640774e+07 -1.052437051289e+04 -1.550903669435e+07 -9.266443930625e+06 0.000000000000e+00 0.000000000000e+00 0.000000000000e+00 0.000000000000e+00 1.672158567757e+07 1.408075802056e+07  0.000000000000e+00
3.972609728322e+00 1.000000000000e+05 1.000000000000e+00 0.000000000000e+00 0.000000000000e+00 2.500000000000e+01 0.000000000000e+00 0.000000000000e+00 -2.694644531562e+07 -1.204288093443e+04 -1.504926595748e+07 -9.595663381930e+06 0.000000000000e+00 0.000000000000e+00 0.000000000000e+00 0.000000000000e+00 1.719712488501e+07 1.536774481875e+07  0.000000000000e+00
4.633649783484e+00 1.000000000000e+05 1.000000000000e+00 0.000000000000e+00 0.000000000000e+00 2.500000000000e+01 0.000000000000e+00 0.000000000000e+00 -2.832397357321e+07 -1.368094842372e+04 -1.460189164019e+07 -9.874709564020e+06 0.000000000000e+00 0.000000000000e+00 0.000000000000e+00 0.000000000000e+00 1.760019159247e+07 1.659846752638e+07  0.000000000000e+00
5.424552109452e+00 1.000000000000e+05 1.000000000000e+00 0.000000000000e+00 0.000000000000e+00 2.500000000000e+01 0.000000000000e+00 0.000000000000e+00 -2.920962299827e+07 -1.515730601599e+04 -1.426998862307e+07 -1.004083348640e+07 0.000000000000e+00 0.000000000000e+00 0.000000000000e+00 0.000000000000e+00 1.784014836925e+07 1.744308313127e+07  0.000000000000e+00
6.370375975935e+00 1.000000000000e+05 1.000000000000e+00 0.000000000000e+00 0.000000000000e+00 2.500000000000e+01 0.000000000000e+00 0.000000000000e+00 -2.991523946550e+07 -1.651999425732e+04 -1.402854325573e+07 -1.018008481637e+07 0.000000000000e+00 0.000000000000e+00 0.000000000000e+00 0.000000000000e+00 1.804128917920e+07 1.812009540962e+07  0.000000000000e+00
7.501825115922e+00 1.000000000000e+05 1.000000000000e+00 0.000000000000e+00 0.000000000000e+00 2.500000000000e+01 0.000000000000e+00 0.000000000000e+00 -3.049326599438e+07 -1.759502775661e+04 -1.382997626749e+07 -1.029392267856e+07 0.000000000000e+00 0.000000000000e+00 0.000000000000e+00 0.000000000000e+00 1.820572164681e+07 1.868400689636e+07  0.000000000000e+00
8.855503976798e+00 1.000000000000e+05 1.000000000000e+00 0.000000000000e+00 0.000000000000e+00 2.500000000000e+01 0.000000000000e+00 0.000000000000e+00 -3.085225541536e+07 -1.786850061417e+04 -1.369136799394e+07 -1.036003702279e+07 0.000000000000e+00 0.000000000000e+00 0.000000000000e+00 0.000000000000e+00 1.830122014403e+07 1.904634812082e+07  0.000000000000e+00
1.047459878112e+01 1.000000000000e+05 1.000000000000e+00 0.000000000000e+00 0.000000000000e+00 2.500000000000e+01 0.000000000000e+00 0.000000000000e+00 -3.113220835338e+07 -1.688267742772e+04 -1.359250579186e+07 -1.041436424357e+07 0.000000000000e+00 0.000000000000e+00 0.000000000000e+00 0.000000000000e+00 1.837969279627e+07 1.932579266621e+07  0.000000000000e+00
1.241154661369e+01 1.000000000000e+05 1.000000000000e+00 0.000000000000e+00 0.000000000000e+00 2.500000000000e+01 0.000000000000e+00 0.000000000000e+00 -3.130685851467e+07 -1.409868786187e+04 -1.352808692198e+07 -1.044743363099e+07 0.000000000000e+00 0.000000000000e+00 0.000000000000e+00 0.000000000000e+00 1.842745968921e+07 1.950246065449e+07  0.000000000000e+00
1.472871140527e+01 1.000000000000e+05 1.000000000000e+00 0.000000000000e+00 0.000000000000e+00 2.500000000000e+01 0.000000000000e+00 0.000000000000e+00 -3.142400077938e+07 -8.843686767664e+03 -1.348940852721e+07 -1.047097279198e+07 0.000000000000e+00 0.000000000000e+00 0.000000000000e+00 0.000000000000e+00 1.846146069952e+07 1.961874619650e+07  0.000000000000e+00
1.750000000000e+01 1.000000000000e+05 1.000000000000e+00 0.000000000000e+00 0.000000000000e+00 2.500000000000e+01 0.000000000000e+00 0.000000000000e+00 -3.145630060804e+07 -9.319594333115e+02 -1.347899521696e+07 -1.047753874750e+07 0.000000000000e+00 0.000000000000e+00 0.000000000000e+00 0.000000000000e+00 1.847094485750e+07 1.965070869555e+07  0.000000000000e+00
 TITLE = "Profiles along polylines"
 VARIABLES = "DIST" "PRESSURE1" "SATURATION1" "VELOCITY_X1" "VELOCITY_Y1" "TEMPERATURE1" "DISPLACEMENT_X1" "DISPLACEMENT_Y1" "STRESS_XX" "STRESS_XY" "STRESS_YY" "STRESS_ZZ" "STRAIN_XX" "STRAIN_XY" "STRAIN_YY" "STRAIN_PLS"  p_(1st_Invariant)  q_(2nd_Invariant)   Effective_Strain
 ZONE T="TIME=1.000000000000e-03"
0.000000000000e+00 -7.000000000000e+07 0.000000000000e+00 0.000000000000e+00 0.000000000000e+00 2.500000000000e+01 0.000000000000e+00 6.346462829876e-05 3.769005159005e+07 -2.521956599102e-01 3.755285213237e+07 2.257287111673e+07 9.826167307662e-05 -3.278543578834e-12 9.736987660167e-05 0.000000000000e+00 -3.260525827971e+07 1.504904981026e+07  9.781882376668e-05
1.856488293236e-01 -7.000000000000e+07 0.000000000000e+00 0.000000000000e+00 0.000000000000e+00 2.500000000000e+01 1.823485193782e-05 6.346453817382e-05 3.766227116859e+07 -3.646571236760e+01 3.755461817858e+07 2.256506680415e+07 9.813182836887e-05 -4.740542607788e-10 9.743208393377e-05 0.000000000000e+00 -3.259398538377e+07 1.504366676051e+07  9.778383394590e-05
3.329966101904e-01 -7.000000000000e+07 0.000000000000e+00 0.000000000000e+00 0.000000000000e+00 2.500000000000e+01 3.294299278071e-05 6.346434657283e-05 3.630950808643e+07 -6.320439715478e+01 3.620675218734e+07 2.175487808213e+07 9.460509502793e-05 -8.216571630119e-10 9.393718168387e-05 0.000000000000e+00 -3.142371278530e+07 1.450352506313e+07  9.427291291839e-05
4.500000000000e-01 -7.000000000000e+07 6.684759947500e-01 -2.131502240121e-14 -1.849270749377e-07 3.310906251120e+01 4.117234909758e-05 6.346411752175e-05 1.496806054060e+07 -8.389488890383e+01 2.081611215354e+07 1.051590897790e+07 -5.354211821711e-03 -2.426750332932e-07 1.593633344729e-04 0.000000000000e+00 -1.543336055735e+07 8.947500955759e+06  5.435645879762e-03
5.425413849766e-01 -6.999999999989e+07 6.684759947436e-01 -3.761931487684e-12 -1.848676933305e-07 2.807634570670e+01 -1.328972934576e-03 6.339523818915e-05 -7.569613442818e+06 -7.138621014512e+01 -4.780182394202e+06 -4.333508407199e+06 -1.378151986778e-02 -6.080213482392e-07 -1.902239376830e-03 0.000000000000e+00 5.561101414740e+06 3.037500539736e+06  1.293572788276e-02
6.536499690359e-01 -6.999999993365e+07 6.684759878566e-01 -3.299515754527e-09 -1.848325880385e-07 2.599809537035e+01 -2.775829175756e-03 6.330635628651e-05 -7.248220915502e+06 -6.583219439836e+01 -5.051629232430e+06 -4.308564178642e+06 -1.251904288568e-02 -5.607158513425e-07 -3.164472626543e-03 0.000000000000e+00 5.536138108858e+06 2.647521714064e+06  1.127493477581e-02
7.871337589362e-01 -6.999993003809e+07 6.684774325879e-01 -3.816477680429e-06 -1.848056506535e-07 2.525080984488e+01 -4.447168907978e-03 6.318464515087e-05 -7.291022209248e+06 -6.708484236080e+01 -4.882256615442e+06 -4.261543481562e+06 -1.290156555955e-02 -5.713850926630e-07 -2.643415554376e-03 0.000000000000e+00 5.478274102084e+06 2.771748353385e+06  1.180397566856e-02
9.474533848814e-01 -6.991580129891e+07 6.507528602308e-01 -2.437363284039e-03 -1.580322805175e-07 2.505445512082e+01 -6.502784309270e-03 6.301695623876e-05 -1.066872860531e+07 -7.367980276741e+01 -6.811618170433e+06 -6.118683038141e+06 -1.937716566461e-02 -6.275566797227e-07 -2.950985579160e-03 0.000000000000e+00 7.866343271296e+06 4.246196810108e+06  1.808317255966e-02
1.140000000000e+00 1.349371324694e+05 9.738732786163e-01 -2.019618020084e-02 -7.176476130584e-04 2.500485102010e+01 -1.632969074749e-03 6.277137356335e-05 3.437933288062e+07 4.945171743809e+02 -1.437934664802e+07 8.697153284693e+06 3.077884980840e-02 -6.035752198333e-07 -1.961141987934e-04 0.000000000000e+00 -9.565713172431e+06 4.224634912501e+07  3.087737402808e-02
1.240000000000e+00 1.413412552946e+05 1.000000000000e+00 -1.912507446065e-02 -1.252585888065e-03 2.500280428798e+01 -1.503754180602e-03 6.275915331964e-05 3.067713421454e+07 2.493786915847e+03 -4.471475611018e+07 -1.209181791240e+06 1.180817871358e-03 7.475453150722e-08 -1.173360665577e-03 0.000000000000e+00 5.082267895625e+06 6.554925365437e+07  2.038781831650e-03
1.487693532361e+00 1.556961197234e+05 1.000000000000e+00 -1.668949622423e-02 -1.060120106664e-03 2.500075208135e+01 -1.255056586105e-03 6.274835605199e-05 1.695128344624e+07 1.769057115497e+03 -4.014804246353e+07 -3.956280033798e+06 8.648927036932e-04 1.193340512880e-07 -8.681927459501e-04 0.000000000000e+00 9.051013017031e+06 5.003650125943e+07  1.500896947534e-03
1.823812918126e+00 1.717928622387e+05 1.000000000000e+00 -1.407500256654e-02 -8.343706375937e-04 2.500007432559e+01 -1.021537310374e-03 6.275024933172e-05 3.654702285357e+06 -1.291569724611e+03 -3.345943977234e+07 -5.938411280834e+06 5.831561415402e-04 1.176159949396e-07 -5.743521656179e-04 0.000000000000e+00 1.191438292261e+07 3.336835617626e+07  1.002441284991e-03
2.280000000000e+00 1.897522717761e+05 1.000000000000e+00 -1.080450907902e-02 -6.178745246235e-04 2.500000402545e+01 -8.135926720221e-04 6.276104790135e-05 -8.556586701887e+06 -4.872198322391e+03 -2.678551721727e+07 -7.599583320178e+06 3.678405888929e-04 9.418705421835e-08 -3.597175001396e-04 0.000000000000e+00 1.431389574645e+07 1.872578389735e+07  6.300968992495e-04
2.850000000000e+00 2.074446307919e+05 1.000000000000e+00 -8.741383585309e-03 -5.169176379831e-04 2.499999994532e+01 -6.473556130844e-04 6.277697209387e-05 -1.627702490352e+07 -7.640321112445e+03 -2.226829819342e+07 -8.560546957539e+06 2.394785075462e-04 7.719385812436e-08 -2.305292697099e-04 0.000000000000e+00 1.570195668482e+07 1.190256656601e+07  4.070632912730e-04
3.420000000000e+00 2.215970185909e+05 1.000000000000e+00 -7.354823483911e-03 -4.556995872020e-04 2.500000000096e+01 -5.358750773194e-04 6.279298686569e-05 -2.062645557619e+07 -9.601145775320e+03 -1.963834318636e+07 -9.076389628753e+06 1.698456139596e-04 6.858240907699e-08 -1.604334009156e-04 0.000000000000e+00 1.644706279710e+07 1.108908935688e+07  2.860687544969e-04
3.972609728322e+00 2.330505661732e+05 1.000000000000e+00 -6.170055220174e-03 -4.143423897757e-04 2.500000000020e+01 -4.572087219127e-04 6.280831814793e-05 -2.330501591081e+07 -1.118342986717e+04 -1.804195595694e+07 -9.401041560374e+06 1.280242816636e-04 6.384493642531e-08 -1.183858676379e-04 0.000000000000e+00 1.691600447604e+07 1.215908004002e+07  2.134518874216e-04
4.633649783484e+00 2.447525257874e+05 1.000000000000e+00 -5.063055921838e-03 -3.843603950768e-04 2.499999999998e+01 -3.859567961656e-04 6.282647776559e-05 -2.561215516894e+07 -1.287200748494e+04 -1.668154873494e+07 -9.685061171161e+06 9.368060042371e-05 6.009275545241e-08 -8.428848953963e-05 0.000000000000e+00 1.732625502501e+07 1.382714516548e+07  1.541973135528e-04
5.424552109452e+00 2.565441707821e+05 1.000000000000e+00 -4.298457931970e-03 -3.623238966003e-04 2.500000000001e+01 -3.236092189876e-04 6.284832999936e-05 -2.710482579754e+07 -1.436805431035e+04 -1.570417292051e+07 -9.839649615417e+06 7.070563796204e-05 5.863012670470e-08 -6.074224625582e-05 0.000000000000e+00 1.754954944449e+07 1.520616761160e+07  1.139462035570e-04
6.370375975935e+00 2.680807782276e+05 1.000000000000e+00 -3.547741570992e-03 -3.462440019069e-04 2.499999999998e+01 -2.674195000566e-04 6.287467285385e-05 -2.828098937860e+07 -1.573724731364e+04 -1.498213326269e+07 -9.975886792382e+06 5.311621947965e-05 5.814691581631e-08 -4.300355543517e-05 0.000000000000e+00 1.774633647789e+07 1.638597486222e+07  8.339565326783e-05
7.501825115922e+00 2.794199820965e+05 1.000000000000e+00 -2.776495605589e-03 -3.349118681415e-04 2.499999999999e+01 -2.163530458400e-04 6.290642152848e-05 -2.922850416633e+07 -1.682078679798e+04 -1.441146137705e+07 -1.008893966301e+07 3.936321303575e-05 5.751504264094e-08 -2.921167321832e-05 0.000000000000e+00 1.790963506880e+07 1.738610908164e+07  5.960419140191e-05
8.855503976798e+00 2.902924433088e+05 1.000000000000e+00 -2.217119764407e-03 -3.264088149119e-04 2.499999999998e+01 -1.705524231374e-04 6.294428053526e-05 -2.981944939509e+07 -1.711048295986e+04 -1.401857207139e+07 -1.014835643994e+07 3.049894481831e-05 5.630988289163e-08 -2.001571595415e-05 0.000000000000e+00 1.799545930214e+07 1.804993002610e+07  4.405998466841e-05
1.047459878112e+01 3.001110515483e+05 1.000000000000e+00 -1.628522891811e-03 -3.210050958718e-04 2.499999999996e+01 -1.276066510939e-04 6.298764646900e-05 -3.027532087701e+07 -1.617937306754e+04 -1.373332320763e+07 -1.019954322538e+07 2.384818273223e-05 5.224546675670e-08 -1.320942754704e-05 0.000000000000e+00 1.806939577001e+07 1.856291608028e+07  3.253081349193e-05
1.241154661369e+01 3.083650975032e+05 1.000000000000e+00 -1.171255185209e-03 -3.171848420128e-04 2.500000000001e+01 -8.656017287618e-05 6.303335686020e-05 -3.055890905416e+07 -1.351236717807e+04 -1.354845889798e+07 -1.022916038565e+07 1.967368799179e-05 4.355525079686e-08 -8.863965364299e-06 0.000000000000e+00 1.811217611260e+07 1.889011558407e+07  2.529854662435e-05
1.472871140527e+01 3.143751555563e+05 1.000000000000e+00 -6.076283789138e-04 -3.149048949761e-04 2.499999999966e+01 -4.496219852311e-05 6.307272271447e-05 -3.074698430925e+07 -8.475000411302e+03 -1.343089483167e+07 -1.025031374219e+07 1.695041847002e-05 2.738812932971e-08 -6.022541729397e-06 0.000000000000e+00 1.814273096104e+07 1.910598055781e+07  2.063188183580e-05
1.750000000000e+01 3.166832744713e+05 1.000000000000e+00 -2.790489179235e-04 -3.137548235771e-04 2.500000000003e+01 0.000000000000e+00 6.308978018212e-05 -3.080088505902e+07 -9.113930018561e+02 -1.339322641209e+07 -1.025518344138e+07 1.608509473623e-05 1.527792050979e-09 -5.073212903324e-06 0.000000000000e+00 1.814976497083e+07 1.917028629415e+07  1.913297883251e-05
 TITLE = "Profiles along polylines"
 VARIABLES = "DIST" "PRESSURE1" "SATURATION1" "VELOCITY_X1" "VELOCITY_Y1" "TEMPERATURE1" "DISPLACEMENT_X1" "DISPLACEMENT_Y1" "STRESS_XX" "STRESS_XY" "STRESS_YY" "STRESS_ZZ" "STRAIN_XX" "STRAIN_XY" "STRAIN_YY" "STRAIN_PLS"  p_(1st_Invariant)  q_(2nd_Invariant)   Effective_Strain
 ZONE T="TIME=9.000000000000e-01"
0.000000000000e+00 -7.000000000000e+07 0.000000000000e+00 0.000000000000e+00 0.000000000000e+00 2.500000000000e+01 0.000000000000e+00 8.938841984892e-04 2.984425905687e+07 -3.654945167941e-01 3.117096223630e+07 1.830456638795e+07 7.500800234799e-05 -4.751428718324e-12 8.363157301426e-05 0.000000000000e+00 -2.643992922704e+07 1.225701412143e+07  7.967059178929e-05
1.856488293236e-01 -7.000000000000e+07 0.000000000000e+00 0.000000000000e+00 0.000000000000e+00 2.500000000000e+01 1.392923649659e-05 8.938839290852e-04 2.983011491195e+07 -8.422570862428e+01 3.114131821682e+07 1.829142993863e+07 7.500145232657e-05 -1.094934212116e-09 8.352427380822e-05 0.000000000000e+00 -2.642095435580e+07 1.224704319060e+07  7.960578075581e-05
3.329966101904e-01 -7.000000000000e+07 0.000000000000e+00 0.000000000000e+00 0.000000000000e+00 2.500000000000e+01 2.516334030515e-05 8.938833331451e-04 2.922958392707e+07 -1.598367339959e+02 3.030635041459e+07 1.786078030250e+07 7.389722355971e-05 -2.077877541947e-09 8.089620572862e-05 0.000000000000e+00 -2.579890488139e+07 1.194364553834e+07  7.763369606178e-05
4.500000000000e-01 -1.825455417321e+08 4.447347592060e-01 -3.515172207293e-03 -1.464769594080e-07 8.283348462567e+01 2.954103147584e-05 8.938826157238e-04 -1.107512802761e+07 -2.359768235928e+02 6.386802737285e+06 -2.787023597432e+06 -3.713235718549e-02 -6.144361804933e-07 2.959384235856e-04 0.000000000000e+00 2.491782962585e+06 1.512895883789e+07  3.728120735818e-02
5.425413849766e-01 -1.226642315127e+08 5.272211560514e-01 -5.012050668619e-03 -2.127082508063e-07 7.355501941886e+01 -6.815684858360e-03 8.937339742074e-04 -3.022777101170e+07 -5.902152961245e+01 -1.935703565396e+07 -1.729858782597e+07 -5.506119022316e-02 -5.027070345531e-07 -8.766260466214e-03 0.000000000000e+00 2.229446483054e+07 1.203274433680e+07  5.124354844305e-02
6.536499690359e-01 -7.854812253515e+07 6.273424054583e-01 -4.818317047137e-03 -2.543543314792e-07 6.573361624658e+01 -1.078511684038e-02 8.935713740337e-04 -1.424840267780e+07 3.783808419714e+01 -1.220812111485e+07 -9.321265575407e+06 -2.098307598811e-02 3.222802124045e-07 -1.229417974210e-02 0.000000000000e+00 1.192592978935e+07 4.287969437630e+06  1.826106858937e-02
7.871337589362e-01 -5.089559797900e+07 7.335714557578e-01 -4.050383162515e-03 -2.075721952959e-07 5.931954520063e+01 -1.181772076336e-02 8.933246072935e-04 -2.827840378118e+06 3.089504812662e+00 -6.400325546765e+06 -3.428205887499e+06 2.556761633012e-03 2.631439430332e-08 -1.265729192432e-02 0.000000000000e+00 4.218790604127e+06 3.313350592233e+06  1.411048359474e-02
9.474533848814e-01 -2.984247135388e+07 8.166774406110e-01 -4.852515173949e-03 -1.408305575085e-07 5.367778754723e+01 -9.520718144227e-03 8.928584758932e-04 8.004441029055e+06 -2.458448546597e+02 5.690850527875e+05 2.668115856919e+06 2.272567502329e-02 -2.093946711613e-06 -8.939090175325e-03 0.000000000000e+00 -3.747213979587e+06 6.639533700340e+06  2.827561687937e-02
1.140000000000e+00 3.221762364192e+05 9.953957013209e-01 -8.315130152206e-03 -2.782604270400e-04 4.850921061954e+01 -1.395448576942e-03 8.919493060292e-04 3.022970607719e+07 5.134935649903e+01 -1.708511575145e+07 2.373141830163e+06 2.991736040376e-02 -2.647369322674e-06 -1.303927307259e-03 0.000000000000e+00 -5.172577385300e+06 4.119043775231e+07  3.059017430758e-02
1.240000000000e+00 3.242066392019e+05 1.000000000000e+00 -6.195659568350e-03 -5.131552921042e-04 4.754491137781e+01 -1.249223872715e-03 8.919238972938e-04 2.433407506065e+07 2.438188226608e+03 -4.751145146314e+07 -1.181398524038e+07 1.339111230896e-03 7.062434316376e-08 -8.833452220043e-04 0.000000000000e+00 1.166378721429e+07 6.222045915695e+07  1.938147360873e-03
1.487693532361e+00 3.288737998542e+05 1.000000000000e+00 -5.441365883172e-03 -4.678346311736e-04 4.548073206582e+01 -9.642364414415e-04 8.918922977400e-04 1.081910556571e+07 1.765714780378e+03 -4.262139340845e+07 -1.377316439527e+07 1.001753230129e-03 1.190857635363e-07 -5.954329333354e-04 0.000000000000e+00 1.519181741267e+07 4.632972592378e+07  1.398043925995e-03
1.823812918126e+00 3.341395924271e+05 1.000000000000e+00 -4.608994579182e-03 -4.155749781713e-04 4.320611496752e+01 -6.892338588105e-04 8.918749750610e-04 -2.062196279523e+06 -1.680276099277e+03 -3.559868368409e+07 -1.470993718525e+07 6.966137284373e-04 8.874066425017e-08 -3.280102630330e-04 0.000000000000e+00 1.745693904962e+07 2.933428953194e+07  9.062879758797e-04
2.280000000000e+00 3.400202934397e+05 1.000000000000e+00 -3.538235720054e-03 -3.661248476382e-04 4.068907690810e+01 -4.363164931916e-04 8.918648980261e-04 -1.381254744433e+07 -5.546189086017e+03 -2.840964949590e+07 -1.518566336742e+07 4.543878773571e-04 4.411916892048e-08 -1.382737258767e-04 0.000000000000e+00 1.913595343589e+07 1.396128270127e+07  5.370455073751e-04
2.850000000000e+00 3.458142124492e+05 1.000000000000e+00 -2.862576151826e-03 -3.433419752950e-04 3.823030640400e+01 -2.287386651215e-04 8.918577950894e-04 -2.106226343411e+07 -8.437637865101e+03 -2.334067719978e+07 -1.499325798864e+07 3.006703432796e-04 1.796461364141e-08 -3.143122307662e-05 0.000000000000e+00 1.979873287418e+07 7.473413913117e+06  3.175547428590e-04
3.420000000000e+00 3.504485616522e+05 1.000000000000e+00 -2.408345892576e-03 -3.295973454164e-04 3.628894648100e+01 -8.884321551539e-05 8.918526288315e-04 -2.501931064172e+07 -1.042814315415e+04 -2.025543499336e+07 -1.458614521466e+07 2.113304904305e-04 7.148318078321e-09 2.129411087221e-05 0.000000000000e+00 1.995363028325e+07 9.046738392740e+06  2.015289572315e-04
3.972609728322e+00 3.541988347917e+05 1.000000000000e+00 -2.020220842614e-03 -3.203488140400e-04 3.474112344303e+01 7.636465631822e-06 8.918487036118e-04 -2.735813972767e+07 -1.201274150278e+04 -1.829163116802e+07 -1.415489379164e+07 1.540513370562e-04 2.238929208611e-09 4.891213596917e-05 0.000000000000e+00 1.993488822911e+07 1.169702403747e+07  1.363423322544e-04
4.633649783484e+00 3.580301911513e+05 1.000000000000e+00 -1.657640409160e-03 -3.136610608574e-04 3.319533788731e+01 9.004946268892e-05 8.918450658746e-04 -2.928654416509e+07 -1.368588311150e+04 -1.655741754832e+07 -1.364793713058e+07 1.043958304876e-04 -3.665768066311e-10 6.751463302743e-05 0.000000000000e+00 1.983063294800e+07 1.440595180000e+07  9.169770395961e-05
5.424552109452e+00 3.618906970247e+05 1.000000000000e+00 -1.407245040909e-03 -3.087556241191e-04 3.168500316570e+01 1.546888955093e-04 8.918421301300e-04 -3.042824482466e+07 -1.516092056266e+04 -1.523832797740e+07 -1.307872367620e+07 6.757282492626e-05 -2.685091813653e-10 7.686903103165e-05 0.000000000000e+00 1.958176549275e+07 1.637688504825e+07  7.266826696931e-05
6.370375975935e+00 3.656674933688e+05 1.000000000000e+00 -1.161416025962e-03 -3.051804873803e-04 3.026718839136e+01 2.010691526719e-04 8.918405013966e-04 -3.124479395031e+07 -1.649291032701e+04 -1.420082810279e+07 -1.251529289123e+07 3.735284763036e-05 2.011949108811e-09 8.033714846138e-05 0.000000000000e+00 1.932030498144e+07 1.794622025358e+07  6.963096578112e-05
7.501825115922e+00 3.693795180321e+05 1.000000000000e+00 -9.089023493106e-04 -3.026633816513e-04 2.895768555555e+01 2.268822523153e-04 8.918406133059e-04 -3.181532591421e+07 -1.754572945516e+04 -1.334906511655e+07 -1.195202207037e+07 1.248146610231e-05 3.662159536533e-09 7.944896301660e-05 0.000000000000e+00 1.903880436704e+07 1.920295815530e+07  7.400192715028e-05
8.855503976798e+00 3.729386548895e+05 1.000000000000e+00 -7.257720745936e-04 -3.007762032506e-04 2.779623283947e+01 2.296624892639e-04 8.918431759430e-04 -3.208363276238e+07 -1.777717555137e+04 -1.273542496333e+07 -1.145081644396e+07 -5.222208674830e-06 6.784147522891e-09 7.602111963732e-05 0.000000000000e+00 1.875662472322e+07 2.002146809654e+07  7.876217609278e-05
1.047459878112e+01 3.761527329390e+05 1.000000000000e+00 -5.330852722073e-04 -2.995773716530e-04 2.684457941189e+01 2.085294202186e-04 8.918487910121e-04 -3.223360651152e+07 -1.677344512468e+04 -1.227950701442e+07 -1.101416892679e+07 -1.863061478264e-05 8.114399654877e-09 7.104698568178e-05 0.000000000000e+00 1.850909415091e+07 2.061593299755e+07  8.196598807359e-05
1.241154661369e+01 3.788546175728e+05 1.000000000000e+00 -3.833975232918e-04 -2.987301023611e-04 2.612776105972e+01 1.626940886122e-04 8.918572182313e-04 -3.228694181639e+07 -1.395806011490e+04 -1.198218068734e+07 -1.069136553656e+07 -2.734276614280e-05 1.044663263211e-08 6.647970235065e-05 0.000000000000e+00 1.832016268009e+07 2.097998584465e+07  8.357581568243e-05
1.472871140527e+01 3.808219314875e+05 1.000000000000e+00 -1.988984535369e-04 -2.982245709674e-04 2.565559885442e+01 9.261370117203e-05 8.918650834141e-04 -3.228924846648e+07 -8.773069924405e+03 -1.181138897659e+07 -1.046824238043e+07 -3.223918652099e-05 5.245822642095e-09 6.222502516555e-05 0.000000000000e+00 1.818962660783e+07 2.118140151730e+07  8.317092748990e-05
1.750000000000e+01 3.815774611815e+05 1.000000000000e+00 -9.134233618292e-05 -2.979695961118e-04 2.547503917203e+01 0.000000000000e+00 8.918705996255e-04 -3.228170211517e+07 -8.369366948905e+02 -1.174689079653e+07 -1.037777272706e+07 -3.436336530962e-05 7.058831996993e-09 6.062971199975e-05 0.000000000000e+00 1.813545521292e+07 2.125247146830e+07  8.330812651909e-05
 TITLE = "Profiles along polylines"
 VARIABLES = "DIST" "PRESSURE1" "SATURATION1" "VELOCITY_X1" "VELOCITY_Y1" "TEMPERATURE1" "DISPLACEMENT_X1" "DISPLACEMENT_Y1" "STRESS_XX" "STRESS_XY" "STRESS_YY" "STRESS_ZZ" "STRAIN_XX" "STRAIN_XY" "STRAIN_YY" "STRAIN_PLS"  p_(1st_Invariant)  q_(2nd_Invariant)   Effective_Strain
 ZONE T="TIME=1.000000000000e+00"
0.000000000000e+00 -7.000000000000e+07 0.000000000000e+00 0.000000000000e+00 0.000000000000e+00 2.500000000000e+01 0.000000000000e+00 9.845474375915e-04 2.937283786272e+07 -3.310080384301e-01 3.074762054469e+07 1.803613752222e+07 7.368855221322e-05 -4.303104499592e-12 8.262463964603e-05 0.000000000000e+00 -2.605219864321e+07 1.208289292064e+07  7.853880398416e-05
1.856488293236e-01 -7.000000000000e+07 0.000000000000e+00 0.000000000000e+00 0.000000000000e+00 2.500000000000e+01 1.368482996949e-05 9.845471685312e-04 2.935932230759e+07 -8.247607713735e+01 3.071640721500e+07 1.802271885678e+07 7.368792243029e-05 -1.072189002785e-09 8.250897432843e-05 0.000000000000e+00 -2.603281612645e+07 1.207248900234e+07  7.847117853171e-05