 TITLE = "Time curves in points"
 VARIABLES = "TIME"  "PRESSURE1"  "SATURATION1"  "TEMPERATURE1"  "DISPLACEMENT_X1"  "DISPLACEMENT_Y1"  "STRESS_XX"  "STRESS_XY"  "STRESS_YY"  "STRESS_ZZ"  "STRAIN_XX"  "STRAIN_XY"  "STRAIN_YY"  "STRAIN_PLS"  p_(1st_Invariant)  q_(2nd_Invariant)   Effective_Strain
 ZONE T="POINT=POINT7"
0.000000000000e+00 1.000000000000e+05 1.000000000000e+00 2.500000000000e+01 0.000000000000e+00 0.000000000000e+00 -1.262331305483e+06 1.487475914788e+03 -1.327249178965e+07 -1.357396928539e+06 0.000000000000e+00 0.000000000000e+00 0.000000000000e+00 0.000000000000e+00 5.297406674556e+06 1.196291125004e+07  0.000000000000e+00
1.000000000000e-03 1.413412552946e+05 1.000000000000e+00 2.500280428798e+01 2.342261019086e-06 6.276044196112e-05 -1.487323949092e+06 2.452796220312e+03 -1.320654528724e+07 -1.406055993449e+06 -6.549532923095e-06 7.170950841033e-08 4.256778214629e-06 0.000000000000e+00 5.366641743260e+06 1.176006668610e+07  9.429309524195e-06
2.000000000000e-03 1.644189448192e+05 1.000000000000e+00 2.501564381585e+01 2.932577336294e-06 6.218367484881e-05 -1.484934741701e+06 2.262238688325e+03 -1.319542675908e+07 -1.406348783856e+06 -6.449915862052e-06 5.755380603418e-08 4.680627189957e-06 0.000000000000e+00 5.362236761546e+06 1.174998275008e+07  9.680355076005e-06
3.000000000000e-03 1.801828042397e+05 1.000000000000e+00 2.504723888815e+01 3.584555380938e-06 6.171082186318e-05 -1.488906522737e+06 2.184858984007e+03 -1.319448935505e+07 -1.417981261566e+06 -6.165375699828e-06 5.180559942768e-08 5.147508511817e-06 0.000000000000e+00 5.367125713117e+06 1.174120673854e+07  9.810865239777e-06
4.000000000000e-03 1.909645331175e+05 1.000000000000e+00 2.510343997643e+01 4.295450528504e-06 6.119846329623e-05 -1.497782358527e+06 2.151993437966e+03 -1.320651758712e+07 -1.443375845979e+06 -5.551822179580e-06 4.936415886463e-08 5.643973027356e-06 0.000000000000e+00 5.382558597209e+06 1.173603365986e+07  9.696329519048e-06
1.000000000000e-02 2.067813581907e+05 1.000000000000e+00 2.594628110919e+01 9.243225110501e-06 5.840420399350e-05 -1.602732993807e+06 2.118665852928e+03 -1.353032612075e+07 -1.862017007210e+06 6.099540212909e-06 4.688839540471e-08 9.166327766648e-06 0.000000000000e+00 5.665025373924e+06 1.180008835779e+07  8.082212956983e-06
2.000000000000e-02 2.050625079167e+05 1.000000000000e+00 2.758034036847e+01 1.715114918772e-05 5.658716902717e-05 -1.787388509699e+06 2.100040244123e+03 -1.418900133470e+07 -2.680660914546e+06 2.964768046653e-05 4.550477875063e-08 1.510802209267e-05 0.000000000000e+00 6.219016919648e+06 1.197998042439e+07  2.567733804676e-05
3.000000000000e-02 1.950322212313e+05 1.000000000000e+00 2.908484136141e+01 2.435702637412e-05 5.694214549061e-05 -1.959287699281e+06 2.086668427494e+03 -1.479306188162e+07 -3.435901217639e+06 5.131463611120e-05 4.451144380105e-08 2.072327017905e-05 0.000000000000e+00 6.729416932846e+06 1.216287942303e+07  4.471291403691e-05
4.000000000000e-02 1.817985407931e+05 1.000000000000e+00 3.039238212025e+01 3.096280648879e-05 5.962768809285e-05 -2.117416935270e+06 2.076066156809e+03 -1.530329509173e+07 -4.091364910907e+06 6.978705881016e-05 4.372384655010e-08 2.611754526782e-05 0.000000000000e+00 7.170692312635e+06 1.231810167208e+07  6.107126014691e-05
5.000000000000e-02 1.676434085483e+05 1.000000000000e+00 3.151681238627e+01 3.702699228713e-05 6.331229783098e-05 -2.263009647222e+06 2.067363306644e+03 -1.573060846108e+07 -4.654994666690e+06 8.531414900957e-05 4.307734910932e-08 3.118072533510e-05 0.000000000000e+00 7.549537591665e+06 1.244522110513e+07  7.477024925168e-05
6.000000000000e-02 1.532845441325e+05 1.000000000000e+00 3.248853658346e+01 4.256490656817e-05 6.931215538257e-05 -2.395190953069e+06 2.059865439902e+03 -1.608164067777e+07 -5.138823609409e+06 9.837534695054e-05 4.252036472272e-08 3.611317515904e-05 0.000000000000e+00 7.871885080084e+06 1.254176417155e+07  8.619297880857e-05
7.000000000000e-02 1.396036811256e+05 1.000000000000e+00 3.333663389762e+01 4.765949965205e-05 7.532965365173e-05 -2.517868408553e+06 2.052133329322e+03 -1.638129698034e+07 -5.561472214570e+06 1.095171325100e-04 4.194597936537e-08 4.068146068383e-05 0.000000000000e+00 8.153545867822e+06 1.261996056101e+07  9.588363736618e-05
8.000000000000e-02 1.272619211682e+05 1.000000000000e+00 3.408501699852e+01 5.240978260539e-05 8.213160075092e-05 -2.632521664058e+06 2.045783928203e+03 -1.663483863671e+07 -5.933211314464e+06 1.190660353016e-04 4.147430956799e-08 4.507165144346e-05 0.000000000000e+00 8.400190538410e+06 1.267841246423e+07  1.041233731914e-04
9.000000000000e-02 1.171517363113e+05 1.000000000000e+00 3.475240661445e+01 5.689674842278e-05 8.832173417571e-05 -2.742111370335e+06 2.036700346350e+03 -1.685731220606e+07 -6.265920468618e+06 1.273533290799e-04 4.079952920171e-08 4.916611602195e-05 0.000000000000e+00 8.621781348337e+06 1.272465577174e+07  1.112416910735e-04
1.000000000000e-01 1.102703160861e+05 1.000000000000e+00 3.535333117252e+01 6.109095388560e-05 9.386072308285e-05 -2.846198100642e+06 2.032982126211e+03 -1.705655011196e+07 -6.566854738970e+06 1.346648091387e-04 4.052331856285e-08 5.294340955866e-05 0.000000000000e+00 8.823200983857e+06 1.276344631990e+07  1.175074730352e-04
2.000000000000e-01 1.323288196601e+05 1.000000000000e+00 3.882851231477e+01 8.752432335197e-05 1.886902693557e-04 -3.517065209485e+06 2.004060688674e+03 -1.788932635941e+07 -8.232981813316e+06 1.716316078574e-04 3.837486891723e-08 8.389644027184e-05 0.000000000000e+00 9.879791127405e+06 1.268949908520e+07  1.486497392750e-04
3.000000000000e-01 1.634812514515e+05 1.000000000000e+00 4.114283855407e+01 1.102528955778e-04 2.983630232886e-04 -4.098486917715e+06 1.995934481273e+03 -1.813552959224e+07 -9.290761092111e+06 1.893248890498e-04 3.777120779603e-08 1.140406934076e-04 0.000000000000e+00 1.050825920069e+07 1.229284816208e+07  1.651013507517e-04
4.000000000000e-01 1.951057524480e+05 1.000000000000e+00 4.283441461058e+01 1.296461043370e-04 4.037957507949e-04 -4.613272373685e+06 2.016391103321e+03 -1.815329223102e+07 -1.004232690485e+07 1.981195880154e-04 3.929084257675e-08 1.412962398690e-04 0.000000000000e+00 1.093629716985e+07 1.180242673684e+07  1.766987559573e-04
5.000000000000e-01 2.250539193533e+05 1.000000000000e+00 4.415040919333e+01 1.472607275283e-04 5.062207644106e-04 -5.095165809843e+06 2.064559526041e+03 -1.802827252299e+07 -1.060984818960e+07 2.013000509630e-04 4.286906826451e-08 1.670191910295e-04 0.000000000000e+00 1.124442884081e+07 1.124077435428e+07  1.865372738546e-04
6.000000000000e-01 2.527631152710e+05 1.000000000000e+00 4.521803575671e+01 1.631442410395e-04 6.060894759569e-04 -5.544440094895e+06 2.134747512026e+03 -1.781638423215e+07 -1.105466019827e+07 2.011343092690e-04 4.808303293772e-08 1.914109164401e-04 0.000000000000e+00 1.147182817510e+07 1.064622181219e+07  1.964531846745e-04
7.000000000000e-01 2.783761873711e+05 1.000000000000e+00 4.611200686447e+01 1.772845482954e-04 7.035855508458e-04 -5.961187874329e+06 2.228238004450e+03 -1.755733946406e+07 -1.141482176833e+07 1.990325357781e-04 5.502804094636e-08 2.144100090000e-04 0.000000000000e+00 1.164444970224e+07 1.004846773827e+07  2.071498094482e-04
8.000000000000e-01 3.021552404606e+05 1.000000000000e+00 4.687762352566e+01 1.893879041757e-04 7.988754446384e-04 -6.334645264716e+06 2.332372846663e+03 -1.728447713634e+07 -1.171295470802e+07 1.962347704662e-04 6.276377208219e-08 2.356184046461e-04 0.000000000000e+00 1.177735903636e+07 9.483325505697e+06  2.186037648633e-04
9.000000000000e-01 3.242066392019e+05 1.000000000000e+00 4.754491137781e+01 2.004565416757e-04 8.919239856702e-04 -6.690004338316e+06 2.440685665572e+03 -1.698892095682e+07 -1.196444990818e+07 1.923769694527e-04 7.080986720113e-08 2.559374558914e-04 0.000000000000e+00 1.188112506777e+07 8.920000130179e+06  2.308168594628e-04
1.000000000000e+00 3.447023617940e+05 1.000000000000e+00 4.813450176080e+01 2.103748799770e-04 9.827878924565e-04 -7.021956901417e+06 2.556120944068e+03 -1.668215046534e+07 -1.217837681581e+07 1.879931593924e-04 7.938505931797e-08 2.752776450013e-04 0.000000000000e+00 1.196082806086e+07 8.372336063334e+06  2.436573711749e-04
2.000000000000e+00 4.796085427425e+05 1.000000000000e+00 5.134024693470e+01 2.665399626811e-04 1.736042472543e-03 -9.438319464484e+06 3.299067799120e+03 -1.361763567901e+07 -1.310641907395e+07 1.327126909237e-04 1.345753971219e-07 4.235726209389e-04 0.000000000000e+00 1.205412473915e+07 3.948610292641e+06  3.752506036591e-04
3.000000000000e+00 5.833220838915e+05 1.000000000000e+00 5.340425538575e+01 3.057316467085e-04 2.378737690983e-03 -1.140619792169e+07 4.280828340312e+03 -1.075007226128e+07 -1.355950724761e+07 7.644905182055e-05 2.075061801818e-07 5.469111086189e-04 0.000000000000e+00 1.190525914353e+07 2.545611599464e+06  5.129771064555e-04
4.000000000000e+00 6.697140086513e+05 1.000000000000e+00 5.490878737857e+01 3.360399313678e-04 2.939076863591e-03 -1.307033748000e+07 5.156964332810e+03 -8.161278134452e+06 -1.380930437571e+07 2.391633298416e-05 2.725905681959e-07 6.523444980879e-04 0.000000000000e+00 1.168030666339e+07 5.317203010922e+06  6.407213667805e-04
5.000000000000e+00 7.455226978264e+05 1.000000000000e+00 5.611567457007e+01 3.608947504606e-04 3.436399023844e-03 -1.450791894774e+07 6.023970040552e+03 -5.856312918015e+06 -1.397206746810e+07 -2.343406381429e-05 3.369967064854e-07 7.440029781301e-04 0.000000000000e+00 1.144543311128e+07 8.396520509958e+06  7.559926856664e-04
6.000000000000e+00 8.142013544012e+05 1.000000000000e+00 5.716990259263e+01 3.832457634335e-04 3.885139667442e-03 -1.579793995488e+07 6.760455155896e+03 -3.784765742874e+06 -1.410706937654e+07 -6.633477319470e-05 3.917070293395e-07 8.259605155201e-04 0.000000000000e+00 1.122992502476e+07 1.126333930255e+07  8.610467113351e-04
7.000000000000e+00 8.779417004956e+05 1.000000000000e+00 5.804439800794e+01 4.023040813304e-04 4.292358671082e-03 -1.693208883901e+07 7.300033415681e+03 -1.911105553422e+06 -1.419180257193e+07 -1.053130702049e-04 4.317899857806e-07 8.987008412430e-04 0.000000000000e+00 1.101166565479e+07 1.385559357615e+07  9.557193881688e-04
8.000000000000e+00 9.374371718012e+05 1.000000000000e+00 5.888785281134e+01 4.193857413436e-04 4.667781435924e-03 -1.795950249082e+07 7.663612444242e+03 -2.348484939610e+05 -1.429273896477e+07 -1.397250826814e-04 4.587987136166e-07 9.647108837568e-04 0.000000000000e+00 1.082902998318e+07 1.620544894379e+07  1.041626193725e-03
9.000000000000e+00 9.937703155433e+05 1.000000000000e+00 5.965317844942e+01 4.351826003276e-04 5.015896947449e-03 -1.890398362863e+07 7.979752051060e+03 1.308927593609e+06 -1.438118126062e+07 -1.715208110968e-04 4.822833701231e-07 1.025336137998e-03 0.000000000000e+00 1.065874576521e+07 1.837385941024e+07  1.120982055321e-03
1.000000000000e+01 1.047436495103e+06 1.000000000000e+00 6.034406420573e+01 4.500122616471e-04 5.340065683832e-03 -1.978063313923e+07 8.266829946599e+03 2.745213934549e+06 -1.445545926920e+07 -2.013231811719e-04 5.036091566488e-07 1.081442813837e-03 0.000000000000e+00 1.049695949129e+07 2.039160160265e+07  1.194893238445e-03
1.100000000000e+01 1.098728747000e+06 1.000000000000e+00 6.099305099283e+01 4.633259414914e-04 5.643906918481e-03 -2.058438776957e+07 8.274883002312e+03 4.068798687826e+06 -1.452697631046e+07 -2.285205773377e-04 5.042073836447e-07 1.133260880492e-03 0.000000000000e+00 1.034752179740e+07 2.225168639359e+07  1.263121558235e-03
1.200000000000e+01 1.148046967535e+06 1.000000000000e+00 6.158495237055e+01 4.755064862385e-04 5.929388443296e-03 -2.132873005823e+07 8.418093973456e+03 5.303706737989e+06 -1.458729118791e+07 -2.539273097536e-04 5.148459129297e-07 1.181369160660e-03 0.000000000000e+00 1.020410483605e+07 2.398318068377e+07  1.326685667515e-03
1.300000000000e+01 1.195651368083e+06 1.000000000000e+00 6.212186572654e+01 4.868643245537e-04 6.198106919820e-03 -2.202342388037e+07 8.525426304285e+03 6.467599370088e+06 -1.463477037654e+07 -2.779667104273e-04 5.228191717913e-07 1.226362971145e-03 0.000000000000e+00 1.006353162894e+07 2.560899306376e+07  1.386405615251e-03
1.400000000000e+01 1.242259551708e+06 1.000000000000e+00 6.260772768483e+01 4.973798560814e-04 6.451601417315e-03 -2.267072307498e+07 8.548475300639e+03 7.566614944416e+06 -1.466962688359e+07 -3.007145816792e-04 5.245313829489e-07 1.268478219881e-03 0.000000000000e+00 9.924578338050e+06 2.713636895252e+07  1.442538379596e-03
1.500000000000e+01 1.287424555555e+06 1.000000000000e+00 6.304640614474e+01 5.070438396687e-04 6.690805832218e-03 -2.327318641793e+07 8.526684776099e+03 8.602830270089e+06 -1.469335846736e+07 -3.222103327347e-04 5.229126582688e-07 1.307847676518e-03 0.000000000000e+00 9.787904871734e+06 2.856927312230e+07  1.495221688856e-03
1.600000000000e+01 1.331285541316e+06 1.000000000000e+00 6.344141475303e+01 5.161681954325e-04 6.916733358175e-03 -2.383892098802e+07 8.508587072028e+03 9.586813662407e+06 -1.470645674509e+07 -3.427368235936e-04 5.215682573950e-07 1.344882138548e-03 0.000000000000e+00 9.652854690234e+06 2.992361159300e+07  1.545030079062e-03
1.700000000000e+01 1.373981454982e+06 1.000000000000e+00 6.379585165581e+01 5.251411492233e-04 7.130271070836e-03 -2.437890175272e+07 8.453350164324e+03 1.052968446892e+07 -1.470996263169e+07 -3.626630333520e-04 5.174649442513e-07 1.380033272864e-03 0.000000000000e+00 9.519726638497e+06 3.121808762751e+07  1.592640626803e-03
1.800000000000e+01 1.415647029235e+06 1.000000000000e+00 6.411243622563e+01 5.340289071004e-04 7.332208801810e-03 -2.489562558836e+07 8.369110712406e+03 1.143595361012e+07 -1.470422367185e+07 -3.820687943268e-04 5.112071563945e-07 1.413481536743e-03 0.000000000000e+00 9.387965216695e+06 3.245887866720e+07  1.638277933946e-03
1.900000000000e+01 1.456374282014e+06 1.000000000000e+00 6.439355789026e+01 5.428847348010e-04 7.523234802466e-03 -2.539165516955e+07 8.262773810463e+03 1.230863444778e+07 -1.468994087875e+07 -4.010232539433e-04 5.033078436788e-07 1.445364892684e-03 0.000000000000e+00 9.257653866840e+06 3.365086927031e+07  1.682119203731e-03
2.000000000000e+01 1.496247460135e+06 1.000000000000e+00 6.464132388855e+01 5.510477405447e-04 7.703974123167e-03 -2.585448262937e+07 7.953856753829e+03 1.313489834492e+07 -1.466794813553e+07 -4.190308614846e-04 4.803597194716e-07 1.475237821258e-03 0.000000000000e+00 9.129177473326e+06 3.477289917981e+07  1.723393268966e-03
2.100000000000e+01 1.535192806225e+06 1.000000000000e+00 6.490430940938e+01 5.588924246815e-04 7.876692326172e-03 -2.629534418618e+07 7.814008783256e+03 1.391092140896e+07 -1.465970517157e+07 -4.357118865417e-04 4.699710130862e-07 1.503755367832e-03 0.000000000000e+00 9.014709316265e+06 3.583443147269e+07  1.762478313396e-03
2.200000000000e+01 1.573367391864e+06 1.000000000000e+00 6.515088863720e+01 5.666989930216e-04 8.041799633331e-03 -2.672142985775e+07 7.657979714304e+03 1.465984272304e+07 -1.464941519617e+07 -4.519201248576e-04 4.583802822498e-07 1.531190246126e-03 0.000000000000e+00 8.903667443626e+06 3.685903016927e+07  1.800208789733e-03
2.300000000000e+01 1.610838576131e+06 1.000000000000e+00 6.537661451534e+01 5.737726893203e-04 8.199578709969e-03 -2.711889463762e+07 7.426418894449e+03 1.537046320167e+07 -1.463473021356e+07 -4.672285446071e-04 4.411786213462e-07 1.557039278835e-03 0.000000000000e+00 8.794387216503e+06 3.782533445825e+07  1.835801625665e-03
2.400000000000e+01 1.647648378482e+06 1.000000000000e+00 6.558092359377e+01 5.804688635997e-04 8.350295919212e-03 -2.749529858862e+07 7.238004287887e+03 1.605263526262e+07 -1.461476566693e+07 -4.819508030903e-04 4.271821077159e-07 1.581635557939e-03 0.000000000000e+00 8.685809664309e+06 3.874803520931e+07  1.869791081788e-03
2.500000000000e+01 1.683854202719e+06 1.000000000000e+00 6.576416191171e+01 5.869316827280e-04 8.494209315728e-03 -2.785440282118e+07 7.065053479248e+03 1.671028598196e+07 -1.458959285787e+07 -4.962239503509e-04 4.143343333599e-07 1.605127594606e-03 0.000000000000e+00 8.577903232364e+06 3.963363083520e+07  1.902413223960e-03
2.600000000000e+01 1.719493175218e+06 1.000000000000e+00 6.592693399654e+01 5.933071125062e-04 8.631565857570e-03 -2.820002281088e+07 6.890643886312e+03 1.734670637223e+07 -1.455958075647e+07 -5.101759994488e-04 4.013781921704e-07 1.627651331050e-03 0.000000000000e+00 8.470965731709e+06 4.048813185332e+07  1.933886639327e-03
2.700000000000e+01 1.754594732155e+06 1.000000000000e+00 6.606991878478e+01 5.996374386530e-04 8.762601916909e-03 -2.853348256173e+07 6.718737130768e+03 1.796370612543e+07 -1.452482126386e+07 -5.238527142058e-04 3.886079760442e-07 1.649277397872e-03 0.000000000000e+00 8.364865900050e+06 4.131425801065e+07  1.964310692257e-03
2.800000000000e+01 1.789200920037e+06 1.000000000000e+00 6.619379701274e+01 6.060191532123e-04 8.887537483299e-03 -2.885729639957e+07 6.534080982509e+03 1.856433753795e+07 -1.448539120864e+07 -5.373446302336e-04 3.748906621736e-07 1.670122019715e-03 0.000000000000e+00 8.259450023421e+06 4.211678911378e+07  1.993860158871e-03
2.900000000000e+01 1.823338912299e+06 1.000000000000e+00 6.629922530560e+01 6.124982739596e-04 9.006580072622e-03 -2.917298953525e+07 6.338120913163e+03 1.914964890893e+07 -1.444166348489e+07 -5.506945478698e-04 3.603336284508e-07 1.690237983754e-03 0.000000000000e+00 8.155001370405e+06 4.289793621364e+07  2.022615672479e-03
3.000000000000e+01 1.857014513206e+06 1.000000000000e+00 6.638683103109e+01 6.190474350791e-04 9.119931357194e-03 -2.947996411091e+07 6.166457950896e+03 1.972026508846e+07 -1.439349085508e+07 -5.638857297874e-04 3.475815226823e-07 1.709643029887e-03 0.000000000000e+00 8.051063292511e+06 4.365783321063e+07  2.050582862486e-03
3.100000000000e+01 1.890151113501e+06 1.000000000000e+00 6.649419011281e+01 6.257709791623e-04 9.229142407757e-03 -2.978340028114e+07 5.964636024985e+03 2.026655530684e+07 -1.435842090101e+07 -5.764588144042e-04 3.325890367575e-07 1.728631211133e-03 0.000000000000e+00 7.958421958438e+06 4.439491656762e+07  2.077728485429e-03
3.200000000000e+01 1.922830080027e+06 1.000000000000e+00 6.659549683178e+01 6.327437811989e-04 9.334317880466e-03 -3.008492388558e+07 5.758777350800e+03 2.080362693545e+07 -1.432342234342e+07 -5.889582089938e-04 3.172966781037e-07 1.747279639485e-03 0.000000000000e+00 7.868239764516e+06 4.512194214321e+07  2.104503005371e-03
3.300000000000e+01 1.955077262852e+06 1.000000000000e+00 6.668654149222e+01 6.399672286659e-04 9.435517827832e-03 -3.038517379099e+07 5.552473493728e+03 2.133421188847e+07 -1.428639569748e+07 -6.014856237580e-04 3.019712487213e-07 1.765611805176e-03 0.000000000000e+00 7.779119200001e+06 4.584153891906e+07  2.130999857737e-03
3.400000000000e+01 1.986915457134e+06 1.000000000000e+00 6.676628760818e+01 6.473994258704e-04 9.532768747192e-03 -3.068313661887e+07 5.362179877994e+03 2.185772242674e+07 -1.424685067978e+07 -6.140216294511e-04 2.878351515525e-07 1.783587667369e-03 0.000000000000e+00 7.690754957301e+06 4.655230250183e+07  2.157166934421e-03
3.500000000000e+01 2.018386078475e+06 1.000000000000e+00 6.683449111677e+01 6.553727935511e-04 9.626132630518e-03 -3.098612842857e+07 5.147161089090e+03 2.238168226710e+07 -1.420463960709e+07 -6.268434507971e-04 2.718623272339e-07 1.801481193025e-03 0.000000000000e+00 7.603028589522e+06 4.726679962064e+07  2.183463787183e-03
3.600000000000e+01 2.049530889919e+06 1.000000000000e+00 6.689117748563e+01 6.642569681632e-04 9.715660858033e-03 -3.130191592355e+07 4.963181750629e+03 2.291401825081e+07 -1.415972338116e+07 -6.402410175736e-04 2.581952906625e-07 1.819585355457e-03 0.000000000000e+00 7.515873684633e+06 4.799835804459e+07  2.210378430476e-03
3.700000000000e+01 2.080435745441e+06 1.000000000000e+00 6.693649239167e+01 6.754092858014e-04 9.801409843178e-03 -3.166010752584e+07 5.155629583540e+03 2.348351950968e+07 -1.411239874990e+07 -6.553030491056e-04 2.724914153930e-07 1.838980487340e-03 0.000000000000e+00 7.429662255355e+06 4.879649021796e+07  2.239723434342e-03
3.800000000000e+01 2.113302048560e+06 1.000000000000e+00 6.697096005175e+01 7.309781407034e-04 9.883199475508e-03 -3.297019586744e+07 1.740142075265e+04 2.497902526785e+07 -1.406904494002e+07 -7.055737575892e-04 1.182178759384e-06 1.892917559705e-03 0.000000000000e+00 7.353405179868e+06 5.118651844179e+07  2.327352221578e-03
3.900000000000e+01 2.143157947788e+06 1.000000000000e+00 6.699389716341e+01 7.281305173908e-04 9.962027672307e-03 -3.301135934804e+07 2.801408642654e+03 2.523812114290e+07 -1.401190156692e+07 -7.092251550123e-04 9.760643121291e-08 1.900418652635e-03 0.000000000000e+00 7.261713257355e+06 5.145165547993e+07  2.337181233424e-03
4.000000000000e+01 2.172544101843e+06 1.000000000000e+00 6.700587685751e+01 7.226862336113e-04 1.003697071628e-02 -3.299378758930e+07 2.801451125806e+03 2.542525733791e+07 -1.395489047682e+07 -7.106900444629e-04 9.760958710425e-08 1.905251870817e-03 0.000000000000e+00 7.174473576070e+06 5.160455649682e+07  2.342884674054e-03
4.200000000000e+01 2.229827605392e+06 1.000000000000e+00 6.705899310480e+01 7.127291051854e-04 1.017731607339e-02 -3.296237788807e+07 2.801268339024e+03 2.576460370338e+07 -1.386259439255e+07 -7.129515386902e-04 9.759600865753e-08 1.914428024119e-03 0.000000000000e+00 7.020122859078e+06 5.188436649144e+07  2.353344214120e-03
4.400000000000e+01 2.285593809495e+06 1.000000000000e+00 6.709089078090e+01 7.035578756164e-04 1.030815537828e-02 -3.293172045040e+07 2.801906517499e+03 2.609131520051e+07 -1.376688601199e+07 -7.153677165690e-04 9.764341620140e-08 1.923008139877e-03 0.000000000000e+00 6.869097087294e+06 5.215211341595e+07  2.363338580591e-03
5.000000000000e+01 2.437116678573e+06 1.000000000000e+00 6.687731638316e+01 6.844147854687e-04 1.058185494065e-02 -3.284979504278e+07 2.802254284485e+03 2.691125770217e+07 -1.342258790308e+07 -7.251129883309e-04 9.766925032040e-08 1.940674931608e-03 0.000000000000e+00 6.453708414567e+06 5.279971094077e+07  2.387303219884e-03
6.500000000000e+01 2.768502507756e+06 1.000000000000e+00 6.609227658982e+01 6.582647063786e-04 1.104619225705e-02 -3.267330750800e+07 2.800860176755e+03 2.858868421581e+07 -1.259359209253e+07 -7.493490100023e-04 9.756568803185e-08 1.972188072008e-03 0.000000000000e+00 5.559405128238e+06 5.409346785953e+07  2.434934688656e-03
8.000000000000e+01 3.023556374630e+06 1.000000000000e+00 6.508884968109e+01 6.489447820525e-04 1.126655916068e-02 -3.254397735339e+07 2.801969711317e+03 2.973467175163e+07 -1.186129023354e+07 -7.717451018793e-04 9.764811059935e-08 1.987553540005e-03 0.000000000000e+00 4.890198611768e+06 5.493918356429e+07  2.465734031579e-03
1.000000000000e+02 3.324236305531e+06 1.000000000000e+00 6.398428875965e+01 6.445279387015e-04 1.145104482284e-02 -3.241380966320e+07 2.802029602841e+03 3.085991586652e+07 -1.109948486836e+07 -7.952059298074e-04 9.765255968399e-08 2.001052693565e-03 0.000000000000e+00 4.217792888347e+06 5.576045256724e+07  2.495558724938e-03
1.860000000000e+02 3.922717201764e+06 1.000000000000e+00 6.134131221386e+01 6.520974562681e-04 1.167037084777e-02 -3.214455966510e+07 2.801984014947e+03 3.308849261783e+07 -9.427766934390e+06 -8.472975959969e-04 9.764917315464e-08 2.021736021066e-03 0.000000000000e+00 2.827944660553e+06 5.735432048039e+07  2.553104356280e-03
2.720000000000e+02 4.213038211969e+06 1.000000000000e+00 5.933681595054e+01 6.748051525653e-04 1.150228254641e-02 -3.204323796972e+07 2.801524333346e+03 3.374219398418e+07 -8.500983596385e+06 -8.779575998661e-04 9.761502537860e-08 2.011592976405e-03 0.000000000000e+00 2.267342527311e+06 5.773407528286e+07  2.565815507776e-03
3.580000000000e+02 4.354403691727e+06 1.000000000000e+00 5.793077727829e+01 6.946976728101e-04 1.132638912284e-02 -3.198678913418e+07 2.802616535375e+03 3.404814252236e+07 -7.900899717614e+06 -8.981497586144e-04 9.769616038643e-08 2.000667949469e-03 0.000000000000e+00 1.946515443142e+06 5.788119064018e+07  2.570261600975e-03
4.440000000000e+02 4.426532453840e+06 1.000000000000e+00 5.685962552591e+01 7.114078262085e-04 1.116180033354e-02 -3.195325044026e+07 2.802778764903e+03 3.418596204649e+07 -7.475093006811e+06 -9.127197135272e-04 9.770821172284e-08 1.989971282535e-03 0.000000000000e+00 1.747460466859e+06 5.791899159598e+07  2.570861534260e-03
5.300000000000e+02 4.465496889446e+06 1.000000000000e+00 5.603562150135e+01 7.250770381293e-04 1.101915376062e-02 -3.193242412289e+07 2.803297494022e+03 3.424191199469e+07 -7.164011220180e+06 -9.235006309572e-04 9.774674588592e-08 1.980494957108e-03 0.000000000000e+00 1.618174449461e+06 5.790927198105e+07  2.569864210745e-03
6.160000000000e+02 4.488012314786e+06 1.000000000000e+00 5.540773413179e+01 7.359753443339e-04 1.090092784347e-02 -3.191953034465e+07 2.804716846376e+03 3.425460961109e+07 -6.936820985549e+06 -9.314602136231e-04 9.785218348939e-08 1.972528088431e-03 0.000000000000e+00 1.533913906370e+06 5.787869455854e+07  2.568232203786e-03
7.020000000000e+02 4.501822576458e+06 1.000000000000e+00 5.494614336094e+01 7.441792607787e-04 1.081024236628e-02 -3.191127590353e+07 2.803914472911e+03 3.425164967359e+07 -6.773849679320e+06 -9.372068400411e-04 9.779257860338e-08 1.966364927949e-03 0.000000000000e+00 1.477825303085e+06 5.784684331244e+07  2.566678472281e-03
7.880000000000e+02 4.511441113274e+06 1.000000000000e+00 5.458452954715e+01 7.510501644516e-04 1.072852044125e-02 -3.190843935194e+07 2.804846168729e+03 3.421328516095e+07 -6.658059347105e+06 -9.414022661787e-04 9.786179029275e-08 1.960639176569e-03 0.000000000000e+00 1.451071179365e+06 5.779329975025e+07  2.564389674011e-03
8.740000000000e+02 4.519827167133e+06 1.000000000000e+00 5.400168344939e+01 7.614044329916e-04 1.061299390498e-02 -3.189789597393e+07 2.804753203232e+03 3.421070420701e+07 -6.451894755792e+06 -9.486681969587e-04 9.785488428440e-08 1.952885770602e-03 0.000000000000e+00 1.379695507571e+06 5.775505604485e+07  2.562493869755e-03
9.370000000000e+02 4.525201002277e+06 1.000000000000e+00 5.359758949594e+01 7.694689764981e-04 1.051803806759e-02 -3.189472059256e+07 2.806166561120e+03 3.416656918362e+07 -6.322864929272e+06 -9.533427906358e-04 9.795987658466e-08 1.946453933320e-03 0.000000000000e+00 1.350338779404e+06 5.769492235452e+07  2.559918601131e-03
1.000000000000e+03 4.529391016052e+06 1.000000000000e+00 5.327744951566e+01 7.763056668000e-04 1.043853659050e-02 -3.189270596837e+07 2.806435053989e+03 3.412530230141e+07 -6.222665551157e+06 -9.569896529242e-04 9.797982176920e-08 1.941199472222e-03 0.000000000000e+00 1.330023072705e+06 5.764237567978e+07  2.557692793269e-03
1.100000000000e+03 4.533536316160e+06 1.000000000000e+00 5.295519145958e+01 7.834788177404e-04 1.035536335880e-02 -3.189119556762e+07 2.807668243415e+03 3.407784003666e+07 -6.123723837740e+06 -9.606085302518e-04 9.807143012659e-08 1.935761610176e-03 0.000000000000e+00 1.312359789566e+06 5.758490272265e+07  2.555279026632e-03
1.200000000000e+03 4.536797682874e+06 1.000000000000e+00 5.267850939785e+01 7.894146508290e-04 1.028624443453e-02 -3.188950603766e+07 2.806906443257e+03 3.404157676284e+07 -6.037320207366e+06 -9.637550539814e-04 9.801483925768e-08 1.931205410878e-03 0.000000000000e+00 1.295083160726e+06 5.753938312613e+07  2.553348222806e-03
1.300000000000e+03 4.539703052077e+06 1.000000000000e+00 5.241293296211e+01 7.950474265888e-04 1.022045606850e-02 -3.188780458065e+07 2.807210545799e+03 3.400776073787e+07 -5.954065776336e+06 -9.667841644451e-04 9.803742973226e-08 1.926857079654e-03 0.000000000000e+00 1.278036539706e+06 5.749666061021e+07  2.551529887465e-03
1.400000000000e+03 4.542442562524e+06 1.000000000000e+00 5.214105380058e+01 8.008504868227e-04 1.015248028943e-02 -3.188619245987e+07 2.806412196591e+03 3.397177918401e+07 -5.869281842241e+06 -9.698734032254e-04 9.797812379110e-08 1.922371504388e-03 0.000000000000e+00 1.261231706033e+06 5.745198977444e+07  2.549632059963e-03
1.500000000000e+03 4.545082446453e+06 1.000000000000e+00 5.185280185965e+01 8.070974416169e-04 1.007909418555e-02 -3.188473893885e+07 2.806740154451e+03 3.393087929130e+07 -5.780290511990e+06 -9.731248075682e-04 9.800248637493e-08 1.917546973249e-03 0.000000000000e+00 1.244716719847e+06 5.740259090450e+07  2.547542118176e-03
1.600000000000e+03 4.547643486991e+06 1.000000000000e+00 5.154203532848e+01 8.139552281813e-04 9.998324882062e-03 -3.188349144548e+07 2.807433993654e+03 3.388332144030e+07 -5.685478267913e+06 -9.766000697373e-04 9.805402871577e-08 1.912258941146e-03 0.000000000000e+00 1.228549424364e+06 5.734675025336e+07  2.545190405122e-03
1.700000000000e+03 4.550130771773e+06 1.000000000000e+00 5.120496310407e+01 8.215259277799e-04 9.908951691923e-03 -3.188247828829e+07 2.807736705625e+03 3.382804203500e+07 -5.583845796496e+06 -9.803373585516e-04 9.807651589071e-08 1.906430785725e-03 0.000000000000e+00 1.212760683263e+06 5.728345093410e+07  2.542535157462e-03
1.800000000000e+03 4.552544175197e+06 1.000000000000e+00 5.083929706478e+01 8.298731004488e-04 9.810239006593e-03 -3.188172088464e+07 2.807046921640e+03 3.376437402869e+07 -5.474798795115e+06 -9.843595436102e-04 9.802527479470e-08 1.900015656868e-03 0.000000000000e+00 1.197381883688e+06 5.721209680997e+07  2.539551492117e-03
1.900000000000e+03 4.554883463306e+06 1.000000000000e+00 5.044375052885e+01 8.390306861768e-04 9.701767616229e-03 -3.188122939174e+07 2.807287599785e+03 3.369194097370e+07 -5.358002907122e+06 -9.886794211423e-04 9.804315374259e-08 1.892987153272e-03 0.000000000000e+00 1.182430441720e+06 5.713239177258e+07  2.536226494619e-03
2.000000000000e+03 4.557147803229e+06 1.000000000000e+00 5.001772135124e+01 8.490151952647e-04 9.583346898401e-03 -3.188100754216e+07 2.808649786537e+03 3.361058435018e+07 -5.233296057807e+06 -9.933031497036e-04 9.814434475850e-08 1.885333367138e-03 0.000000000000e+00 1.167906416596e+06 5.704426451636e+07  2.532556150053e-03