 TITLE = "Time curves in points"
 VARIABLES = "TIME"  "PRESSURE1"  "SATURATION1"  "TEMPERATURE1"  "DISPLACEMENT_X1"  "DISPLACEMENT_Y1"  "STRESS_XX"  "STRESS_XY"  "STRESS_YY"  "STRESS_ZZ"  "STRAIN_XX"  "STRAIN_XY"  "STRAIN_YY"  "STRAIN_PLS"  p_(1st_Invariant)  q_(2nd_Invariant)   Effective_Strain
 ZONE T="POINT=POINT7"
0.000000000000e+00 1.000000000000e+05 1.000000000000e+00 2.500000000000e+01 0.000000000000e+00 0.000000000000e+00 -1.262331305483e+06 1.487475914788e+03 -1.327249178965e+07 -1.357396928539e+06 0.000000000000e+00 0.000000000000e+00 0.000000000000e+00 0.000000000000e+00 5.297406674556e+06 1.196291125004e+07  0.000000000000e+00
1.000000000000e-03 1.413412552946e+05 1.000000000000e+00 2.500280428798e+01 2.342265987984e-06 6.276102543038e-05 -1.487323942242e+06 2.450445229844e+03 -1.320654526206e+07 -1.406055983839e+06 -6.549533025614e-06 7.153486340419e-08 4.256778793073e-06 0.000000000000e+00 5.366641729379e+06 1.176006666770e+07  9.429306100916e-06
2.000000000000e-03 1.644189448192e+05 1.000000000000e+00 2.501564381585e+01 2.932136456879e-06 6.218143433747e-05 -1.484933115346e+06 2.263309454780e+03 -1.319541528110e+07 -1.406344852554e+06 -6.450001474363e-06 5.763334868513e-08 4.680907495305e-06 0.000000000000e+00 5.362231082999e+06 1.174997406325e+07  9.680663151541e-06
3.000000000000e-03 1.801828042397e+05 1.000000000000e+00 2.504723888815e+01 3.584406383702e-06 6.170866784018e-05 -1.488906235567e+06 2.184473849381e+03 -1.319448620632e+07 -1.417980230798e+06 -6.165403319203e-06 5.177698942691e-08 5.147587178743e-06 0.000000000000e+00 5.367124224230e+06 1.174120425197e+07  9.810955381552e-06
4.000000000000e-03 1.909645331175e+05 1.000000000000e+00 2.510343997643e+01 4.295451961775e-06 6.119844430256e-05 -1.497782151401e+06 2.152205630909e+03 -1.320651746007e+07 -1.443375745726e+06 -5.551818209984e-06 4.937992176897e-08 5.643974022632e-06 0.000000000000e+00 5.382558452399e+06 1.173603368624e+07  9.696327195923e-06
1.000000000000e-02 2.067813581907e+05 1.000000000000e+00 2.594628110919e+01 9.243325246460e-06 5.840520833502e-05 -1.602733356566e+06 2.119100103577e+03 -1.353032869905e+07 -1.862017889526e+06 6.099559510733e-06 4.692065402431e-08 9.166264773145e-06 0.000000000000e+00 5.665026648381e+06 1.180009032199e+07  8.082169466471e-06
2.000000000000e-02 2.050625079167e+05 1.000000000000e+00 2.758034036847e+01 1.715115338277e-05 5.658715659557e-05 -1.787389012853e+06 2.099937562450e+03 -1.418900158649e+07 -2.680661141031e+06 2.964767019025e-05 4.549715096918e-08 1.510802115254e-05 0.000000000000e+00 6.219017246792e+06 1.197998029608e+07  2.567732915375e-05
3.000000000000e-02 1.950322212313e+05 1.000000000000e+00 2.908484136141e+01 2.435657673655e-05 5.694295680332e-05 -1.959285847147e+06 2.086984197406e+03 -1.479305140503e+07 -3.435897519021e+06 5.131456752754e-05 4.453490099449e-08 2.072352193231e-05 0.000000000000e+00 6.729411590399e+06 1.216287159654e+07  4.471282351055e-05
4.000000000000e-02 1.817985407931e+05 1.000000000000e+00 3.039238212025e+01 3.096280246223e-05 5.962730281183e-05 -2.117417399452e+06 2.076573292181e+03 -1.530329506825e+07 -4.091365043119e+06 6.978704647987e-05 4.376151946346e-08 2.611755105046e-05 0.000000000000e+00 7.170692503608e+06 1.231810131388e+07  6.107124794344e-05
5.000000000000e-02 1.676434085483e+05 1.000000000000e+00 3.151681238627e+01 3.702694088871e-05 6.331143620625e-05 -2.263009454624e+06 2.067565189697e+03 -1.573060726701e+07 -4.654994250689e+06 8.531414071179e-05 4.309234613613e-08 3.118075423480e-05 0.000000000000e+00 7.549536990775e+06 1.244522019567e+07  7.477023710411e-05
6.000000000000e-02 1.532845441325e+05 1.000000000000e+00 3.248853658346e+01 4.256485534521e-05 6.931263619451e-05 -2.395190767981e+06 2.059412592370e+03 -1.608163894628e+07 -5.138823034434e+06 9.837533246903e-05 4.248672462035e-08 3.611321811547e-05 0.000000000000e+00 7.871884249565e+06 1.254176278037e+07  8.619295874825e-05
7.000000000000e-02 1.396036811256e+05 1.000000000000e+00 3.333663389762e+01 4.765907994638e-05 7.533003292440e-05 -2.517866514964e+06 2.051857760838e+03 -1.638128654363e+07 -5.561468515479e+06 1.095170654485e-04 4.192550856370e-08 4.068171093842e-05 0.000000000000e+00 8.153540524691e+06 1.261995276243e+07  9.588353822827e-05
8.000000000000e-02 1.272619211682e+05 1.000000000000e+00 3.408501699852e+01 5.240944864166e-05 8.213249507441e-05 -2.632520241780e+06 2.045410137455e+03 -1.663483005928e+07 -5.933208314551e+06 1.190659767037e-04 4.144654225528e-08 4.507185860844e-05 0.000000000000e+00 8.400186205203e+06 1.267840595360e+07  1.041232900614e-04
9.000000000000e-02 1.171517363113e+05 1.000000000000e+00 3.475240661445e+01 5.689668994042e-05 8.831922728648e-05 -2.742111353376e+06 2.037684430851e+03 -1.685731127111e+07 -6.265920183046e+06 1.273533191028e-04 4.087263262182e-08 4.916614014168e-05 0.000000000000e+00 8.621780935844e+06 1.272465495561e+07  1.112416787905e-04
1.000000000000e-01 1.102703160861e+05 1.000000000000e+00 3.535333117252e+01 6.109083606354e-05 9.386256028132e-05 -2.846197215780e+06 2.032273514925e+03 -1.705654757551e+07 -6.566853712576e+06 1.346648038818e-04 4.047067886733e-08 5.294346564655e-05 0.000000000000e+00 8.823199501288e+06 1.276344475900e+07  1.175074612724e-04
2.000000000000e-01 1.323288196601e+05 1.000000000000e+00 3.882851231477e+01 8.752445077333e-05 1.886881179072e-04 -3.517065566739e+06 2.006287688121e+03 -1.788932953068e+07 -8.232982871873e+06 1.716316339058e-04 3.854030316189e-08 8.389636179970e-05 0.000000000000e+00 9.879792656431e+06 1.268950161402e+07  1.486497631415e-04
3.000000000000e-01 1.634812514515e+05 1.000000000000e+00 4.114283855407e+01 1.102528973283e-04 2.983627633797e-04 -4.098486742696e+06 1.995908965909e+03 -1.813552973665e+07 -9.290761082928e+06 1.893248952094e-04 3.776931236905e-08 1.140406877029e-04 0.000000000000e+00 1.050825918742e+07 1.229284843472e+07  1.651013550169e-04
4.000000000000e-01 1.951057524480e+05 1.000000000000e+00 4.283441461058e+01 1.296461127305e-04 4.037944695654e-04 -4.613272421067e+06 2.017275809868e+03 -1.815329261276e+07 -1.004232703359e+07 1.981195910372e-04 3.935656363454e-08 1.412962304717e-04 0.000000000000e+00 1.093629735581e+07 1.180242703473e+07  1.766987559349e-04
5.000000000000e-01 2.250539193533e+05 1.000000000000e+00 4.415040919333e+01 1.472607279755e-04 5.062201400607e-04 -5.095165914123e+06 2.065030410674e+03 -1.802827265958e+07 -1.060984826186e+07 2.013000497738e-04 4.290404826584e-08 1.670191886400e-04 0.000000000000e+00 1.124442894519e+07 1.124077438651e+07  1.865372722776e-04
6.000000000000e-01 2.527631152710e+05 1.000000000000e+00 4.521803575671e+01 1.631442058058e-04 6.060896594622e-04 -5.544439567822e+06 2.134324987708e+03 -1.781638225925e+07 -1.105465944828e+07 2.011343009893e-04 4.805164541690e-08 1.914109618622e-04 0.000000000000e+00 1.147182709179e+07 1.064622053259e+07  1.964532012121e-04
7.000000000000e-01 2.783761873711e+05 1.000000000000e+00 4.611200686447e+01 1.772845394710e-04 7.035861235058e-04 -5.961187714352e+06 2.228391113495e+03 -1.755733907928e+07 -1.141482160491e+07 1.990325356499e-04 5.503941476115e-08 2.144100172217e-04 0.000000000000e+00 1.164444946618e+07 1.004846754007e+07  2.071498139605e-04
8.000000000000e-01 3.021552404606e+05 1.000000000000e+00 4.687762352566e+01 1.893878757918e-04 7.988756210086e-04 -6.334645698521e+06 2.331321785784e+03 -1.728447712518e+07 -1.171295483481e+07 1.962347590629e-04 6.268569327404e-08 2.356184097702e-04 0.000000000000e+00 1.177735921950e+07 9.483325120448e+06  2.186037639281e-04
9.000000000000e-01 3.242066392019e+05 1.000000000000e+00 4.754491137781e+01 2.004565398144e-04 8.919247764409e-04 -6.690004345095e+06 2.440673068355e+03 -1.698892097124e+07 -1.196444991454e+07 1.923769694371e-04 7.080893140787e-08 2.559374555920e-04 0.000000000000e+00 1.188112507696e+07 8.920000136725e+06  2.308168592503e-04
1.000000000000e+00 3.447023617940e+05 1.000000000000e+00 4.813450176080e+01 2.103746813957e-04 9.827859069426e-04 -7.021956248006e+06 2.556915616848e+03 -1.668214606366e+07 -1.217837529928e+07 1.879931273338e-04 7.944409215308e-08 2.752777521641e-04 0.000000000000e+00 1.196082587032e+07 8.372332859838e+06  2.436574443365e-04
2.000000000000e+00 4.796085427425e+05 1.000000000000e+00 5.134024693470e+01 2.665400087262e-04 1.736042196215e-03 -9.438320015640e+06 3.299975721596e+03 -1.361763688190e+07 -1.310641960016e+07 1.327126899973e-04 1.346428427914e-07 4.235725958052e-04 0.000000000000e+00 1.205412549923e+07 3.948610672043e+06  3.752505800010e-04
3.000000000000e+00 5.833220838915e+05 1.000000000000e+00 5.340425538575e+01 3.057316252056e-04 2.378738054367e-03 -1.140619758123e+07 4.282120104575e+03 -1.075007050024e+07 -1.355950661716e+07 7.644904104956e-05 2.076021398128e-07 5.469111506123e-04 0.000000000000e+00 1.190525823287e+07 2.545612290291e+06  5.129771523507e-04
4.000000000000e+00 6.697140086513e+05 1.000000000000e+00 5.490878737857e+01 3.360403546700e-04 2.939077381854e-03 -1.307033900010e+07 5.156218723255e+03 -8.161287913448e+06 -1.380930776544e+07 2.391640242771e-05 2.725351800576e-07 6.523442607722e-04 0.000000000000e+00 1.168031155966e+07 5.317195932796e+06  6.407210967587e-04
5.000000000000e+00 7.455226978264e+05 1.000000000000e+00 5.611567457007e+01 3.608947465576e-04 3.436398382172e-03 -1.450791904014e+07 6.024100799112e+03 -5.856312966989e+06 -1.397206751052e+07 -2.343406567115e-05 3.370064199783e-07 7.440029778864e-04 0.000000000000e+00 1.144543317255e+07 8.396520531041e+06  7.559926864071e-04
6.000000000000e+00 8.142013544012e+05 1.000000000000e+00 5.716990259263e+01 3.832457589949e-04 3.885140175978e-03 -1.579793992834e+07 6.758967274010e+03 -3.784765237961e+06 -1.410706921710e+07 -6.633477813087e-05 3.915965009708e-07 8.259605283521e-04 0.000000000000e+00 1.122992479447e+07 1.126333972326e+07  8.610467267355e-04
7.000000000000e+00 8.779417004956e+05 1.000000000000e+00 5.804439800794e+01 4.023041358924e-04 4.292357522094e-03 -1.693208902823e+07 7.299809143992e+03 -1.911106882904e+06 -1.419180302754e+07 -1.053130603104e-04 4.317733255980e-07 8.987008087849e-04 0.000000000000e+00 1.101166631289e+07 1.385559254410e+07  9.557193500939e-04
8.000000000000e+00 9.374371718011e+05 1.000000000000e+00 5.888785281134e+01 4.193857357438e-04 4.667781762892e-03 -1.795950240377e+07 7.663037640256e+03 -2.348481357983e+05 -1.429273883120e+07 -1.397250844090e-04 4.587560138919e-07 9.647108920990e-04 0.000000000000e+00 1.082902979026e+07 1.620544919392e+07  1.041626202986e-03
9.000000000000e+00 9.937703155433e+05 1.000000000000e+00 5.965317844942e+01 4.351824416350e-04 5.015896349313e-03 -1.890398306981e+07 7.980363857807e+03 1.308931034428e+06 -1.438118006073e+07 -1.715208349082e-04 4.823288186243e-07 1.025336221233e-03 0.000000000000e+00 1.065874403204e+07 1.837386203197e+07  1.120982152414e-03
1.000000000000e+01 1.047436495103e+06 1.000000000000e+00 6.034406420573e+01 4.500122734509e-04 5.340065705215e-03 -1.978063327478e+07 8.266099851045e+03 2.745213803418e+06 -1.445545934920e+07 -2.013231832349e-04 5.035549209791e-07 1.081442811938e-03 0.000000000000e+00 1.049695960685e+07 2.039160158989e+07  1.194893237779e-03
1.100000000000e+01 1.098728747000e+06 1.000000000000e+00 6.099305099283e+01 4.633256888747e-04 5.643906705769e-03 -2.058438682117e+07 8.275318875423e+03 4.068804150222e+06 -1.452697438722e+07 -2.285206135461e-04 5.042397627901e-07 1.133261011946e-03 0.000000000000e+00 1.034751901939e+07 2.225169050618e+07  1.263121710899e-03
1.200000000000e+01 1.148046967535e+06 1.000000000000e+00 6.158495237055e+01 4.755064885868e-04 5.929389755458e-03 -2.132872996519e+07 8.417916977466e+03 5.303706423913e+06 -1.458729125423e+07 -2.539273038349e-04 5.148327646561e-07 1.181369151458e-03 0.000000000000e+00 1.020410493183e+07 2.398318033240e+07  1.326685654656e-03
1.300000000000e+01 1.195651368083e+06 1.000000000000e+00 6.212186572654e+01 4.868646480519e-04 6.198105785212e-03 -2.202342489937e+07 8.527704170735e+03 6.467592083270e+06 -1.463477286829e+07 -2.779666557253e-04 5.229883847275e-07 1.226362793042e-03 0.000000000000e+00 1.006353522813e+07 2.560898739135e+07  1.386405404884e-03
1.400000000000e+01 1.242259551708e+06 1.000000000000e+00 6.260772768483e+01 4.973799784644e-04 6.451601643490e-03 -2.267072337995e+07 8.547598587309e+03 7.566612301085e+06 -1.466962776808e+07 -3.007145601542e-04 5.244662556730e-07 1.268478154553e-03 0.000000000000e+00 9.924579615647e+06 2.713636684285e+07  1.442538301319e-03
1.500000000000e+01 1.287424555555e+06 1.000000000000e+00 6.304640614474e+01 5.070438704137e-04 6.690806346782e-03 -2.327318724036e+07 8.527607057735e+03 8.602829330644e+06 -1.469335899592e+07 -3.222103436497e-04 5.229811706190e-07 1.307847661257e-03 0.000000000000e+00 9.787905635213e+06 2.856927293445e+07  1.495221681060e-03
1.600000000000e+01 1.331285541316e+06 1.000000000000e+00 6.344141475302e+01 5.161682818054e-04 6.916732307776e-03 -2.383892132263e+07 8.509798343669e+03 9.586811340141e+06 -1.470645754216e+07 -3.427368064169e-04 5.216582375740e-07 1.344882081898e-03 0.000000000000e+00 9.652855841549e+06 2.992360979421e+07  1.545030012272e-03
1.700000000000e+01 1.373981454982e+06 1.000000000000e+00 6.379585165581e+01 5.251412244762e-04 7.130271102894e-03 -2.437890198387e+07 8.453142322756e+03 1.052968269997e+07 -1.470996323172e+07 -3.626630196507e-04 5.174495045920e-07 1.380033229447e-03 0.000000000000e+00 9.519727505207e+06 3.121808623789e+07  1.592640575168e-03
1.800000000000e+01 1.415647029235e+06 1.000000000000e+00 6.411243622563e+01 5.340290504491e-04 7.332208960030e-03 -2.489562613164e+07 8.368963949478e+03 1.143595041219e+07 -1.470422479421e+07 -3.820687728181e-04 5.111962540055e-07 1.413481459650e-03 0.000000000000e+00 9.387966837888e+06 3.245887625473e+07  1.638277844138e-03
1.900000000000e+01 1.456374282014e+06 1.000000000000e+00 6.439355789026e+01 5.428847246186e-04 7.523234830295e-03 -2.539165513158e+07 8.263229182306e+03 1.230863465074e+07 -1.468994080647e+07 -4.010232552175e-04 5.033416713014e-07 1.445364897537e-03 0.000000000000e+00 9.257653762436e+06 3.365086942095e+07  1.682119209362e-03
2.000000000000e+01 1.496247460135e+06 1.000000000000e+00 6.464132388855e+01 5.510474128460e-04 7.703974926840e-03 -2.585448152251e+07 7.953130073346e+03 1.313490594997e+07 -1.466794552196e+07 -4.190309174484e-04 4.803057374929e-07 1.475238006656e-03 0.000000000000e+00 9.129173698164e+06 3.477290506022e+07  1.723393487722e-03
2.100000000000e+01 1.535192806225e+06 1.000000000000e+00 6.490430940938e+01 5.588924323864e-04 7.876692373029e-03 -2.629534414746e+07 7.813831359575e+03 1.391092112868e+07 -1.465970524404e+07 -4.357118824119e-04 4.699578330414e-07 1.503755360114e-03 0.000000000000e+00 9.014709420940e+06 3.583443119272e+07  1.762478303063e-03
2.200000000000e+01 1.573367391864e+06 1.000000000000e+00 6.515088863720e+01 5.666989924252e-04 8.041799133427e-03 -2.672142985076e+07 7.657870424049e+03 1.465984279102e+07 -1.464941517369e+07 -4.519201254334e-04 4.583721635451e-07 1.531190247816e-03 0.000000000000e+00 8.903667411145e+06 3.685903022406e+07  1.800208791765e-03
2.300000000000e+01 1.610838576131e+06 1.000000000000e+00 6.537661451534e+01 5.737726556416e-04 8.199579346668e-03 -2.711889455048e+07 7.425546706545e+03 1.537046402475e+07 -1.463472994049e+07 -4.672285515129e-04 4.411138302449e-07 1.557039299265e-03 0.000000000000e+00 8.794386822071e+06 3.782533511992e+07  1.835801650231e-03
2.400000000000e+01 1.647648378482e+06 1.000000000000e+00 6.558092359377e+01 5.804687730507e-04 8.350296073778e-03 -2.749529835947e+07 7.238475706526e+03 1.605263708026e+07 -1.461476505290e+07 -4.819508173862e-04 4.272171273863e-07 1.581635602644e-03 0.000000000000e+00 8.685808777372e+06 3.874803664248e+07  1.869791135121e-03
2.500000000000e+01 1.683854202719e+06 1.000000000000e+00 6.576416191171e+01 5.869316873138e-04 8.494209564573e-03 -2.785440294358e+07 7.064997013430e+03 1.671028580820e+07 -1.458959294671e+07 -4.962239515971e-04 4.143301387563e-07 1.605127591452e-03 0.000000000000e+00 8.577903360696e+06 3.963363077838e+07  1.902413221736e-03
2.600000000000e+01 1.719493175218e+06 1.000000000000e+00 6.592693399654e+01 5.933070919095e-04 8.631565796547e-03 -2.820002247477e+07 6.890705293484e+03 1.734670678482e+07 -1.455958053186e+07 -5.101759953075e-04 4.013827538460e-07 1.627651338032e-03 0.000000000000e+00 8.470965407272e+06 4.048813195166e+07  1.933886643292e-03
2.700000000000e+01 1.754594732155e+06 1.000000000000e+00 6.606991878478e+01 5.996372543794e-04 8.762602272067e-03 -2.853348154370e+07 6.718051590154e+03 1.796370979364e+07 -1.452481985799e+07 -5.238527286114e-04 3.885570501701e-07 1.649277481902e-03 0.000000000000e+00 8.364863869347e+06 4.131426045692e+07  1.964310783874e-03
2.800000000000e+01 1.789200920037e+06 1.000000000000e+00 6.619379701274e+01 6.060192698048e-04 8.887536523763e-03 -2.885729689083e+07 6.534879198105e+03 1.856433539184e+07 -1.448539199985e+07 -5.373446190926e-04 3.749499581893e-07 1.670121969390e-03 0.000000000000e+00 8.259451166279e+06 4.211678759973e+07  1.993860102301e-03
2.900000000000e+01 1.823338912299e+06 1.000000000000e+00 6.629922530560e+01 6.124982737176e-04 9.006580072836e-03 -2.917298942785e+07 6.338105497182e+03 1.914964894296e+07 -1.444166344246e+07 -5.506945454567e-04 3.603324832636e-07 1.690237983442e-03 0.000000000000e+00 8.155001309118e+06 4.289793615786e+07  2.022615670510e-03
3.000000000000e+01 1.857014513206e+06 1.000000000000e+00 6.638683103109e+01 6.190474864020e-04 9.119932349040e-03 -2.947996414384e+07 6.164917182809e+03 1.972026335051e+07 -1.439349138634e+07 -5.638857112778e-04 3.474670656244e-07 1.709642985067e-03 0.000000000000e+00 8.051064059892e+06 4.365783169170e+07  2.050582806091e-03
3.100000000000e+01 1.890151113501e+06 1.000000000000e+00 6.649419011281e+01 6.257709749282e-04 9.229141907120e-03 -2.978340018044e+07 5.963792178527e+03 2.026655603249e+07 -1.435842065310e+07 -5.764588198719e-04 3.325263510206e-07 1.728631228878e-03 0.000000000000e+00 7.958421600352e+06 4.439491713144e+07  2.077728506416e-03
3.200000000000e+01 1.922830080027e+06 1.000000000000e+00 6.659549683178e+01 6.327442972946e-04 9.334317915814e-03 -3.008492566948e+07 5.759732097144e+03 2.080361534434e+07 -1.432342635592e+07 -5.889581262169e-04 3.173676021179e-07 1.747279357994e-03 0.000000000000e+00 7.868245560354e+06 4.512193327410e+07  2.104502674775e-03
3.300000000000e+01 1.955077262852e+06 1.000000000000e+00 6.668654149222e+01 6.399671940546e-04 9.435517988056e-03 -3.038517378784e+07 5.552164382302e+03 2.133421237709e+07 -1.428639554995e+07 -6.014856291208e-04 3.019482861582e-07 1.765611817845e-03 0.000000000000e+00 7.779118986901e+06 4.584153935068e+07  2.130999873748e-03
3.400000000000e+01 1.986915457134e+06 1.000000000000e+00 6.676628760819e+01 6.473994008608e-04 9.532767340113e-03 -3.068313646782e+07 5.361796556051e+03 2.185772262341e+07 -1.424685057546e+07 -6.140216277154e-04 2.878066762081e-07 1.783587670799e-03 0.000000000000e+00 7.690754806623e+06 4.655230255501e+07  2.157166936522e-03
3.500000000000e+01 2.018386078475e+06 1.000000000000e+00 6.683449111677e+01 6.553727940622e-04 9.626133803280e-03 -3.098612862909e+07 5.146998423531e+03 2.238168217804e+07 -1.420463969396e+07 -6.268434550181e-04 2.718502435066e-07 1.801481192944e-03 0.000000000000e+00 7.603028715005e+06 4.726679970284e+07  2.183463790053e-03
3.600000000000e+01 2.049530889919e+06 1.000000000000e+00 6.689117748563e+01 6.642569946581e-04 9.715660762011e-03 -3.130191597386e+07 4.964373902458e+03 2.291401742411e+07 -1.415972364427e+07 -6.402410096698e-04 2.582838505127e-07 1.819585334524e-03 0.000000000000e+00 7.515874064672e+06 4.799835735081e+07  2.210378404700e-03
3.700000000000e+01 2.080435745441e+06 1.000000000000e+00 6.693649239167e+01 6.754089635961e-04 9.801408009901e-03 -3.166010616625e+07 5.155203313038e+03 2.348353044537e+07 -1.411239506132e+07 -6.553031356111e-04 2.724597495843e-07 1.838980756518e-03 0.000000000000e+00 7.429656927399e+06 4.879649883925e+07  2.239723755547e-03
3.800000000000e+01 2.113302048560e+06 1.000000000000e+00 6.697096005175e+01 7.309782161332e-04 9.883199265142e-03 -3.297019595884e+07 1.740022497662e+04 2.497902343699e+07 -1.406904551670e+07 -7.055737395646e-04 1.182089930308e-06 1.892917513121e-03 0.000000000000e+00 7.353406012851e+06 5.118651688795e+07  2.327352163699e-03
3.900000000000e+01 2.143157947788e+06 1.000000000000e+00 6.699389716341e+01 7.281303815534e-04 9.962027579309e-03 -3.301135936330e+07 2.801525361357e+03 2.523812398591e+07 -1.401190071860e+07 -7.092251870881e-04 9.761510174516e-08 1.900418726723e-03 0.000000000000e+00 7.261712031995e+06 5.145165801816e+07  2.337181327683e-03
4.000000000000e+01 2.172544101843e+06 1.000000000000e+00 6.700587685751e+01 7.226864483651e-04 1.003697054043e-02 -3.299378850175e+07 2.802121907853e+03 2.542525210508e+07 -1.395489232040e+07 -7.106900098778e-04 9.765941662770e-08 1.905251744930e-03 0.000000000000e+00 7.174476239024e+06 5.160455258652e+07  2.342884528042e-03
4.200000000000e+01 2.229827605392e+06 1.000000000000e+00 6.705899310480e+01 7.127289555125e-04 1.017731502130e-02 -3.296237775559e+07 2.801219141558e+03 2.576460007934e+07 -1.386259544001e+07 -7.129514948636e-04 9.759235398864e-08 1.914427928417e-03 0.000000000000e+00 7.020124372087e+06 5.188436316434e+07  2.353344090667e-03
4.400000000000e+01 2.285593809495e+06 1.000000000000e+00 6.709089078090e+01 7.035576708442e-04 1.030815526432e-02 -3.293171966056e+07 2.802010347303e+03 2.609131989525e+07 -1.376688436661e+07 -7.153677483460e-04 9.765112927259e-08 1.923008253139e-03 0.000000000000e+00 6.869094710640e+06 5.215211694812e+07  2.363338712441e-03
5.000000000000e+01 2.437116678573e+06 1.000000000000e+00 6.687731638316e+01 6.844150072580e-04 1.058185584128e-02 -3.284979588756e+07 2.801126007250e+03 2.691125419814e+07 -1.342258920772e+07 -7.251129712501e-04 9.758543544005e-08 1.940674849916e-03 0.000000000000e+00 6.453710299048e+06 5.279970851100e+07  2.387303128929e-03
6.500000000000e+01 2.768502507756e+06 1.000000000000e+00 6.609227658981e+01 6.582647019826e-04 1.104619355786e-02 -3.267330728019e+07 2.800974196616e+03 2.858868483233e+07 -1.259359183923e+07 -7.493490109489e-04 9.757415807869e-08 1.972188085499e-03 0.000000000000e+00 5.559404762361e+06 5.409346822265e+07  2.434934702334e-03
8.000000000000e+01 3.023556374630e+06 1.000000000000e+00 6.508884968109e+01 6.489447115923e-04 1.126655884243e-02 -3.254397699244e+07 2.802297604170e+03 2.973467345397e+07 -1.186128961456e+07 -7.717451114635e-04 9.767246835417e-08 1.987553580243e-03 0.000000000000e+00 4.890197717676e+06 5.493918478332e+07  2.465734077177e-03
1.000000000000e+02 3.324236305531e+06 1.000000000000e+00 6.398428875965e+01 6.445277137947e-04 1.145104485839e-02 -3.241380886908e+07 2.801801972543e+03 3.085991950989e+07 -1.109948353711e+07 -7.952059497578e-04 9.763565000469e-08 2.001052779444e-03 0.000000000000e+00 4.217790965434e+06 5.576045515638e+07  2.495558821836e-03
1.860000000000e+02 3.922717201764e+06 1.000000000000e+00 6.134131221386e+01 6.520975422776e-04 1.167037131685e-02 -3.214456016707e+07 2.802871756607e+03 3.308849051231e+07 -9.427767716637e+06 -8.472975855866e-04 9.771511967804e-08 2.021735971916e-03 0.000000000000e+00 2.827945790465e+06 5.735431902264e+07  2.553104301634e-03
2.720000000000e+02 4.213038211969e+06 1.000000000000e+00 5.933681595054e+01 6.748049251458e-04 1.150228187352e-02 -3.204323743506e+07 2.802509259867e+03 3.374219375561e+07 -8.500983504556e+06 -8.779575834178e-04 9.768819134875e-08 2.011592964504e-03 0.000000000000e+00 2.267342394668e+06 5.773407464066e+07  2.565815484342e-03
3.580000000000e+02 4.354403691727e+06 1.000000000000e+00 5.793077727829e+01 6.946976919968e-04 1.132638936182e-02 -3.198679000047e+07 2.802439273979e+03 3.404814110162e+07 -7.900900403727e+06 -8.981497653069e-04 9.768299239710e-08 2.000667922183e-03 0.000000000000e+00 1.946516434193e+06 5.788119009516e+07  2.570261579910e-03
4.440000000000e+02 4.426532453839e+06 1.000000000000e+00 5.685962552591e+01 7.114075496969e-04 1.116180021716e-02 -3.195324937047e+07 2.802893397819e+03 3.418596609351e+07 -7.475091471769e+06 -9.127197308080e-04 9.771672731092e-08 1.989971375837e-03 0.000000000000e+00 1.747458249577e+06 5.791899429763e+07  2.570861635867e-03
5.300000000000e+02 4.465496889446e+06 1.000000000000e+00 5.603562150135e+01 7.250769249883e-04 1.101915338976e-02 -3.193242397065e+07 2.803557309940e+03 3.424191199055e+07 -7.164011175748e+06 -9.235006269527e-04 9.776604649707e-08 1.980494955304e-03 0.000000000000e+00 1.618174385283e+06 5.790927185131e+07  2.569864206050e-03
6.160000000000e+02 4.488012314786e+06 1.000000000000e+00 5.540773413179e+01 7.359756554490e-04 1.090092960222e-02 -3.191953150926e+07 2.803813049434e+03 3.425460227472e+07 -6.936823535842e+06 -9.314601621546e-04 9.778504428804e-08 1.972527910662e-03 0.000000000000e+00 1.533917590126e+06 5.787868902809e+07  2.568231996574e-03
7.020000000000e+02 4.501822576458e+06 1.000000000000e+00 5.494614336095e+01 7.441792087072e-04 1.081024227023e-02 -3.191127607689e+07 2.805307637234e+03 3.425165130110e+07 -6.773849243079e+06 -9.372068626838e-04 9.789607081036e-08 1.966364972196e-03 0.000000000000e+00 1.477824672959e+06 5.784684489741e+07  2.566678531210e-03
7.880000000000e+02 4.511441113274e+06 1.000000000000e+00 5.458452954715e+01 7.510499877218e-04 1.072852082442e-02 -3.190843881405e+07 2.804408091482e+03 3.421328459227e+07 -6.658059356344e+06 -9.414022458569e-04 9.782924741163e-08 1.960639155790e-03 0.000000000000e+00 1.451071192710e+06 5.779329879983e+07  2.564389639077e-03
8.740000000000e+02 4.519827167133e+06 1.000000000000e+00 5.400168344939e+01 7.614047334667e-04 1.061299349362e-02 -3.189789696894e+07 2.805442363557e+03 3.421069724173e+07 -6.451897143880e+06 -9.486681452158e-04 9.790607905149e-08 1.952885600592e-03 0.000000000000e+00 1.379698957030e+06 5.775505070988e+07  2.562493669853e-03
9.370000000000e+02 4.525201002277e+06 1.000000000000e+00 5.359758949594e+01 7.694689732211e-04 1.051803753473e-02 -3.189472060488e+07 2.806115895920e+03 3.416656906411e+07 -6.322864968818e+06 -9.533427896242e-04 9.795611288417e-08 1.946453930350e-03 0.000000000000e+00 1.350338836527e+06 5.769492225904e+07  2.559918597558e-03
1.000000000000e+03 4.529391016052e+06 1.000000000000e+00 5.327744951566e+01 7.763059301095e-04 1.043853723406e-02 -3.189270682869e+07 2.805465545918e+03 3.412529648057e+07 -6.222667555504e+06 -9.569896104318e-04 9.790780116973e-08 1.941199330467e-03 0.000000000000e+00 1.330025967872e+06 5.764237124854e+07  2.557692627129e-03
1.100000000000e+03 4.533536316160e+06 1.000000000000e+00 5.295519145957e+01 7.834786026742e-04 1.035536434639e-02 -3.189119555452e+07 2.806692486494e+03 3.407783532368e+07 -6.123725247702e+06 -9.606084773951e-04 9.799894532677e-08 1.935761487493e-03 0.000000000000e+00 1.312361826178e+06 5.758489854407e+07  2.555278870733e-03
1.200000000000e+03 4.536797682874e+06 1.000000000000e+00 5.267850939785e+01 7.894146353598e-04 1.028624568979e-02 -3.188950614193e+07 2.807007506758e+03 3.404157623004e+07 -6.037320398489e+06 -9.637550507557e-04 9.802234683211e-08 1.931205398187e-03 0.000000000000e+00 1.295083436793e+06 5.753938274213e+07  2.553348208376e-03
1.300000000000e+03 4.539703052077e+06 1.000000000000e+00 5.241293296211e+01 7.950474012692e-04 1.022045686841e-02 -3.188780417462e+07 2.807162121866e+03 3.400776139979e+07 -5.954065455951e+06 -9.667841612639e-04 9.803383252584e-08 1.926857092340e-03 0.000000000000e+00 1.278036076927e+06 5.749666085621e+07  2.551529897042e-03
1.400000000000e+03 4.542442562524e+06 1.000000000000e+00 5.214105380058e+01 8.008505312450e-04 1.015248025836e-02 -3.188619258290e+07 2.806370852488e+03 3.397177908051e+07 -5.869281910202e+06 -9.698734052710e-04 9.797505251493e-08 1.922371503067e-03 0.000000000000e+00 1.261231804200e+06 5.745198978577e+07  2.549632060265e-03
1.500000000000e+03 4.545082446453e+06 1.000000000000e+00 5.185280185966e+01 8.070974176133e-04 1.007909419940e-02 -3.188473961478e+07 2.806539694121e+03 3.393086975192e+07 -5.780293576583e+06 -9.731247188465e-04 9.798759503621e-08 1.917546732757e-03 0.000000000000e+00 1.244721146480e+06 5.740258304046e+07  2.547541823942e-03
1.600000000000e+03 4.547643486991e+06 1.000000000000e+00 5.154203532847e+01 8.139550512265e-04 9.998325123424e-03 -3.188349157629e+07 2.806941841534e+03 3.388331961159e+07 -5.685478855769e+06 -9.766000527615e-04 9.801746884404e-08 1.912258895057e-03 0.000000000000e+00 1.228550273490e+06 5.734674874721e+07  2.545190348758e-03
1.700000000000e+03 4.550130771773e+06 1.000000000000e+00 5.120496310407e+01 8.215261519727e-04 9.908952182113e-03 -3.188247916293e+07 2.807080343857e+03 3.382803624512e+07 -5.583847795850e+06 -9.803373167763e-04 9.802775758801e-08 1.906430644934e-03 0.000000000000e+00 1.212763571219e+06 5.728344655269e+07  2.542534992977e-03
1.800000000000e+03 4.552544175197e+06 1.000000000000e+00 5.083929706477e+01 8.298729519587e-04 9.810239208049e-03 -3.188172020231e+07 2.808532502344e+03 3.376437726889e+07 -5.474797618358e+06 -9.843595619748e-04 9.813563221848e-08 1.900015733510e-03 0.000000000000e+00 1.197380183928e+06 5.721209909937e+07  2.539551578313e-03
1.900000000000e+03 4.554883463306e+06 1.000000000000e+00 5.044375052886e+01 8.390305669343e-04 9.701767053235e-03 -3.188122910112e+07 2.808421376105e+03 3.369194342823e+07 -5.358002083577e+06 -9.886794409363e-04 9.812737712640e-08 1.892987213851e-03 0.000000000000e+00 1.182429252154e+06 5.713239369563e+07  2.536226566754e-03
2.000000000000e+03 4.557147803229e+06 1.000000000000e+00 5.001772135123e+01 8.490153940108e-04 9.583348041081e-03 -3.188100842966e+07 2.807746275782e+03 3.361058000892e+07 -5.233297626435e+06 -9.933031244047e-04 9.807722681668e-08 1.885333264154e-03 0.000000000000e+00 1.167908682392e+06 5.704426143054e+07  2.532556033845e-03