 TITLE = "Profiles along polylines"
 VARIABLES = "DIST" "PRESSURE1" "SATURATION1" "VELOCITY_X1" "VELOCITY_Y1" "TEMPERATURE1" "DISPLACEMENT_X1" "DISPLACEMENT_Y1" "STRESS_XX" "STRESS_XY" "STRESS_YY" "STRESS_ZZ" "STRAIN_XX" "STRAIN_XY" "STRAIN_YY" "STRAIN_PLS"  p_(1st_Invariant)  q_(2nd_Invariant)   Effective_Strain
 ZONE T="TIME=0.000000000000e+00"
0.000000000000e+00 1.000000000000e+05 1.000000000000e+00 0.000000000000e+00 0.000000000000e+00 2.500000000000e+01 0.000000000000e+00 0.000000000000e+00 -3.096833482140e+07 1.077886406635e+03 -1.276457505907e+07 -1.019441292181e+07 0.000000000000e+00 0.000000000000e+00 0.000000000000e+00 0.000000000000e+00 1.797577426743e+07 1.961553518206e+07  0.000000000000e+00
2.928677190000e+00 1.000000000000e+05 1.000000000000e+00 0.000000000000e+00 0.000000000000e+00 2.500000000000e+01 0.000000000000e+00 0.000000000000e+00 -3.124521844470e+07 -4.424462380100e+03 -1.287258575701e+07 -1.029766313748e+07 0.000000000000e+00 0.000000000000e+00 0.000000000000e+00 0.000000000000e+00 1.813848911306e+07 1.978615739825e+07  0.000000000000e+00
5.000000000000e+00 1.000000000000e+05 1.000000000000e+00 0.000000000000e+00 0.000000000000e+00 2.500000000000e+01 0.000000000000e+00 0.000000000000e+00 -3.142298898784e+07 -1.384629659344e+03 -1.297921547231e+07 -1.037389995124e+07 0.000000000000e+00 0.000000000000e+00 0.000000000000e+00 0.000000000000e+00 1.825870147046e+07 1.987491649329e+07  0.000000000000e+00
6.565046960000e+00 1.000000000000e+05 1.000000000000e+00 0.000000000000e+00 0.000000000000e+00 2.500000000000e+01 0.000000000000e+00 0.000000000000e+00 -3.156600360094e+07 -3.725143533728e+03 -1.307760749187e+07 -1.043926445151e+07 0.000000000000e+00 0.000000000000e+00 0.000000000000e+00 0.000000000000e+00 1.836095851477e+07 1.993891716008e+07  0.000000000000e+00
7.950196795000e+00 1.000000000000e+05 1.000000000000e+00 0.000000000000e+00 0.000000000000e+00 2.500000000000e+01 0.000000000000e+00 0.000000000000e+00 -3.172171541269e+07 -1.054749547737e+04 -1.317482636852e+07 -1.050871502870e+07 0.000000000000e+00 0.000000000000e+00 0.000000000000e+00 0.000000000000e+00 1.846841893664e+07 2.001358658115e+07  0.000000000000e+00
9.176169591000e+00 1.000000000000e+05 1.000000000000e+00 0.000000000000e+00 0.000000000000e+00 2.500000000000e+01 0.000000000000e+00 0.000000000000e+00 -3.187999868153e+07 -3.807959427004e+03 -1.328199360566e+07 -1.058302149448e+07 0.000000000000e+00 0.000000000000e+00 0.000000000000e+00 0.000000000000e+00 1.858167126056e+07 2.008396832760e+07  0.000000000000e+00
1.026151647400e+01 1.000000000000e+05 1.000000000000e+00 0.000000000000e+00 0.000000000000e+00 2.500000000000e+01 0.000000000000e+00 0.000000000000e+00 -3.207620799022e+07 -1.170448835464e+04 -1.339894141158e+07 -1.067199211314e+07 0.000000000000e+00 0.000000000000e+00 0.000000000000e+00 0.000000000000e+00 1.871571383831e+07 2.017941796247e+07  0.000000000000e+00
1.122191314800e+01 1.000000000000e+05 1.000000000000e+00 0.000000000000e+00 0.000000000000e+00 2.500000000000e+01 0.000000000000e+00 0.000000000000e+00 -3.230584229320e+07 -2.331602220942e+03 -1.354638047761e+07 -1.078088341866e+07 0.000000000000e+00 0.000000000000e+00 0.000000000000e+00 0.000000000000e+00 1.887770206316e+07 2.028409806674e+07  0.000000000000e+00
1.207197121800e+01 1.000000000000e+05 1.000000000000e+00 0.000000000000e+00 0.000000000000e+00 2.500000000000e+01 0.000000000000e+00 0.000000000000e+00 -3.262633317467e+07 -2.960537234866e+04 -1.370638049441e+07 -1.092108631395e+07 0.000000000000e+00 0.000000000000e+00 0.000000000000e+00 0.000000000000e+00 1.908459999434e+07 2.045538404978e+07  0.000000000000e+00
1.282449932700e+01 1.000000000000e+05 1.000000000000e+00 0.000000000000e+00 0.000000000000e+00 2.500000000000e+01 0.000000000000e+00 0.000000000000e+00 -3.304132034641e+07 -1.955830627644e+04 -1.390762275569e+07 -1.110261097844e+07 0.000000000000e+00 0.000000000000e+00 0.000000000000e+00 0.000000000000e+00 1.935051802685e+07 2.067940688777e+07  0.000000000000e+00
1.349045755400e+01 1.000000000000e+05 1.000000000000e+00 0.000000000000e+00 0.000000000000e+00 2.500000000000e+01 0.000000000000e+00 0.000000000000e+00 -3.359153361348e+07 -6.296757267984e+03 -1.417550052995e+07 -1.134513739607e+07 0.000000000000e+00 0.000000000000e+00 0.000000000000e+00 0.000000000000e+00 1.970405717983e+07 2.097493359617e+07  0.000000000000e+00
1.408000000000e+01 1.000000000000e+05 1.000000000000e+00 0.000000000000e+00 0.000000000000e+00 2.500000000000e+01 0.000000000000e+00 0.000000000000e+00 -3.444049899891e+07 -5.858766693045e+04 -1.446208944789e+07 -1.168309508854e+07 0.000000000000e+00 0.000000000000e+00 0.000000000000e+00 0.000000000000e+00 2.019522784511e+07 2.150325191297e+07  0.000000000000e+00
1.465000000000e+01 1.000000000000e+05 1.000000000000e+00 0.000000000000e+00 0.000000000000e+00 2.500000000000e+01 0.000000000000e+00 0.000000000000e+00 -3.583452980825e+07 -4.128069141583e+04 -1.483252039436e+07 -1.220989351998e+07 0.000000000000e+00 0.000000000000e+00 0.000000000000e+00 0.000000000000e+00 2.095898124086e+07 2.242873419822e+07  0.000000000000e+00
1.522000000000e+01 1.000000000000e+05 1.000000000000e+00 0.000000000000e+00 0.000000000000e+00 2.500000000000e+01 0.000000000000e+00 0.000000000000e+00 -3.864302542005e+07 -1.960132696367e+04 -1.523974570659e+07 -1.317212244625e+07 0.000000000000e+00 0.000000000000e+00 0.000000000000e+00 0.000000000000e+00 2.235163119096e+07 2.450263017377e+07  0.000000000000e+00
1.567618708200e+01 1.000000000000e+05 1.000000000000e+00 0.000000000000e+00 0.000000000000e+00 2.500000000000e+01 0.000000000000e+00 0.000000000000e+00 -4.414320770328e+07 -1.039458447777e+05 -1.493821914647e+07 -1.472954125001e+07 0.000000000000e+00 0.000000000000e+00 0.000000000000e+00 0.000000000000e+00 2.460365603325e+07 2.931043760953e+07  0.000000000000e+00
1.601230646800e+01 1.000000000000e+05 1.000000000000e+00 0.000000000000e+00 0.000000000000e+00 2.500000000000e+01 0.000000000000e+00 0.000000000000e+00 -5.392247428685e+07 1.681961164950e+05 -1.289459479228e+07 -1.704877640293e+07 0.000000000000e+00 0.000000000000e+00 0.000000000000e+00 0.000000000000e+00 2.795528182735e+07 3.911766516493e+07  0.000000000000e+00
1.626000000000e+01 1.000000000000e+05 1.000000000000e+00 0.000000000000e+00 0.000000000000e+00 2.500000000000e+01 0.000000000000e+00 0.000000000000e+00 -6.854419775061e+07 7.586938602830e+05 -6.954707405871e+06 -1.965222756120e+07 0.000000000000e+00 0.000000000000e+00 0.000000000000e+00 0.000000000000e+00 3.171704423923e+07 5.633990941714e+07  0.000000000000e+00
1.636000000000e+01 1.000000000000e+05 1.000000000000e+00 0.000000000000e+00 0.000000000000e+00 2.500000000000e+01 0.000000000000e+00 0.000000000000e+00 -5.392170068764e+07 8.391404681268e+05 -2.357515820812e+05 -1.424861648653e+07 0.000000000000e+00 0.000000000000e+00 0.000000000000e+00 0.000000000000e+00 2.280202291875e+07 4.825308313763e+07  0.000000000000e+00
1.655254661500e+01 -7.000000000000e+07 6.817856140032e-01 0.000000000000e+00 0.000000000000e+00 2.500000000000e+01 0.000000000000e+00 0.000000000000e+00 0.000000000000e+00 0.000000000000e+00 0.000000000000e+00 0.000000000000e+00 0.000000000000e+00 0.000000000000e+00 0.000000000000e+00 0.000000000000e+00 -0.000000000000e+00 0.000000000000e+00  0.000000000000e+00
1.671286624100e+01 -7.000000000000e+07 6.684759947500e-01 0.000000000000e+00 0.000000000000e+00 2.500000000000e+01 0.000000000000e+00 0.000000000000e+00 0.000000000000e+00 0.000000000000e+00 0.000000000000e+00 0.000000000000e+00 0.000000000000e+00 0.000000000000e+00 0.000000000000e+00 0.000000000000e+00 -0.000000000000e+00 0.000000000000e+00  0.000000000000e+00
1.684635003100e+01 -7.000000000000e+07 6.684759947500e-01 0.000000000000e+00 0.000000000000e+00 2.500000000000e+01 0.000000000000e+00 0.000000000000e+00 0.000000000000e+00 0.000000000000e+00 0.000000000000e+00 0.000000000000e+00 0.000000000000e+00 0.000000000000e+00 0.000000000000e+00 0.000000000000e+00 -0.000000000000e+00 0.000000000000e+00  0.000000000000e+00
1.695745861500e+01 -7.000000000000e+07 6.684759947500e-01 0.000000000000e+00 0.000000000000e+00 2.500000000000e+01 0.000000000000e+00 0.000000000000e+00 0.000000000000e+00 0.000000000000e+00 0.000000000000e+00 0.000000000000e+00 0.000000000000e+00 0.000000000000e+00 0.000000000000e+00 0.000000000000e+00 -0.000000000000e+00 0.000000000000e+00  0.000000000000e+00
1.705000000000e+01 -7.000000000000e+07 6.684759947500e-01 0.000000000000e+00 0.000000000000e+00 2.500000000000e+01 0.000000000000e+00 0.000000000000e+00 0.000000000000e+00 0.000000000000e+00 0.000000000000e+00 0.000000000000e+00 0.000000000000e+00 0.000000000000e+00 0.000000000000e+00 0.000000000000e+00 -0.000000000000e+00 0.000000000000e+00  0.000000000000e+00
1.716700339000e+01 -7.000000000000e+07 0.000000000000e+00 0.000000000000e+00 0.000000000000e+00 2.500000000000e+01 0.000000000000e+00 0.000000000000e+00 0.000000000000e+00 0.000000000000e+00 0.000000000000e+00 0.000000000000e+00 0.000000000000e+00 0.000000000000e+00 0.000000000000e+00 0.000000000000e+00 -0.000000000000e+00 0.000000000000e+00  0.000000000000e+00
1.731435117100e+01 -7.000000000000e+07 0.000000000000e+00 0.000000000000e+00 0.000000000000e+00 2.500000000000e+01 0.000000000000e+00 0.000000000000e+00 0.000000000000e+00 0.000000000000e+00 0.000000000000e+00 0.000000000000e+00 0.000000000000e+00 0.000000000000e+00 0.000000000000e+00 0.000000000000e+00 -0.000000000000e+00 0.000000000000e+00  0.000000000000e+00
1.750000000000e+01 -7.000000000000e+07 0.000000000000e+00 0.000000000000e+00 0.000000000000e+00 2.500000000000e+01 0.000000000000e+00 0.000000000000e+00 0.000000000000e+00 0.000000000000e+00 0.000000000000e+00 0.000000000000e+00 0.000000000000e+00 0.000000000000e+00 0.000000000000e+00 0.000000000000e+00 -0.000000000000e+00 0.000000000000e+00  0.000000000000e+00
1.768564882900e+01 -7.000000000000e+07 0.000000000000e+00 0.000000000000e+00 0.000000000000e+00 2.500000000000e+01 0.000000000000e+00 0.000000000000e+00 0.000000000000e+00 0.000000000000e+00 0.000000000000e+00 0.000000000000e+00 0.000000000000e+00 0.000000000000e+00 0.000000000000e+00 0.000000000000e+00 -0.000000000000e+00 0.000000000000e+00  0.000000000000e+00
1.783299661000e+01 -7.000000000000e+07 0.000000000000e+00 0.000000000000e+00 0.000000000000e+00 2.500000000000e+01 0.000000000000e+00 0.000000000000e+00 0.000000000000e+00 0.000000000000e+00 0.000000000000e+00 0.000000000000e+00 0.000000000000e+00 0.000000000000e+00 0.000000000000e+00 0.000000000000e+00 -0.000000000000e+00 0.000000000000e+00  0.000000000000e+00
1.795000000000e+01 -7.000000000000e+07 6.684759947500e-01 0.000000000000e+00 0.000000000000e+00 2.500000000000e+01 0.000000000000e+00 0.000000000000e+00 0.000000000000e+00 0.000000000000e+00 0.000000000000e+00 0.000000000000e+00 0.000000000000e+00 0.000000000000e+00 0.000000000000e+00 0.000000000000e+00 -0.000000000000e+00 0.000000000000e+00  0.000000000000e+00
1.804254138500e+01 -7.000000000000e+07 6.684759947500e-01 0.000000000000e+00 0.000000000000e+00 2.500000000000e+01 0.000000000000e+00 0.000000000000e+00 0.000000000000e+00 0.000000000000e+00 0.000000000000e+00 0.000000000000e+00 0.000000000000e+00 0.000000000000e+00 0.000000000000e+00 0.000000000000e+00 -0.000000000000e+00 0.000000000000e+00  0.000000000000e+00
1.815364996900e+01 -7.000000000000e+07 6.684759947500e-01 0.000000000000e+00 0.000000000000e+00 2.500000000000e+01 0.000000000000e+00 0.000000000000e+00 0.000000000000e+00 0.000000000000e+00 0.000000000000e+00 0.000000000000e+00 0.000000000000e+00 0.000000000000e+00 0.000000000000e+00 0.000000000000e+00 -0.000000000000e+00 0.000000000000e+00  0.000000000000e+00
1.828713375900e+01 -7.000000000000e+07 6.684759947500e-01 0.000000000000e+00 0.000000000000e+00 2.500000000000e+01 0.000000000000e+00 0.000000000000e+00 0.000000000000e+00 0.000000000000e+00 0.000000000000e+00 0.000000000000e+00 0.000000000000e+00 0.000000000000e+00 0.000000000000e+00 0.000000000000e+00 -0.000000000000e+00 0.000000000000e+00  0.000000000000e+00
1.844745338500e+01 -7.000000000000e+07 6.817856140032e-01 0.000000000000e+00 0.000000000000e+00 2.500000000000e+01 0.000000000000e+00 0.000000000000e+00 0.000000000000e+00 0.000000000000e+00 0.000000000000e+00 0.000000000000e+00 0.000000000000e+00 0.000000000000e+00 0.000000000000e+00 0.000000000000e+00 -0.000000000000e+00 0.000000000000e+00  0.000000000000e+00
1.864000000000e+01 1.000000000000e+05 1.000000000000e+00 0.000000000000e+00 0.000000000000e+00 2.500000000000e+01 0.000000000000e+00 0.000000000000e+00 -5.404633198096e+07 -8.415612414852e+05 -2.382112667997e+05 -1.427991550205e+07 0.000000000000e+00 0.000000000000e+00 0.000000000000e+00 0.000000000000e+00 2.285481958327e+07 4.836372888919e+07  0.000000000000e+00
1.874000000000e+01 1.000000000000e+05 1.000000000000e+00 0.000000000000e+00 0.000000000000e+00 2.500000000000e+01 0.000000000000e+00 0.000000000000e+00 -6.872350638628e+07 -7.606752532009e+05 -6.978838611723e+06 -1.970204748514e+07 0.000000000000e+00 0.000000000000e+00 0.000000000000e+00 0.000000000000e+00 3.180146416105e+07 5.648388812957e+07  0.000000000000e+00
1.898769353200e+01 1.000000000000e+05 1.000000000000e+00 0.000000000000e+00 0.000000000000e+00 2.500000000000e+01 0.000000000000e+00 0.000000000000e+00 -5.410823344914e+07 -1.689429644963e+05 -1.294849661910e+07 -1.710726334129e+07 0.000000000000e+00 0.000000000000e+00 0.000000000000e+00 0.000000000000e+00 2.805466446984e+07 3.924705285650e+07  0.000000000000e+00
1.932381291800e+01 1.000000000000e+05 1.000000000000e+00 0.000000000000e+00 0.000000000000e+00 2.500000000000e+01 0.000000000000e+00 0.000000000000e+00 -4.435291322718e+07 1.034886541649e+05 -1.501905415465e+07 -1.480037701947e+07 0.000000000000e+00 0.000000000000e+00 0.000000000000e+00 0.000000000000e+00 2.472411480044e+07 2.944435228948e+07  0.000000000000e+00
1.978000000000e+01 1.000000000000e+05 1.000000000000e+00 0.000000000000e+00 0.000000000000e+00 2.500000000000e+01 0.000000000000e+00 0.000000000000e+00 -3.890012706693e+07 1.925492428938e+04 -1.535593636223e+07 -1.326342792049e+07 0.000000000000e+00 0.000000000000e+00 0.000000000000e+00 0.000000000000e+00 2.250649711655e+07 2.465714982673e+07  0.000000000000e+00
2.035000000000e+01 1.000000000000e+05 1.000000000000e+00 0.000000000000e+00 0.000000000000e+00 2.500000000000e+01 0.000000000000e+00 0.000000000000e+00 -3.614940070427e+07 4.059355993847e+04 -1.498630020040e+07 -1.232483181220e+07 0.000000000000e+00 0.000000000000e+00 0.000000000000e+00 0.000000000000e+00 2.115351090562e+07 2.261172491026e+07  0.000000000000e+00
2.092000000000e+01 1.000000000000e+05 1.000000000000e+00 0.000000000000e+00 0.000000000000e+00 2.500000000000e+01 0.000000000000e+00 0.000000000000e+00 -3.481576311450e+07 5.774537368953e+04 -1.465290486237e+07 -1.182218183856e+07 0.000000000000e+00 0.000000000000e+00 0.000000000000e+00 0.000000000000e+00 2.043028327181e+07 2.171725849175e+07  0.000000000000e+00
2.150954244600e+01 1.000000000000e+05 1.000000000000e+00 0.000000000000e+00 0.000000000000e+00 2.500000000000e+01 0.000000000000e+00 0.000000000000e+00 -3.403179267181e+07 5.986462189137e+03 -1.440509312998e+07 -1.150993858750e+07 0.000000000000e+00 0.000000000000e+00 0.000000000000e+00 0.000000000000e+00 1.998227479643e+07 2.122290485715e+07  0.000000000000e+00
2.217550067300e+01 1.000000000000e+05 1.000000000000e+00 0.000000000000e+00 0.000000000000e+00 2.500000000000e+01 0.000000000000e+00 0.000000000000e+00 -3.355155140696e+07 1.889946157116e+04 -1.417836602305e+07 -1.129494718119e+07 0.000000000000e+00 0.000000000000e+00 0.000000000000e+00 0.000000000000e+00 1.967495487040e+07 2.096417170958e+07  0.000000000000e+00
2.292802878200e+01 1.000000000000e+05 1.000000000000e+00 0.000000000000e+00 0.000000000000e+00 2.500000000000e+01 0.000000000000e+00 0.000000000000e+00 -3.321759145870e+07 2.864292075604e+04 -1.402428689527e+07 -1.114519129296e+07 0.000000000000e+00 0.000000000000e+00 0.000000000000e+00 0.000000000000e+00 1.946235654897e+07 2.078302075168e+07  0.000000000000e+00
2.377808685200e+01 1.000000000000e+05 1.000000000000e+00 0.000000000000e+00 0.000000000000e+00 2.500000000000e+01 0.000000000000e+00 0.000000000000e+00 -3.299313065045e+07 1.872346538785e+03 -1.391989787893e+07 -1.104259197139e+07 0.000000000000e+00 0.000000000000e+00 0.000000000000e+00 0.000000000000e+00 1.931854016692e+07 2.066268698617e+07  0.000000000000e+00
2.473848352600e+01 1.000000000000e+05 1.000000000000e+00 0.000000000000e+00 0.000000000000e+00 2.500000000000e+01 0.000000000000e+00 0.000000000000e+00 -3.286709085011e+07 1.069416908263e+04 -1.383215902212e+07 -1.097422766907e+07 0.000000000000e+00 0.000000000000e+00 0.000000000000e+00 0.000000000000e+00 1.922449251376e+07 2.061303647901e+07  0.000000000000e+00
2.582383040900e+01 1.000000000000e+05 1.000000000000e+00 0.000000000000e+00 0.000000000000e+00 2.500000000000e+01 0.000000000000e+00 0.000000000000e+00 -3.279377311835e+07 3.173655274308e+03 -1.378603917776e+07 -1.093341988051e+07 0.000000000000e+00 0.000000000000e+00 0.000000000000e+00 0.000000000000e+00 1.917107739221e+07 2.058283861043e+07  0.000000000000e+00
2.704980320500e+01 1.000000000000e+05 1.000000000000e+00 0.000000000000e+00 0.000000000000e+00 2.500000000000e+01 0.000000000000e+00 0.000000000000e+00 -3.276876853058e+07 8.943984099586e+03 -1.375518114003e+07 -1.091133240684e+07 0.000000000000e+00 0.000000000000e+00 0.000000000000e+00 0.000000000000e+00 1.914509402582e+07 2.058339105866e+07  0.000000000000e+00
2.843495304000e+01 1.000000000000e+05 1.000000000000e+00 0.000000000000e+00 0.000000000000e+00 2.500000000000e+01 0.000000000000e+00 0.000000000000e+00 -3.277696111088e+07 2.472560785650e+03 -1.375204227306e+07 -1.090641989152e+07 0.000000000000e+00 0.000000000000e+00 0.000000000000e+00 0.000000000000e+00 1.914514109182e+07 2.059569995695e+07  0.000000000000e+00
3.000000000000e+01 1.000000000000e+05 1.000000000000e+00 0.000000000000e+00 0.000000000000e+00 2.500000000000e+01 0.000000000000e+00 0.000000000000e+00 -3.282110316024e+07 8.160466158841e+01 -1.375753423613e+07 -1.091425260571e+07 0.000000000000e+00 0.000000000000e+00 0.000000000000e+00 0.000000000000e+00 1.916429666736e+07 2.063266841458e+07  0.000000000000e+00
3.207132281000e+01 1.000000000000e+05 1.000000000000e+00 0.000000000000e+00 0.000000000000e+00 2.500000000000e+01 0.000000000000e+00 0.000000000000e+00 -3.290227901017e+07 2.278971091962e+03 -1.378468425085e+07 -1.093766710134e+07 0.000000000000e+00 0.000000000000e+00 0.000000000000e+00 0.000000000000e+00 1.920821012079e+07 2.068854929060e+07  0.000000000000e+00
3.500000000000e+01 1.000000000000e+05 1.000000000000e+00 0.000000000000e+00 0.000000000000e+00 2.500000000000e+01 0.000000000000e+00 0.000000000000e+00 -3.303830144401e+07 -1.582026722528e+03 -1.384677053614e+07 -1.098488163638e+07 0.000000000000e+00 0.000000000000e+00 0.000000000000e+00 0.000000000000e+00 1.928998453884e+07 2.077087632830e+07  0.000000000000e+00
 TITLE = "Profiles along polylines"
 VARIABLES = "DIST" "PRESSURE1" "SATURATION1" "VELOCITY_X1" "VELOCITY_Y1" "TEMPERATURE1" "DISPLACEMENT_X1" "DISPLACEMENT_Y1" "STRESS_XX" "STRESS_XY" "STRESS_YY" "STRESS_ZZ" "STRAIN_XX" "STRAIN_XY" "STRAIN_YY" "STRAIN_PLS"  p_(1st_Invariant)  q_(2nd_Invariant)   Effective_Strain
 ZONE T="TIME=1.000000000000e-03"
0.000000000000e+00 2.334135896320e+05 1.000000000000e+00 -1.865376704389e-05 -2.977637586887e-03 2.447870096528e+01 0.000000000000e+00 5.466344584500e-05 -3.075552808753e+07 1.643752683863e+04 -1.272332750728e+07 -9.947691085355e+06 -1.259703810410e-06 1.141001860662e-06 -7.631902001710e-06 0.000000000000e+00 1.780884889339e+07 1.956824107037e+07  7.356935609311e-06
2.928677190000e+00 2.343154897181e+05 1.000000000000e+00 -4.171916973665e-05 -3.050181620321e-03 2.506534753914e+01 0.000000000000e+00 5.990949518350e-05 -3.130361323436e+07 -2.149255782729e+04 -1.282998586466e+07 -1.032048942821e+07 -1.321115674750e-06 -1.267915661792e-06 2.430115371814e-06 0.000000000000e+00 1.815136284241e+07 1.984775474460e+07  3.960315799504e-06
5.000000000000e+00 2.342026657869e+05 1.000000000000e+00 -8.148800181381e-05 -3.167469276001e-03 2.499813937129e+01 0.000000000000e+00 5.730991645704e-05 -3.143533313395e+07 2.652047154316e+03 -1.295743667899e+07 -1.037038687929e+07 -5.889823850887e-07 2.998674204433e-07 6.784410796303e-07 0.000000000000e+00 1.825438556408e+07 1.989795827439e+07  1.215127072872e-06
6.565046960000e+00 2.333162555124e+05 1.000000000000e+00 -1.269630564780e-04 -3.344799147723e-03 2.499766710388e+01 0.000000000000e+00 5.582767010719e-05 -3.158933908101e+07 -3.559832468648e+03 -1.304543103311e+07 -1.043598766498e+07 -9.884556164374e-07 1.228025054882e-08 1.073416397365e-06 0.000000000000e+00 1.835691925970e+07 1.997686252324e+07  1.786265419306e-06
7.950196795000e+00 2.316874451051e+05 1.000000000000e+00 -1.569128191050e-04 -3.606745212935e-03 2.500053834216e+01 0.000000000000e+00 5.411836807769e-05 -3.175550689634e+07 -9.340357069022e+03 -1.313690282061e+07 -1.050761042228e+07 -1.296140488418e-06 8.967313890621e-08 1.367560683664e-06 0.000000000000e+00 1.846667337974e+07 2.006289142011e+07  2.312331502447e-06
9.176169591000e+00 2.291884807622e+05 1.000000000000e+00 -1.725290934852e-04 -3.877648086108e-03 2.499993355520e+01 0.000000000000e+00 5.221930374763e-05 -3.192622934029e+07 -3.224657902218e+03 -1.323606611149e+07 -1.058309591301e+07 -1.714374636917e-06 4.333097041264e-08 1.708642471735e-06 0.000000000000e+00 1.858179712160e+07 2.014807508521e+07  2.965371060764e-06
1.026151647400e+01 2.257922828547e+05 1.000000000000e+00 -2.114384196819e-04 -4.270388949918e-03 2.500000647750e+01 0.000000000000e+00 5.008305987632e-05 -3.213978071120e+07 -9.999094876991e+03 -1.334265403502e+07 -1.067417912646e+07 -2.280040570402e-06 1.266863726251e-07 2.171905909960e-06 0.000000000000e+00 1.871887129089e+07 2.026358039568e+07  3.862116283235e-06
1.122191314800e+01 2.214870716865e+05 1.000000000000e+00 -3.288216845295e-04 -4.679323804238e-03 2.500000066190e+01 0.000000000000e+00 4.769213742228e-05 -3.239165099180e+07 -1.797482908928e+03 -1.347636902524e+07 -1.078562284962e+07 -3.011144226849e-06 3.967743460673e-08 2.776461380699e-06 0.000000000000e+00 1.888454762222e+07 2.039422072944e+07  5.014057828487e-06
1.207197121800e+01 2.163825623022e+05 1.000000000000e+00 -3.835034952335e-04 -5.317636946557e-03 2.500000105668e+01 0.000000000000e+00 4.494242898936e-05 -3.274188113314e+07 -2.593791470611e+04 -1.361831428284e+07 -1.092933109176e+07 -3.985546710438e-06 2.724397105897e-07 3.577265319426e-06 0.000000000000e+00 1.909650883591e+07 2.060015552902e+07  6.569736521396e-06
1.282449932700e+01 2.105056869450e+05 1.000000000000e+00 -3.574856782901e-04 -5.933384292393e-03 2.499999991692e+01 0.000000000000e+00 4.182039523719e-05 -3.319546757169e+07 -1.613554846178e+04 -1.379420166274e+07 -1.111482880660e+07 -5.271663321914e-06 2.542620090886e-07 4.666588497919e-06 0.000000000000e+00 1.936816601368e+07 2.087036569136e+07  8.623346990541e-06
1.349045755400e+01 2.036250527878e+05 1.000000000000e+00 -5.393115972500e-04 -6.623956404688e-03 2.500000003766e+01 0.000000000000e+00 3.819561184010e-05 -3.379722656595e+07 -4.762027541822e+03 -1.402713357065e+07 -1.136233520454e+07 -7.001248205758e-06 1.140084939434e-07 6.149548517234e-06 0.000000000000e+00 1.972889844705e+07 2.122830909228e+07  1.139859345433e-05
1.408000000000e+01 1.960039119575e+05 1.000000000000e+00 -6.844165326305e-04 -7.729354459494e-03 2.500000003922e+01 0.000000000000e+00 3.386579734278e-05 -3.471807505374e+07 -4.890918934041e+04 -1.426405354418e+07 -1.170695714246e+07 -9.423662890988e-06 7.189726209750e-07 8.241924140856e-06 0.000000000000e+00 2.022969524679e+07 2.184526994685e+07  1.536081428155e-05
1.465000000000e+01 1.865279769542e+05 1.000000000000e+00 -7.700012132973e-04 -9.092213407497e-03 2.499999995812e+01 0.000000000000e+00 2.816794732867e-05 -3.622136038999e+07 -3.038853336614e+04 -1.455481941987e+07 -1.224263235044e+07 -1.315197933331e-05 8.091317408342e-07 1.153062132694e-05 0.000000000000e+00 2.100627072010e+07 2.291037042287e+07  2.143698590015e-05
1.522000000000e+01 1.740556493452e+05 1.000000000000e+00 -1.072126815700e-03 -1.088016023731e-02 2.500000447452e+01 0.000000000000e+00 1.983590766831e-05 -3.921941685994e+07 -1.256444982851e+04 -1.481623412122e+07 -1.321798709037e+07 -1.970528098586e-05 5.227394443259e-07 1.743397423828e-05 0.000000000000e+00 2.241787935717e+07 2.524029534896e+07  3.219631480649e-05
1.567618708200e+01 1.608514853684e+05 1.000000000000e+00 -1.515778892800e-03 -1.360546273094e-02 2.500008180388e+01 0.000000000000e+00 9.735557924519e-06 -4.501864572545e+07 -8.972869800035e+04 -1.428712699755e+07 -1.479687535989e+07 -3.001528817056e-05 1.056130903457e-06 2.668440389836e-05 0.000000000000e+00 2.470088269430e+07 3.048023784504e+07  4.916565107366e-05
1.601230646800e+01 1.487274502835e+05 1.000000000000e+00 -1.287594278505e-03 -1.590546896158e-02 2.500080995938e+01 0.000000000000e+00 -1.030750295422e-06 -5.515822539390e+07 1.850032440106e+05 -1.200911382728e+07 -1.715408837134e+07 -4.198773943512e-05 1.248529472588e-06 3.680088038407e-05 0.000000000000e+00 2.810714253084e+07 4.082178572821e+07  6.831644980527e-05
1.626000000000e+01 1.375363589691e+05 1.000000000000e+00 -1.685707504291e-03 -1.821868912144e-02 2.500341806563e+01 0.000000000000e+00 -1.158445712021e-05 -7.011302665108e+07 8.006469421368e+05 -5.875150383502e+06 -1.980009594329e+07 -5.277853353999e-05 3.116514652000e-06 4.559008645105e-05 0.000000000000e+00 3.192942432596e+07 5.854761338336e+07  8.543620709525e-05
1.636000000000e+01 1.321562803133e+05 1.000000000000e+00 -2.221589525574e-03 -2.082631007889e-02 2.500658919670e+01 0.000000000000e+00 -1.672849401398e-05 -5.462510862376e+07 8.320744314298e+05 8.176425446118e+05 -1.393155313589e+07 -2.902154767902e-04 -2.595722537271e-04 -8.188441174064e-05 0.000000000000e+00 2.257967307168e+07 4.975719533767e+07  5.189404792215e-04
1.655254661500e+01 -6.993840078841e+07 6.819894981184e-01 -7.782662983701e-04 -4.209881966832e-03 2.504815405914e+01 0.000000000000e+00 3.538902124264e-04 1.775793381658e+06 -8.762399652689e+03 6.240516648324e+05 8.790546864546e+05 3.818918733518e-03 -7.463242606391e-05 -1.085975013217e-03 0.000000000000e+00 -1.092966577648e+06 1.047887515117e+06  4.464016391291e-03
1.671286624100e+01 -6.999994537896e+07 6.684871907380e-01 -3.562881979814e-07 -3.361959701309e-06 2.524653827580e+01 0.000000000000e+00 3.614054185285e-04 1.777223680136e+06 1.077516727453e+04 6.781796608387e+05 8.586135698665e+05 3.912061983797e-03 9.177587268530e-05 -7.684093917588e-04 0.000000000000e+00 -1.104672303614e+06 1.021027744958e+06  4.350404068627e-03
1.684635003100e+01 -6.999999993738e+07 6.684760005844e-01 3.944945923937e-10 -1.874136396977e-07 2.598966082925e+01 0.000000000000e+00 3.603023515843e-04 1.633162433714e+06 5.825156640085e+03 1.031069868140e+06 9.296296693556e+05 2.996117450740e-03 4.961489882722e-05 4.320008465570e-04 0.000000000000e+00 -1.197953990403e+06 6.587744366152e+05  2.806493212090e-03
1.695745861500e+01 -6.999999998899e+07 6.684759948411e-01 1.988127178712e-10 -1.844061247759e-07 2.807494333416e+01 0.000000000000e+00 2.573213509518e-04 1.391452953601e+06 -2.323983802974e+04 1.170998763731e+06 8.877729495002e+05 2.145009481188e-03 -1.979418381082e-04 1.206166716756e-03 0.000000000000e+00 -1.150074888944e+06 4.391759320815e+05  1.893728516309e-03
1.705000000000e+01 -6.999999537629e+07 6.684760111000e-01 6.369829107143e-10 -1.838934405766e-07 3.309920063102e+01 0.000000000000e+00 6.438695672042e-05 1.960253130028e+06 -7.348791806548e+03 1.447353872876e+06 1.051710073704e+06 6.646942591958e-05 2.713242778644e-05 9.701000042206e-04 0.000000000000e+00 -1.486439025536e+06 7.891052456585e+05  9.398078092454e-04
1.716700339000e+01 -7.000000000000e+07 0.000000000000e+00 0.000000000000e+00 0.000000000000e+00 2.500000000000e+01 0.000000000000e+00 6.417426153597e-05 2.621358210076e+06 4.741366055810e+03 1.525212935656e+06 1.243971343720e+06 8.953014631319e-06 6.163775872553e-08 1.828070347584e-06 0.000000000000e+00 -1.796847496484e+06 1.260547650546e+06  8.194081355175e-06
1.731435117100e+01 -7.000000000000e+07 0.000000000000e+00 0.000000000000e+00 0.000000000000e+00 2.500000000000e+01 0.000000000000e+00 6.389451856913e-05 2.682738226677e+06 2.026644810643e+03 1.572823965994e+06 1.276668657801e+06 9.139452197690e-06 2.634638253836e-08 1.925009503255e-06 0.000000000000e+00 -1.844076950158e+06 1.283875755065e+06  8.345285982038e-06
1.750000000000e+01 -7.000000000000e+07 0.000000000000e+00 0.000000000000e+00 0.000000000000e+00 2.500000000000e+01 0.000000000000e+00 6.353405554786e-05 2.718320976154e+06 -1.642568100924e-01 1.584793137834e+06 1.290934234196e+06 9.278013822722e-06 -2.135338531199e-12 1.910082873646e-06 0.000000000000e+00 -1.864682782728e+06 1.305502073267e+06  8.485763476235e-06
1.768564882900e+01 -7.000000000000e+07 0.000000000000e+00 0.000000000000e+00 0.000000000000e+00 2.500000000000e+01 0.000000000000e+00 6.317356453883e-05 2.682434226213e+06 -2.027900014344e+03 1.572764722958e+06 1.276559684751e+06 9.138184519500e-06 -2.636270018647e-08 1.925332748343e-06 0.000000000000e+00 -1.843919544641e+06 1.283668908191e+06  8.343941608398e-06
1.783299661000e+01 -7.000000000000e+07 0.000000000000e+00 0.000000000000e+00 0.000000000000e+00 2.500000000000e+01 0.000000000000e+00 6.289375698930e-05 2.620834468020e+06 -4.742117145890e+03 1.525117739883e+06 1.243785662371e+06 8.950817236720e-06 -6.164752289657e-08 1.828658503829e-06 0.000000000000e+00 -1.796579290092e+06 1.260186737223e+06  8.191735733280e-06
1.795000000000e+01 -7.000000462371e+07 6.684759784001e-01 -6.369868087441e-10 -1.838933718436e-07 3.309920075785e+01 0.000000000000e+00 6.268097877456e-05 1.959756037535e+06 7.346849231321e+03 1.447239292715e+06 1.051523514949e+06 6.644879002178e-05 -2.714615261871e-05 9.700408532156e-04 0.000000000000e+00 -1.486172948400e+06 7.888201831656e+05  9.397592236529e-04