 TITLE = "Time curves in points"
 VARIABLES = "TIME"  "PRESSURE1"  "SATURATION1"  "TEMPERATURE1"  "DISPLACEMENT_X1"  "DISPLACEMENT_Y1"  "STRESS_XX"  "STRESS_XY"  "STRESS_YY"  "STRESS_ZZ"  "STRAIN_XX"  "STRAIN_XY"  "STRAIN_YY"  "STRAIN_PLS"  p_(1st_Invariant)  q_(2nd_Invariant)   Effective_Strain
 ZONE T="POINT=POINT12"
0.000000000000e+00 1.000000000000e+05 9.737398629779e-01 2.500000000000e+01 0.000000000000e+00 0.000000000000e+00 3.304572143556e+04 5.605493944878e+02 -4.446166165700e+06 1.775888667205e+05 0.000000000000e+00 0.000000000000e+00 0.000000000000e+00 0.000000000000e+00 1.411843859181e+06 4.553204604223e+06  0.000000000000e+00
1.000000000000e-03 1.349371324694e+05 9.738732786163e-01 2.500485102010e+01 3.100746632061e-06 6.277285132211e-05 -1.871247947806e+05 4.465576506049e+02 -4.420357257580e+06 1.129440141232e+05 -1.837665214109e-04 -8.198406705076e-07 4.529483475068e-05 0.000000000000e+00 1.498179346079e+06 4.390963447279e+06  2.101129388751e-04
2.000000000000e-03 1.587039335969e+05 9.739761399314e-01 2.502571714086e+01 3.673681538294e-06 6.219647137152e-05 -1.849480430625e+05 3.407635000032e+02 -4.416042555454e+06 1.113139353778e+05 -1.813019641516e-04 -1.203099521007e-06 4.595672586640e-05 0.000000000000e+00 1.496558887713e+06 4.386735085713e+06  2.081317127891e-04
3.000000000000e-03 1.749406480237e+05 9.740586587527e-01 2.507433594527e+01 4.278857364681e-06 6.172376588540e-05 -1.879895312747e+05 2.988250368258e+02 -4.420697896361e+06 1.005154149026e+05 -1.830477794644e-04 -1.355045382850e-06 4.668811857942e-05 0.000000000000e+00 1.502724004244e+06 4.384086310143e+06  2.103281599326e-04
4.000000000000e-03 1.860499874853e+05 9.741275031931e-01 2.515657108597e+01 4.898160077911e-06 6.121141429429e-05 -1.944602448010e+05 2.807511453522e+02 -4.435450412286e+06 7.978777496838e+04 -1.871935539419e-04 -1.420669120840e-06 4.743744771841e-05 0.000000000000e+00 1.516707627373e+06 4.384551626884e+06  2.148901519708e-04
1.000000000000e-02 2.024129106506e+05 9.744040863014e-01 2.619876091244e+01 8.404076956987e-06 5.841709115338e-05 -2.591404465997e+05 2.663091567475e+02 -4.676966430805e+06 -1.947977381986e+05 -2.234867921095e-04 -1.471871580045e-06 5.158063237142e-05 0.000000000000e+00 1.710301538534e+06 4.450346223910e+06  2.532607296143e-04
2.000000000000e-02 2.009420820042e+05 9.748046987947e-01 2.806247193986e+01 1.358514709588e-05 5.659995890222e-05 -3.663994438268e+05 2.598856179921e+02 -5.116503504263e+06 -6.874387443828e+05 -2.791323782913e-04 -1.494816650613e-06 5.813807150112e-05 0.000000000000e+00 2.056780564157e+06 4.597997926812e+06  3.122976810133e-04
3.000000000000e-02 1.910250440631e+05 9.752023033804e-01 2.971088041292e+01 1.835785059608e-05 5.695487257609e-05 -4.669107190511e+05 2.549210134664e+02 -5.501773458798e+06 -1.125138219281e+06 -3.317182346303e-04 -1.513108383462e-06 6.470447172761e-05 0.000000000000e+00 2.364607465710e+06 4.740149926945e+06  3.683669060500e-04
4.000000000000e-02 1.778581546801e+05 9.756055980516e-01 3.110941615500e+01 2.292736129868e-05 5.964040331227e-05 -5.628658897223e+05 2.506575543856e+02 -5.820467036278e+06 -1.498246464744e+06 -3.844156839075e-04 -1.529602123962e-06 7.137879034380e-05 0.000000000000e+00 2.627193130248e+06 4.857926393141e+06  4.246368981842e-04
5.000000000000e-02 1.637479270978e+05 9.760162346351e-01 3.229341252469e+01 2.730066506883e-05 6.332495735658e-05 -6.537210208727e+05 2.455889191680e+02 -6.084359406247e+06 -1.815933553298e+06 -4.356704904376e-04 -1.549991038679e-06 7.767243783633e-05 0.000000000000e+00 2.851337993473e+06 4.952879509298e+06  4.792583649138e-04
6.000000000000e-02 1.494258948361e+05 9.764364605871e-01 3.330569315258e+01 3.143005340470e-05 6.932478778872e-05 -7.376593119279e+05 2.407456831681e+02 -6.299619357839e+06 -2.086749091465e+06 -4.830146299240e-04 -1.569882860771e-06 8.382284733918e-05 0.000000000000e+00 3.041342587077e+06 5.025122835047e+06  5.299287288306e-04
7.000000000000e-02 1.357749870608e+05 9.768612744592e-01 3.418246247047e+01 3.533053583636e-05 7.534227345610e-05 -8.163430870060e+05 2.359173072683e+02 -6.482657247960e+06 -2.322426716400e+06 -5.271658429108e-04 -1.589737191843e-06 8.941514673810e-05 0.000000000000e+00 3.207142350455e+06 5.083449738073e+06  5.770988540885e-04
8.000000000000e-02 1.234585053864e+05 9.772914050891e-01 3.495181610614e+01 3.906366244088e-05 8.214420851287e-05 -8.911518956956e+05 2.302309446150e+02 -6.637331436728e+06 -2.529459090542e+06 -5.692881535727e-04 -1.613316377487e-06 9.508767130968e-05 0.000000000000e+00 3.352647474322e+06 5.127243182894e+06  6.223108228450e-04
9.000000000000e-02 1.133681070495e+05 9.777279512532e-01 3.563501316121e+01 4.267092114141e-05 8.833440834798e-05 -9.635788133281e+05 2.242639571502e+02 -6.773422875138e+06 -2.714999746751e+06 -6.101795852456e-04 -1.637833719218e-06 1.002163365235e-04 0.000000000000e+00 3.484000478406e+06 5.162003579008e+06  6.659733106584e-04
1.000000000000e-01 1.065002133066e+05 9.781766104707e-01 3.624818141010e+01 4.609109140967e-05 9.387339722550e-05 -1.032583831428e+06 2.202908308405e+02 -6.895309875939e+06 -2.882826706804e+06 -6.485995647471e-04 -1.654442071407e-06 1.049731493888e-04 0.000000000000e+00 3.603573471390e+06 5.191097034569e+06  7.069614614830e-04
2.000000000000e-01 1.288233450336e+05 9.818831375586e-01 3.976317113285e+01 6.867984231401e-05 1.887031001635e-04 -1.470491217812e+06 1.892231751934e+02 -7.417435300210e+06 -3.806496009157e+06 -8.355116913345e-04 -1.788625427561e-06 1.127620111937e-04 0.000000000000e+00 4.231474175726e+06 5.189506001676e+06  8.972283063739e-04
3.000000000000e-01 1.602312300801e+05 9.852101015785e-01 4.209349331098e+01 8.963850217903e-05 2.983765772407e-04 -1.875411025665e+06 1.463538539222e+02 -7.600014238378e+06 -4.407749285089e+06 -1.011101851278e-03 -1.987300354848e-06 1.226747678747e-04 0.000000000000e+00 4.627724849711e+06 4.968620264402e+06  1.077694105635e-03
4.000000000000e-01 1.921149592165e+05 9.880119235020e-01 4.379251978629e+01 1.081983113806e-04 4.038105696877e-04 -2.238941819725e+06 1.076161695984e+02 -7.650817857486e+06 -4.843917420590e+06 -1.157291269514e-03 -2.178838396005e-06 1.228564634922e-04 0.000000000000e+00 4.911225699267e+06 4.687909462721e+06  1.223360841178e-03
5.000000000000e-01 2.223034531660e+05 9.901792853826e-01 4.511244472643e+01 1.255755501760e-04 5.062373255137e-04 -2.597527195487e+06 7.173560886092e+01 -7.622747336049e+06 -5.187667887024e+06 -1.318355372334e-03 -2.369107838018e-06 1.240989809369e-04 0.000000000000e+00 5.135980806187e+06 4.352658855056e+06  1.384588329095e-03
6.000000000000e-01 2.502300358423e+05 9.919296612557e-01 4.618195153606e+01 1.415873210465e-04 6.061081203905e-04 -2.953749031031e+06 4.554323862854e+01 -7.542273480708e+06 -5.470570824256e+06 -1.505062665289e-03 -2.523913269924e-06 1.368068102575e-04 0.000000000000e+00 5.322197778665e+06 3.980006311134e+06  1.577926380624e-03
7.000000000000e-01 2.760379048834e+05 9.933607485649e-01 4.707675917791e+01 1.560578204151e-04 7.036064328162e-04 -3.294639382391e+06 3.847691785630e+01 -7.435865044756e+06 -5.709884819277e+06 -1.691901116559e-03 -2.599140010078e-06 1.464257942170e-04 0.000000000000e+00 5.480129748808e+06 3.602927160980e+06  1.769668933089e-03
8.000000000000e-01 2.999799997830e+05 9.944835302632e-01 4.784238104847e+01 1.685534998617e-04 7.988986042529e-04 -3.604493500944e+06 4.568666253507e+01 -7.322471686677e+06 -5.914199258765e+06 -1.863211292654e-03 -2.611130393291e-06 1.474673104268e-04 0.000000000000e+00 5.613721482129e+06 3.251256197306e+06  1.941155877515e-03
9.000000000000e-01 3.221762364192e+05 9.953957013209e-01 4.850921061954e+01 1.801299649281e-04 8.919493574669e-04 -3.912792838216e+06 6.324492852319e+01 -7.195619013515e+06 -6.096599683633e+06 -2.051207087678e-03 -2.576228213017e-06 1.539692245176e-04 0.000000000000e+00 5.735003845122e+06 2.894287783442e+06  2.132369506935e-03
1.000000000000e+00 3.427987573409e+05 9.961320752210e-01 4.909797408547e+01 1.906131524373e-04 9.828153643267e-04 -4.211847716770e+06 9.668083636841e+01 -7.060299331402e+06 -6.259664567979e+06 -2.248349130737e-03 -2.469073127375e-06 1.651792836854e-04 0.000000000000e+00 5.843937205384e+06 2.544429851409e+06  2.335328027772e-03
2.000000000000e+00 4.782567267200e+05 9.988221752037e-01 5.228561077473e+01 2.535447285647e-04 1.736079988205e-03 -6.751996280619e+06 4.964945748314e+02 -5.681169076685e+06 -7.260444829086e+06 -4.374770747602e-03 -9.024529639613e-07 3.354018687903e-04 0.000000000000e+00 6.564536728797e+06 1.396299432122e+06  4.551749359884e-03
3.000000000000e+00 5.822587995479e+05 9.997920353832e-01 5.432796100527e+01 2.995115633909e-04 2.378777413263e-03 -8.991839799768e+06 1.548228009017e+03 -4.387222430325e+06 -7.985944306529e+06 -6.436497406242e-03 3.658587414548e-06 5.128777609049e-04 0.000000000000e+00 7.121668845541e+06 4.193157544538e+06  6.707661216233e-03
4.000000000000e+00 6.688184904294e+05 1.000000000000e+00 5.581044508543e+01 3.361044259063e-04 2.939115955885e-03 -1.096681920670e+07 2.616976095988e+03 -3.221456237064e+06 -8.563075947003e+06 -8.338707156884e-03 8.354152433499e-06 6.792618273098e-04 0.000000000000e+00 7.583783796922e+06 6.866642971895e+06  8.698264684101e-03
5.000000000000e+00 7.447381124599e+05 1.000000000000e+00 5.699682313759e+01 3.666092696308e-04 3.436436068340e-03 -1.270840259412e+07 3.731535670535e+03 -2.185768898773e+06 -9.048907728389e+06 -1.005135239279e-02 1.326730292551e-05 8.288505879491e-04 0.000000000000e+00 7.981026407092e+06 9.252580199581e+06  1.049038967940e-02
6.000000000000e+00 8.135002017406e+05 1.000000000000e+00 5.803373604215e+01 3.940728869986e-04 3.885174492925e-03 -1.428681832164e+07 4.697758188051e+03 -1.260863810320e+06 -9.486890758217e+06 -1.162026653570e-02 1.753591244808e-05 9.655014328117e-04 0.000000000000e+00 8.344857630058e+06 1.141013688143e+07  1.213190396814e-02
7.000000000000e+00 8.773078091200e+05 1.000000000000e+00 5.888973999461e+01 4.177692229513e-04 4.292391613631e-03 -1.568450624594e+07 5.413933844383e+03 -4.195912762640e+05 -9.857250703654e+06 -1.301692765669e-02 2.070191191314e-05 1.086684655107e-03 0.000000000000e+00 8.653782741954e+06 1.334249091284e+07  1.359293457674e-02
8.000000000000e+00 9.368579986811e+05 1.000000000000e+00 5.971951478020e+01 4.389558886280e-04 4.667813249723e-03 -1.695346520239e+07 5.897466776733e+03 3.288994982332e+05 -1.020743189386e+07 -1.428905927840e-02 2.284134803646e-05 1.196819825939e-03 0.000000000000e+00 8.943999199339e+06 1.508647710584e+07  1.492355813395e-02
9.000000000000e+00 9.932402727675e+05 1.000000000000e+00 6.047163838602e+01 4.585439782061e-04 5.015927611889e-03 -1.812205339196e+07 6.318875791931e+03 1.017738755592e+06 -1.052796444657e+07 -1.546261825832e-02 2.470743731883e-05 1.298176021340e-03 0.000000000000e+00 9.210759694313e+06 1.669289268466e+07  1.615093978712e-02
1.000000000000e+01 1.046949716293e+06 1.000000000000e+00 6.114961432684e+01 4.769226542931e-04 5.340095327541e-03 -1.920964909849e+07 6.700028322318e+03 1.657479048526e+06 -1.082285819340e+07 -1.655763312547e-02 2.639343806305e-05 1.392273667507e-03 0.000000000000e+00 9.458342747789e+06 1.818700615555e+07  1.729590954881e-02
1.100000000000e+01 1.098279334915e+06 1.000000000000e+00 6.178708134755e+01 4.934801423247e-04 5.643936525683e-03 -2.020984864672e+07 6.709535342636e+03 2.247475501881e+06 -1.109607610311e+07 -1.756703469507e-02 2.643739113288e-05 1.479006995444e-03 0.000000000000e+00 9.686149749316e+06 1.956326784352e+07  1.835134964193e-02
1.200000000000e+01 1.147630380353e+06 1.000000000000e+00 6.236752245958e+01 5.086898124487e-04 5.929417492040e-03 -2.113871197025e+07 6.898184481851e+03 2.798260662571e+06 -1.134696531478e+07 -1.850638002564e-02 2.727340073517e-05 1.559295518615e-03 0.000000000000e+00 9.895805540822e+06 2.084399991424e+07  1.933330419568e-02
1.300000000000e+01 1.195264018703e+06 1.000000000000e+00 6.289298058676e+01 5.229110485249e-04 6.198135589577e-03 -2.200860229847e+07 7.038561692390e+03 3.317771529995e+06 -1.157767265003e+07 -1.938823406063e-02 2.789509110407e-05 1.634261293809e-03 0.000000000000e+00 1.008950113950e+07 2.204658770874e+07  2.025493038386e-02
1.400000000000e+01 1.241898008649e+06 1.000000000000e+00 6.336737619028e+01 5.361340985350e-04 6.451630069711e-03 -2.282212807848e+07 7.061428249192e+03 3.809429136644e+06 -1.178873848011e+07 -2.021481992359e-02 2.799464462037e-05 1.704337803011e-03 0.000000000000e+00 1.026714580731e+07 2.317626650169e+07  2.111868709857e-02
1.500000000000e+01 1.287086066045e+06 1.000000000000e+00 6.379459155144e+01 5.483546406769e-04 6.690834602707e-03 -2.358175033185e+07 7.028201232114e+03 4.274042865944e+06 -1.198142749191e+07 -2.098795264392e-02 2.784852918552e-05 1.769474182215e-03 0.000000000000e+00 1.042971165261e+07 2.423585481882e+07  2.192635770090e-02
1.600000000000e+01 1.330967366046e+06 1.000000000000e+00 6.417813460760e+01 5.599165630534e-04 6.916762249591e-03 -2.429750168558e+07 6.998715076059e+03 4.715431634184e+06 -1.215861227335e+07 -2.171817828642e-02 2.771721331619e-05 1.830328423495e-03 0.000000000000e+00 1.058022744158e+07 2.523724021823e+07  2.268883148103e-02
1.700000000000e+01 1.373681660743e+06 1.000000000000e+00 6.452110640142e+01 5.712501407323e-04 7.130300186133e-03 -2.498246524456e+07 6.919016261758e+03 5.137465432336e+06 -1.232408180498e+07 -2.241849851697e-02 2.736490486848e-05 1.888168759236e-03 0.000000000000e+00 1.072302720573e+07 2.619495003280e+07  2.341978676379e-02
1.800000000000e+01 1.415363601907e+06 1.000000000000e+00 6.482622665961e+01 5.824310323846e-04 7.332238237726e-03 -2.563936443423e+07 6.802240399811e+03 5.542316628122e+06 -1.247857252553e+07 -2.309137384243e-02 2.684794899154e-05 1.943148152619e-03 0.000000000000e+00 1.085854011055e+07 2.711324769416e+07  2.412176389766e-02
1.900000000000e+01 1.456105669480e+06 1.000000000000e+00 6.509588653669e+01 5.935206557443e-04 7.523264655417e-03 -2.627111968795e+07 6.654127379155e+03 5.931187584562e+06 -1.262312997786e+07 -2.373951867472e-02 2.619200381190e-05 1.995478320114e-03 0.000000000000e+00 1.098768736041e+07 2.799570665898e+07  2.479758926875e-02
2.000000000000e+01 1.495992375948e+06 1.000000000000e+00 6.533218991584e+01 6.038039670316e-04 7.704005194235e-03 -2.686254389018e+07 6.228489948657e+03 6.300498555535e+06 -1.275406023820e+07 -2.434721640014e-02 2.430355721904e-05 2.044472673874e-03 0.000000000000e+00 1.110536852428e+07 2.882631730557e+07  2.543119748563e-02
2.100000000000e+01 1.534950182382e+06 1.000000000000e+00 6.558585634315e+01 6.136167920547e-04 7.876723919237e-03 -2.742512443104e+07 6.037773958514e+03 6.645757000924e+06 -1.288550365405e+07 -2.492509581394e-02 2.346037157975e-05 2.090814557125e-03 0.000000000000e+00 1.122162369472e+07 2.961161845788e+07  2.603358045255e-02
2.200000000000e+01 1.573137018867e+06 1.000000000000e+00 6.582320177682e+01 6.233335354234e-04 8.041831842141e-03 -2.796894655668e+07 5.824492593324e+03 6.978352796767e+06 -1.301152369777e+07 -2.548396643950e-02 2.251589167995e-05 2.135471526350e-03 0.000000000000e+00 1.133403915256e+07 3.036966905067e+07  2.661605886933e-02
2.300000000000e+01 1.610620081282e+06 1.000000000000e+00 6.603970464469e+01 6.322122032350e-04 8.199611812065e-03 -2.847766330960e+07 5.506034239174e+03 7.295724712330e+06 -1.312656966302e+07 -2.600719862016e-02 2.110430733467e-05 2.177528855935e-03 0.000000000000e+00 1.143616942010e+07 3.108425369994e+07  2.716153113541e-02
2.400000000000e+01 1.647440265274e+06 1.000000000000e+00 6.623479066443e+01 6.406425333361e-04 8.350329718924e-03 -2.896070381371e+07 5.249555609556e+03 7.600993535645e+06 -1.323281469586e+07 -2.650452698926e-02 1.996850495076e-05 2.216995509742e-03 0.000000000000e+00 1.153084165798e+07 3.176611354843e+07  2.767971520015e-02
2.500000000000e+01 1.683655739377e+06 1.000000000000e+00 6.640880618128e+01 6.487842256315e-04 8.494243776826e-03 -2.942252960325e+07 5.012100528891e+03 7.895634596848e+06 -1.333137270692e+07 -2.698051786611e-02 1.891648285077e-05 2.254485324715e-03 0.000000000000e+00 1.161942257111e+07 3.242033851866e+07  2.817550893037e-02
2.600000000000e+01 1.719304090802e+06 1.000000000000e+00 6.656235442298e+01 6.567973898022e-04 8.631600976676e-03 -2.986754218034e+07 4.772925576237e+03 8.180553473007e+06 -1.342354867585e+07 -2.743955748518e-02 1.785638524078e-05 2.290219929289e-03 0.000000000000e+00 1.170351246106e+07 3.305147403343e+07  2.865341166880e-02
2.700000000000e+01 1.754414724687e+06 1.000000000000e+00 6.669611482876e+01 6.647295950027e-04 8.762637702462e-03 -3.029738165075e+07 4.536500012279e+03 8.456434001569e+06 -1.350982420320e+07 -2.788326887470e-02 1.680805867952e-05 2.324319679434e-03 0.000000000000e+00 1.178359061746e+07 3.366152800800e+07  2.911510987814e-02
2.800000000000e+01 1.789029777743e+06 1.000000000000e+00 6.681076908106e+01 6.726879570242e-04 8.887573979639e-03 -3.071511191876e+07 4.284318638432e+03 8.724663017101e+06 -1.359092777293e+07 -2.831480525596e-02 1.569020647480e-05 2.357418718211e-03 0.000000000000e+00 1.186045889153e+07 3.425433718591e+07  2.956410340525e-02
2.900000000000e+01 1.823176496980e+06 1.000000000000e+00 6.690697369537e+01 6.807228635280e-04 9.006617303029e-03 -3.112208888864e+07 4.016876765265e+03 8.985314436677e+06 -1.366740842915e+07 -2.873499495681e-02 1.450528600502e-05 2.389097768666e-03 0.000000000000e+00 1.193472762704e+07 3.483113278010e+07  3.000098443151e-02
3.000000000000e+01 1.856860334171e+06 1.000000000000e+00 6.698535614097e+01 6.888057450240e-04 9.119969274121e-03 -3.151831091477e+07 3.778267063803e+03 9.238955935940e+06 -1.373921486775e+07 -2.914457188932e-02 1.344575904271e-05 2.419823593345e-03 0.000000000000e+00 1.200618994886e+07 3.539242487118e+07  3.042674615985e-02
3.100000000000e+01 1.890005249946e+06 1.000000000000e+00 6.708519226011e+01 6.969924706072e-04 9.229181070611e-03 -3.190809515354e+07 3.504835285397e+03 9.479399869419e+06 -1.381655387626e+07 -2.954688356676e-02 1.223431110904e-05 2.450029230432e-03 0.000000000000e+00 1.208174972013e+07 3.593695969811e+07  3.084496959278e-02
3.200000000000e+01 1.922693061172e+06 1.000000000000e+00 6.717904474686e+01 7.054174573924e-04 9.334357321234e-03 -3.229438174887e+07 3.224179373585e+03 9.714735575080e+06 -1.389317000245e+07 -2.994518508158e-02 1.099063584522e-05 2.479778834280e-03 0.000000000000e+00 1.215760539208e+07 3.647398936368e+07  3.125893810054e-02
3.300000000000e+01 1.954949683954e+06 1.000000000000e+00 6.726264363772e+01 7.140934955737e-04 9.435558066919e-03 -3.267837843408e+07 2.943965051730e+03 9.946416321766e+06 -1.396827553725e+07 -3.034082270403e-02 9.748619793185e-06 2.509332485005e-03 0.000000000000e+00 1.223341254986e+07 3.700576723365e+07  3.167014002207e-02
3.400000000000e+01 1.986797246050e+06 1.000000000000e+00 6.733494671336e+01 7.229757797003e-04 9.532809711538e-03 -3.305881746108e+07 2.682011484819e+03 1.017393239903e+07 -1.404143102996e+07 -3.073237754494e-02 8.585156858176e-06 2.537965213872e-03 0.000000000000e+00 1.230877203067e+07 3.753075749498e+07  3.207675518588e-02
3.500000000000e+01 2.018278015524e+06 1.000000000000e+00 6.739570877738e+01 7.324278704402e-04 9.626174377989e-03 -3.344465262574e+07 2.388778803733e+03 1.039995067254e+07 -1.411480166671e+07 -3.112929624913e-02 7.285533240706e-06 2.566882138046e-03 0.000000000000e+00 1.238650120664e+07 3.805893780030e+07  3.248888059976e-02
3.600000000000e+01 2.049434059600e+06 1.000000000000e+00 6.744495446282e+01 7.428506978102e-04 9.715703338815e-03 -3.384445961092e+07 2.139457784296e+03 1.062665268012e+07 -1.419063096191e+07 -3.153961484557e-02 6.180347973890e-06 2.595920639621e-03 0.000000000000e+00 1.246947929757e+07 3.859954924478e+07  3.291444303505e-02
3.700000000000e+01 2.080353415110e+06 1.000000000000e+00 6.748283023127e+01 7.557221855979e-04 9.801451227060e-03 -3.429330580977e+07 2.394328684131e+03 1.086286428994e+07 -1.427810266777e+07 -3.199865034675e-02 7.307300491926e-06 2.627547629442e-03 0.000000000000e+00 1.256951472920e+07 3.919028137724e+07  3.339005493575e-02
3.800000000000e+01 2.113298548489e+06 1.000000000000e+00 6.750986996814e+01 8.168913832072e-04 9.883193613845e-03 -3.585875802294e+07 1.912229680254e+04 1.137517701485e+07 -1.465690221147e+07 -3.357359824316e-02 8.144111257092e-05 2.724586093221e-03 0.000000000000e+00 1.304682773985e+07 4.097703412781e+07  3.501576680882e-02
3.900000000000e+01 2.143157947788e+06 1.000000000000e+00 6.752535725930e+01 8.144991939939e-04 9.962078310215e-03 -3.592743709624e+07 -8.149370036367e+02 1.152088018447e+07 -1.463922523444e+07 -3.364607612369e-02 -6.920404052776e-06 2.734456145353e-03 0.000000000000e+00 1.301526071540e+07 4.116358765073e+07  3.509329782496e-02
4.000000000000e+01 2.172544101843e+06 1.000000000000e+00 6.752988574847e+01 8.092660879375e-04 1.003702134603e-02 -3.592698469626e+07 -8.151802144257e+02 1.164066500998e+07 -1.460408581345e+07 -3.365005089744e-02 -6.921350276438e-06 2.740912602172e-03 0.000000000000e+00 1.296346849991e+07 4.126823394036e+07  3.510086209165e-02
4.200000000000e+01 2.229827605392e+06 1.000000000000e+00 6.757085467195e+01 7.996519985785e-04 1.017736669741e-02 -3.592658183181e+07 -8.153718623222e+02 1.185823616789e+07 -1.454615595779e+07 -3.365727251716e-02 -6.922124104156e-06 2.753083418254e-03 0.000000000000e+00 1.287150054057e+07 4.145903622453e+07  3.511485275806e-02
4.400000000000e+01 2.285593809495e+06 1.000000000000e+00 6.759066828649e+01 7.908339997984e-04 1.030820601635e-02 -3.592578424241e+07 -8.150445237623e+02 1.206691387646e+07 -1.448702310300e+07 -3.366401877446e-02 -6.921052282648e-06 2.764484271264e-03 0.000000000000e+00 1.278196448965e+07 4.164151249064e+07  3.512794226033e-02
5.000000000000e+01 2.437116678573e+06 1.000000000000e+00 6.734086521760e+01 7.729360326483e-04 1.058190557744e-02 -3.591893518503e+07 -8.151231184080e+02 1.258155252608e+07 -1.428692234179e+07 -3.367942341253e-02 -6.921517495253e-06 2.788491099680e-03 0.000000000000e+00 1.254143500025e+07 4.208417893685e+07  3.515670860823e-02
6.500000000000e+01 2.768502507756e+06 1.000000000000e+00 6.648644605861e+01 7.497230196787e-04 1.104624282167e-02 -3.589580790796e+07 -8.167562965645e+02 1.360994823376e+07 -1.382105571406e+07 -3.370470256785e-02 -6.927765267791e-06 2.831379847120e-03 0.000000000000e+00 1.203563846275e+07 4.295680712747e+07  3.520588937396e-02
8.000000000000e+01 3.023556374630e+06 1.000000000000e+00 6.542969247624e+01 7.429700404340e-04 1.126660977954e-02 -3.587135583603e+07 -8.155598750929e+02 1.429418002026e+07 -1.342193785782e+07 -3.371830115979e-02 -6.923253713564e-06 2.853137907237e-03 0.000000000000e+00 1.166637122453e+07 4.352436415119e+07  3.523162409003e-02
1.000000000000e+02 3.324236305531e+06 1.000000000000e+00 6.427463271857e+01 7.412061552962e-04 1.145109544073e-02 -3.584407826680e+07 -8.155794990776e+02 1.495724486561e+07 -1.301079056067e+07 -3.372934127486e-02 -6.923322072827e-06 2.872343428800e-03 0.000000000000e+00 1.129920798729e+07 4.407008321452e+07  3.525338586824e-02
1.860000000000e+02 3.922717201764e+06 1.000000000000e+00 6.153628170521e+01 7.545432044187e-04 1.167042142198e-02 -3.577835010542e+07 -8.162680692133e+02 1.623981198357e+07 -1.212202445819e+07 -3.374337481638e-02 -6.926039393176e-06 2.902303182355e-03 0.000000000000e+00 1.055352086001e+07 4.511044613275e+07  3.528416579408e-02
2.720000000000e+02 4.213038211969e+06 1.000000000000e+00 5.948547595359e+01 7.804257399880e-04 1.150233314456e-02 -3.573709361581e+07 -8.157111808002e+02 1.657096213632e+07 -1.164744433997e+07 -3.373886942748e-02 -6.923725869052e-06 2.891421884266e-03 0.000000000000e+00 1.027119193982e+07 4.534711879963e+07  3.527357481153e-02
3.580000000000e+02 4.354403691727e+06 1.000000000000e+00 5.805270967561e+01 8.023626200734e-04 1.132643973238e-02 -3.570883416338e+07 -8.157778650407e+02 1.670644683786e+07 -1.134472491134e+07 -3.373271306536e-02 -6.924226552458e-06 2.878709832319e-03 0.000000000000e+00 1.011570407895e+07 4.543038489040e+07  3.526031391884e-02
4.440000000000e+02 4.426532453840e+06 1.000000000000e+00 5.696357475614e+01 8.205200266847e-04 1.116185095126e-02 -3.568810421211e+07 -8.156456960500e+02 1.675070454378e+07 -1.113243873747e+07 -3.372664057484e-02 -6.923784114979e-06 2.865937720452e-03 0.000000000000e+00 1.002327946860e+07 4.544380625494e+07  3.524710596213e-02
5.300000000000e+02 4.465496889446e+06 1.000000000000e+00 5.612699021294e+01 8.352446530825e-04 1.101920438806e-02 -3.567257822170e+07 -8.155702899707e+02 1.675376447180e+07 -1.097876926669e+07 -3.372124379911e-02 -6.923653089834e-06 2.854489804520e-03 0.000000000000e+00 9.965861005529e+06 4.542795967502e+07  3.523531588952e-02
6.160000000000e+02 4.488012314786e+06 1.000000000000e+00 5.549026067416e+01 8.469125728405e-04 1.090097845405e-02 -3.566100011656e+07 -8.158046148197e+02 1.673757750345e+07 -1.086743213732e+07 -3.371669927695e-02 -6.925032126700e-06 2.844796733636e-03 0.000000000000e+00 9.930284916809e+06 4.540026713027e+07  3.522535987649e-02
7.020000000000e+02 4.501822576458e+06 1.000000000000e+00 5.502246718042e+01 8.556680814491e-04 1.081029300452e-02 -3.565259462045e+07 -8.155227905177e+02 1.671808169426e+07 -1.078794437960e+07 -3.371318399544e-02 -6.923761964746e-06 2.837273122516e-03 0.000000000000e+00 9.907485768596e+06 4.537356082360e+07  3.521764541423e-02
7.880000000000e+02 4.511441113274e+06 1.000000000000e+00 5.465670951073e+01 8.629299966893e-04 1.072857108447e-02 -3.564636693159e+07 -8.152898524625e+02 1.668073066305e+07 -1.073253047779e+07 -3.370997963680e-02 -6.923091957248e-06 2.830223692710e-03 0.000000000000e+00 9.899388915445e+06 4.533382445752e+07  3.521050724004e-02
8.740000000000e+02 4.519827167133e+06 1.000000000000e+00 5.406599893403e+01 8.739820584942e-04 1.061304455787e-02 -3.563573894891e+07 -8.153974182532e+02 1.665681327494e+07 -1.063194208039e+07 -3.370555194753e-02 -6.923457964623e-06 2.820760047391e-03 0.000000000000e+00 9.870289251452e+06 4.530108745250e+07  3.520080023869e-02
9.370000000000e+02 4.525201002277e+06 1.000000000000e+00 5.365779407733e+01 8.824805690053e-04 1.051808874463e-02 -3.562864312477e+07 -8.148476844530e+02 1.661370491895e+07 -1.057046375322e+07 -3.370176044254e-02 -6.921677406029e-06 2.812808450944e-03 0.000000000000e+00 9.861800653014e+06 4.525568645440e+07  3.519257433922e-02
1.000000000000e+03 4.529391016052e+06 1.000000000000e+00 5.333501593124e+01 8.896523406721e-04 1.043858726648e-02 -3.562293325392e+07 -8.149391308194e+02 1.657509878600e+07 -1.052316066339e+07 -3.369848137183e-02 -6.922136417950e-06 2.806273339157e-03 0.000000000000e+00 9.856998377104e+06 4.521586448421e+07  3.518565205327e-02
1.100000000000e+03 4.533536316160e+06 1.000000000000e+00 5.301050912482e+01 8.971551292749e-04 1.035541404338e-02 -3.561715516687e+07 -8.148059204238e+02 1.653225986871e+07 -1.047679095651e+07 -3.369499047268e-02 -6.921984332648e-06 2.799485373373e-03 0.000000000000e+00 9.853895418224e+06 4.517238222435e+07  3.517837799040e-02
1.200000000000e+03 4.536797682874e+06 1.000000000000e+00 5.273157995109e+01 9.033797959294e-04 1.028629510259e-02 -3.561221768049e+07 -8.152208525416e+02 1.649849773545e+07 -1.043603231118e+07 -3.369213810243e-02 -6.923469667994e-06 2.793816410129e-03 0.000000000000e+00 9.849917418742e+06 4.513776624808e+07  3.517236659898e-02
1.300000000000e+03 4.539703052077e+06 1.000000000000e+00 5.246375662071e+01 9.092911629957e-04 1.022050673264e-02 -3.560749016312e+07 -8.153713974265e+02 1.646678260988e+07 -1.039669208291e+07 -3.368944075177e-02 -6.924167249005e-06 2.788411546534e-03 0.000000000000e+00 9.845799878715e+06 4.510521312019e+07  3.516665788130e-02
1.400000000000e+03 4.542442562524e+06 1.000000000000e+00 5.218963067332e+01 9.153777891519e-04 1.015253097275e-02 -3.560265580960e+07 -8.152084504089e+02 1.643344846502e+07 -1.035668830379e+07 -3.368665175906e-02 -6.923310506225e-06 2.782832946660e-03 0.000000000000e+00 9.841965216122e+06 4.507120175601e+07  3.516076128470e-02
1.500000000000e+03 4.545082446453e+06 1.000000000000e+00 5.189913200929e+01 9.219219972980e-04 1.007914487677e-02 -3.559753306147e+07 -8.151684704128e+02 1.639632440209e+07 -1.031483229386e+07 -3.368362839746e-02 -6.923237904009e-06 2.776824719454e-03 0.000000000000e+00 9.838680317744e+06 4.503366556294e+07  3.515439166462e-02
1.600000000000e+03 4.547643486991e+06 1.000000000000e+00 5.158611879313e+01 9.290959712607e-04 9.998375577525e-03 -3.559201186000e+07 -8.150183288968e+02 1.635405054547e+07 -1.027041004799e+07 -3.368028304129e-02 -6.922860343685e-06 2.770228919473e-03 0.000000000000e+00 9.836123787505e+06 4.499132596199e+07  3.514737361287e-02
1.700000000000e+03 4.550130771773e+06 1.000000000000e+00 5.124679990710e+01 9.370050451258e-04 9.909002388264e-03 -3.558602463486e+07 -8.150152848461e+02 1.630579479925e+07 -1.022297876919e+07 -3.367656221914e-02 -6.922977626432e-06 2.762948463948e-03 0.000000000000e+00 9.834402868266e+06 4.494341359308e+07  3.513959983767e-02
1.800000000000e+03 4.552544175197e+06 1.000000000000e+00 5.087888722012e+01 9.457147105978e-04 9.810289702090e-03 -3.557953005926e+07 -8.152044140883e+02 1.625103766959e+07 -1.017227621006e+07 -3.367243248782e-02 -6.923559765147e-06 2.754923800206e-03 0.000000000000e+00 9.833589533246e+06 4.488946323817e+07  3.513100403163e-02
1.900000000000e+03 4.554883463306e+06 1.000000000000e+00 5.048109404414e+01 9.552599959198e-04 9.701818317805e-03 -3.557250572891e+07 -8.151730780433e+02 1.618948845839e+07 -1.011815475407e+07 -3.366787595708e-02 -6.923499532839e-06 2.746121562794e-03 0.000000000000e+00 9.833724008198e+06 4.482923221056e+07  3.512155006606e-02
2.000000000000e+03 4.557147803229e+06 1.000000000000e+00 5.005281822980e+01 9.656579387119e-04 9.583397599600e-03 -3.556494064785e+07 -8.150633466589e+02 1.612102075030e+07 -1.006054225688e+07 -3.366288406248e-02 -6.923492776920e-06 2.736526623485e-03 0.000000000000e+00 9.834820718143e+06 4.476263614009e+07  3.511122133492e-02