 TITLE = "Time curves in points"
 VARIABLES = "TIME"  "PRESSURE1"  "SATURATION1"  "TEMPERATURE1"  "DISPLACEMENT_X1"  "DISPLACEMENT_Y1"  "STRESS_XX"  "STRESS_XY"  "STRESS_YY"  "STRESS_ZZ"  "STRAIN_XX"  "STRAIN_XY"  "STRAIN_YY"  "STRAIN_PLS"  p_(1st_Invariant)  q_(2nd_Invariant)   Effective_Strain
 ZONE T="POINT=POINT11"
0.000000000000e+00 1.000000000000e+05 1.000000000000e+00 2.500000000000e+01 0.000000000000e+00 0.000000000000e+00 -5.392170068764e+07 8.391404681268e+05 -2.357515820812e+05 -1.424861648653e+07 0.000000000000e+00 0.000000000000e+00 0.000000000000e+00 0.000000000000e+00 2.280202291875e+07 4.825308313763e+07  0.000000000000e+00
1.000000000000e-03 1.321562803133e+05 1.000000000000e+00 2.500658919670e+01 0.000000000000e+00 6.372104129756e-05 -5.402374885745e+07 8.599886254749e+05 -1.824065137780e+05 -1.426184744749e+07 2.507589997098e-05 3.154514751113e-05 4.582830547524e-05 0.000000000000e+00 2.282266760624e+07 4.838681167801e+07  6.756580002225e-05
2.000000000000e-03 1.547721087935e+05 1.000000000000e+00 2.503242649855e+01 0.000000000000e+00 6.364390602514e-05 -5.401747775510e+07 8.599602194286e+05 -1.813483630071e+05 -1.426535798524e+07 2.554359853709e-05 3.156696014882e-05 4.661268865695e-05 0.000000000000e+00 2.282139470111e+07 4.838055585993e+07  6.799986237764e-05
3.000000000000e-03 1.705465206431e+05 1.000000000000e+00 2.508821888304e+01 0.000000000000e+00 6.368974675139e-05 -5.402225047131e+07 8.600679319382e+05 -1.856161985182e+05 -1.428065240266e+07 2.599850215350e-05 3.118996139641e-05 4.411893213051e-05 0.000000000000e+00 2.282950635750e+07 4.837812601555e+07  6.628587489266e-05
4.000000000000e-03 1.815030669678e+05 1.000000000000e+00 2.517801402977e+01 0.000000000000e+00 6.367518178512e-05 -5.403943918836e+07 8.603556142118e+05 -1.934818709495e+05 -1.430855793071e+07 2.642775575964e-05 3.055173225596e-05 3.966461644812e-05 0.000000000000e+00 2.284715966334e+07 4.838184932290e+07  6.343253351551e-05
1.000000000000e-02 1.978603628676e+05 1.000000000000e+00 2.624254793578e+01 0.000000000000e+00 6.347418383670e-05 -5.433998897644e+07 8.645157985008e+05 -2.704212542958e+05 -1.466736116434e+07 2.834697766106e-05 2.467330405996e-05 1.889486494969e-06 0.000000000000e+00 2.309259046502e+07 4.852417827921e+07  5.079247847835e-05
2.000000000000e-02 1.963680346369e+05 1.000000000000e+00 2.811855859645e+01 0.000000000000e+00 6.577780098169e-05 -5.490045226224e+07 8.710161721465e+05 -4.015396677429e+05 -1.531144241317e+07 3.079524400418e-05 1.458230213228e-05 -6.147606521690e-05 0.000000000000e+00 2.353781144771e+07 4.880716335602e+07  8.519832558819e-05
3.000000000000e-02 1.864315871100e+05 1.000000000000e+00 2.977104240945e+01 0.000000000000e+00 7.024572353695e-05 -5.539892772857e+07 8.757560387664e+05 -5.276132587035e+05 -1.588553343823e+07 3.290164270424e-05 4.652807093456e-06 -1.262560139252e-04 0.000000000000e+00 2.393735814183e+07 4.905423979674e+07  1.457466131541e-04
4.000000000000e-02 1.732308016779e+05 1.000000000000e+00 3.117078428574e+01 0.000000000000e+00 7.726691204100e-05 -5.581935862590e+07 8.788777267897e+05 -6.500707339039e+05 -1.637739168135e+07 3.486307292674e-05 -5.202300297924e-06 -1.939331674135e-04 0.000000000000e+00 2.428227368038e+07 4.925089980651e+07  2.137002695847e-04
5.000000000000e-02 1.590712169439e+05 1.000000000000e+00 3.235484757263e+01 0.000000000000e+00 8.529447602050e-05 -5.617234078690e+07 8.807796246411e+05 -7.685028090456e+05 -1.679809517819e+07 3.676507478822e-05 -1.485951561190e-05 -2.635178106229e-04 0.000000000000e+00 2.457964625805e+07 4.940404309333e+07  2.848578151779e-04
6.000000000000e-02 1.446828136011e+05 1.000000000000e+00 3.336666820306e+01 0.000000000000e+00 9.585408116569e-05 -5.647167414177e+07 8.817572907174e+05 -8.817558068468e+05 -1.716121567419e+07 3.850791895423e-05 -2.426247935567e-05 -3.332423370513e-04 0.000000000000e+00 2.483821520760e+07 4.952391823405e+07  3.565554482074e-04
7.000000000000e-02 1.309553152747e+05 1.000000000000e+00 3.424269924722e+01 0.000000000000e+00 1.062234849497e-04 -5.672951760348e+07 8.820550791375e+05 -9.903392110282e+05 -1.747889730632e+07 4.011053142322e-05 -3.339341360830e-05 -4.026863308575e-04 0.000000000000e+00 2.506625137361e+07 4.961858460605e+07  4.280916475888e-04
8.000000000000e-02 1.185266125142e+05 1.000000000000e+00 3.501114549322e+01 0.000000000000e+00 1.173739483141e-04 -5.695389058344e+07 8.818399728596e+05 -1.095548870770e+06 -1.776045161880e+07 4.162501897739e-05 -4.233091079359e-05 -4.720956075686e-04 0.000000000000e+00 2.526996369100e+07 4.969237784003e+07  4.996334772015e-04
9.000000000000e-02 1.083066492509e+05 1.000000000000e+00 3.569332899835e+01 0.000000000000e+00 1.276912565081e-04 -5.715171973456e+07 8.812322190012e+05 -1.198569546583e+06 -1.801326250812e+07 4.307843247395e-05 -5.113029808689e-05 -5.417754290097e-04 0.000000000000e+00 2.545451726309e+07 4.974920688191e+07  5.714526447616e-04
1.000000000000e-01 1.013009242719e+05 1.000000000000e+00 3.630541896253e+01 0.000000000000e+00 1.370618321808e-04 -5.732889179283e+07 8.803541880439e+05 -1.297670771684e+06 -1.824227463431e+07 4.444231050119e-05 -5.963931154341e-05 -6.102055850557e-04 0.000000000000e+00 2.562294573294e+07 4.979473421486e+07  6.419621978907e-04
2.000000000000e-01 1.227583401152e+05 1.000000000000e+00 3.981142503252e+01 0.000000000000e+00 2.667638877896e-04 -5.834226700892e+07 8.677126825173e+05 -1.983693993158e+06 -1.959411704814e+07 5.302869237539e-05 -1.203546536461e-04 -1.117426921913e-03 0.000000000000e+00 2.664002601674e+07 4.996174751611e+07  1.163686549070e-03
3.000000000000e-01 1.535262526101e+05 1.000000000000e+00 4.213322259453e+01 0.000000000000e+00 4.124544308916e-04 -5.897858598816e+07 8.520191584662e+05 -2.609892501755e+06 -2.053624258090e+07 6.287505121240e-05 -1.750041301256e-04 -1.605350407448e-03 0.000000000000e+00 2.737490702360e+07 4.990467422519e+07  1.665508639582e-03
4.000000000000e-01 1.848711887700e+05 1.000000000000e+00 4.382361384831e+01 0.000000000000e+00 5.514253747838e-04 -5.943078456551e+07 8.355489601837e+05 -3.192812262188e+06 -2.126113358105e+07 7.154989801506e-05 -2.263298371852e-04 -2.071054074502e-03 0.000000000000e+00 2.796157680292e+07 4.975080337410e+07  2.143885179022e-03
5.000000000000e-01 2.146182721516e+05 1.000000000000e+00 4.513443190839e+01 0.000000000000e+00 6.861012732187e-04 -5.976989841502e+07 8.204606623780e+05 -3.747929888464e+06 -2.185377009457e+07 8.057562491464e-05 -2.742813244027e-04 -2.516441332669e-03 0.000000000000e+00 2.845719946602e+07 4.953763280660e+07  2.601427296656e-03
6.000000000000e-01 2.422349190066e+05 1.000000000000e+00 4.619629486424e+01 0.000000000000e+00 8.171578727134e-04 -6.003750956409e+07 8.058568099816e+05 -4.287110133596e+06 -2.236121756345e+07 8.841674536036e-05 -3.211602672993e-04 -2.947289433554e-03 0.000000000000e+00 2.889527908704e+07 4.928579818848e+07  3.043740136284e-03
7.000000000000e-01 2.677989511646e+05 1.000000000000e+00 4.708364073506e+01 0.000000000000e+00 9.443966729120e-04 -6.026066634220e+07 7.923696710557e+05 -4.801011814879e+06 -2.280597048856e+07 9.472588099892e-05 -3.664294691036e-04 -3.355475333606e-03 0.000000000000e+00 2.928921621521e+07 4.902332688014e+07  3.462491838488e-03
8.000000000000e-01 2.915671400692e+05 1.000000000000e+00 4.784280359403e+01 0.000000000000e+00 1.067537737008e-03 -6.045916480918e+07 7.806406927486e+05 -5.273243579419e+06 -2.319932791808e+07 9.954385646742e-05 -4.083379560507e-04 -3.727772506457e-03 0.000000000000e+00 2.964391210223e+07 4.877900289158e+07  3.844150536807e-03
9.000000000000e-01 3.136002835465e+05 1.000000000000e+00 4.850368017678e+01 0.000000000000e+00 1.187288606844e-03 -6.063486831927e+07 7.702943563600e+05 -5.716418651064e+06 -2.355308771234e+07 1.039659647621e-04 -4.471630953350e-04 -4.073425089896e-03 0.000000000000e+00 2.996812489422e+07 4.854277212168e+07  4.198447684046e-03
1.000000000000e+00 3.340884170568e+05 1.000000000000e+00 4.908706938572e+01 0.000000000000e+00 1.303851121842e-03 -6.079612846728e+07 7.615708642462e+05 -6.135028339532e+06 -2.387611777167e+07 1.082942115921e-04 -4.830953824624e-04 -4.396325058483e-03 0.000000000000e+00 3.026909152616e+07 4.831743604677e+07  4.529419571854e-03
2.000000000000e+00 4.691559606783e+05 1.000000000000e+00 5.224848730855e+01 0.000000000000e+00 2.260443512233e-03 -6.187722396250e+07 7.168506866066e+05 -9.262452942175e+06 -2.596741402729e+07 1.244917461908e-04 -7.432843498044e-04 -6.663555861057e-03 0.000000000000e+00 3.236903031065e+07 4.658308466278e+07  6.848755177933e-03
3.000000000000e+00 5.730621993731e+05 1.000000000000e+00 5.427679455463e+01 0.000000000000e+00 3.075263058372e-03 -6.268683456312e+07 6.919944398880e+05 -1.183476875895e+07 -2.752753220078e+07 1.357570451619e-04 -9.493608510040e-04 -8.463298807629e-03 0.000000000000e+00 3.401637850762e+07 4.511787396049e+07  8.688996903971e-03
4.000000000000e+00 6.596126034108e+05 1.000000000000e+00 5.575088147689e+01 0.000000000000e+00 3.784021480156e-03 -6.333950045443e+07 6.765694006096e+05 -1.401447720216e+07 -2.878118572986e+07 1.444656540637e-04 -1.120137004068e-03 -9.956262396463e-03 0.000000000000e+00 3.537838779548e+07 4.386363638086e+07  1.021520875534e-02
5.000000000000e+00 7.355452377896e+05 1.000000000000e+00 5.693149995896e+01 0.000000000000e+00 4.410853017698e-03 -6.389695546412e+07 6.660827930895e+05 -1.589238337414e+07 -2.983840217803e+07 1.517852606102e-04 -1.265197000514e-03 -1.122757615115e-02 0.000000000000e+00 3.654258033877e+07 4.278771688047e+07  1.151468001803e-02
6.000000000000e+00 8.043233661910e+05 1.000000000000e+00 5.796438519089e+01 0.000000000000e+00 4.975456234854e-03 -6.438426116253e+07 6.577577625233e+05 -1.757013113946e+07 -3.077430732466e+07 1.586509566058e-04 -1.393914289638e-03 -1.235566142753e-02 0.000000000000e+00 3.757623320888e+07 4.182187171311e+07  1.266794253552e-02
7.000000000000e+00 8.681486722727e+05 1.000000000000e+00 5.881773266898e+01 0.000000000000e+00 5.485968393776e-03 -6.480647263194e+07 6.506616728960e+05 -1.905897826616e+07 -3.158693518946e+07 1.642395150240e-04 -1.507901544381e-03 -1.335402600389e-02 0.000000000000e+00 3.848412869585e+07 4.096254860837e+07  1.368837262380e-02
8.000000000000e+00 9.277122832900e+05 1.000000000000e+00 5.964548359829e+01 0.000000000000e+00 5.954927372437e-03 -6.521161098468e+07 6.449901411832e+05 -2.039804281965e+07 -3.233938407607e+07 1.690894001437e-04 -1.610025375444e-03 -1.424754861739e-02 0.000000000000e+00 3.931634596013e+07 4.021150891417e+07  1.460160564486e-02
9.000000000000e+00 9.841048929835e+05 1.000000000000e+00 6.039584327610e+01 0.000000000000e+00 6.388889013433e-03 -6.557813954194e+07 6.399854853171e+05 -2.162401268820e+07 -3.302519894560e+07 1.738807977923e-04 -1.703172987266e-03 -1.506472841299e-02 0.000000000000e+00 4.007578372525e+07 3.952280193476e+07  1.543690831604e-02
1.000000000000e+01 1.037819556408e+06 1.000000000000e+00 6.107245844145e+01 0.000000000000e+00 6.792457130880e-03 -6.590714637224e+07 6.353360059593e+05 -2.275788814761e+07 -3.365240388835e+07 1.784217110403e-04 -1.789235323831e-03 -1.581933794440e-02 0.000000000000e+00 4.077247946940e+07 3.888019600199e+07  1.620832779104e-02
1.100000000000e+01 1.089158496838e+06 1.000000000000e+00 6.170901697769e+01 0.000000000000e+00 7.169713053150e-03 -6.622006063574e+07 6.312292907665e+05 -2.380221039076e+07 -3.423612923690e+07 1.820281915536e-04 -1.868669982191e-03 -1.651232833104e-02 0.000000000000e+00 4.141946675447e+07 3.829819350912e+07  1.691660760750e-02
1.200000000000e+01 1.138516106949e+06 1.000000000000e+00 6.228858435154e+01 0.000000000000e+00 7.523261784993e-03 -6.650987038993e+07 6.277482299236e+05 -2.476231857670e+07 -3.477208593613e+07 1.854020973091e-04 -1.941396614382e-03 -1.714834967070e-02 0.000000000000e+00 4.201475830092e+07 3.776708152654e+07  1.756663521577e-02
1.300000000000e+01 1.186155559904e+06 1.000000000000e+00 6.281335036953e+01 0.000000000000e+00 7.855706991482e-03 -6.677462179992e+07 6.245143681404e+05 -2.566059167348e+07 -3.526749310914e+07 1.884126137711e-04 -2.009492748464e-03 -1.774237492705e-02 0.000000000000e+00 4.256756886085e+07 3.726724631594e+07  1.817372933434e-02
1.400000000000e+01 1.232794460601e+06 1.000000000000e+00 6.328719669981e+01 0.000000000000e+00 8.168903543864e-03 -6.701731824205e+07 6.214887298245e+05 -2.649938985427e+07 -3.572494324284e+07 1.910348071847e-04 -2.073117373265e-03 -1.829613911195e-02 0.000000000000e+00 4.308055044639e+07 3.679907321320e+07  1.873963305507e-02
1.500000000000e+01 1.277982880797e+06 1.000000000000e+00 6.371396674996e+01 0.000000000000e+00 8.463915676055e-03 -6.724076445103e+07 6.187978957478e+05 -2.727900575021e+07 -3.614627318934e+07 1.933406995140e-04 -2.132210985024e-03 -1.881000984759e-02 0.000000000000e+00 4.355534779686e+07 3.636437433902e+07  1.926472326840e-02
1.600000000000e+01 1.321868393102e+06 1.000000000000e+00 6.409718126667e+01 0.000000000000e+00 8.742418938818e-03 -6.744300012391e+07 6.161691384249e+05 -2.801370950773e+07 -3.653637530667e+07 1.953741065476e-04 -2.188039360051e-03 -1.929370437945e-02 0.000000000000e+00 4.399769497944e+07 3.594998077087e+07  1.975897868569e-02
1.700000000000e+01 1.364582364112e+06 1.000000000000e+00 6.443989680906e+01 0.000000000000e+00 9.005842611090e-03 -6.762208812831e+07 6.137510463543e+05 -2.871279750295e+07 -3.689839855938e+07 1.976322126717e-04 -2.241028978345e-03 -1.975331837239e-02 0.000000000000e+00 4.441109473021e+07 3.554674531115e+07  2.022877084440e-02
1.800000000000e+01 1.406266469302e+06 1.000000000000e+00 6.474480269154e+01 0.000000000000e+00 9.255278664770e-03 -6.777863198650e+07 6.114260244467e+05 -2.938206759922e+07 -3.723505609972e+07 2.001144829085e-04 -2.291708770832e-03 -2.019311492479e-02 0.000000000000e+00 4.479858522848e+07 3.515052392061e+07  2.067845879640e-02
1.900000000000e+01 1.447009435937e+06 1.000000000000e+00 6.501430106622e+01 0.000000000000e+00 9.491589367582e-03 -6.791330137667e+07 6.089878748919e+05 -3.002448958094e+07 -3.754809449240e+07 2.026709375994e-04 -2.340458424823e-03 -2.061522080273e-02 0.000000000000e+00 4.516196181667e+07 3.475944243419e+07  2.111018112898e-02
2.000000000000e+01 1.486894329421e+06 1.000000000000e+00 6.525046042328e+01 0.000000000000e+00 9.714713316886e-03 -6.803592425135e+07 6.068163805678e+05 -3.062118500341e+07 -3.783479915436e+07 2.049872423770e-04 -2.385687991875e-03 -2.100703725346e-02 0.000000000000e+00 4.549730280304e+07 3.439633887460e+07  2.151088864177e-02
2.100000000000e+01 1.525849531847e+06 1.000000000000e+00 6.550408013656e+01 0.000000000000e+00 9.927874608400e-03 -6.816115036321e+07 6.050208683732e+05 -3.118976065551e+07 -3.811714098824e+07 2.072387128834e-04 -2.428732936793e-03 -2.137922358693e-02 0.000000000000e+00 4.582268400232e+07 3.405665174399e+07  2.189157333034e-02
2.200000000000e+01 1.564034463581e+06 1.000000000000e+00 6.574140182376e+01 0.000000000000e+00 1.013189085819e-02 -6.827446310007e+07 6.031915539980e+05 -3.173956278617e+07 -3.838597797280e+07 2.096005723484e-04 -2.470387508318e-03 -2.173928284435e-02 0.000000000000e+00 4.613333461968e+07 3.372297702819e+07  2.225994969529e-02
2.300000000000e+01 1.601514635910e+06 1.000000000000e+00 6.595789737850e+01 0.000000000000e+00 1.032632518085e-02 -6.838314524559e+07 6.015836411459e+05 -3.225230713218e+07 -3.863647908965e+07 2.116087223951e-04 -2.509236872793e-03 -2.207490216912e-02 0.000000000000e+00 4.642397715581e+07 3.341579476098e+07  2.260323284231e-02
2.400000000000e+01 1.638336215366e+06 1.000000000000e+00 6.615302041940e+01 0.000000000000e+00 1.051199251673e-02 -6.848266844464e+07 6.000921134037e+05 -3.274064023613e+07 -3.887126608976e+07 2.134997217451e-04 -2.546259676394e-03 -2.239435125761e-02 0.000000000000e+00 4.669819159018e+07 3.312154107605e+07  2.292998153426e-02
2.500000000000e+01 1.674554485485e+06 1.000000000000e+00 6.632710006372e+01 0.000000000000e+00 1.068932991141e-02 -6.857158240595e+07 5.985781722864e+05 -3.320847201658e+07 -3.909125924754e+07 2.152935689111e-04 -2.581821363635e-03 -2.270041716179e-02 0.000000000000e+00 4.695710455669e+07 3.283592537535e+07  2.324306238704e-02
2.600000000000e+01 1.710201348263e+06 1.000000000000e+00 6.648073203976e+01 0.000000000000e+00 1.085872078863e-02 -6.864910156912e+07 5.971532347403e+05 -3.365706598071e+07 -3.929676885250e+07 2.172574191914e-04 -2.615799108981e-03 -2.299377220254e-02 0.000000000000e+00 4.720097880078e+07 3.255724029248e+07  2.354322712438e-02
2.700000000000e+01 1.745310255366e+06 1.000000000000e+00 6.661459188943e+01 0.000000000000e+00 1.102051611824e-02 -6.871485795817e+07 5.956782828056e+05 -3.408961176854e+07 -3.948888390757e+07 2.192882601627e-04 -2.648592018338e-03 -2.327677182670e-02 0.000000000000e+00 4.743111787809e+07 3.228270719928e+07  2.383286881280e-02
2.800000000000e+01 1.779924773093e+06 1.000000000000e+00 6.672935958689e+01 0.000000000000e+00 1.117510599660e-02 -6.876807314760e+07 5.940613234997e+05 -3.451005227743e+07 -3.966882193568e+07 2.214269777466e-04 -2.680537274723e-03 -2.355223467960e-02 0.000000000000e+00 4.764898245357e+07 3.200866111350e+07  2.411488603949e-02
2.900000000000e+01 1.814068114876e+06 1.000000000000e+00 6.682569370622e+01 0.000000000000e+00 1.132272985895e-02 -6.880889973625e+07 5.923842351803e+05 -3.491786483045e+07 -3.983660478871e+07 2.237712503245e-04 -2.711496542549e-03 -2.381969324258e-02 0.000000000000e+00 4.785445645180e+07 3.173559231196e+07  2.438882249685e-02
3.000000000000e+01 1.847751175360e+06 1.000000000000e+00 6.690421870234e+01 0.000000000000e+00 1.146368052008e-02 -6.883767882380e+07 5.905901617641e+05 -3.531543009647e+07 -3.999326229720e+07 2.262726789668e-04 -2.741713382814e-03 -2.408081309969e-02 0.000000000000e+00 4.804879040583e+07 3.146201216571e+07  2.465636967965e-02
3.100000000000e+01 1.880894611771e+06 1.000000000000e+00 6.700421408375e+01 0.000000000000e+00 1.159980898911e-02 -6.886844824437e+07 5.888882351233e+05 -3.570586715718e+07 -4.015318064721e+07 2.289644474457e-04 -2.771357429550e-03 -2.433695740481e-02 0.000000000000e+00 4.824249868292e+07 3.119441224755e+07  2.491893826899e-02
3.200000000000e+01 1.913581044444e+06 1.000000000000e+00 6.709823362326e+01 0.000000000000e+00 1.173141677372e-02 -6.889072686500e+07 5.870023851971e+05 -3.609415278560e+07 -4.030846067976e+07 2.318731706970e-04 -2.800900512416e-03 -2.459223303382e-02 0.000000000000e+00 4.843111344346e+07 3.092239506779e+07  2.518072875924e-02
3.300000000000e+01 1.945836759411e+06 1.000000000000e+00 6.718200325324e+01 0.000000000000e+00 1.185857844539e-02 -6.890306160618e+07 5.849156544731e+05 -3.648068263618e+07 -4.045779485710e+07 2.349838396781e-04 -2.830394915973e-03 -2.484696670028e-02 0.000000000000e+00 4.861384636649e+07 3.064485305933e+07  2.544207171970e-02
3.400000000000e+01 1.977683955850e+06 1.000000000000e+00 6.725448079532e+01 0.000000000000e+00 1.198128443869e-02 -6.890558170205e+07 5.826505275722e+05 -3.686436684410e+07 -4.060061630573e+07 2.382506321264e-04 -2.859758735762e-03 -2.510025297680e-02 0.000000000000e+00 4.879018828396e+07 3.036286354680e+07  2.570202859857e-02
3.500000000000e+01 2.009163290122e+06 1.000000000000e+00 6.731542028234e+01 0.000000000000e+00 1.209995420428e-02 -6.889468944145e+07 5.802270742340e+05 -3.725275368680e+07 -4.073824103266e+07 2.420967937848e-04 -2.889375469938e-03 -2.535733953811e-02 0.000000000000e+00 4.896189472030e+07 3.006797538979e+07  2.596608714705e-02
3.600000000000e+01 2.040320277005e+06 1.000000000000e+00 6.736484979958e+01 0.000000000000e+00 1.221509023263e-02 -6.886550396021e+07 5.773268507947e+05 -3.765820880049e+07 -4.087325432738e+07 2.465733891790e-04 -2.920425911259e-03 -2.562680472512e-02 0.000000000000e+00 4.913232236269e+07 2.974724916852e+07  2.624308422156e-02
3.700000000000e+01 2.071240992759e+06 1.000000000000e+00 6.740291338406e+01 0.000000000000e+00 1.232820039018e-02 -6.880211722186e+07 5.734447004836e+05 -3.811463224635e+07 -4.101196228109e+07 2.527468934276e-04 -2.955351667579e-03 -2.593206960525e-02 0.000000000000e+00 4.930957058310e+07 2.936308907482e+07  2.655734692084e-02
3.800000000000e+01 2.104214843803e+06 1.000000000000e+00 6.743016255845e+01 0.000000000000e+00 1.248478407684e-02 -6.819496252467e+07 5.502043181940e+05 -3.973167122054e+07 -4.136338836054e+07 2.889741136070e-04 -3.080076206421e-03 -2.703951128010e-02 0.000000000000e+00 4.976334070191e+07 2.769992033891e+07  2.770366407935e-02
3.900000000000e+01 2.134028859186e+06 1.000000000000e+00 6.744583771760e+01 0.000000000000e+00 1.257438055036e-02 -6.829338786607e+07 5.517469018847e+05 -3.980511487942e+07 -4.142068750949e+07 2.862172630329e-04 -3.085074626423e-03 -2.708536738754e-02 0.000000000000e+00 4.983973008499e+07 2.773229475722e+07  2.774895318590e-02
4.000000000000e+01 2.163414648802e+06 1.000000000000e+00 6.745056538364e+01 0.000000000000e+00 1.265665030792e-02 -6.840912669135e+07 5.537962487332e+05 -3.980186689289e+07 -4.145569315286e+07 2.816930537743e-04 -3.084652373262e-03 -2.708052164851e-02 0.000000000000e+00 4.988889557903e+07 2.783377602572e+07  2.774180310226e-02
4.200000000000e+01 2.220697509681e+06 1.000000000000e+00 6.749194524000e+01 0.000000000000e+00 1.281080516060e-02 -6.863265382657e+07 5.577362317741e+05 -3.979622872241e+07 -4.153099904474e+07 2.733818036779e-04 -3.083879120655e-03 -2.707118726063e-02 0.000000000000e+00 4.998662719791e+07 2.802601426352e+07  2.772824586237e-02
4.400000000000e+01 2.276463149110e+06 1.000000000000e+00 6.751216664321e+01 0.000000000000e+00 1.295458194773e-02 -6.883155045791e+07 5.612714449895e+05 -3.979061340451e+07 -4.159395911675e+07 2.657616521924e-04 -3.083150778458e-03 -2.706267668622e-02 0.000000000000e+00 5.007204099306e+07 2.819933169931e+07  2.771585785278e-02
5.000000000000e+01 2.427985018064e+06 1.000000000000e+00 6.726334194248e+01 0.000000000000e+00 1.325553759520e-02 -6.913679451486e+07 5.670622727029e+05 -3.977413344106e+07 -4.162294783680e+07 2.503143557313e-04 -3.081505595873e-03 -2.704774656670e-02 0.000000000000e+00 5.017795859757e+07 2.850022014612e+07  2.769297241325e-02
6.500000000000e+01 2.759369379565e+06 1.000000000000e+00 6.641202496310e+01 0.000000000000e+00 1.376858853778e-02 -6.934785536484e+07 5.724812505860e+05 -3.973659176746e+07 -4.147656809196e+07 2.303889486983e-04 -3.078602060590e-03 -2.702791544739e-02 0.000000000000e+00 5.018700507476e+07 2.879782554624e+07  2.766263901848e-02
8.000000000000e+01 3.014422729007e+06 1.000000000000e+00 6.535760750312e+01 0.000000000000e+00 1.401370019918e-02 -6.913165537807e+07 5.704976011556e+05 -3.970698732645e+07 -4.115646549590e+07 2.246969055276e-04 -3.076987701445e-03 -2.702554732994e-02 0.000000000000e+00 4.999836940014e+07 2.874435710651e+07  2.765694874678e-02
1.000000000000e+02 3.315102353166e+06 1.000000000000e+00 6.420536454622e+01 0.000000000000e+00 1.422003950767e-02 -6.877169721717e+07 5.662553844233e+05 -3.967652081296e+07 -4.076992437469e+07 2.233480343152e-04 -3.075565027155e-03 -2.702695889472e-02 0.000000000000e+00 4.973938080161e+07 2.858100745797e+07  2.765718912494e-02
1.860000000000e+02 3.913583542837e+06 1.000000000000e+00 6.147268638692e+01 0.000000000000e+00 1.447349572211e-02 -6.753256673124e+07 5.496583874437e+05 -3.961122423879e+07 -3.973905984198e+07 2.353466530790e-04 -3.073330797252e-03 -2.704352517661e-02 0.000000000000e+00 4.896095027067e+07 2.787390786903e+07  2.767866202927e-02
2.720000000000e+02 4.203904885271e+06 1.000000000000e+00 5.942458207660e+01 0.000000000000e+00 1.429316304467e-02 -6.626465520928e+07 5.304947399152e+05 -3.958174075771e+07 -3.887023875428e+07 2.579662272182e-04 -3.073576419558e-03 -2.707695346753e-02 0.000000000000e+00 4.823887824043e+07 2.706128932308e+07  2.772279768004e-02
3.580000000000e+02 4.345270570126e+06 1.000000000000e+00 5.799349184248e+01 0.000000000000e+00 1.410291526231e-02 -6.529488765922e+07 5.155979132964e+05 -3.956381582411e+07 -3.823870665733e+07 2.770987363178e-04 -3.074075892464e-03 -2.710400443573e-02 0.000000000000e+00 4.769913671356e+07 2.643365231806e+07  2.775903732693e-02
4.440000000000e+02 4.417399455284e+06 1.000000000000e+00 5.690549126728e+01 0.000000000000e+00 1.392388762124e-02 -6.452603268895e+07 5.036464115969e+05 -3.955201438220e+07 -3.774962670281e+07 2.929132030975e-04 -3.074635457229e-03 -2.712653604160e-02 0.000000000000e+00 4.727589125798e+07 2.593692413833e+07  2.778921779947e-02
5.300000000000e+02 4.456363967567e+06 1.000000000000e+00 5.606970574270e+01 0.000000000000e+00 1.376829219271e-02 -6.391883609145e+07 4.941362140700e+05 -3.954390457837e+07 -3.736922391391e+07 3.057275617090e-04 -3.075159527470e-03 -2.714487497431e-02 0.000000000000e+00 4.694398819458e+07 2.554616852510e+07  2.781378186277e-02
6.160000000000e+02 4.478879443004e+06 1.000000000000e+00 5.543354191827e+01 0.000000000000e+00 1.363909854232e-02 -6.344684807978e+07 4.867027649160e+05 -3.953829225865e+07 -3.707689277932e+07 3.158757607045e-04 -3.075613673260e-03 -2.715944078865e-02 0.000000000000e+00 4.668734437258e+07 2.524354718423e+07  2.783329317328e-02
7.020000000000e+02 4.492689738173e+06 1.000000000000e+00 5.496615109681e+01 0.000000000000e+00 1.353989935273e-02 -6.309617960235e+07 4.811622208036e+05 -3.953442509282e+07 -3.686102150658e+07 3.234886113357e-04 -3.075971889990e-03 -2.717040570561e-02 0.000000000000e+00 4.649720873391e+07 2.501975204823e+07  2.784797509882e-02
7.880000000000e+02 4.502308299529e+06 1.000000000000e+00 5.460065469369e+01 0.000000000000e+00 1.345019676346e-02 -6.281325275684e+07 4.766422162050e+05 -3.953210472875e+07 -3.668980724545e+07 3.297955306109e-04 -3.076315232182e-03 -2.717966357303e-02 0.000000000000e+00 4.634505491035e+07 2.483835784315e+07  2.786032582057e-02
8.740000000000e+02 4.510694377837e+06 1.000000000000e+00 5.401038251121e+01 0.000000000000e+00 1.332396027743e-02 -6.237047941531e+07 4.696485634528e+05 -3.952718184210e+07 -3.641719622798e+07 3.394058791908e-04 -3.076764625263e-03 -2.719348262740e-02 0.000000000000e+00 4.610495249513e+07 2.455997334465e+07  2.787884078140e-02
9.370000000000e+02 4.516068229386e+06 1.000000000000e+00 5.360241834825e+01 0.000000000000e+00 1.322000168735e-02 -6.204588683197e+07 4.644680793192e+05 -3.952457733323e+07 -3.622342942287e+07 3.467888212230e-04 -3.077161971231e-03 -2.720399529460e-02 0.000000000000e+00 4.593129786269e+07 2.435365115634e+07  2.789298193681e-02
1.000000000000e+03 4.520258254381e+06 1.000000000000e+00 5.327981538065e+01 0.000000000000e+00 1.313309999389e-02 -6.177919773749e+07 4.602089583618e+05 -3.952257812961e+07 -3.606720206660e+07 3.530196621805e-04 -3.077497503427e-03 -2.721256778643e-02 0.000000000000e+00 4.578965931123e+07 2.418340562451e+07  2.790462349775e-02
1.100000000000e+03 4.524403564311e+06 1.000000000000e+00 5.295547262778e+01 0.000000000000e+00 1.304223958450e-02 -6.150461393458e+07 4.558199947194e+05 -3.952065958710e+07 -3.590821227280e+07 3.595381368697e-04 -3.077852183094e-03 -2.722139004552e-02 0.000000000000e+00 4.564449526483e+07 2.400798235574e+07  2.791666157915e-02
1.200000000000e+03 4.527664936884e+06 1.000000000000e+00 5.267668556676e+01 0.000000000000e+00 1.296670096572e-02 -6.127355106888e+07 4.521296145701e+05 -3.951893287515e+07 -3.577302432865e+07 3.649461153769e-04 -3.078143144002e-03 -2.722881221005e-02 0.000000000000e+00 4.552183609090e+07 2.386208954338e+07  2.792674963050e-02
1.300000000000e+03 4.530570310175e+06 1.000000000000e+00 5.240899671779e+01 0.000000000000e+00 1.289479220091e-02 -6.105313841617e+07 4.486097917621e+05 -3.951726737532e+07 -3.564365398638e+07 3.700818527701e-04 -3.078419543719e-03 -2.723590196937e-02 0.000000000000e+00 4.540468659262e+07 2.372391225783e+07  2.793637110268e-02
1.400000000000e+03 4.533309823868e+06 1.000000000000e+00 5.213500147556e+01 0.000000000000e+00 1.282049940626e-02 -6.082674572759e+07 4.449925807866e+05 -3.951560046852e+07 -3.551101026967e+07 3.753698982273e-04 -3.078706536502e-03 -2.724320169130e-02 0.000000000000e+00 4.528445215526e+07 2.358258072254e+07  2.794627919086e-02
1.500000000000e+03 4.535949710671e+06 1.000000000000e+00 5.184463135536e+01 0.000000000000e+00 1.274030932070e-02 -6.058476565040e+07 4.411239189794e+05 -3.951387236431e+07 -3.536983038181e+07 3.810552155559e-04 -3.079016771095e-03 -2.725100949119e-02 0.000000000000e+00 4.515615613217e+07 2.343198807503e+07  2.795689348787e-02
1.600000000000e+03 4.538510754033e+06 1.000000000000e+00 5.153174535744e+01 0.000000000000e+00 1.265207032922e-02 -6.032133837488e+07 4.369094289049e+05 -3.951206987941e+07 -3.521691197262e+07 3.872873721641e-04 -3.079359745173e-03 -2.725952247044e-02 0.000000000000e+00 4.501677340897e+07 2.326855819386e+07  2.796848574681e-02
1.700000000000e+03 4.540998041300e+06 1.000000000000e+00 5.119255284710e+01 0.000000000000e+00 1.255445162047e-02 -6.003286588282e+07 4.322905622839e+05 -3.951017332546e+07 -3.505028030501e+07 3.941578789574e-04 -3.079740487609e-03 -2.726885447494e-02 0.000000000000e+00 4.486443983776e+07 2.309028354624e+07  2.798121553942e-02
1.800000000000e+03 4.543411448242e+06 1.000000000000e+00 5.082476598952e+01 0.000000000000e+00 1.244665014177e-02 -5.971713658388e+07 4.272319490489e+05 -3.950817514283e+07 -3.486873292069e+07 4.017235592466e-04 -3.080162353405e-03 -2.727907776677e-02 0.000000000000e+00 4.469801488247e+07 2.289612275143e+07  2.799518376805e-02
1.900000000000e+03 4.545750738841e+06 1.000000000000e+00 5.042709828818e+01 0.000000000000e+00 1.232820899944e-02 -5.937294444082e+07 4.217141262545e+05 -3.950607829531e+07 -3.467160727783e+07 4.100149418286e-04 -3.080627720421e-03 -2.729023689419e-02 0.000000000000e+00 4.451687667132e+07 2.268576199875e+07  2.801045069866e-02
2.000000000000e+03 4.548015082330e+06 1.000000000000e+00 4.999894771924e+01 0.000000000000e+00 1.219892033376e-02 -5.899971259310e+07 4.157278187816e+05 -3.950387466153e+07 -3.445858649780e+07 4.190467377076e-04 -3.081137015694e-03 -2.730234675671e-02 0.000000000000e+00 4.432072458415e+07 2.245936861368e+07  2.802703897775e-02