 TITLE = "Time curves in points"
 VARIABLES = "TIME"  "PRESSURE1"  "SATURATION1"  "TEMPERATURE1"  "DISPLACEMENT_X1"  "DISPLACEMENT_Y1"  "STRESS_XX"  "STRESS_XY"  "STRESS_YY"  "STRESS_ZZ"  "STRAIN_XX"  "STRAIN_XY"  "STRAIN_YY"  "STRAIN_PLS"  p_(1st_Invariant)  q_(2nd_Invariant)   Effective_Strain
 ZONE T="POINT=POINT8"
0.000000000000e+00 1.000000000000e+05 1.000000000000e+00 2.500000000000e+01 0.000000000000e+00 0.000000000000e+00 -1.862400571852e+07 -6.140100975330e+03 -1.726483383688e+07 -7.763601866620e+06 0.000000000000e+00 0.000000000000e+00 0.000000000000e+00 0.000000000000e+00 1.455081380734e+07 1.024864271960e+07  0.000000000000e+00
1.000000000000e-03 1.897522717761e+05 1.000000000000e+00 2.500000402545e+01 -5.596125029455e-05 6.276089765715e-05 -1.798545406563e+07 -4.874453458691e+03 -1.786865120171e+07 -7.753183724631e+06 2.333067326229e-05 9.401952980748e-08 -2.281446168184e-05 0.000000000000e+00 1.453576299732e+07 1.017437526539e+07  3.996402440788e-05
2.000000000000e-03 2.084844070581e+05 1.000000000000e+00 2.500004129614e+01 -5.272040541131e-05 6.217454837675e-05 -1.802063648663e+07 -5.126096836688e+03 -1.783416831703e+07 -7.753411752415e+06 2.203236722851e-05 7.532602172769e-08 -2.152519921907e-05 0.000000000000e+00 1.453607218536e+07 1.017527603305e+07  3.772303703313e-05
3.000000000000e-03 2.212358636005e+05 1.000000000000e+00 2.500021259078e+01 -4.945867291763e-05 6.169781002063e-05 -1.805966948719e+07 -5.231801455023e+03 -1.780122630839e+07 -7.755317109233e+06 2.065334046090e-05 6.747367865143e-08 -2.023086850181e-05 0.000000000000e+00 1.453873763494e+07 1.017759614727e+07  3.540758655446e-05
4.000000000000e-03 2.299404161370e+05 1.000000000000e+00 2.500074197247e+01 -4.612517802027e-05 6.118541419475e-05 -1.810217774927e+07 -5.278114955522e+03 -1.776922954812e+07 -7.758699801658e+06 1.920010501644e-05 6.403324718575e-08 -1.891677454481e-05 0.000000000000e+00 1.454336903302e+07 1.018109187448e+07  3.301067630971e-05
1.000000000000e-02 2.422636896225e+05 1.000000000000e+00 2.508100420461e+01 -3.554391144907e-05 5.838940406006e-05 -1.823726440569e+07 -5.330433579869e+03 -1.770407677678e+07 -7.809479173793e+06 1.606869160023e-05 6.014672080571e-08 -1.461072350132e-05 0.000000000000e+00 1.458360678542e+07 1.017168191835e+07  2.657935578336e-05
2.000000000000e-02 2.389194442018e+05 1.000000000000e+00 2.543889432663e+01 -1.566322586462e-05 5.657171165775e-05 -1.849634706434e+07 -5.366263468957e+03 -1.767477670425e+07 -8.007913285765e+06 1.381603129508e-05 5.748507190204e-08 -6.152025219907e-06 0.000000000000e+00 1.472634568479e+07 1.010273829505e+07  1.771261193669e-05
3.000000000000e-02 2.281317474452e+05 1.000000000000e+00 2.593499907333e+01 4.856927412813e-06 5.692551075584e-05 -1.876458738902e+07 -5.388569014746e+03 -1.770082949806e+07 -8.273905719353e+06 1.373253819751e-05 5.582808850056e-08 2.760018543399e-06 0.000000000000e+00 1.491310753547e+07 1.000132613443e+07  1.258203473049e-05
4.000000000000e-02 2.144253653967e+05 1.000000000000e+00 2.649268611841e+01 2.460846225713e-05 5.961127487250e-05 -1.902241335035e+07 -5.408541607358e+03 -1.775871221818e+07 -8.567223819556e+06 1.505081764112e-05 5.434441019220e-08 1.150476123224e-05 0.000000000000e+00 1.511611646269e+07 9.884117643276e+06  1.362862573082e-05
5.000000000000e-02 1.999260184664e+05 1.000000000000e+00 2.706394563609e+01 4.296326114479e-05 6.329593251215e-05 -1.926306286502e+07 -5.422955704446e+03 -1.783589319194e+07 -8.865251371864e+06 1.718200189630e-05 5.327364869430e-08 1.970763414946e-05 0.000000000000e+00 1.532140247628e+07 9.762783625530e+06  1.857428167792e-05
6.000000000000e-02 1.852654330480e+05 1.000000000000e+00 2.762301486876e+01 5.989625784411e-05 6.929578591605e-05 -1.948451575888e+07 -5.433651865193e+03 -1.791681493024e+07 -9.153807179079e+06 1.967439582085e-05 5.247907675307e-08 2.741975670945e-05 0.000000000000e+00 1.551837928940e+07 9.642917287917e+06  2.448399526769e-05
7.000000000000e-02 1.713197479364e+05 1.000000000000e+00 2.815767675716e+01 7.559040372147e-05 7.531363566383e-05 -1.969141322084e+07 -5.444317390443e+03 -1.799972057797e+07 -9.429604355984e+06 2.223352809022e-05 5.168678059161e-08 3.458429922147e-05 0.000000000000e+00 1.570691271827e+07 9.529260597726e+06  3.035589811433e-05
8.000000000000e-02 1.587386335393e+05 1.000000000000e+00 2.866318602226e+01 9.018087289589e-05 8.211528528458e-05 -1.988435311739e+07 -5.453265346102e+03 -1.807838567469e+07 -9.689398816115e+06 2.471669759485e-05 5.102207531409e-08 4.131196129110e-05 0.000000000000e+00 1.588404586940e+07 9.422682488312e+06  3.600702488664e-05
9.000000000000e-02 1.484204296669e+05 1.000000000000e+00 2.913867303407e+01 1.037936836802e-04 8.830256821826e-05 -2.006657090749e+07 -5.461958555228e+03 -1.815546293117e+07 -9.934733419552e+06 2.706103637576e-05 5.037629406474e-08 4.756151989242e-05 0.000000000000e+00 1.605225575274e+07 9.324350842828e+06  4.131998859663e-05
1.000000000000e-01 1.413689395457e+05 1.000000000000e+00 2.958516568313e+01 1.165225285644e-04 9.384257948305e-05 -2.023917054014e+07 -5.470317525506e+03 -1.823047188614e+07 -1.016621536632e+07 2.924809375712e-05 4.975534198693e-08 5.337337387313e-05 0.000000000000e+00 1.621195259753e+07 9.233951185173e+06  4.629369298980e-05
2.000000000000e-01 1.609113465756e+05 1.000000000000e+00 3.249981870886e+01 1.831283086159e-04 1.886692673958e-04 -2.112805343213e+07 -5.507796042261e+03 -1.871037583800e+07 -1.160055802988e+07 4.950802813012e-05 4.697122359942e-08 8.882395459387e-05 0.000000000000e+00 1.714632910000e+07 8.578112405083e+06  7.709246094951e-05
3.000000000000e-01 1.897684167318e+05 1.000000000000e+00 3.456723702577e+01 2.306959419973e-04 2.983419657872e-04 -2.177054919780e+07 -5.529562123985e+03 -1.893757141893e+07 -1.258670873959e+07 6.227235462286e-05 4.535431467139e-08 1.170137165198e-04 0.000000000000e+00 1.776494311877e+07 8.145622409786e+06  1.014068169515e-04
4.000000000000e-01 2.191248737762e+05 1.000000000000e+00 3.613366903686e+01 2.667535785948e-04 4.037669304492e-04 -2.228078455434e+07 -5.531150094175e+03 -1.906103974107e+07 -1.332593843243e+07 7.077785854283e-05 4.523635117152e-08 1.398848531459e-04 0.000000000000e+00 1.822258757595e+07 7.856449462435e+06  1.211467423842e-04
5.000000000000e-01 2.469765835129e+05 1.000000000000e+00 3.737981490638e+01 2.961390364195e-04 5.061892453366e-04 -2.271502449298e+07 -5.533618749709e+03 -1.910963191735e+07 -1.390744198119e+07 7.624764977570e-05 4.505296533189e-08 1.596787041237e-04 0.000000000000e+00 1.857736613051e+07 7.669267539467e+06  1.383324720649e-04
6.000000000000e-01 2.728380511316e+05 1.000000000000e+00 3.840699932437e+01 3.198769956741e-04 6.060507856928e-04 -2.308376743981e+07 -5.530559941551e+03 -1.912035948402e+07 -1.438110680056e+07 8.014474789851e-05 4.528019108073e-08 1.768735163668e-04 0.000000000000e+00 1.886174457480e+07 7.546708035502e+06  1.534012522094e-04
7.000000000000e-01 2.968189504268e+05 1.000000000000e+00 3.927684797067e+01 3.392647610519e-04 7.035416920961e-04 -2.340351450781e+07 -5.532500803193e+03 -1.910945427296e+07 -1.477840450185e+07 8.302519999223e-05 4.513601278731e-08 1.920353388256e-04 0.000000000000e+00 1.909712442754e+07 7.469593418876e+06  1.668142346798e-04
8.000000000000e-01 3.191955069579e+05 1.000000000000e+00 4.002870654053e+01 3.552570546056e-04 7.988236228406e-04 -2.368460834899e+07 -5.535655208536e+03 -1.908307409572e+07 -1.511809756484e+07 8.520174251645e-05 4.490168553332e-08 2.056323448911e-04 0.000000000000e+00 1.929526000318e+07 7.425646343933e+06  1.789518654255e-04
9.000000000000e-01 3.400202934397e+05 1.000000000000e+00 4.068907690810e+01 3.687103057884e-04 8.918652113623e-04 -2.393738159680e+07 -5.544442561209e+03 -1.904470990933e+07 -1.541363173719e+07 8.679000542816e-05 4.424891076328e-08 2.180342839303e-04 0.000000000000e+00 1.946524108111e+07 7.408692902522e+06  1.901269659971e-04
1.000000000000e+00 3.594526905246e+05 1.000000000000e+00 4.127662943240e+01 3.801169812562e-04 9.827211409562e-04 -2.416747781168e+07 -5.553749950980e+03 -1.899787826058e+07 -1.567430348267e+07 8.792566799296e-05 4.355750466604e-08 2.294558385728e-04 0.000000000000e+00 1.961321985164e+07 7.412998855761e+06  2.005139714771e-04
2.000000000000e+00 4.898300370408e+05 1.000000000000e+00 4.458659385047e+01 4.221550950992e-04 1.735941983197e-03 -2.560655707810e+07 -5.628210860048e+03 -1.833918529041e+07 -1.706655257847e+07 8.618626165581e-05 3.802612284952e-08 3.056336867375e-04 0.000000000000e+00 2.033743164899e+07 7.980167718610e+06  2.729443196129e-04
3.000000000000e+00 5.912502393109e+05 1.000000000000e+00 4.679648586261e+01 4.400340315578e-04 2.378634297665e-03 -2.670135766551e+07 -5.553896891940e+03 -1.765316873634e+07 -1.796201806084e+07 7.878238632551e-05 4.354658905187e-08 3.643744480908e-04 0.000000000000e+00 2.077218148756e+07 8.897790529221e+06  3.320679448079e-04
4.000000000000e+00 6.763376842059e+05 1.000000000000e+00 4.845563679296e+01 4.485795328361e-04 2.938977698338e-03 -2.760154858050e+07 -5.433709965557e+03 -1.700257134469e+07 -1.861689701070e+07 6.967079904952e-05 5.247476072601e-08 4.128635693471e-04 0.000000000000e+00 2.107367231197e+07 9.891119926054e+06  3.828130361158e-04
5.000000000000e+00 7.512946355432e+05 1.000000000000e+00 4.980826726303e+01 4.538873503659e-04 3.436309124155e-03 -2.838047001888e+07 -5.285024157008e+03 -1.640429099540e+07 -1.914383858520e+07 6.031154696247e-05 6.351999221826e-08 4.546575265164e-04 0.000000000000e+00 2.130953319982e+07 1.086852135366e+07  4.277030073042e-04
6.000000000000e+00 8.193404637507e+05 1.000000000000e+00 5.098668253450e+01 4.584014126167e-04 3.885062229388e-03 -2.907699005613e+07 -5.155217318464e+03 -1.586129202999e+07 -1.960176363025e+07 5.144944725233e-05 7.316278593863e-08 4.918347040476e-04 0.000000000000e+00 2.151334857212e+07 1.179885327881e+07  4.682347852561e-04
7.000000000000e+00 8.825714157559e+05 1.000000000000e+00 5.199331978804e+01 4.608159301837e-04 4.292290352041e-03 -2.968229198878e+07 -5.054454012595e+03 -1.536884701065e+07 -1.998733525086e+07 4.328803566238e-05 8.064806008888e-08 5.244467506747e-04 0.000000000000e+00 2.167949141676e+07 1.265301308389e+07  5.041983718645e-04
8.000000000000e+00 9.416537060918e+05 1.000000000000e+00 5.293566927960e+01 4.637675779206e-04 4.667717664378e-03 -3.024217087912e+07 -4.974204635968e+03 -1.492459052522e+07 -2.035138405741e+07 3.601434683555e-05 8.660944235262e-08 5.544695186624e-04 0.000000000000e+00 2.183938182058e+07 1.345188032114e+07  5.373682585085e-04
9.000000000000e+00 9.976178889083e+05 1.000000000000e+00 5.379586488110e+01 4.661010304873e-04 5.015838728027e-03 -3.075078363112e+07 -4.911640676852e+03 -1.452033947894e+07 -2.068332294734e+07 2.945217481621e-05 9.125705074408e-08 5.818137162931e-04 0.000000000000e+00 2.198481535247e+07 1.419090539700e+07  5.676609699187e-04
1.000000000000e+01 1.050959049152e+06 1.000000000000e+00 5.457935807192e+01 4.683055393861e-04 5.340013127256e-03 -3.122010958076e+07 -4.856336084625e+03 -1.414179419736e+07 -2.098435386273e+07 2.320121640100e-05 9.536539188096e-08 6.070551178948e-04 0.000000000000e+00 2.211541921362e+07 1.488724816298e+07  5.957934396507e-04
1.100000000000e+01 1.101971525748e+06 1.000000000000e+00 5.531115847719e+01 4.700304975646e-04 5.643854449680e-03 -3.165109479089e+07 -4.854639131956e+03 -1.379406322040e+07 -2.126507918702e+07 1.762013492686e-05 9.549145122211e-08 6.303977805125e-04 0.000000000000e+00 2.223674573277e+07 1.553317606950e+07  6.217750109449e-04
1.200000000000e+01 1.151043677121e+06 1.000000000000e+00 5.598519287632e+01 4.712806485157e-04 5.929338134488e-03 -3.204828698133e+07 -4.820447793734e+03 -1.346978532165e+07 -2.152248916228e+07 1.242822407736e-05 9.803137920426e-08 6.520033301185e-04 0.000000000000e+00 2.234685382175e+07 1.613690370256e+07  6.458789271868e-04
1.300000000000e+01 1.198431142852e+06 1.000000000000e+00 5.660414097440e+01 4.723964939390e-04 6.198058344062e-03 -3.241849978051e+07 -4.796377634263e+03 -1.316086302109e+07 -2.175713311315e+07 7.392809711535e-06 9.981944819355e-08 6.721929337434e-04 0.000000000000e+00 2.244549863825e+07 1.670953784970e+07  6.685272090597e-04
1.400000000000e+01 1.244848089696e+06 1.000000000000e+00 5.717202786384e+01 4.734085308179e-04 6.451553458544e-03 -3.276425410741e+07 -4.780843717221e+03 -1.286465375495e+07 -2.197038271747e+07 2.471205729862e-06 1.009733963167e-07 6.911156917888e-04 0.000000000000e+00 2.253309685994e+07 1.725421964112e+07  6.898834306054e-04
1.500000000000e+01 1.289842830218e+06 1.000000000000e+00 5.769272757371e+01 4.737396735809e-04 6.690758691810e-03 -3.308101879496e+07 -4.797572410321e+03 -1.258850626065e+07 -2.216443888303e+07 -2.086539372519e-06 9.973069340066e-08 7.085803991552e-04 0.000000000000e+00 2.261132131288e+07 1.775969327763e+07  7.096259905425e-04
1.600000000000e+01 1.333555268483e+06 1.000000000000e+00 5.816975980579e+01 4.737005258035e-04 6.916686603513e-03 -3.337367751188e+07 -4.806055805045e+03 -1.232651767162e+07 -2.234022768598e+07 -6.427421891503e-06 9.910049836403e-08 7.248407022855e-04 0.000000000000e+00 2.268014095649e+07 1.823450683790e+07  7.280757116553e-04
1.700000000000e+01 1.376119091317e+06 1.000000000000e+00 5.860621954810e+01 4.736380045257e-04 7.130223558634e-03 -3.364785132562e+07 -4.809371801686e+03 -1.207356625415e+07 -2.249898211619e+07 -1.071442756531e-05 9.885416718498e-08 7.401326337710e-04 0.000000000000e+00 2.274013323198e+07 1.868738204874e+07  7.455476117194e-04
1.800000000000e+01 1.417665494257e+06 1.000000000000e+00 5.900482333236e+01 4.735938335892e-04 7.332159458523e-03 -3.390511825849e+07 -4.820144441972e+03 -1.182826455383e+07 -2.264171008685e+07 -1.496873187591e-05 9.805391390659e-08 7.545451644073e-04 0.000000000000e+00 2.279169763306e+07 1.912044163763e+07  7.621398042108e-04
1.900000000000e+01 1.458284177490e+06 1.000000000000e+00 5.936796184715e+01 4.736167374085e-04 7.523183751498e-03 -3.414724655271e+07 -4.834475715005e+03 -1.158967849572e+07 -2.276949854354e+07 -1.921564012732e-05 9.698930505277e-08 7.681533606713e-04 0.000000000000e+00 2.283547453066e+07 1.953567944737e+07  7.779392091276e-04
2.000000000000e+01 1.498058933073e+06 1.000000000000e+00 5.969774740414e+01 4.733679999189e-04 7.703917862273e-03 -3.437112096357e+07 -4.886289084587e+03 -1.136162214626e+07 -2.288329640258e+07 -2.330419776607e-05 9.314031188377e-08 7.808508027016e-04 0.000000000000e+00 2.287201317080e+07 1.992681948897e+07  7.927598559908e-04
2.100000000000e+01 1.536914098402e+06 1.000000000000e+00 6.002784237796e+01 4.734980549528e-04 7.876633136295e-03 -3.458735186263e+07 -4.907010284076e+03 -1.114751035442e+07 -2.299915902358e+07 -2.703216237979e-05 9.160102277886e-08 7.931069951784e-04 0.000000000000e+00 2.291134041354e+07 2.029992738725e+07  8.069627413049e-04
2.200000000000e+01 1.575000746812e+06 1.000000000000e+00 6.034057872358e+01 4.737702636368e-04 8.041737685230e-03 -3.479412435919e+07 -4.934214183425e+03 -1.094030456967e+07 -2.310818615550e+07 -3.066270449470e-05 8.958016168441e-08 8.048527892261e-04 0.000000000000e+00 2.294753836145e+07 2.065942107873e+07  8.206139171886e-04
2.300000000000e+01 1.612388172488e+06 1.000000000000e+00 6.063232558030e+01 4.737609705209e-04 8.199513726270e-03 -3.498691274682e+07 -4.970368300685e+03 -1.074253668263e+07 -2.320850410393e+07 -3.409732080814e-05 8.689442725939e-08 8.159245488289e-04 0.000000000000e+00 2.297931784446e+07 2.099906156089e+07  8.334964669491e-04
2.400000000000e+01 1.649122696109e+06 1.000000000000e+00 6.090262542673e+01 4.736536951568e-04 8.350227478483e-03 -3.516841007849e+07 -4.999069407985e+03 -1.055100199596e+07 -2.329979857875e+07 -3.744771263414e-05 8.476234500280e-08 8.264296319702e-04 0.000000000000e+00 2.300640355107e+07 2.132384444568e+07  8.457754954503e-04
2.500000000000e+01 1.685258508133e+06 1.000000000000e+00 6.115184454688e+01 4.735018452404e-04 8.494137891860e-03 -3.533979171479e+07 -5.031694422159e+03 -1.036485274816e+07 -2.338229588763e+07 -4.074913050975e-05 8.233877252125e-08 8.364079326468e-04 0.000000000000e+00 2.302898011686e+07 2.163542535566e+07  8.575089724182e-04
2.600000000000e+01 1.720830930678e+06 1.000000000000e+00 6.138059466342e+01 4.732942511699e-04 8.631491220586e-03 -3.550137330680e+07 -5.060582683794e+03 -1.018414106117e+07 -2.345632040626e+07 -4.400125037797e-05 8.019278737126e-08 8.458695631413e-04 0.000000000000e+00 2.304727825807e+07 2.193395137886e+07  8.687063747960e-04
2.700000000000e+01 1.755869154182e+06 1.000000000000e+00 6.158955581002e+01 4.731059788383e-04 8.762525780221e-03 -3.565429315779e+07 -5.090768561827e+03 -1.000746545672e+07 -2.352203117417e+07 -4.724044489203e-05 7.795040786021e-08 8.548724855435e-04 0.000000000000e+00 2.306126326289e+07 2.222155703359e+07  8.794448254125e-04
2.800000000000e+01 1.790413798117e+06 1.000000000000e+00 6.177940892914e+01 4.729847999894e-04 8.887457113423e-03 -3.579942382371e+07 -5.120364164545e+03 -9.834020319670e+06 -2.357968659266e+07 -5.048952551115e-05 7.575187737264e-08 8.634562204634e-04 0.000000000000e+00 2.307104357868e+07 2.249964061625e+07  8.897760105382e-04
2.900000000000e+01 1.824490651884e+06 1.000000000000e+00 6.195081186402e+01 4.729524219656e-04 9.006497048699e-03 -3.593739798404e+07 -5.154916984352e+03 -9.663504607075e+06 -2.362961639026e+07 -5.375974469826e-05 7.318509647269e-08 8.716441965566e-04 0.000000000000e+00 2.307683966046e+07 2.276896351093e+07  8.997294599398e-04
3.000000000000e+01 1.858108449564e+06 1.000000000000e+00 6.210439119759e+01 4.729923019054e-04 9.119845269654e-03 -3.606817349101e+07 -5.184407501919e+03 -9.495760496059e+06 -2.367197987616e+07 -5.704361976656e-05 7.099437231054e-08 8.794481930133e-04 0.000000000000e+00 2.307863795441e+07 2.302959080935e+07  9.093129396405e-04
3.100000000000e+01 1.891186849834e+06 1.000000000000e+00 6.226590502672e+01 4.735301051831e-04 9.229052997888e-03 -3.619885085274e+07 -5.218733836377e+03 -9.335159224571e+06 -2.371928616806e+07 -6.014025950326e-05 6.844441603655e-08 8.871704739390e-04 0.000000000000e+00 2.308443208179e+07 2.328412263700e+07  9.187181163026e-04
3.200000000000e+01 1.923803508599e+06 1.000000000000e+00 6.242060102855e+01 4.743085262498e-04 9.334224534298e-03 -3.632665537481e+07 -5.252547238098e+03 -9.176867850434e+06 -2.376404186781e+07 -6.322493004660e-05 6.593256333724e-08 8.947122223976e-04 0.000000000000e+00 2.308918836435e+07 2.353418823854e+07  9.279415301631e-04
3.300000000000e+01 1.955985196901e+06 1.000000000000e+00 6.256492306584e+01 4.752642658136e-04 9.435420638335e-03 -3.645102322461e+07 -5.288310946619e+03 -9.019677254928e+06 -2.380446666565e+07 -6.634281483376e-05 6.327583070425e-08 9.020522227220e-04 0.000000000000e+00 2.309172238173e+07 2.378028910910e+07  9.369868073734e-04
3.400000000000e+01 1.987757367210e+06 1.000000000000e+00 6.269791394810e+01 4.763571884120e-04 9.532667863618e-03 -3.657159996559e+07 -5.319369867943e+03 -8.863514435811e+06 -2.384009678861e+07 -6.949797493155e-05 6.096859654877e-08 9.091759605707e-04 0.000000000000e+00 2.309173706334e+07 2.402214983734e+07  9.458418446373e-04
3.500000000000e+01 2.019156671974e+06 1.000000000000e+00 6.281934767946e+01 4.777599136983e-04 9.626027627071e-03 -3.669060363653e+07 -5.355061427863e+03 -8.706097281962e+06 -2.387083378971e+07 -7.277645123976e-05 5.831722352610e-08 9.161645434687e-04 0.000000000000e+00 2.308917823607e+07 2.426364049605e+07  9.546355833470e-04
3.600000000000e+01 2.050221244270e+06 1.000000000000e+00 6.292925655316e+01 4.796690420958e-04 9.715553487683e-03 -3.681054137780e+07 -5.387475172426e+03 -8.544963215209e+06 -2.389670230150e+07 -7.627045119214e-05 5.590934535862e-08 9.231103535288e-04 0.000000000000e+00 2.308406896484e+07 2.450904134883e+07  9.635123035324e-04
3.700000000000e+01 2.081022622880e+06 1.000000000000e+00 6.302778449203e+01 4.828113497802e-04 9.801305634226e-03 -3.694060207501e+07 -5.350383366204e+03 -8.371639117141e+06 -2.391796742734e+07 -8.031142955707e-05 5.866473667791e-08 9.303379532739e-04 0.000000000000e+00 2.307673620649e+07 2.477360645266e+07  9.729827410302e-04
3.800000000000e+01 2.113330364229e+06 1.000000000000e+00 6.311537564157e+01 5.099146405733e-04 9.883303340357e-03 -3.736445349212e+07 -3.282881049151e+03 -7.921188696007e+06 -2.394040444762e+07 -9.522110715354e-05 2.122506230876e-07 9.479023439552e-04 0.000000000000e+00 2.307534887858e+07 2.553161053051e+07  9.989225989731e-04
3.900000000000e+01 2.143157947788e+06 1.000000000000e+00 6.319159883550e+01 5.055421605873e-04 9.961884487951e-03 -3.738978222901e+07 -5.751357676482e+03 -7.838271147476e+06 -2.394956501599e+07 -9.582163912715e-05 2.887807362874e-08 9.513223882973e-04 0.000000000000e+00 2.305920613083e+07 2.562718512168e+07  1.002673100311e-03
4.000000000000e+01 2.172544101843e+06 1.000000000000e+00 6.325687785189e+01 4.997994247055e-04 1.003682706222e-02 -3.739415846634e+07 -5.750215622351e+03 -7.775858971778e+06 -2.395476092959e+07 -9.579119400845e-05 2.896291193559e-08 9.538335458997e-04 0.000000000000e+00 2.304159278923e+07 2.568674889949e+07  1.005158317330e-03
4.200000000000e+01 2.229827605393e+06 1.000000000000e+00 6.339719070174e+01 4.895955234461e-04 1.017717273375e-02 -3.740534513917e+07 -5.750103839958e+03 -7.661513206737e+06 -2.397252760607e+07 -9.554679387319e-05 2.897121577054e-08 9.587405794419e-04 0.000000000000e+00 2.301312865066e+07 2.579908442193e+07  1.009909540270e-03
4.400000000000e+01 2.285593809494e+06 1.000000000000e+00 6.351556358873e+01 4.800016552246e-04 1.030801217703e-02 -3.741130374827e+07 -5.749426824528e+03 -7.549388565063e+06 -2.398171751965e+07 -9.542677399242e-05 2.902150834533e-08 9.632465486369e-04 0.000000000000e+00 2.298080327766e+07 2.590472348712e+07  1.014332142781e-03
5.000000000000e+01 2.437116678573e+06 1.000000000000e+00 6.356115187484e+01 4.568241468475e-04 1.058171244833e-02 -3.737026127894e+07 -5.748886464108e+03 -7.248731882925e+06 -2.389399200037e+07 -9.716071584772e-05 2.906164940509e-08 9.711554204003e-04 0.000000000000e+00 2.283766172074e+07 2.613408932313e+07  1.023201453115e-03
6.500000000000e+01 2.768502507756e+06 1.000000000000e+00 6.327264371380e+01 4.187166840391e-04 1.104605142958e-02 -3.715390157130e+07 -5.747448184998e+03 -6.544104466598e+06 -2.351447698960e+07 -1.032207699638e-04 2.916849299613e-08 9.832310240352e-04 0.000000000000e+00 2.240416100916e+07 2.656113065627e+07  1.038695162154e-03
8.000000000000e+01 3.023556374630e+06 1.000000000000e+00 6.265086950879e+01 3.964376762860e-04 1.126641625617e-02 -3.689823221075e+07 -5.744599780327e+03 -6.012843974467e+06 -2.305905433449e+07 -1.106401780475e-04 2.938008877165e-08 9.860478579819e-04 0.000000000000e+00 2.199004350657e+07 2.679555500860e+07  1.045766771507e-03
1.000000000000e+02 3.324236305531e+06 1.000000000000e+00 6.190767060370e+01 3.780308578172e-04 1.145090226254e-02 -3.659973433158e+07 -5.743049207087e+03 -5.458658068388e+06 -2.254150096779e+07 -1.187765247275e-04 2.949527421238e-08 9.874084951586e-04 0.000000000000e+00 2.153329778925e+07 2.701133350616e+07  1.051838557617e-03
1.860000000000e+02 3.922717201764e+06 1.000000000000e+00 5.994700809414e+01 3.530995451875e-04 1.167022863968e-02 -3.584128603509e+07 -5.739650451105e+03 -4.250918013501e+06 -2.126233955073e+07 -1.381172977769e-04 2.974775322814e-08 9.847557017067e-04 0.000000000000e+00 2.045151453311e+07 2.738508437738e+07  1.060580963026e-03
2.720000000000e+02 4.213038211969e+06 1.000000000000e+00 5.827378534171e+01 3.537049115752e-04 1.150213868866e-02 -3.535057344801e+07 -5.738811165936e+03 -3.781085580203e+06 -2.038705603360e+07 -1.524013608931e-04 2.981010012642e-08 9.696960900214e-04 0.000000000000e+00 1.983957168727e+07 2.735231132784e+07  1.054191485567e-03
3.580000000000e+02 4.354403691727e+06 1.000000000000e+00 5.705890390728e+01 3.584460674905e-04 1.132624630553e-02 -3.500740251837e+07 -5.738947804210e+03 -3.505880416471e+06 -1.977547435791e+07 -1.623709028891e-04 2.979994985468e-08 9.572021052917e-04 0.000000000000e+00 1.942958576425e+07 2.728605335015e+07  1.047865427060e-03
4.440000000000e+02 4.426532453840e+06 1.000000000000e+00 5.611635431592e+01 3.638473493324e-04 1.116165738297e-02 -3.475377207986e+07 -5.738481180557e+03 -3.337273038390e+06 -1.931833195150e+07 -1.699299188399e-04 2.983461332602e-08 9.464850899537e-04 0.000000000000e+00 1.913645902325e+07 2.720885577845e+07  1.041895551392e-03
5.300000000000e+02 4.465496889446e+06 1.000000000000e+00 5.538231376721e+01 3.689406379890e-04 1.101901076516e-02 -3.456278541891e+07 -5.737834270273e+03 -3.229157349140e+06 -1.897128226676e+07 -1.757265454377e-04 2.988266951852e-08 9.376103986925e-04 0.000000000000e+00 1.892107501160e+07 2.713582422754e+07  1.036704450417e-03
6.160000000000e+02 4.488012314786e+06 1.000000000000e+00 5.481765606841e+01 3.733774775764e-04 1.090078683938e-02 -3.441975482993e+07 -5.738549497396e+03 -3.159712449088e+06 -1.870962495461e+07 -1.801326808701e-04 2.982953836079e-08 9.304710805288e-04 0.000000000000e+00 1.876303074454e+07 2.707211117430e+07  1.032391624964e-03
7.020000000000e+02 4.501822576458e+06 1.000000000000e+00 5.440041979532e+01 3.768617699394e-04 1.081009853477e-02 -3.431568028202e+07 -5.736141601632e+03 -3.114021141553e+06 -1.851846298435e+07 -1.833673565573e-04 3.000841061755e-08 9.250678844848e-04 0.000000000000e+00 1.864938813598e+07 2.702214493130e+07  1.029077953156e-03
7.880000000000e+02 4.511441113274e+06 1.000000000000e+00 5.406843927209e+01 3.801253759404e-04 1.072837799315e-02 -3.423821782199e+07 -5.737299736572e+03 -3.094862391357e+06 -1.837315011502e+07 -1.858875146170e-04 2.992237773629e-08 9.203821600597e-04 0.000000000000e+00 1.856874344279e+07 2.697253449430e+07  1.026033646409e-03
8.740000000000e+02 4.519827167133e+06 1.000000000000e+00 5.354181640402e+01 3.845177756609e-04 1.061284993574e-02 -3.410661243394e+07 -5.735833453108e+03 -3.036613463386e+06 -1.813162268102e+07 -1.899703334662e-04 3.003130165078e-08 9.135746726931e-04 0.000000000000e+00 1.842494952611e+07 2.691100736051e+07  1.021890159512e-03
9.370000000000e+02 4.525201002277e+06 1.000000000000e+00 5.316712255178e+01 3.885490028901e-04 1.051789474474e-02 -3.401730925675e+07 -5.736225217280e+03 -3.012910998846e+06 -1.796644577858e+07 -1.927885004040e-04 3.000219916946e-08 9.083199078568e-04 0.000000000000e+00 1.833222201139e+07 2.685620346925e+07  1.018492069935e-03
1.000000000000e+03 4.529391016052e+06 1.000000000000e+00 5.286584965629e+01 3.921995057526e-04 1.043839435101e-02 -3.394438533930e+07 -5.737577779010e+03 -2.994162384305e+06 -1.783341365290e+07 -1.950210909956e-04 2.990172315522e-08 9.040750917288e-04 0.000000000000e+00 1.825732045884e+07 2.681122232737e+07  1.015725706493e-03
1.100000000000e+03 4.533536316160e+06 1.000000000000e+00 5.255967195153e+01 3.961763360082e-04 1.035522126922e-02 -3.386994907779e+07 -5.736472464001e+03 -2.976333532736e+06 -1.769849967782e+07 -1.972674060712e-04 2.998383227021e-08 8.997262157127e-04 0.000000000000e+00 1.818159409612e+07 2.676446926980e+07  1.012871340390e-03
1.200000000000e+03 4.536797682875e+06 1.000000000000e+00 5.229905566997e+01 3.993607117137e-04 1.028610271365e-02 -3.380684256629e+07 -5.737348585254e+03 -2.960264997009e+06 -1.758345921018e+07 -1.991963815848e-04 2.991874897711e-08 8.960501153845e-04 0.000000000000e+00 1.811685559116e+07 2.672590056253e+07  1.010482533795e-03
1.300000000000e+03 4.539703052077e+06 1.000000000000e+00 5.204954421879e+01 4.023501658168e-04 1.022031475385e-02 -3.374656566529e+07 -5.737504552864e+03 -2.944792652713e+06 -1.747333314257e+07 -2.010479220589e-04 2.990716281177e-08 8.925344056615e-04 0.000000000000e+00 1.805489715353e+07 2.668937994537e+07  1.008206388872e-03
1.400000000000e+03 4.542442562524e+06 1.000000000000e+00 5.179372965818e+01 4.054501692413e-04 1.015233759696e-02 -3.368485884625e+07 -5.737651444195e+03 -2.929428841619e+06 -1.736060455526e+07 -2.029430163089e-04 2.989625088436e-08 8.889179996878e-04 0.000000000000e+00 1.799163074771e+07 2.665179902866e+07  1.005863201845e-03
1.500000000000e+03 4.545082446453e+06 1.000000000000e+00 5.152154209752e+01 4.088375669887e-04 1.007895103380e-02 -3.361927815211e+07 -5.736766753261e+03 -2.913944774873e+06 -1.724094716948e+07 -2.049515791415e-04 2.996197078228e-08 8.850487049806e-04 0.000000000000e+00 1.792472336549e+07 2.661137368366e+07  1.003348639495e-03
1.600000000000e+03 4.547643486991e+06 1.000000000000e+00 5.122683981314e+01 4.126193367209e-04 9.998182316535e-03 -3.354833826919e+07 -5.737091761428e+03 -2.898219291844e+06 -1.711172944324e+07 -2.071161847504e-04 2.993782731846e-08 8.808332788042e-04 0.000000000000e+00 1.785276233476e+07 2.656704698807e+07  1.000599425260e-03
1.700000000000e+03 4.550130771773e+06 1.000000000000e+00 5.090583175430e+01 4.168619826571e-04 9.908809355826e-03 -3.347112909732e+07 -5.737029705364e+03 -2.882194295558e+06 -1.697133405179e+07 -2.094631014777e-04 2.994243719750e-08 8.762138069838e-04 0.000000000000e+00 1.777488581489e+07 2.651820342145e+07  9.975770099033e-04
1.800000000000e+03 4.552544175198e+06 1.000000000000e+00 5.055622983281e+01 4.216059069940e-04 9.810096095558e-03 -3.338710170721e+07 -5.736587910300e+03 -2.865827467098e+06 -1.681878279118e+07 -2.120082738105e-04 2.997525625937e-08 8.711555280755e-04 0.000000000000e+00 1.769057065516e+07 2.646452845480e+07  9.942593447808e-04
1.900000000000e+03 4.554883463307e+06 1.000000000000e+00 5.017674738919e+01 4.268739397650e-04 9.701624521656e-03 -3.329595435474e+07 -5.736735701991e+03 -2.849114676251e+06 -1.665353356921e+07 -2.147606289631e-04 2.996427744805e-08 8.656384606337e-04 0.000000000000e+00 1.759953420007e+07 2.640589322900e+07  9.906347133202e-04
2.000000000000e+03 4.557147803229e+06 1.000000000000e+00 4.976678229369e+01 4.326759925364e-04 9.583204960588e-03 -3.319753444893e+07 -5.736662014821e+03 -2.832034125820e+06 -1.647532332464e+07 -2.177242701174e-04 2.996975135212e-08 8.596536434228e-04 0.000000000000e+00 1.750163063313e+07 2.634231854238e+07  9.866994016471e-04