 TITLE = "Time curves in points"
 VARIABLES = "TIME"  "PRESSURE1"  "SATURATION1"  "TEMPERATURE1"  "DISPLACEMENT_X1"  "DISPLACEMENT_Y1"  "STRESS_XX"  "STRESS_XY"  "STRESS_YY"  "STRESS_ZZ"  "STRAIN_XX"  "STRAIN_XY"  "STRAIN_YY"  "STRAIN_PLS"  p_(1st_Invariant)  q_(2nd_Invariant)   Effective_Strain
 ZONE T="POINT=POINT13"
0.000000000000e+00 1.000000000000e+05 1.000000000000e+00 2.500000000000e+01 0.000000000000e+00 0.000000000000e+00 -2.538927640774e+07 -1.052437051289e+04 -1.550903669435e+07 -9.266443930625e+06 0.000000000000e+00 0.000000000000e+00 0.000000000000e+00 0.000000000000e+00 1.672158567757e+07 1.408075802056e+07  0.000000000000e+00
1.000000000000e-03 2.215970185909e+05 1.000000000000e+00 2.500000000096e+01 -3.853219015892e-05 6.279288099904e-05 -2.509303125119e+07 -9.601474608823e+03 -1.576960387675e+07 -9.255740538373e+06 1.060583695956e-05 6.855798144534e-08 -1.007576420152e-05 0.000000000000e+00 1.670612522210e+07 1.378725940587e+07  1.791314642413e-05
2.000000000000e-03 2.374056888651e+05 1.000000000000e+00 2.500000000360e+01 -3.624481021831e-05 6.219731237350e-05 -2.510777592791e+07 -9.798277201893e+03 -1.575245278663e+07 -9.255018617843e+06 1.003136334730e-05 5.393836024583e-08 -9.465537902389e-06 0.000000000000e+00 1.670508244413e+07 1.380306509846e+07  1.688744019689e-05
3.000000000000e-03 2.481523565294e+05 1.000000000000e+00 2.500000002005e+01 -3.400200678191e-05 6.171526451757e-05 -2.512484246394e+07 -9.880110101977e+03 -1.573700122361e+07 -9.255503160883e+06 9.415460750612e-06 4.785934481101e-08 -8.873625391525e-06 0.000000000000e+00 1.670578228281e+07 1.381987510627e+07  1.584134690851e-05
4.000000000000e-03 2.554830814759e+05 1.000000000000e+00 2.500000026425e+01 -3.175019945010e-05 6.120229542182e-05 -2.514396972896e+07 -9.921651850026e+03 -1.572275093385e+07 -9.256966605344e+06 8.759375986916e-06 4.477338638450e-08 -8.289972406205e-06 0.000000000000e+00 1.670789575605e+07 1.383768747756e+07  1.476723770281e-05
1.000000000000e-02 2.655056782691e+05 1.000000000000e+00 2.500574045669e+01 -2.420295194139e-05 5.840415827497e-05 -2.521237952493e+07 -9.977368675586e+03 -1.567934326067e+07 -9.266806388780e+06 6.583918378586e-06 4.063442220008e-08 -6.312209732111e-06 0.000000000000e+00 1.671950972479e+07 1.389714556081e+07  1.116942254781e-05
2.000000000000e-02 2.610996539115e+05 1.000000000000e+00 2.506298839666e+01 -8.348172230870e-06 5.658479752475e-05 -2.535944912439e+07 -1.002199080606e+04 -1.560115827996e+07 -9.309541436384e+06 2.708635023919e-06 3.731963536462e-08 -1.820894394516e-06 0.000000000000e+00 1.675671628024e+07 1.400729849304e+07  3.948249825704e-06
3.000000000000e-02 2.498200502418e+05 1.000000000000e+00 2.517971472982e+01 9.545039058877e-06 5.693864166615e-05 -2.552424418772e+07 -1.005201870979e+04 -1.553275731357e+07 -9.382476114061e+06 -7.033221574559e-07 3.508899108756e-08 3.428715242290e-06 0.000000000000e+00 1.681315920512e+07 1.411051118124e+07  3.829612954761e-06
4.000000000000e-02 2.358078147646e+05 1.000000000000e+00 2.535078353582e+01 2.801677621452e-05 5.962145069775e-05 -2.569253812813e+07 -1.007345648707e+04 -1.548136423257e+07 -9.481139400487e+06 -3.289603590980e-06 3.349647049015e-08 9.002237460936e-06 0.000000000000e+00 1.688501392039e+07 1.419649301614e+07  1.102174803776e-05
5.000000000000e-02 2.210867255385e+05 1.000000000000e+00 2.556378881541e+01 4.616921335744e-05 6.330580765522e-05 -2.585773190365e+07 -1.009091427655e+04 -1.545100728823e+07 -9.599971326264e+06 -5.011615152926e-06 3.219960612847e-08 1.454353835083e-05 0.000000000000e+00 1.696957017271e+07 1.426271238229e+07  1.759319532726e-05
6.000000000000e-02 2.062323625594e+05 1.000000000000e+00 2.580558519821e+01 6.363682669059e-05 6.930562967553e-05 -2.601503495434e+07 -1.010493977002e+04 -1.543428202879e+07 -9.730447558275e+06 -6.008039846811e-06 3.115771232789e-08 2.001102231903e-05 0.000000000000e+00 1.705992151380e+07 1.431213575008e+07  2.359592102315e-05
7.000000000000e-02 1.921173127982e+05 1.000000000000e+00 2.606507573398e+01 8.031416725913e-05 7.532292083747e-05 -2.616612716223e+07 -1.011765508503e+04 -1.543250512484e+07 -9.869455816154e+06 -6.456872275821e-06 3.021314607009e-08 2.524018547259e-05 0.000000000000e+00 1.715602936774e+07 1.434817533375e+07  2.901264473629e-05
8.000000000000e-02 1.793834173774e+05 1.000000000000e+00 2.633384210671e+01 9.615205944432e-05 8.212458854822e-05 -2.630963398141e+07 -1.012841484129e+04 -1.543965066824e+07 -1.001178620207e+07 -6.500568368340e-06 2.941384989088e-08 3.026133676639e-05 0.000000000000e+00 1.725369028391e+07 1.437426011381e+07  3.398123564691e-05
9.000000000000e-02 1.689331176524e+05 1.000000000000e+00 2.660587521050e+01 1.111569337492e-04 8.831158719165e-05 -2.644727081815e+07 -1.013955059341e+04 -1.545663130976e+07 -1.015612553527e+07 -6.251618499962e-06 2.858662259028e-08 3.499180245710e-05 0.000000000000e+00 1.735334255439e+07 1.439255970562e+07  3.850021849598e-05
1.000000000000e-01 1.617743555300e+05 1.000000000000e+00 2.687705765486e+01 1.253502567218e-04 9.385084250989e-05 -2.657921299673e+07 -1.014773456720e+04 -1.548127435898e+07 -1.030045631514e+07 -5.791470451855e-06 2.797867025189e-08 3.943734673869e-05 0.000000000000e+00 1.745364789028e+07 1.440492371670e+07  4.262919216379e-05
2.000000000000e-01 1.796941805816e+05 1.000000000000e+00 2.902877258995e+01 2.096550424583e-04 1.886758717173e-04 -2.735047342551e+07 -1.019547285168e+04 -1.573536632122e+07 -1.137277955852e+07 5.390862661680e-06 2.443239769022e-08 6.982879432364e-05 0.000000000000e+00 1.815287310175e+07 1.430437347980e+07  6.729551446959e-05
3.000000000000e-01 2.070588055799e+05 1.000000000000e+00 3.071647659315e+01 2.699765295273e-04 2.983449273103e-04 -2.791082259082e+07 -1.022504681479e+04 -1.589515700640e+07 -1.218562855592e+07 1.476942785384e-05 2.223547471617e-08 9.408524592037e-05 0.000000000000e+00 1.866386938438e+07 1.423761172925e+07  8.763895098952e-05
4.000000000000e-01 2.349366444406e+05 1.000000000000e+00 3.207113244939e+01 3.153795083158e-04 4.037716986369e-04 -2.835634210756e+07 -1.024778742147e+04 -1.601342117782e+07 -1.283242996440e+07 2.224561240407e-05 2.054617250611e-08 1.137166290114e-04 0.000000000000e+00 1.906739774993e+07 1.420314895558e+07  1.043869924775e-04
5.000000000000e-01 2.614177955233e+05 1.000000000000e+00 3.318829725466e+01 3.514471835645e-04 5.061886841375e-04 -2.873092818107e+07 -1.026891738454e+04 -1.609144998939e+07 -1.336143670280e+07 2.798123709979e-05 1.897651810607e-08 1.304672377221e-04 0.000000000000e+00 1.939460495775e+07 1.420266317469e+07  1.189706523322e-04
6.000000000000e-01 2.860655246122e+05 1.000000000000e+00 3.413186115956e+01 3.803098229537e-04 6.060492590049e-04 -2.905026172948e+07 -1.029907672668e+04 -1.614348480053e+07 -1.380456631344e+07 3.257937655383e-05 1.673610983319e-08 1.449936159890e-04 0.000000000000e+00 1.966610428115e+07 1.422123931885e+07  1.317602507636e-04
7.000000000000e-01 3.089766518315e+05 1.000000000000e+00 3.494487203999e+01 4.037370129613e-04 7.035357738418e-04 -2.932867154259e+07 -1.033447672411e+04 -1.617750010511e+07 -1.418387153644e+07 3.632692034978e-05 1.410639573822e-08 1.578186701018e-04 0.000000000000e+00 1.989668106138e+07 1.425295536166e+07  1.431548536141e-04
8.000000000000e-01 3.304295337389e+05 1.000000000000e+00 3.565691630465e+01 4.229674887845e-04 7.988154324595e-04 -2.957551192344e+07 -1.037844832516e+04 -1.619741663189e+07 -1.451384975328e+07 3.941489711552e-05 1.083993394612e-08 1.693352471615e-04 0.000000000000e+00 2.009559276954e+07 1.429444200844e+07  1.534719161719e-04
9.000000000000e-01 3.504485616522e+05 1.000000000000e+00 3.628894648100e+01 4.389885948936e-04 8.918523086055e-04 -2.979876483606e+07 -1.042675033096e+04 -1.620619888851e+07 -1.480521064151e+07 4.194462192352e-05 7.251784943952e-09 1.798310249066e-04 0.000000000000e+00 2.027005812203e+07 1.434447518724e+07  1.629589047436e-04
1.000000000000e+00 3.691814360826e+05 1.000000000000e+00 3.685626587202e+01 4.524306093207e-04 9.827050900580e-04 -3.000326354223e+07 -1.047821251523e+04 -1.620644006545e+07 -1.506559499820e+07 4.402037465724e-05 3.428879826704e-09 1.894934858687e-04 0.000000000000e+00 2.042509953529e+07 1.440118859341e+07  1.717672854879e-04
2.000000000000e+00 4.965754139858e+05 1.000000000000e+00 4.017231608114e+01 4.979594825167e-04 1.735905343266e-03 -3.134545546072e+07 -1.080015222482e+04 -1.596948951373e+07 -1.655817261882e+07 4.960612930790e-05 -2.048664145706e-08 2.537331036986e-04 0.000000000000e+00 2.129103919776e+07 1.509025033436e+07  2.329260399457e-04
3.000000000000e+00 5.964824559071e+05 1.000000000000e+00 4.245554050293e+01 5.123962008688e-04 2.378590651190e-03 -3.237715903428e+07 -1.092514639188e+04 -1.566713763033e+07 -1.757532822352e+07 4.906577617896e-05 -2.977192243906e-08 3.027433818283e-04 0.000000000000e+00 2.187320829604e+07 1.584236279984e+07  2.814367944665e-04
4.000000000000e+00 6.807083713390e+05 1.000000000000e+00 4.420819266506e+01 5.151313864575e-04 2.938932124595e-03 -3.322724228482e+07 -1.095039497865e+04 -1.536237014674e+07 -1.835120471301e+07 4.630952505422e-05 -3.164753174159e-08 3.428815865425e-04 0.000000000000e+00 2.231360571486e+07 1.657383482902e+07  3.222323293568e-04
5.000000000000e+00 7.551020213731e+05 1.000000000000e+00 4.565417316055e+01 5.139854895432e-04 3.436265435735e-03 -3.395930853904e+07 -1.092804040305e+04 -1.507527259114e+07 -1.898960200508e+07 4.283039217438e-05 -2.998690612572e-08 3.772571094560e-04 0.000000000000e+00 2.267472771176e+07 1.726298958303e+07  3.577699007435e-04
6.000000000000e+00 8.227294698145e+05 1.000000000000e+00 4.691432353352e+01 5.122231273007e-04 3.885021738707e-03 -3.461035507029e+07 -1.089581732830e+04 -1.481176340776e+07 -1.954586120125e+07 3.930971972831e-05 -2.759319200126e-08 4.077056492680e-04 0.000000000000e+00 2.298932655976e+07 1.790719969149e+07  3.895412147513e-04
7.000000000000e+00 8.856231524212e+05 1.000000000000e+00 4.800736979148e+01 5.088038124461e-04 4.292250386430e-03 -3.517957998148e+07 -1.086169129769e+04 -1.457194546869e+07 -2.002613821379e+07 3.600594063566e-05 -2.505811544213e-08 4.344520331848e-04 0.000000000000e+00 2.325922122132e+07 1.849392229867e+07  4.176148281220e-04
8.000000000000e+00 9.444320508232e+05 1.000000000000e+00 4.901619071825e+01 5.065277315251e-04 4.667680624085e-03 -3.570439414183e+07 -1.083523680583e+04 -1.435390795226e+07 -2.047039248265e+07 3.301371609467e-05 -2.309292461811e-08 4.590514423529e-04 0.000000000000e+00 2.350956485892e+07 1.904376741230e+07  4.434671800548e-04
9.000000000000e+00 1.000152122572e+06 1.000000000000e+00 4.993928744965e+01 5.041568901355e-04 5.015802689296e-03 -3.618279545154e+07 -1.080940605480e+04 -1.415527868131e+07 -2.087659375099e+07 3.033200027201e-05 -2.117406882745e-08 4.815165766690e-04 0.000000000000e+00 2.373822262795e+07 1.955336394187e+07  4.670898032049e-04
1.000000000000e+01 1.053278720059e+06 1.000000000000e+00 5.078394817746e+01 5.018728639892e-04 5.339978050611e-03 -3.662281415520e+07 -1.078745172923e+04 -1.396920532662e+07 -2.124761897808e+07 2.776938542810e-05 -1.954317607059e-08 5.022088097066e-04 0.000000000000e+00 2.394654615330e+07 2.003195725821e+07  4.889159421185e-04
1.100000000000e+01 1.104106076948e+06 1.000000000000e+00 5.157074846908e+01 4.995958707850e-04 5.643818942604e-03 -3.702934486085e+07 -1.078358831940e+04 -1.379742200431e+07 -2.159271175918e+07 2.548740537356e-05 -1.925617991214e-08 5.214070649760e-04 0.000000000000e+00 2.413982620811e+07 2.047900292012e+07  5.091420461152e-04
1.200000000000e+01 1.153015525371e+06 1.000000000000e+00 5.229896758094e+01 4.971249846976e-04 5.929304652759e-03 -3.740503952915e+07 -1.076918808412e+04 -1.363679516157e+07 -2.191141033751e+07 2.337040774585e-05 -1.818644814796e-08 5.392105806160e-04 0.000000000000e+00 2.431774834274e+07 2.089798959240e+07  5.279134929786e-04
1.300000000000e+01 1.200259622520e+06 1.000000000000e+00 5.297193109440e+01 4.946213226170e-04 6.198026080407e-03 -3.775423811010e+07 -1.075999320627e+04 -1.348349231958e+07 -2.220502106869e+07 2.130571618295e-05 -1.750340007897e-08 5.558102276193e-04 0.000000000000e+00 2.448091716612e+07 2.129451819384e+07  5.454695304287e-04
1.400000000000e+01 1.246550173193e+06 1.000000000000e+00 5.359378133377e+01 4.920828511379e-04 6.451521120111e-03 -3.807912351855e+07 -1.075097308908e+04 -1.333589073610e+07 -2.247515978922e+07 1.927226777498e-05 -1.683333423088e-08 5.713262960542e-04 0.000000000000e+00 2.463005801462e+07 2.167069663068e+07  5.619380787541e-04
1.500000000000e+01 1.291432803793e+06 1.000000000000e+00 5.416843284912e+01 4.891209381275e-04 6.690725882583e-03 -3.837865755768e+07 -1.075333866325e+04 -1.319737925188e+07 -2.272390106458e+07 1.738567940627e-05 -1.700906259751e-08 5.857099699813e-04 0.000000000000e+00 2.476664595805e+07 2.202184698913e+07  5.772135357809e-04
1.600000000000e+01 1.335047033712e+06 1.000000000000e+00 5.469941050046e+01 4.859362321843e-04 6.916653061171e-03 -3.865604851752e+07 -1.075408603880e+04 -1.306533073145e+07 -2.295265278447e+07 1.557907906542e-05 -1.706458192465e-08 5.991111217647e-04 0.000000000000e+00 2.489134401115e+07 2.235219570464e+07  5.914754815420e-04
1.700000000000e+01 1.377524042292e+06 1.000000000000e+00 5.518981195544e+01 4.827533456721e-04 7.130190629315e-03 -3.891469869370e+07 -1.075245431250e+04 -1.293746700090e+07 -2.316283628377e+07 1.377888820993e-05 -1.694336797084e-08 6.116671617307e-04 0.000000000000e+00 2.500500065946e+07 2.266601648355e+07  6.048954305647e-04
1.800000000000e+01 1.418991762346e+06 1.000000000000e+00 5.564235493768e+01 4.795993583018e-04 7.332126284955e-03 -3.915602810975e+07 -1.075415302906e+04 -1.281312497634e+07 -2.335562979530e+07 1.197612604158e-05 -1.706955834366e-08 6.234464816423e-04 0.000000000000e+00 2.510826096047e+07 2.296460574624e+07  6.175455208298e-04
1.900000000000e+01 1.459538864391e+06 1.000000000000e+00 5.605943227539e+01 4.765044806690e-04 7.523151213194e-03 -3.938144311548e+07 -1.075837146156e+04 -1.269185545545e+07 -2.353215790677e+07 1.016032711231e-05 -1.738292761528e-08 6.345075365589e-04 0.000000000000e+00 2.520181882590e+07 2.324915893942e+07  6.294888743869e-04
2.000000000000e+01 1.499248947439e+06 1.000000000000e+00 5.644315823292e+01 4.732450015891e-04 7.703883144119e-03 -3.958996799615e+07 -1.077195985272e+04 -1.257527244969e+07 -2.369335205505e+07 8.402328480132e-06 -1.839235095837e-08 6.448249737085e-04 0.000000000000e+00 2.528619750030e+07 2.351710615880e+07  6.406651353208e-04
2.100000000000e+01 1.538044856172e+06 1.000000000000e+00 5.681807715739e+01 4.706270191960e-04 7.876598356608e-03 -3.979117141785e+07 -1.077694449011e+04 -1.246468371389e+07 -2.385117849915e+07 6.791183598121e-06 -1.876263830765e-08 6.547946803906e-04 0.000000000000e+00 2.536901121030e+07 2.377470572723e+07  6.514256395053e-04
2.200000000000e+01 1.576073708529e+06 1.000000000000e+00 5.717450172764e+01 4.682302162899e-04 8.041702215442e-03 -3.998268098835e+07 -1.078378148216e+04 -1.235763088987e+07 -2.400070207786e+07 5.231703902932e-06 -1.927052914564e-08 6.643246610634e-04 0.000000000000e+00 2.544700465203e+07 2.402216525698e+07  6.617243211600e-04
2.300000000000e+01 1.613406437984e+06 1.000000000000e+00 5.750972237819e+01 4.656974929827e-04 8.199476932552e-03 -4.016209085479e+07 -1.079377601568e+04 -1.225495851385e+07 -2.414049220548e+07 3.760113603974e-06 -2.001298020727e-08 6.733304111990e-04 0.000000000000e+00 2.551918052471e+07 2.425661011914e+07  6.714582514663e-04
2.400000000000e+01 1.650091232070e+06 1.000000000000e+00 5.782343461243e+01 4.631242327196e-04 8.350189929468e-03 -4.033075885492e+07 -1.080179174093e+04 -1.215515157666e+07 -2.427039259205e+07 2.320173671851e-06 -2.060843408241e-08 6.818623975101e-04 0.000000000000e+00 2.558543434121e+07 2.448040006750e+07  6.807052772204e-04
2.500000000000e+01 1.686180685897e+06 1.000000000000e+00 5.811604494253e+01 4.605359635815e-04 8.494100974566e-03 -4.048938670957e+07 -1.081218108235e+04 -1.205778401858e+07 -2.439062750872e+07 8.941502610875e-07 -2.138021373125e-08 6.899447751435e-04 0.000000000000e+00 2.564593274562e+07 2.469439014592e+07  6.894981358372e-04
2.600000000000e+01 1.721709347394e+06 1.000000000000e+00 5.838817848328e+01 4.579219177636e-04 8.631453659634e-03 -4.063829583620e+07 -1.082071982379e+04 -1.196285560386e+07 -2.450151185861e+07 -5.181985890284e-07 -2.201452023831e-08 6.975892492578e-04 0.000000000000e+00 2.570088776622e+07 2.489874768799e+07  6.978484938927e-04
2.700000000000e+01 1.756706026883e+06 1.000000000000e+00 5.864051959178e+01 4.553297422958e-04 8.762486917146e-03 -4.077820142239e+07 -1.082926651314e+04 -1.186974645933e+07 -2.460331367862e+07 -1.933481333116e-06 -2.264941716109e-08 7.048287993691e-04 0.000000000000e+00 2.575042052011e+07 2.509452330332e+07  7.057975273659e-04
2.800000000000e+01 1.791210254227e+06 1.000000000000e+00 5.887375096565e+01 4.527901208889e-04 8.887417538492e-03 -4.090969005736e+07 -1.083711215298e+04 -1.177810158004e+07 -2.469634135469e+07 -3.362031235295e-06 -2.323223612058e-08 7.116880657106e-04 0.000000000000e+00 2.579471099736e+07 2.528244199934e+07  7.133750242718e-04
2.900000000000e+01 1.825247224266e+06 1.000000000000e+00 5.908853129358e+01 4.503165354270e-04 9.006456201110e-03 -4.103321673306e+07 -1.084699381018e+04 -1.168778853244e+07 -2.478092217993e+07 -4.808591395081e-06 -2.396630208384e-08 7.181841238452e-04 0.000000000000e+00 2.583397581514e+07 2.546293472064e+07  7.206004537992e-04
3.000000000000e+01 1.858826997691e+06 1.000000000000e+00 5.928548729769e+01 4.478982390466e-04 9.119803571410e-03 -4.114892597608e+07 -1.085377895841e+04 -1.159872134411e+07 -2.485729306720e+07 -6.269730322821e-06 -2.447034166675e-08 7.243289666531e-04 0.000000000000e+00 2.586831346246e+07 2.563613004719e+07  7.274840964127e-04
3.100000000000e+01 1.891867107987e+06 1.000000000000e+00 5.948315500541e+01 4.461147917008e-04 9.229010535705e-03 -4.126354577922e+07 -1.086513040707e+04 -1.151267912660e+07 -2.493458310934e+07 -7.656264302802e-06 -2.531359213901e-08 7.303955934399e-04 0.000000000000e+00 2.590360267172e+07 2.580598092773e+07  7.342536652485e-04
3.200000000000e+01 1.924442697650e+06 1.000000000000e+00 5.967309829942e+01 4.445876989378e-04 9.334182246476e-03 -4.137438253681e+07 -1.087513809385e+04 -1.142804620656e+07 -2.500847141722e+07 -9.028635291804e-06 -2.605702029969e-08 7.362835247630e-04 0.000000000000e+00 2.593696672019e+07 2.597166499180e+07  7.408391070576e-04
3.300000000000e+01 1.956581469878e+06 1.000000000000e+00 5.985249399110e+01 4.432136303061e-04 9.435377704971e-03 -4.148078361621e+07 -1.088564244399e+04 -1.134407571461e+07 -2.507753902998e+07 -1.041530691025e-05 -2.683734345313e-08 7.419677972234e-04 0.000000000000e+00 2.596746612027e+07 2.613327688714e+07  7.472298944909e-04
3.400000000000e+01 1.988310332098e+06 1.000000000000e+00 6.002050707080e+01 4.419459022518e-04 9.532623822465e-03 -4.158250706923e+07 -1.089514513358e+04 -1.126066993147e+07 -2.514138974781e+07 -1.182200850302e-05 -2.754325753697e-08 7.474373244022e-04 0.000000000000e+00 2.599485558284e+07 2.629067554315e+07  7.534178963066e-04
3.500000000000e+01 2.019662816807e+06 1.000000000000e+00 6.017694315111e+01 4.408911777000e-04 9.625984728016e-03 -4.168059660676e+07 -1.090637886968e+04 -1.117679090462e+07 -2.519995671230e+07 -1.328998978723e-05 -2.837776364676e-08 7.527281755090e-04 0.000000000000e+00 2.601911474123e+07 2.644563807709e+07  7.594603888384e-04
3.600000000000e+01 2.050674490948e+06 1.000000000000e+00 6.032184477356e+01 4.401760967884e-04 9.715509066700e-03 -4.177627687110e+07 -1.091668372534e+04 -1.109137772916e+07 -2.525330375479e+07 -1.486236659884e-05 -2.914326721051e-08 7.578821264614e-04 0.000000000000e+00 2.604031945168e+07 2.660011785455e+07  7.654215388273e-04
3.700000000000e+01 2.081407831671e+06 1.000000000000e+00 6.045535759715e+01 4.402770877124e-04 9.801261877209e-03 -4.187393319455e+07 -1.090303819044e+04 -1.100074423109e+07 -2.530169156308e+07 -1.669234001892e-05 -2.812959890370e-08 7.630457749838e-04 0.000000000000e+00 2.605878966291e+07 2.676107992323e+07  7.715273882603e-04
3.800000000000e+01 2.113350428244e+06 1.000000000000e+00 6.057786748005e+01 4.561291371146e-04 9.883308292365e-03 -4.210769175949e+07 -1.026363647268e+04 -1.078964299088e+07 -2.535091957525e+07 -2.354633197903e-05 1.936881441610e-08 7.727151472148e-04 0.000000000000e+00 2.608275144187e+07 2.714443774079e+07  7.847532968978e-04
3.900000000000e+01 2.143157947788e+06 1.000000000000e+00 6.068911562213e+01 4.513046907189e-04 9.961831278035e-03 -4.215034320848e+07 -1.102710043169e+04 -1.073838380332e+07 -2.538682513804e+07 -2.379689346661e-05 -3.734565111048e-08 7.759526950848e-04 0.000000000000e+00 2.609185071661e+07 2.722410967220e+07  7.881206411155e-04
4.000000000000e+01 2.172544101843e+06 1.000000000000e+00 6.078943432377e+01 4.455822504436e-04 1.003677412630e-02 -4.218035635187e+07 -1.102569462640e+04 -1.069604579416e+07 -2.541779004620e+07 -2.376154220355e-05 -3.724121986008e-08 7.786753748710e-04 0.000000000000e+00 2.609806406408e+07 2.728530670218e+07  7.908239262073e-04
4.200000000000e+01 2.229827605392e+06 1.000000000000e+00 6.098757655460e+01 4.355592041465e-04 1.017712010796e-02 -4.223852745354e+07 -1.102595757337e+04 -1.061624795103e+07 -2.547990751647e+07 -2.361496279851e-05 -3.726075306395e-08 7.839465150831e-04 0.000000000000e+00 2.611156097368e+07 2.740208941156e+07  7.960167566915e-04
4.400000000000e+01 2.285593809495e+06 1.000000000000e+00 6.116288333507e+01 4.260561652330e-04 1.030795935626e-02 -4.228796515086e+07 -1.102518215552e+04 -1.053797319724e+07 -2.553188350561e+07 -2.352068338812e-05 -3.720315059490e-08 7.887843998205e-04 0.000000000000e+00 2.611927395123e+07 2.751041926999e+07  8.008038487852e-04
5.000000000000e+01 2.437116678573e+06 1.000000000000e+00 6.137887994116e+01 4.014532578038e-04 1.058165889640e-02 -4.233696449448e+07 -1.102285708151e+04 -1.033352148851e+07 -2.555866191536e+07 -2.434603236020e-05 -3.703043081133e-08 7.973729470784e-04 0.000000000000e+00 2.607638263278e+07 2.772667877433e+07  8.098204848672e-04
6.500000000000e+01 2.768502507756e+06 1.000000000000e+00 6.141736623214e+01 3.584350619562e-04 1.104599756320e-02 -4.224766123891e+07 -1.101987523436e+04 -9.826071622664e+06 -2.538891354140e+07 -2.733399390065e-05 -3.680892216628e-08 8.099161453484e-04 0.000000000000e+00 2.582088213433e+07 2.808540211913e+07  8.239232711607e-04
8.000000000000e+01 3.023556374630e+06 1.000000000000e+00 6.104694031263e+01 3.301438174171e-04 1.126636349596e-02 -4.203856202392e+07 -1.101777970099e+04 -9.443632424921e+06 -2.507858005523e+07 -3.109412397284e-05 -3.665325397288e-08 8.125943574926e-04 0.000000000000e+00 2.552025816802e+07 2.823581714501e+07  8.285791139634e-04
1.000000000000e+02 3.324236305531e+06 1.000000000000e+00 6.054170887125e+01 3.051648703558e-04 1.145084892863e-02 -4.176517357951e+07 -1.101528926526e+04 -9.035342617441e+06 -2.469419572899e+07 -3.521682815499e-05 -3.646825017546e-08 8.134822753672e-04 0.000000000000e+00 2.516490397531e+07 2.835366403454e+07  8.316501108101e-04
1.860000000000e+02 3.922717201764e+06 1.000000000000e+00 5.903012489566e+01 2.646784516925e-04 1.167017642418e-02 -4.098500975745e+07 -1.101226165623e+04 -8.118420871352e+06 -2.365026256147e+07 -4.501397527202e-05 -3.624334207616e-08 8.087647082855e-04 0.000000000000e+00 2.425123106342e+07 2.847757854227e+07  8.321852737572e-04
2.720000000000e+02 4.213038211969e+06 1.000000000000e+00 5.757488621183e+01 2.537312601591e-04 1.150208703628e-02 -4.039022221605e+07 -1.101155708668e+04 -7.774090467871e+06 -2.285640129832e+07 -5.240814207995e-05 -3.619100262434e-08 7.920678477835e-04 0.000000000000e+00 2.367357132741e+07 2.827298846693e+07  8.195296804154e-04
3.580000000000e+02 4.354403691727e+06 1.000000000000e+00 5.648574033373e+01 2.504120725825e-04 1.132619375801e-02 -3.995521694331e+07 -1.101038623316e+04 -7.570731264908e+06 -2.228208084008e+07 -5.758270611303e-05 -3.610402493430e-08 7.782892868731e-04 0.000000000000e+00 2.326934301610e+07 2.808486412707e+07  8.086198051570e-04
4.440000000000e+02 4.426532453840e+06 1.000000000000e+00 5.562775712185e+01 2.496962616242e-04 1.116160447479e-02 -3.962359747414e+07 -1.100915864447e+04 -7.448132338554e+06 -2.184443848688e+07 -6.152069894833e-05 -3.601283263124e-08 7.665876738760e-04 0.000000000000e+00 2.297205609986e+07 2.791606534696e+07  7.991260673577e-04
5.300000000000e+02 4.465496889446e+06 1.000000000000e+00 5.495287082362e+01 2.500948097419e-04 1.101895767288e-02 -3.936839764892e+07 -1.100854349771e+04 -7.370823616907e+06 -2.150771840681e+07 -6.454859412860e-05 -3.596713601467e-08 7.569523948489e-04 0.000000000000e+00 2.274897989088e+07 2.777319866664e+07  7.912039344329e-04
6.160000000000e+02 4.488012314786e+06 1.000000000000e+00 5.442978833274e+01 2.509615726519e-04 1.090073384080e-02 -3.917393875966e+07 -1.100898042892e+04 -7.322116562253e+06 -2.125115751159e+07 -6.685524006388e-05 -3.599959376168e-08 7.492321093423e-04 0.000000000000e+00 2.258240427784e+07 2.765667707729e+07  7.847983646868e-04
7.020000000000e+02 4.501822576458e+06 1.000000000000e+00 5.404171608217e+01 2.518234688649e-04 1.081004662164e-02 -3.903105095875e+07 -1.100866788113e+04 -7.290554931109e+06 -2.106262405984e+07 -6.855064995253e-05 -3.597637592632e-08 7.434017274339e-04 0.000000000000e+00 2.246140998323e+07 2.756804371490e+07  7.799397383356e-04
7.880000000000e+02 4.511441113274e+06 1.000000000000e+00 5.372922177348e+01 2.530406126334e-04 1.072832506826e-02 -3.892072969128e+07 -1.100849881292e+04 -7.279381910293e+06 -2.091655329608e+07 -6.987848838597e-05 -3.596381657363e-08 7.383912398389e-04 0.000000000000e+00 2.237222163255e+07 2.748907444417e+07  7.756947168619e-04
8.740000000000e+02 4.519827167133e+06 1.000000000000e+00 5.323953454171e+01 2.541249624913e-04 1.061279787908e-02 -3.874017625149e+07 -1.100822889007e+04 -7.239074853386e+06 -2.067843183667e+07 -7.201672911478e-05 -3.594376516191e-08 7.310438477460e-04 0.000000000000e+00 2.221922764718e+07 2.737848647945e+07  7.695835933995e-04
9.370000000000e+02 4.525201002277e+06 1.000000000000e+00 5.288417531801e+01 2.558702371814e-04 1.051784284481e-02 -3.861255746889e+07 -1.100862909314e+04 -7.223624508114e+06 -2.051088778475e+07 -7.349966768980e-05 -3.597349453229e-08 7.253946529274e-04 0.000000000000e+00 2.211568992058e+07 2.728999496420e+07  7.647979298237e-04
1.000000000000e+03 4.529391016052e+06 1.000000000000e+00 5.259531212533e+01 2.577118747310e-04 1.043834134362e-02 -3.850734725671e+07 -1.100842901440e+04 -7.210316398947e+06 -2.037407129923e+07 -7.467361498521e-05 -3.595863154048e-08 7.208071989488e-04 0.000000000000e+00 2.203057831830e+07 2.721768733425e+07  7.608971349422e-04
1.100000000000e+03 4.533536316160e+06 1.000000000000e+00 5.229971020815e+01 2.598709631903e-04 1.035516882810e-02 -3.839913064781e+07 -1.100869673544e+04 -7.197132420107e+06 -2.023405510435e+07 -7.585474246426e-05 -3.597851938904e-08 7.160962880674e-04 0.000000000000e+00 2.194343939076e+07 2.714310909904e+07  7.568798710050e-04
1.200000000000e+03 4.536797682874e+06 1.000000000000e+00 5.204965271686e+01 2.614926196746e-04 1.028604956724e-02 -3.830800022084e+07 -1.100825567556e+04 -7.185684797130e+06 -2.011562643407e+07 -7.686867721606e-05 -3.594575494055e-08 7.121227063102e-04 0.000000000000e+00 2.186977048401e+07 2.708085208367e+07  7.535034682770e-04
1.300000000000e+03 4.539703052077e+06 1.000000000000e+00 5.181069984557e+01 2.629824362360e-04 1.022026176127e-02 -3.822111134072e+07 -1.100876945531e+04 -7.174817261649e+06 -2.000253085322e+07 -7.784206895729e-05 -3.598392143654e-08 7.083256646251e-04 0.000000000000e+00 2.179948648520e+07 2.702165811131e+07  7.502813965311e-04
1.400000000000e+03 4.542442562524e+06 1.000000000000e+00 5.156544378992e+01 2.645470002146e-04 1.015228443528e-02 -3.813198385919e+07 -1.100855662185e+04 -7.164017740322e+06 -1.988657797206e+07 -7.883844094353e-05 -3.596811095127e-08 7.044199684027e-04 0.000000000000e+00 2.172752652386e+07 2.696084223003e+07  7.469661087455e-04
1.500000000000e+03 4.545082446453e+06 1.000000000000e+00 5.130381469185e+01 2.663072790832e-04 1.007889827187e-02 -3.803689941020e+07 -1.100863199399e+04 -7.153046665404e+06 -1.976305596417e+07 -7.989469313139e-05 -3.597371002431e-08 7.002395051780e-04 0.000000000000e+00 2.165100067992e+07 2.689571319288e+07  7.434137144749e-04
1.600000000000e+03 4.547643486991e+06 1.000000000000e+00 5.101967084496e+01 2.683362992469e-04 9.998129301151e-03 -3.793359338517e+07 -1.100855134817e+04 -7.141772018386e+06 -1.962909624634e+07 -8.103325886384e-05 -3.596771919205e-08 6.956826311192e-04 0.000000000000e+00 2.156815388330e+07 2.682466096796e+07  7.395364405482e-04
1.700000000000e+03 4.550130771773e+06 1.000000000000e+00 5.070922120887e+01 2.706790344239e-04 9.908755898345e-03 -3.782067128920e+07 -1.100766946558e+04 -7.130123858975e+06 -1.948293262517e+07 -8.226794408542e-05 -3.590220791357e-08 6.906863425398e-04 0.000000000000e+00 2.147790925778e+07 2.674672851307e+07  7.352802103080e-04
1.800000000000e+03 4.552544175197e+06 1.000000000000e+00 5.037017770210e+01 2.733630642698e-04 9.810043207583e-03 -3.769729408406e+07 -1.100863836217e+04 -7.118059023021e+06 -1.932349961227e+07 -8.360715980224e-05 -3.597418308894e-08 6.852126673961e-04 0.000000000000e+00 2.137961757312e+07 2.666139013000e+07  7.306129246011e-04
1.900000000000e+03 4.554883463306e+06 1.000000000000e+00 5.000125366953e+01 2.764025105330e-04 9.701571591317e-03 -3.756298635885e+07 -1.100845551781e+04 -7.105562903407e+06 -1.915019987349e+07 -8.505543459234e-05 -3.596060036534e-08 6.792399615412e-04 0.000000000000e+00 2.127291637858e+07 2.656839623084e+07  7.255166478511e-04
2.000000000000e+03 4.557147803229e+06 1.000000000000e+00 4.960184698452e+01 2.798066101004e-04 9.583152312013e-03 -3.741753592722e+07 -1.100891182414e+04 -7.092618814102e+06 -1.896275400316e+07 -8.661526517259e-05 -3.599449740694e-08 6.727584668174e-04 0.000000000000e+00 2.115763624816e+07 2.646772006016e+07  7.199842468573e-04