 TITLE = "Time curves in points"
 VARIABLES = "TIME"  "PRESSURE1"  "SATURATION1"  "TEMPERATURE1"  "DISPLACEMENT_X1"  "DISPLACEMENT_Y1"  "STRESS_XX"  "STRESS_XY"  "STRESS_YY"  "STRESS_ZZ"  "STRAIN_XX"  "STRAIN_XY"  "STRAIN_YY"  "STRAIN_PLS"  p_(1st_Invariant)  q_(2nd_Invariant)   Effective_Strain
 ZONE T="POINT=POINT13"
0.000000000000e+00 1.000000000000e+05 1.000000000000e+00 2.500000000000e+01 0.000000000000e+00 0.000000000000e+00 -2.538927640774e+07 -1.052437051289e+04 -1.550903669435e+07 -9.266443930625e+06 0.000000000000e+00 0.000000000000e+00 0.000000000000e+00 0.000000000000e+00 1.672158567757e+07 1.408075802056e+07  0.000000000000e+00
1.000000000000e-03 2.215970185909e+05 1.000000000000e+00 2.500000000096e+01 -3.853225734543e-05 6.279275701079e-05 -2.509303095435e+07 -9.601336384129e+03 -1.576960365331e+07 -9.255740382288e+06 1.060584218753e-05 6.856824956541e-08 -1.007576169958e-05 0.000000000000e+00 1.670612499665e+07 1.378725928401e+07  1.791314895972e-05
2.000000000000e-03 2.374056888651e+05 1.000000000000e+00 2.500000000360e+01 -3.624477742315e-05 6.219710444002e-05 -2.510777580440e+07 -9.797597396512e+03 -1.575245289973e+07 -9.255018614718e+06 1.003136781885e-05 5.398886007416e-08 -9.465542219200e-06 0.000000000000e+00 1.670508243961e+07 1.380306497506e+07  1.688744829207e-05
3.000000000000e-03 2.481523565294e+05 1.000000000000e+00 2.500000002005e+01 -3.400199620124e-05 6.171642062660e-05 -2.512484238408e+07 -9.882304759576e+03 -1.573700116150e+07 -9.255503118295e+06 9.415462134934e-06 4.769631310365e-08 -8.873624666729e-06 0.000000000000e+00 1.670578222129e+07 1.381987507897e+07  1.584134602249e-05
4.000000000000e-03 2.554830814759e+05 1.000000000000e+00 2.500000026425e+01 -3.175017376817e-05 6.120228000995e-05 -2.514397027418e+07 -9.921433740443e+03 -1.572275096824e+07 -9.256966779228e+06 8.759362194449e-06 4.478958881069e-08 -8.289967225135e-06 0.000000000000e+00 1.670789600722e+07 1.383768783156e+07  1.476722135252e-05
1.000000000000e-02 2.655056782691e+05 1.000000000000e+00 2.500574045669e+01 -2.420298389996e-05 5.840416135771e-05 -2.521237942356e+07 -9.977205148353e+03 -1.567934311713e+07 -9.266806315305e+06 6.583919414756e-06 4.064656993736e-08 -6.312207129488e-06 0.000000000000e+00 1.671950961866e+07 1.389714554275e+07  1.116942134608e-05
2.000000000000e-02 2.610996539115e+05 1.000000000000e+00 2.506298839666e+01 -8.348178483570e-06 5.658487934989e-05 -2.535944892771e+07 -1.002163649842e+04 -1.560115818983e+07 -9.309541350339e+06 2.708639133393e-06 3.734595536130e-08 -1.820894242714e-06 0.000000000000e+00 1.675671615596e+07 1.400729839086e+07  3.948254217098e-06
3.000000000000e-02 2.498200502418e+05 1.000000000000e+00 2.517971472982e+01 9.545024222284e-06 5.693779611239e-05 -2.552424441931e+07 -1.005075094408e+04 -1.553275679012e+07 -9.382476026503e+06 -7.033340115335e-07 3.518316796932e-08 3.428731432580e-06 0.000000000000e+00 1.681315907864e+07 1.411051153340e+07  3.829639012677e-06
4.000000000000e-02 2.358078147646e+05 1.000000000000e+00 2.535078353582e+01 2.801677928767e-05 5.962242728492e-05 -2.569253813393e+07 -1.007457073171e+04 -1.548136423388e+07 -9.481139402622e+06 -3.289603727188e-06 3.341369803082e-08 9.002237491454e-06 0.000000000000e+00 1.688501392348e+07 1.419649302204e+07  1.102174740978e-05
5.000000000000e-02 2.210867255385e+05 1.000000000000e+00 2.556378881541e+01 4.616920968302e-05 6.330662603465e-05 -2.585773188063e+07 -1.009215615463e+04 -1.545100723579e+07 -9.599971303625e+06 -5.011615138704e-06 3.210735232808e-08 1.454353945777e-05 0.000000000000e+00 1.696957014001e+07 1.426271238933e+07  1.759319588424e-05
6.000000000000e-02 2.062323625594e+05 1.000000000000e+00 2.580558519821e+01 6.363682857527e-05 6.930601850978e-05 -2.601503494806e+07 -1.010547937965e+04 -1.543428209620e+07 -9.730447576614e+06 -6.008038932286e-06 3.111762704074e-08 2.001102049629e-05 0.000000000000e+00 1.705992154029e+07 1.431213571975e+07  2.359591846595e-05
7.000000000000e-02 1.921173127982e+05 1.000000000000e+00 2.606507573398e+01 8.031416758245e-05 7.532329149244e-05 -2.616612717003e+07 -1.011806893513e+04 -1.543250512335e+07 -9.869455818043e+06 -6.456872495183e-06 3.018240291931e-08 2.524018559841e-05 0.000000000000e+00 1.715602937047e+07 1.434817534080e+07  2.901264490799e-05
8.000000000000e-02 1.793834173774e+05 1.000000000000e+00 2.633384210671e+01 9.615205204587e-05 8.212473396705e-05 -2.630963367475e+07 -1.012875365274e+04 -1.543965058999e+07 -1.001178608660e+07 -6.500561267017e-06 2.938868103991e-08 3.026133538371e-05 0.000000000000e+00 1.725369011711e+07 1.437425992680e+07  3.398122969757e-05
9.000000000000e-02 1.689331176524e+05 1.000000000000e+00 2.660587521050e+01 1.111569311020e-04 8.831147692233e-05 -2.644727075204e+07 -1.013899598756e+04 -1.545663127908e+07 -1.015612550623e+07 -6.251617123014e-06 2.862782188179e-08 3.499180251820e-05 0.000000000000e+00 1.735334251245e+07 1.439255966964e+07  3.850021779899e-05
1.000000000000e-01 1.617743555300e+05 1.000000000000e+00 2.687705765486e+01 1.253502580256e-04 9.385117612008e-05 -2.657921303931e+07 -1.014882110982e+04 -1.548127433487e+07 -1.030045632068e+07 -5.791471827529e-06 2.789795565705e-08 3.943734784003e-05 0.000000000000e+00 1.745364789829e+07 1.440492376028e+07  4.262919392201e-05
2.000000000000e-01 1.796941805816e+05 1.000000000000e+00 2.902877258995e+01 2.096550427256e-04 1.886760475849e-04 -2.735047344936e+07 -1.019564051467e+04 -1.573536632224e+07 -1.137277956598e+07 5.390862052895e-06 2.441994272523e-08 6.982879456298e-05 0.000000000000e+00 1.815287311252e+07 1.430437349760e+07  6.729551496188e-05
3.000000000000e-01 2.070588055799e+05 1.000000000000e+00 3.071647659315e+01 2.699765992083e-04 2.983467553242e-04 -2.791082311923e+07 -1.022748666096e+04 -1.589515704949e+07 -1.218562872737e+07 1.476941459527e-05 2.205422900067e-08 9.408525068824e-05 0.000000000000e+00 1.866386963203e+07 1.423761211971e+07  8.763896045144e-05
4.000000000000e-01 2.349366444406e+05 1.000000000000e+00 3.207113244939e+01 3.153795103647e-04 4.037704685299e-04 -2.835634220667e+07 -1.024609892387e+04 -1.601342121234e+07 -1.283243000449e+07 2.224561021189e-05 2.067160375637e-08 1.137166292182e-04 0.000000000000e+00 1.906739780783e+07 1.420314901162e+07  1.043869934819e-04
5.000000000000e-01 2.614177955233e+05 1.000000000000e+00 3.318829725466e+01 3.514470443271e-04 5.061901318658e-04 -2.873092733605e+07 -1.027119581250e+04 -1.609144961736e+07 -1.336143633768e+07 2.798125492505e-05 1.880726345765e-08 1.304672379788e-04 0.000000000000e+00 1.939460443036e+07 1.420266270883e+07  1.189706469214e-04
6.000000000000e-01 2.860655246122e+05 1.000000000000e+00 3.413186115956e+01 3.803098334645e-04 6.060490583846e-04 -2.905026184152e+07 -1.029840131104e+04 -1.614348499644e+07 -1.380456640582e+07 3.257937582384e-05 1.678628356670e-08 1.449936121438e-04 0.000000000000e+00 1.966610441459e+07 1.422123929837e+07  1.317602472478e-04
7.000000000000e-01 3.089766518315e+05 1.000000000000e+00 3.494487203999e+01 4.037370184175e-04 7.035366293683e-04 -2.932867155869e+07 -1.033592294801e+04 -1.617750010381e+07 -1.418387154088e+07 3.632691991674e-05 1.399896196291e-08 1.578186703150e-04 0.000000000000e+00 1.989668106779e+07 1.425295537862e+07  1.431548539193e-04
8.000000000000e-01 3.304295337389e+05 1.000000000000e+00 3.565691630465e+01 4.229674391403e-04 7.988150677260e-04 -2.957551231629e+07 -1.037841696990e+04 -1.619741649841e+07 -1.451384983110e+07 3.941488541402e-05 1.084226319392e-08 1.693352550094e-04 0.000000000000e+00 2.009559288193e+07 1.429444240820e+07  1.534719272741e-04
9.000000000000e-01 3.504485616522e+05 1.000000000000e+00 3.628894648100e+01 4.389885612017e-04 8.918529007625e-04 -2.979876458657e+07 -1.042780618948e+04 -1.620619878721e+07 -1.480521053627e+07 4.194462728154e-05 7.173349739203e-09 1.798310247605e-04 0.000000000000e+00 2.027005797002e+07 1.434447504413e+07  1.629589030134e-04
1.000000000000e+00 3.691814360826e+05 1.000000000000e+00 3.685626587202e+01 4.524305602159e-04 9.827051316237e-04 -3.000326311520e+07 -1.047862629316e+04 -1.620643991163e+07 -1.506559482394e+07 4.402038404605e-05 3.398142037081e-09 1.894934851098e-04 0.000000000000e+00 2.042509928359e+07 1.440118833315e+07  1.717672819733e-04
2.000000000000e+00 4.965754139858e+05 1.000000000000e+00 4.017231608114e+01 4.979594973257e-04 1.735905174545e-03 -3.134545591298e+07 -1.080058750049e+04 -1.596948935116e+07 -1.655817270573e+07 4.960611573761e-05 -2.051897622116e-08 2.537331129650e-04 0.000000000000e+00 2.129103932329e+07 1.509025083241e+07  2.329260535629e-04
3.000000000000e+00 5.964824559071e+05 1.000000000000e+00 4.245554050294e+01 5.123962405718e-04 2.378589902878e-03 -3.237715958509e+07 -1.092392180378e+04 -1.566713757923e+07 -1.757532837344e+07 4.906576128839e-05 -2.968095303727e-08 3.027433892945e-04 0.000000000000e+00 2.187320851259e+07 1.584236331414e+07  2.814368072311e-04
4.000000000000e+00 6.807083713390e+05 1.000000000000e+00 4.420819266506e+01 5.151315002989e-04 2.938931984500e-03 -3.322724274773e+07 -1.095070839867e+04 -1.536237051875e+07 -1.835120496349e+07 4.630951716362e-05 -3.167081437157e-08 3.428815820286e-04 0.000000000000e+00 2.231360607666e+07 1.657383496301e+07  3.222323279490e-04
5.000000000000e+00 7.551020213731e+05 1.000000000000e+00 4.565417316055e+01 5.139855004833e-04 3.436265099689e-03 -3.395930860189e+07 -1.092767573335e+04 -1.507527254624e+07 -1.898960201047e+07 4.283039003991e-05 -2.995981637636e-08 3.772571113239e-04 0.000000000000e+00 2.267472771953e+07 1.726298967189e+07  3.577699034643e-04
6.000000000000e+00 8.227294698145e+05 1.000000000000e+00 4.691432353352e+01 5.122232092607e-04 3.885020644601e-03 -3.461035566825e+07 -1.089462550503e+04 -1.481176398961e+07 -1.954586155519e+07 3.930971066485e-05 -2.750465655851e-08 4.077056408028e-04 0.000000000000e+00 2.298932707102e+07 1.790719977073e+07  3.895412101282e-04
7.000000000000e+00 8.856231524212e+05 1.000000000000e+00 4.800736979148e+01 5.088036856435e-04 4.292250822844e-03 -3.517957901339e+07 -1.086281720552e+04 -1.457194479283e+07 -2.002613772060e+07 3.600595827498e-05 -2.514175430919e-08 4.344520399700e-04 0.000000000000e+00 2.325922050894e+07 1.849392197021e+07  4.176148272489e-04
8.000000000000e+00 9.444320508232e+05 1.000000000000e+00 4.901619071825e+01 5.065277345638e-04 4.667680011847e-03 -3.570439423994e+07 -1.083383736789e+04 -1.435390771578e+07 -2.047039244114e+07 3.301371090879e-05 -2.298896637122e-08 4.590514495946e-04 0.000000000000e+00 2.350956479895e+07 1.904376768463e+07  4.434671895633e-04
9.000000000000e+00 1.000152122572e+06 1.000000000000e+00 4.993928744965e+01 5.041573525984e-04 5.015802496035e-03 -3.618279835086e+07 -1.080977184739e+04 -1.415527962633e+07 -2.087659490428e+07 3.033193541999e-05 -2.120124199138e-08 4.815165844052e-04 0.000000000000e+00 2.373822429382e+07 1.955336576245e+07  4.670898401488e-04
1.000000000000e+01 1.053278720059e+06 1.000000000000e+00 5.078394817746e+01 5.018732185278e-04 5.339978372436e-03 -3.662281634919e+07 -1.078823794988e+04 -1.396920620059e+07 -2.124761989847e+07 2.776933812290e-05 -1.960158103285e-08 5.022088114306e-04 0.000000000000e+00 2.394654748275e+07 2.003195850306e+07  4.889159654563e-04
1.100000000000e+01 1.104106076948e+06 1.000000000000e+00 5.157074846908e+01 4.995957001920e-04 5.643819753282e-03 -3.702934381056e+07 -1.078455332092e+04 -1.379742156789e+07 -2.159271131317e+07 2.548742781809e-05 -1.932786573893e-08 5.214070646197e-04 0.000000000000e+00 2.413982556387e+07 2.047900234388e+07  5.091420353983e-04
1.200000000000e+01 1.153015525371e+06 1.000000000000e+00 5.229896758094e+01 4.971249828186e-04 5.929304580086e-03 -3.740503943033e+07 -1.076953352074e+04 -1.363679520733e+07 -2.191141032159e+07 2.337041082535e-05 -1.821210915460e-08 5.392105783249e-04 0.000000000000e+00 2.431774831975e+07 2.089798946776e+07  5.279134892554e-04
1.300000000000e+01 1.200259622520e+06 1.000000000000e+00 5.297193109440e+01 4.946215127970e-04 6.198025423325e-03 -3.775423931086e+07 -1.075909973565e+04 -1.348349281873e+07 -2.220502157866e+07 2.130569052519e-05 -1.743702797642e-08 5.558102280212e-04 0.000000000000e+00 2.448091790275e+07 2.129451884674e+07  5.454695428939e-04
1.400000000000e+01 1.246550173193e+06 1.000000000000e+00 5.359378133377e+01 4.920827627167e-04 6.451521055031e-03 -3.807912313129e+07 -1.075110645760e+04 -1.333589073664e+07 -2.247515967321e+07 1.927227784963e-05 -1.684324160699e-08 5.713262917251e-04 0.000000000000e+00 2.463005784705e+07 2.167069628726e+07  5.619380696518e-04
1.500000000000e+01 1.291432803793e+06 1.000000000000e+00 5.416843284913e+01 4.891209499537e-04 6.690726034342e-03 -3.837865749746e+07 -1.075275989565e+04 -1.319737946272e+07 -2.272390110977e+07 1.738568332129e-05 -1.696606843337e-08 5.857099638286e-04 0.000000000000e+00 2.476664602331e+07 2.202184676002e+07  5.772135277581e-04
1.600000000000e+01 1.335047033712e+06 1.000000000000e+00 5.469941050046e+01 4.859361341134e-04 6.916653564199e-03 -3.865604793958e+07 -1.075436052785e+04 -1.306533056880e+07 -2.295265256230e+07 1.557909227919e-05 -1.708497253967e-08 5.991111195540e-04 0.000000000000e+00 2.489134369023e+07 2.235219532918e+07  5.914754729895e-04
1.700000000000e+01 1.377524042292e+06 1.000000000000e+00 5.518981195544e+01 4.827534890175e-04 7.130190711023e-03 -3.891469962226e+07 -1.075242549046e+04 -1.293746734489e+07 -2.316283666554e+07 1.377886790029e-05 -1.694122690500e-08 6.116671631338e-04 0.000000000000e+00 2.500500121090e+07 2.266601701702e+07  6.048954417733e-04
1.800000000000e+01 1.418991762346e+06 1.000000000000e+00 5.564235493768e+01 4.795993711208e-04 7.332126395872e-03 -3.915602816208e+07 -1.075439528187e+04 -1.281312486891e+07 -2.335562977877e+07 1.197612348389e-05 -1.708755426678e-08 6.234464850187e-04 0.000000000000e+00 2.510826093659e+07 2.296460588277e+07  6.175455254487e-04
1.900000000000e+01 1.459538864391e+06 1.000000000000e+00 5.605943227539e+01 4.765044273066e-04 7.523150488103e-03 -3.938144278877e+07 -1.075720700761e+04 -1.269185535450e+07 -2.353215777847e+07 1.016033448194e-05 -1.729642532184e-08 6.345075355431e-04 0.000000000000e+00 2.520181864058e+07 2.324915873421e+07  6.294888697688e-04
2.000000000000e+01 1.499248947439e+06 1.000000000000e+00 5.644315823292e+01 4.732449848880e-04 7.703883466836e-03 -3.958996763251e+07 -1.077233369638e+04 -1.257527242893e+07 -2.369335193972e+07 8.402337703587e-06 -1.842012220172e-08 6.448249701964e-04 0.000000000000e+00 2.528619733372e+07 2.351710585610e+07  6.406651272906e-04
2.100000000000e+01 1.538044856172e+06 1.000000000000e+00 5.681807715739e+01 4.706271959196e-04 7.876598334699e-03 -3.979117256323e+07 -1.077677461251e+04 -1.246468420898e+07 -2.385117899129e+07 6.791159334845e-06 -1.875001882883e-08 6.547946802812e-04 0.000000000000e+00 2.536901192117e+07 2.377470631900e+07  6.514256513363e-04
2.200000000000e+01 1.576073708529e+06 1.000000000000e+00 5.717450172764e+01 4.682303584318e-04 8.041702346166e-03 -3.998268187538e+07 -1.078480343585e+04 -1.235763117022e+07 -2.400070242807e+07 5.231683964010e-06 -1.934644570510e-08 6.643246636584e-04 0.000000000000e+00 2.544700515789e+07 2.402216580270e+07  6.617243336126e-04
2.300000000000e+01 1.613406437984e+06 1.000000000000e+00 5.750972237819e+01 4.656974888493e-04 8.199477470470e-03 -4.016209071923e+07 -1.079495881073e+04 -1.225495852075e+07 -2.414049216688e+07 3.760117205599e-06 -2.010084498187e-08 6.733304095090e-04 0.000000000000e+00 2.551918046895e+07 2.425660999559e+07  6.714582479986e-04
2.400000000000e+01 1.650091232070e+06 1.000000000000e+00 5.782343461243e+01 4.631240856977e-04 8.350190617160e-03 -4.033075791817e+07 -1.080287561804e+04 -1.215515122907e+07 -2.427039220675e+07 2.320194154396e-06 -2.068895066810e-08 6.818623961093e-04 0.000000000000e+00 2.558543378466e+07 2.448039953967e+07  6.807052656380e-04
2.500000000000e+01 1.686180685897e+06 1.000000000000e+00 5.811604494253e+01 4.605359288077e-04 8.494100392459e-03 -4.048938647172e+07 -1.081169263145e+04 -1.205778397529e+07 -2.439062742438e+07 8.941559630126e-07 -2.134392880670e-08 6.899447736186e-04 0.000000000000e+00 2.564593262380e+07 2.469438997298e+07  6.894981314635e-04
2.600000000000e+01 1.721709347394e+06 1.000000000000e+00 5.838817848328e+01 4.579219122528e-04 8.631453070263e-03 -4.063829593592e+07 -1.081948852681e+04 -1.196285557214e+07 -2.450151187901e+07 -5.182015350832e-07 -2.192305246195e-08 6.975892511936e-04 0.000000000000e+00 2.570088779569e+07 2.489874780090e+07  6.978484972946e-04
2.700000000000e+01 1.756706026883e+06 1.000000000000e+00 5.864051959178e+01 4.553297261038e-04 8.762486840931e-03 -4.077820160449e+07 -1.082896877512e+04 -1.186974640382e+07 -2.460331371660e+07 -1.933486686238e-06 -2.262729947967e-08 7.048288028414e-04 0.000000000000e+00 2.575042057497e+07 2.509452350996e+07  7.057975335236e-04
2.800000000000e+01 1.791210254227e+06 1.000000000000e+00 5.887375096565e+01 4.527900690218e-04 8.887417719106e-03 -4.090968976405e+07 -1.083675873960e+04 -1.177810157923e+07 -2.469634126645e+07 -3.362023618088e-06 -2.320598255548e-08 7.116880624633e-04 0.000000000000e+00 2.579471086991e+07 2.528244174227e+07  7.133750171865e-04
2.900000000000e+01 1.825247224266e+06 1.000000000000e+00 5.908853129358e+01 4.503165493951e-04 9.006456762880e-03 -4.103321684307e+07 -1.084722389605e+04 -1.168778842249e+07 -2.478092217995e+07 -4.808595480392e-06 -2.398339417735e-08 7.181841279297e-04 0.000000000000e+00 2.583397581517e+07 2.546293491105e+07  7.206004599484e-04
3.000000000000e+01 1.858826997691e+06 1.000000000000e+00 5.928548729769e+01 4.478982208693e-04 9.119804626440e-03 -4.114892463965e+07 -1.085605574554e+04 -1.159872172732e+07 -2.485729278124e+07 -6.269691305369e-06 -2.463947442488e-08 7.243289417977e-04 0.000000000000e+00 2.586831304940e+07 2.563612855215e+07  7.274840518148e-04
3.100000000000e+01 1.891867107987e+06 1.000000000000e+00 5.948315500541e+01 4.461147657864e-04 9.229011388764e-03 -4.126354583619e+07 -1.086568703744e+04 -1.151267908688e+07 -2.493458311451e+07 -7.656266226565e-06 -2.535494182304e-08 7.303955951073e-04 0.000000000000e+00 2.590360267919e+07 2.580598101222e+07  7.342536678970e-04
3.200000000000e+01 1.924442697650e+06 1.000000000000e+00 5.967309829942e+01 4.445877977950e-04 9.334182276868e-03 -4.137438313636e+07 -1.087522086749e+04 -1.142804643021e+07 -2.500847166418e+07 -9.028648388093e-06 -2.606316919859e-08 7.362835256288e-04 0.000000000000e+00 2.593696707692e+07 2.597166532581e+07  7.408391145915e-04
3.300000000000e+01 1.956581469878e+06 1.000000000000e+00 5.985249399110e+01 4.432135813371e-04 9.435377721261e-03 -4.148078340506e+07 -1.088608266115e+04 -1.134407552654e+07 -2.507753891021e+07 -1.041530351581e-05 -2.687004529876e-08 7.419677997602e-04 0.000000000000e+00 2.596746594727e+07 2.613327686365e+07  7.472298952985e-04
3.400000000000e+01 1.988310332098e+06 1.000000000000e+00 6.002050707080e+01 4.419458796912e-04 9.532624157790e-03 -4.158250699136e+07 -1.089511689548e+04 -1.126066984003e+07 -2.514138969701e+07 -1.182200749733e-05 -2.754115984911e-08 7.474373259120e-04 0.000000000000e+00 2.599485550947e+07 2.629067555321e+07  7.534178973014e-04
3.500000000000e+01 2.019662816807e+06 1.000000000000e+00 6.017694315111e+01 4.408912006734e-04 9.625983527139e-03 -4.168059691422e+07 -1.090520095843e+04 -1.117679090411e+07 -2.519995680438e+07 -1.328999778685e-05 -2.829026166802e-08 7.527281789484e-04 0.000000000000e+00 2.601911487423e+07 2.644563834491e+07  7.594603963720e-04
3.600000000000e+01 2.050674490948e+06 1.000000000000e+00 6.032184477356e+01 4.401761093029e-04 9.715508330545e-03 -4.177627700392e+07 -1.091535534384e+04 -1.109137776434e+07 -2.525330380519e+07 -1.486236966033e-05 -2.904458744159e-08 7.578821270267e-04 0.000000000000e+00 2.604031952449e+07 2.660011793889e+07  7.654215409564e-04
3.700000000000e+01 2.081407831671e+06 1.000000000000e+00 6.045535759715e+01 4.402770457096e-04 9.801261853322e-03 -4.187393293790e+07 -1.090286885911e+04 -1.100074411441e+07 -2.530169145109e+07 -1.669233464599e-05 -2.811702000429e-08 7.630457751575e-04 0.000000000000e+00 2.605878950113e+07 2.676107979874e+07  7.715273856594e-04
3.800000000000e+01 2.113350428244e+06 1.000000000000e+00 6.057786748005e+01 4.561291528928e-04 9.883308062413e-03 -4.210769187840e+07 -1.026326432638e+04 -1.078964304235e+07 -2.535091962636e+07 -2.354633449703e-05 1.939645956939e-08 7.727151472014e-04 0.000000000000e+00 2.608275151571e+07 2.714443780010e+07  7.847532982017e-04
3.900000000000e+01 2.143157947788e+06 1.000000000000e+00 6.068911562213e+01 4.513045939352e-04 9.961831091044e-03 -4.215034248147e+07 -1.102663061544e+04 -1.073838366789e+07 -2.538682487930e+07 -2.379687607361e-05 -3.731075047464e-08 7.759526905052e-04 0.000000000000e+00 2.609185034289e+07 2.722410915300e+07  7.881206274450e-04
4.000000000000e+01 2.172544101843e+06 1.000000000000e+00 6.078943432377e+01 4.455823831506e-04 1.003677389822e-02 -4.218035615590e+07 -1.102561555045e+04 -1.069604312593e+07 -2.541778918694e+07 -2.376156684002e-05 -3.723534564701e-08 7.786754420613e-04 0.000000000000e+00 2.609806282292e+07 2.728530882020e+07  7.908240062433e-04
4.200000000000e+01 2.229827605392e+06 1.000000000000e+00 6.098757655460e+01 4.355592139945e-04 1.017711954627e-02 -4.223852750371e+07 -1.102526989118e+04 -1.061624778200e+07 -2.547990748081e+07 -2.361496598638e-05 -3.720966810125e-08 7.839465200370e-04 0.000000000000e+00 2.611156092217e+07 2.740208959962e+07  7.960167633010e-04
4.400000000000e+01 2.285593809494e+06 1.000000000000e+00 6.116288333508e+01 4.260559291872e-04 1.030795894504e-02 -4.228796353704e+07 -1.102445220597e+04 -1.053797253607e+07 -2.553188282311e+07 -2.352064879600e-05 -3.714892577130e-08 7.887843990283e-04 0.000000000000e+00 2.611927296540e+07 2.751041842994e+07  8.008038299332e-04
5.000000000000e+01 2.437116678573e+06 1.000000000000e+00 6.137887994117e+01 4.014536492014e-04 1.058165920887e-02 -4.233696724385e+07 -1.102337879728e+04 -1.033352287160e+07 -2.555866315510e+07 -2.434608843225e-05 -3.706918684002e-08 7.973729417539e-04 0.000000000000e+00 2.607638442352e+07 2.772667998087e+07  8.098205088407e-04
6.500000000000e+01 2.768502507756e+06 1.000000000000e+00 6.141736623214e+01 3.584352258145e-04 1.104599821927e-02 -4.224766211572e+07 -1.102094607916e+04 -9.826072146202e+06 -2.538891396150e+07 -2.733401086388e-05 -3.688847063693e-08 8.099161415065e-04 0.000000000000e+00 2.582088274114e+07 2.808540243271e+07  8.239232762313e-04
8.000000000000e+01 3.023556374630e+06 1.000000000000e+00 6.104694031263e+01 3.301439576362e-04 1.126636336959e-02 -4.203856294117e+07 -1.101782300171e+04 -9.443632771791e+06 -2.507858043447e+07 -3.109414395607e-05 -3.665647059742e-08 8.125943586947e-04 0.000000000000e+00 2.552025871581e+07 2.823581764482e+07  8.285791257141e-04
1.000000000000e+02 3.324236305531e+06 1.000000000000e+00 6.054170887125e+01 3.051654115062e-04 1.145084930514e-02 -4.176517667301e+07 -1.101557708618e+04 -9.035343595754e+06 -2.469419695054e+07 -3.521689768483e-05 -3.648963115861e-08 8.134822844015e-04 0.000000000000e+00 2.516490573977e+07 2.835366588639e+07  8.316501567909e-04
1.860000000000e+02 3.922717201764e+06 1.000000000000e+00 5.903012489566e+01 2.646790190844e-04 1.167017592362e-02 -4.098501352066e+07 -1.101127848067e+04 -8.118422970887e+06 -2.365026432030e+07 -4.501404972087e-05 -3.617030617727e-08 8.087646956306e-04 0.000000000000e+00 2.425123360395e+07 2.847758001831e+07  8.321853013105e-04
2.720000000000e+02 4.213038211969e+06 1.000000000000e+00 5.757488621182e+01 2.537311508271e-04 1.150208603250e-02 -4.039022132738e+07 -1.101004330410e+04 -7.774090982270e+06 -2.285640118604e+07 -5.240811324277e-05 -3.607855020352e-08 7.920678245069e-04 0.000000000000e+00 2.367357116523e+07 2.827298724797e+07  8.195296413800e-04
3.580000000000e+02 4.354403691727e+06 1.000000000000e+00 5.648574033373e+01 2.504120629279e-04 1.132619352682e-02 -3.995521692146e+07 -1.100992925855e+04 -7.570731015243e+06 -2.228208075862e+07 -5.758270832683e-05 -3.607007824873e-08 7.782892931209e-04 0.000000000000e+00 2.326934289844e+07 2.808486432069e+07  8.086198126114e-04
4.440000000000e+02 4.426532453840e+06 1.000000000000e+00 5.562775712185e+01 2.496961588837e-04 1.116160459681e-02 -3.962359678783e+07 -1.100943575247e+04 -7.448132566749e+06 -2.184443834945e+07 -6.152067856152e-05 -3.603341779740e-08 7.665876602955e-04 0.000000000000e+00 2.297205590134e+07 2.791606455121e+07  7.991260424623e-04
5.300000000000e+02 4.465496889446e+06 1.000000000000e+00 5.495287082362e+01 2.500950853639e-04 1.101895796532e-02 -3.936839910003e+07 -1.100885777047e+04 -7.370822884272e+06 -2.150771862235e+07 -6.454864002121e-05 -3.599048199108e-08 7.569524300669e-04 0.000000000000e+00 2.274898020222e+07 2.777320056357e+07  7.912039952631e-04
6.160000000000e+02 4.488012314786e+06 1.000000000000e+00 5.442978833274e+01 2.509614985551e-04 1.090073403551e-02 -3.917393854872e+07 -1.100944179688e+04 -7.322116235064e+06 -2.125115735016e+07 -6.685523822527e-05 -3.603386681012e-08 7.492321154987e-04 0.000000000000e+00 2.258240404465e+07 2.765667717048e+07  7.847983697969e-04
7.020000000000e+02 4.501822576458e+06 1.000000000000e+00 5.404171608217e+01 2.518236947602e-04 1.081004590972e-02 -3.903105272757e+07 -1.100748564664e+04 -7.290555926418e+06 -2.106262488908e+07 -6.855068485125e-05 -3.588855279278e-08 7.434017212656e-04 0.000000000000e+00 2.246141118102e+07 2.756804442350e+07  7.799397518723e-04
7.880000000000e+02 4.511441113274e+06 1.000000000000e+00 5.372922177347e+01 2.530406688535e-04 1.072832521980e-02 -3.892072892903e+07 -1.100861459444e+04 -7.279380984465e+06 -2.091655278966e+07 -6.987847888396e-05 -3.597241748636e-08 7.383912554168e-04 0.000000000000e+00 2.237222090105e+07 2.748907455871e+07  7.756947270150e-04
8.740000000000e+02 4.519827167133e+06 1.000000000000e+00 5.323953454171e+01 2.541247190877e-04 1.061279730353e-02 -3.874017463367e+07 -1.100725298141e+04 -7.239074328745e+06 -2.067843119393e+07 -7.201669289744e-05 -3.587126908960e-08 7.310438433595e-04 0.000000000000e+00 2.221922671878e+07 2.737848549876e+07  7.695835684263e-04
9.370000000000e+02 4.525201002276e+06 1.000000000000e+00 5.288417531801e+01 2.558701655084e-04 1.051784206403e-02 -3.861255718343e+07 -1.100764106209e+04 -7.223624076636e+06 -2.051088756966e+07 -7.349966507564e-05 -3.590009794060e-08 7.253946609649e-04 0.000000000000e+00 2.211568960991e+07 2.728999507631e+07  7.647979363320e-04
1.000000000000e+03 4.529391016052e+06 1.000000000000e+00 5.259531212533e+01 2.577121582972e-04 1.043834153193e-02 -3.850734906900e+07 -1.100887310704e+04 -7.210316998749e+06 -2.037407202286e+07 -7.467365542104e-05 -3.599162127963e-08 7.208072035479e-04 0.000000000000e+00 2.203057936353e+07 2.721768842448e+07  7.608971626504e-04
1.100000000000e+03 4.533536316160e+06 1.000000000000e+00 5.229971020815e+01 2.598705692776e-04 1.035516851017e-02 -3.839912780599e+07 -1.100802649917e+04 -7.197130866255e+06 -2.023405378565e+07 -7.585468589121e-05 -3.592873040935e-08 7.160962968015e-04 0.000000000000e+00 2.194343748596e+07 2.714310790475e+07  7.568798472669e-04
1.200000000000e+03 4.536797682875e+06 1.000000000000e+00 5.204965271686e+01 2.614927166382e-04 1.028604989487e-02 -3.830800075149e+07 -1.100880794993e+04 -7.185685173669e+06 -2.011562670622e+07 -7.686868681718e-05 -3.598678103712e-08 7.121227024331e-04 0.000000000000e+00 2.186977087713e+07 2.708085223481e+07  7.535034699372e-04
1.300000000000e+03 4.539703052077e+06 1.000000000000e+00 5.181069984558e+01 2.629823521729e-04 1.022026191270e-02 -3.822111067721e+07 -1.100900783643e+04 -7.174816475261e+06 -2.000253041825e+07 -7.784206046866e-05 -3.600162974798e-08 7.083256776778e-04 0.000000000000e+00 2.179948585691e+07 2.702165818856e+07  7.502814046459e-04
1.400000000000e+03 4.542442562524e+06 1.000000000000e+00 5.156544378992e+01 2.645472704774e-04 1.015228474837e-02 -3.813198613021e+07 -1.100915706072e+04 -7.164018871386e+06 -1.988657899268e+07 -7.883848738671e-05 -3.601271498149e-08 7.044199643007e-04 0.000000000000e+00 2.172752799809e+07 2.696084328250e+07  7.469661314678e-04
1.500000000000e+03 4.545082446453e+06 1.000000000000e+00 5.130381469185e+01 2.663078667624e-04 1.007889823310e-02 -3.803690298046e+07 -1.100845319865e+04 -7.153047847560e+06 -1.976305738989e+07 -7.989477278554e-05 -3.596042808465e-08 7.002395142247e-04 0.000000000000e+00 2.165100273930e+07 2.689571534940e+07  7.434137695550e-04
1.600000000000e+03 4.547643486991e+06 1.000000000000e+00 5.101967084497e+01 2.683367503603e-04 9.998129489744e-03 -3.793359588623e+07 -1.100881206857e+04 -7.141772647844e+06 -1.962909718549e+07 -8.103331687756e-05 -3.598708699278e-08 6.956826426224e-04 0.000000000000e+00 2.156815523986e+07 2.682466264748e+07  7.395364856458e-04
1.700000000000e+03 4.550130771773e+06 1.000000000000e+00 5.070922120887e+01 2.706792067620e-04 9.908756525309e-03 -3.782067229760e+07 -1.100876692256e+04 -7.130124727971e+06 -1.948293318839e+07 -8.226796062068e-05 -3.598373328959e-08 6.906863311824e-04 0.000000000000e+00 2.147791007132e+07 2.674672867640e+07  7.352802086323e-04
1.800000000000e+03 4.552544175198e+06 1.000000000000e+00 5.037017770211e+01 2.733627507742e-04 9.810043194207e-03 -3.769729205905e+07 -1.100843245860e+04 -7.118058285490e+06 -1.932349878351e+07 -8.360711537008e-05 -3.595888739490e-08 6.852126640075e-04 0.000000000000e+00 2.137961637601e+07 2.666138895833e+07  7.306128953068e-04
1.900000000000e+03 4.554883463307e+06 1.000000000000e+00 5.000125366953e+01 2.764029856210e-04 9.701571701526e-03 -3.756298908941e+07 -1.100865508009e+04 -7.105563011007e+06 -1.915020072493e+07 -8.505550438765e-05 -3.597542499179e-08 6.792399891698e-04 0.000000000000e+00 2.127291760845e+07 2.656839855428e+07  7.255167161932e-04
2.000000000000e+03 4.557147803229e+06 1.000000000000e+00 4.960184698452e+01 2.798065357095e-04 9.583152145181e-03 -3.741753544592e+07 -1.100865151619e+04 -7.092618610487e+06 -1.896275379768e+07 -8.661525492770e-05 -3.597516024504e-08 6.727584667483e-04 0.000000000000e+00 2.115763595136e+07 2.646771980418e+07  7.199842407668e-04