 TITLE = "Time curves in points"
 VARIABLES = "TIME"  "PRESSURE1"  "SATURATION1"  "TEMPERATURE1"  "DISPLACEMENT_X1"  "DISPLACEMENT_Y1"  "STRESS_XX"  "STRESS_XY"  "STRESS_YY"  "STRESS_ZZ"  "STRAIN_XX"  "STRAIN_XY"  "STRAIN_YY"  "STRAIN_PLS"  p_(1st_Invariant)  q_(2nd_Invariant)   Effective_Strain
 ZONE T="POINT=POINT12"
0.000000000000e+00 1.000000000000e+05 9.737398629779e-01 2.500000000000e+01 0.000000000000e+00 0.000000000000e+00 3.304572143556e+04 5.605493944878e+02 -4.446166165700e+06 1.775888667205e+05 0.000000000000e+00 0.000000000000e+00 0.000000000000e+00 0.000000000000e+00 1.411843859181e+06 4.553204604223e+06  0.000000000000e+00
1.000000000000e-03 1.349371324694e+05 9.738732786163e-01 2.500485102010e+01 -1.117395388700e-04 6.277174914271e-05 1.590150418508e+06 4.709232200273e+02 -5.897509073721e+06 1.801232439532e+05 6.215913484026e-04 -7.062860149140e-07 -3.370009390518e-04 0.000000000000e+00 1.375745137086e+06 6.891691999212e+06  8.422729972928e-04
2.000000000000e-03 1.587039335969e+05 9.739761399314e-01 2.502571714086e+01 -1.052621312382e-04 6.219510667698e-05 1.393239638581e+06 3.748150147493e+02 -5.911777659668e+06 7.412456673473e+04 5.970529153825e-04 -1.044873519495e-06 -3.033918776927e-04 0.000000000000e+00 1.481471151451e+06 6.742935881626e+06  7.935131351014e-04
3.000000000000e-03 1.749406480237e+05 9.740586587527e-01 2.507433594527e+01 -9.875275401633e-05 6.172228664603e-05 1.191041603942e+06 3.360701034287e+02 -5.934978279078e+06 -4.104438092737e+04 5.682289075627e-04 -1.181677155997e-06 -2.697207845478e-04 0.000000000000e+00 1.594993685354e+06 6.596842150634e+06  7.408783495556e-04
4.000000000000e-03 1.860499874853e+05 9.741275031931e-01 2.515657108597e+01 -9.223170801971e-05 6.121149610611e-05 9.854028114863e+05 3.199128167921e+02 -5.968237644634e+06 -1.661200091415e+05 5.369514992488e-04 -1.238763206601e-06 -2.360298881121e-04 0.000000000000e+00 1.716318280763e+06 6.455373345887e+06  6.861255180504e-04
1.000000000000e-02 2.024129106506e+05 9.744040863014e-01 2.619876091244e+01 -8.165991057940e-05 5.841678542894e-05 7.079390096654e+05 3.053789285033e+02 -6.215816484634e+06 -5.453101738268e+05 4.661025221130e-04 -1.291340649039e-06 -1.974931440681e-04 0.000000000000e+00 2.017729216265e+06 6.389979109559e+06  5.901797677879e-04
2.000000000000e-02 2.009420820042e+05 9.748046987947e-01 2.806247193986e+01 -6.851823976385e-05 5.659969594778e-05 3.781894861463e+05 2.958654861533e+02 -6.649584513581e+06 -1.141655084686e+06 3.715040655445e-04 -1.328161676084e-06 -1.551883379920e-04 0.000000000000e+00 2.471016704040e+06 6.404561734796e+06  4.687825524636e-04
3.000000000000e-02 1.910250440631e+05 9.752023033804e-01 2.971088041292e+01 -5.588094569243e-05 5.695363956536e-05 5.804667417227e+04 2.874766424072e+02 -7.026747751916e+06 -1.681090883335e+06 2.824568796270e-04 -1.362284353862e-06 -1.125361793891e-04 0.000000000000e+00 2.883263987026e+06 6.395113734576e+06  3.524747736384e-04
4.000000000000e-02 1.778581546801e+05 9.756055980516e-01 3.110941615501e+01 -4.359051041021e-05 5.964021610071e-05 -2.541493440935e+05 2.808699467431e+02 -7.336012256753e+06 -2.154093418827e+06 1.960078149843e-04 -1.389796050730e-06 -6.960795158290e-05 0.000000000000e+00 3.248085006558e+06 6.348813003900e+06  2.385661911356e-04
5.000000000000e-02 1.637479270978e+05 9.760162346351e-01 3.229341252469e+01 -3.190561710922e-05 6.332477769313e-05 -5.533803357426e+05 2.725304274302e+02 -7.591493110070e+06 -2.569025995098e+06 1.177286969080e-04 -1.424357679298e-06 -2.688481316226e-05 0.000000000000e+00 3.571299813637e+06 6.277859317269e+06  1.332442856525e-04
6.000000000000e-02 1.494258948361e+05 9.764364605871e-01 3.330569315258e+01 -2.068950050674e-05 6.932491588316e-05 -8.420720795049e+05 2.658422967842e+02 -7.801664280998e+06 -2.936569985888e+06 4.575258201914e-05 -1.453258302848e-06 1.571252506334e-05 0.000000000000e+00 3.860102115464e+06 6.184334564659e+06  4.034389040091e-05
7.000000000000e-02 1.357749870608e+05 9.768612744592e-01 3.418246247047e+01 -9.741694270030e-06 7.534319356280e-05 -1.125475453062e+06 2.592912786560e+02 -7.979219444274e+06 -3.268567219991e+06 -2.428520619916e-05 -1.481510935035e-06 5.775317440112e-05 0.000000000000e+00 4.124420705776e+06 6.072762707371e+06  7.303651666449e-05
8.000000000000e-02 1.234585053864e+05 9.772914050891e-01 3.495181610614e+01 9.883002702846e-07 8.214476578234e-05 -1.404295155782e+06 2.504358844916e+02 -8.128650397191e+06 -3.571486064291e+06 -9.272046059770e-05 -1.518992035121e-06 9.927958609789e-05 0.000000000000e+00 4.368143872421e+06 5.944805168379e+06  1.663300664058e-04
9.000000000000e-02 1.133681070495e+05 9.777279512532e-01 3.563501316121e+01 1.147434720028e-05 8.833269195360e-05 -1.678779092977e+06 2.432520765457e+02 -8.259908460808e+06 -3.852104663800e+06 -1.593398628103e-04 -1.550215937766e-06 1.400010320291e-04 0.000000000000e+00 4.596930739195e+06 5.807897315762e+06  2.594309842613e-04
1.000000000000e-01 1.065002133066e+05 9.781766104707e-01 3.624818141010e+01 2.167761417030e-05 9.387281411645e-05 -1.948628179487e+06 2.381397750563e+02 -8.377042445656e+06 -4.114346413119e+06 -2.238825773064e-04 -1.571308757602e-06 1.804103819092e-04 0.000000000000e+00 4.813339012754e+06 5.665042950016e+06  3.508125747893e-04
2.000000000000e-01 1.288233450336e+05 9.818831375586e-01 3.976317113285e+01 6.317403591012e-05 1.887012489490e-04 -2.724595479454e+06 1.888988945082e+02 -8.720618882433e+06 -5.116246041511e+06 -4.431206437081e-04 -1.790264541552e-06 2.286592380835e-04 0.000000000000e+00 5.520486801133e+06 5.227991624445e+06  5.915861695070e-04
3.000000000000e-01 1.602312300801e+05 9.852101015785e-01 4.209349331099e+01 9.893699596750e-05 2.983779479295e-04 -3.397044943647e+06 1.350588762928e+02 -8.755385678115e+06 -5.780113725475e+06 -6.066596085253e-04 -2.039520088748e-06 2.736042789428e-04 0.000000000000e+00 5.977514782412e+06 4.649896533644e+06  7.803155296114e-04
4.000000000000e-01 1.921149592165e+05 9.880119235020e-01 4.379251978629e+01 1.295072987734e-04 4.038075815800e-04 -3.996521302920e+06 8.483579308354e+01 -8.686463985518e+06 -6.275841754008e+06 -7.462936211995e-04 -2.285014291213e-06 3.172119269264e-04 0.000000000000e+00 6.319609014148e+06 4.062140056118e+06  9.456883615293e-04
5.000000000000e-01 2.223034531660e+05 9.901792853826e-01 4.511244472643e+01 1.577776209261e-04 5.062375343023e-04 -4.585661881239e+06 4.346557258805e+01 -8.553776244269e+06 -6.681365365875e+06 -9.260071492439e-04 -2.500600707166e-06 3.652773391638e-04 0.000000000000e+00 6.606934497127e+06 3.438300975952e+06  1.152902841306e-03
6.000000000000e-01 2.502300358423e+05 9.919296612557e-01 4.618195153606e+01 1.821103131371e-04 6.061073951047e-04 -5.129684564600e+06 2.156958685334e+01 -8.394362951178e+06 -7.018996869203e+06 -1.117523058981e-03 -2.638937638277e-06 4.259002440646e-04 0.000000000000e+00 6.847681461660e+06 2.838948556627e+06  1.380660364025e-03
7.000000000000e-01 2.760379048834e+05 9.933607485649e-01 4.707675917791e+01 2.030223463073e-04 7.036075334425e-04 -5.632298935409e+06 1.661724572373e+01 -8.228614241184e+06 -7.309460807110e+06 -1.308155681238e-03 -2.704504409690e-06 4.851951852887e-04 0.000000000000e+00 7.056791327901e+06 2.280193867626e+06  1.606679319391e-03
8.000000000000e-01 2.999799997830e+05 9.944835302632e-01 4.784238104847e+01 2.209656607079e-04 7.988988616426e-04 -6.087299727156e+06 3.238861270904e+01 -8.069191940195e+06 -7.562738335180e+06 -1.485290298384e-03 -2.679909560505e-06 5.288873327901e-04 0.000000000000e+00 7.239743334177e+06 1.783439246299e+06  1.808696174413e-03
9.000000000000e-01 3.221762364192e+05 9.953957013209e-01 4.850921061954e+01 2.368212446715e-04 8.919495941851e-04 -6.518633221844e+06 6.011080806008e+01 -7.905311395383e+06 -7.788663030653e+06 -1.675848349801e-03 -2.598756070654e-06 5.774662759488e-04 0.000000000000e+00 7.404202549293e+06 1.332189726523e+06  2.027239787890e-03
1.000000000000e+00 3.427987573409e+05 9.961320752210e-01 4.909797408547e+01 2.509123081921e-04 9.828141799445e-04 -6.931458842679e+06 1.095036416931e+02 -7.741595550356e+06 -7.994187064720e+06 -1.884812276714e-03 -2.420382869189e-06 6.313934514959e-04 0.000000000000e+00 7.555747152585e+06 9.616432041366e+05  2.267432625817e-03
2.000000000000e+00 4.782567267200e+05 9.988221752037e-01 5.228561077473e+01 3.220623569322e-04 1.736077410224e-03 -9.645166210425e+06 5.608704575379e+02 -6.214751615682e+06 -9.010020528055e+06 -4.047241850925e-03 -6.191050859019e-07 8.975044023355e-04 0.000000000000e+00 8.289979451387e+06 3.161066632451e+06  4.562685533815e-03
3.000000000000e+00 5.822587995479e+05 9.997920353832e-01 5.432796100527e+01 3.715637295190e-04 2.378776782359e-03 -1.200119908866e+07 1.651008440777e+03 -4.869605394294e+06 -9.763236302108e+06 -6.186273533337e-03 4.116394966900e-06 1.143088081580e-03 0.000000000000e+00 8.878013595019e+06 6.317267837931e+06  6.829944141132e-03
4.000000000000e+00 6.688184904294e+05 1.000000000000e+00 5.581044508543e+01 4.108687835977e-04 2.939113544008e-03 -1.407701005975e+07 2.790188778820e+03 -3.682694598645e+06 -1.037229852124e+07 -8.175795603002e-03 9.124165691612e-06 1.359559317119e-03 0.000000000000e+00 9.377334393211e+06 9.124624070081e+06  8.933519133967e-03
5.000000000000e+00 7.447381124599e+05 1.000000000000e+00 5.699682313759e+01 4.451193598634e-04 3.436432238360e-03 -1.594714131346e+07 3.941611243473e+03 -2.635386527031e+06 -1.090195063011e+07 -1.001396247573e-02 1.419994837662e-05 1.550905978038e-03 0.000000000000e+00 9.828159490201e+06 1.164029509535e+07  1.087272150849e-02
6.000000000000e+00 8.135002017407e+05 1.000000000000e+00 5.803373604215e+01 4.761971828639e-04 3.885171943617e-03 -1.765161155179e+07 4.913863213450e+03 -1.705063057016e+06 -1.138424704662e+07 -1.171090994309e-02 1.849638272178e-05 1.723416786116e-03 0.000000000000e+00 1.024697388514e+07 1.391508200331e+07  1.266093923210e-02
7.000000000000e+00 8.773078091200e+05 1.000000000000e+00 5.888973999461e+01 5.026731974994e-04 4.292389999573e-03 -1.915358876491e+07 5.608272539810e+03 -8.645880327164e+05 -1.179295468191e+07 -1.321566720246e-02 2.155897804625e-05 1.874886889809e-03 0.000000000000e+00 1.060371049318e+07 1.593888120637e+07  1.424599368251e-02
8.000000000000e+00 9.368579986811e+05 1.000000000000e+00 5.971951478020e+01 5.271439847510e-04 4.667809676979e-03 -2.053301506942e+07 6.148584768639e+03 -1.128094283334e+05 -1.218195223168e+07 -1.460288737807e-02 2.394925275923e-05 2.011223245242e-03 0.000000000000e+00 1.094259224315e+07 1.778186553462e+07  1.570543619138e-02
9.000000000000e+00 9.932402727675e+05 1.000000000000e+00 6.047163838602e+01 5.489768705323e-04 5.015924802407e-03 -2.178487580519e+07 6.541857746626e+03 5.720263432999e+05 -1.253392097688e+07 -1.586438292741e-02 2.568578420040e-05 2.134633926710e-03 0.000000000000e+00 1.124892347959e+07 1.945735530393e+07  1.703237907546e-02
1.000000000000e+01 1.046949716293e+06 1.000000000000e+00 6.114961432683e+01 5.695810561666e-04 5.340093286265e-03 -2.295188000869e+07 6.896075266493e+03 1.208290032909e+06 -1.285847874803e+07 -1.704371124289e-02 2.725268567391e-05 2.247932245466e-03 0.000000000000e+00 1.153402290794e+07 2.101743127406e+07  1.827174399238e-02
1.100000000000e+01 1.098279334915e+06 1.000000000000e+00 6.178708134755e+01 5.879047743156e-04 5.643934998985e-03 -2.401787507303e+07 6.846056185370e+03 1.794431688119e+06 -1.315660482408e+07 -1.812376983886e-02 2.702944312703e-05 2.351183940554e-03 0.000000000000e+00 1.179334940300e+07 2.244745136705e+07  1.940653517386e-02
1.200000000000e+01 1.147630380353e+06 1.000000000000e+00 6.236752245958e+01 6.045848594691e-04 5.929414912893e-03 -2.500348347891e+07 7.034962175452e+03 2.339790221761e+06 -1.342958177873e+07 -1.912467678726e-02 2.786350359798e-05 2.445827975713e-03 0.000000000000e+00 1.203109167863e+07 2.377270711835e+07  2.045759847443e-02
1.300000000000e+01 1.195264018703e+06 1.000000000000e+00 6.289298058676e+01 6.204967613029e-04 6.198132686556e-03 -2.593372279145e+07 7.168933272769e+03 2.855103154455e+06 -1.368304115527e+07 -2.007188534937e-02 2.845577164983e-05 2.533866881533e-03 0.000000000000e+00 1.225388693075e+07 2.502385087737e+07  2.145140968751e-02
1.400000000000e+01 1.241898008649e+06 1.000000000000e+00 6.336737619028e+01 6.357869724569e-04 6.451626335047e-03 -2.681559571397e+07 7.227954276518e+03 3.344243405192e+06 -1.391889180933e+07 -2.097224633143e-02 2.871599938955e-05 2.616265591354e-03 0.000000000000e+00 1.246341470604e+07 2.621027487640e+07  2.239534331299e-02
1.500000000000e+01 1.287086066045e+06 1.000000000000e+00 6.379459155144e+01 6.493334341978e-04 6.690834495920e-03 -2.762719240087e+07 7.024830083561e+03 3.799493925436e+06 -1.413273410228e+07 -2.180285729719e-02 2.781457271673e-05 2.692426212075e-03 0.000000000000e+00 1.265347752590e+07 2.730661198640e+07  2.326625562194e-02
1.600000000000e+01 1.330967366046e+06 1.000000000000e+00 6.417813460760e+01 6.617905193710e-04 6.916763632607e-03 -2.838367590193e+07 6.942280744803e+03 4.229422513252e+06 -1.432777837772e+07 -2.257898821142e-02 2.744709093750e-05 2.762915757086e-03 0.000000000000e+00 1.282734392213e+07 2.833330582132e+07  2.407967014867e-02
1.700000000000e+01 1.373681660743e+06 1.000000000000e+00 6.452110640142e+01 6.738934181889e-04 7.130301080792e-03 -2.910440442121e+07 6.865391582143e+03 4.640705913234e+06 -1.450910529087e+07 -2.331992079966e-02 2.710629891206e-05 2.829260971978e-03 0.000000000000e+00 1.299093459961e+07 2.931271720723e+07  2.485565870768e-02
1.800000000000e+01 1.415363601907e+06 1.000000000000e+00 6.482622665961e+01 6.857418125919e-04 7.332238454090e-03 -2.979234182164e+07 6.750168846097e+03 5.035807101409e+06 -1.467746819746e+07 -2.402812514702e-02 2.659582712641e-05 2.891547259550e-03 0.000000000000e+00 1.314466763923e+07 3.024956907527e+07  2.559672684290e-02
1.900000000000e+01 1.456105669480e+06 1.000000000000e+00 6.509588653669e+01 6.974540221681e-04 7.523264471671e-03 -3.045238926237e+07 6.606261474151e+03 5.415844982657e+06 -1.483461596676e+07 -2.470848412257e-02 2.595798572808e-05 2.950269570299e-03 0.000000000000e+00 1.329038674883e+07 3.114904895088e+07  2.630802137103e-02
2.000000000000e+01 1.495992375948e+06 1.000000000000e+00 6.533218991584e+01 7.083660751673e-04 7.704004795011e-03 -3.107097582041e+07 6.170390959062e+03 5.777140619514e+06 -1.497744237186e+07 -2.534704455147e-02 2.402487835596e-05 3.004996683707e-03 0.000000000000e+00 1.342375919092e+07 3.199639391883e+07  2.697539969985e-02
2.100000000000e+01 1.534950182382e+06 1.000000000000e+00 6.558585634315e+01 7.187805975553e-04 7.876722779058e-03 -3.165898492312e+07 5.977213632101e+03 6.114837707392e+06 -1.512000268900e+07 -2.595385621876e-02 2.316981391805e-05 3.056472345544e-03 0.000000000000e+00 1.355471663491e+07 3.279724279940e+07  2.760930151483e-02
2.200000000000e+01 1.573137018867e+06 1.000000000000e+00 6.582320177682e+01 7.290497147138e-04 8.041830284752e-03 -3.222613027108e+07 5.752878142062e+03 6.440203588545e+06 -1.525627363853e+07 -2.653939086997e-02 2.217711954089e-05 3.105730026271e-03 0.000000000000e+00 1.368073344036e+07 3.356932179023e+07  2.822074565497e-02
2.300000000000e+01 1.610620081282e+06 1.000000000000e+00 6.603970464469e+01 7.385002222314e-04 8.199611126743e-03 -3.275780794787e+07 5.442674500901e+03 6.750872423255e+06 -1.538124401018e+07 -2.708876846148e-02 2.080127524419e-05 3.151935115720e-03 0.000000000000e+00 1.379605984493e+07 3.429804334439e+07  2.879443366986e-02
2.400000000000e+01 1.647440265274e+06 1.000000000000e+00 6.623479066443e+01 7.475532852514e-04 8.350328225654e-03 -3.326442627325e+07 5.201263237276e+03 7.049891155122e+06 -1.549744754386e+07 -2.761277015909e-02 1.973186133090e-05 3.195227417398e-03 0.000000000000e+00 1.390399422066e+07 3.499494511791e+07  2.934117929513e-02
2.500000000000e+01 1.683655739378e+06 1.000000000000e+00 6.640880618128e+01 7.563421587818e-04 8.494242643977e-03 -3.375026901865e+07 4.916743555652e+03 7.338173648510e+06 -1.560611371505e+07 -2.811586758806e-02 1.847130835772e-05 3.236339557171e-03 0.000000000000e+00 1.400606969506e+07 3.566448485652e+07  2.986585712793e-02
2.600000000000e+01 1.719304090802e+06 1.000000000000e+00 6.656235442298e+01 7.648566520543e-04 8.631599530534e-03 -3.421572452679e+07 4.672606450121e+03 7.615640741222e+06 -1.570750159416e+07 -2.859822506508e-02 1.738937622918e-05 3.275332537001e-03 0.000000000000e+00 1.410252845991e+07 3.630693140232e+07  3.036866615985e-02
2.700000000000e+01 1.754414724687e+06 1.000000000000e+00 6.669611482876e+01 7.732580270452e-04 8.762637629164e-03 -3.466465949348e+07 4.430506206559e+03 7.884339505631e+06 -1.580243069762e+07 -2.906376702462e-02 1.631642202269e-05 3.312409536274e-03 0.000000000000e+00 1.419425022849e+07 3.692738950571e+07  3.085363039136e-02
2.800000000000e+01 1.789029777743e+06 1.000000000000e+00 6.681076908106e+01 7.816508245108e-04 8.887572334670e-03 -3.510007206535e+07 4.173514240428e+03 8.145697784364e+06 -1.589159614512e+07 -2.951555468346e-02 1.517795897647e-05 3.348183302890e-03 0.000000000000e+00 1.428199014203e+07 3.752967999487e+07  3.132415167535e-02
2.900000000000e+01 1.823176496980e+06 1.000000000000e+00 6.690697369537e+01 7.900849447625e-04 9.006616323687e-03 -3.552332014483e+07 3.901413492576e+03 8.399833217380e+06 -1.597554261695e+07 -2.995436851109e-02 1.397336822350e-05 3.382248005195e-03 0.000000000000e+00 1.436634318147e+07 3.811507605890e+07  3.178077222748e-02
3.000000000000e+01 1.856860334171e+06 1.000000000000e+00 6.698535614097e+01 7.985295515379e-04 9.119967292155e-03 -3.593436131402e+07 3.657440698660e+03 8.647369628757e+06 -1.605419920218e+07 -3.038087009386e-02 1.289206039757e-05 3.415119641253e-03 0.000000000000e+00 1.444706362915e+07 3.868409985005e+07  3.222444901958e-02
3.100000000000e+01 1.890005249946e+06 1.000000000000e+00 6.708519226011e+01 8.070410944136e-04 9.229179459066e-03 -3.633748355583e+07 3.383038942427e+03 8.882202055161e+06 -1.613773818740e+07 -3.079837989664e-02 1.167610362819e-05 3.447232467229e-03 0.000000000000e+00 1.453100656269e+07 3.923548877049e+07  3.265873849451e-02
3.200000000000e+01 1.922693061172e+06 1.000000000000e+00 6.717904474686e+01 8.157480745401e-04 9.334354867876e-03 -3.673540174040e+07 3.101112362274e+03 9.112509081389e+06 -1.621980111757e+07 -3.120990520087e-02 1.042721297885e-05 3.478625869112e-03 0.000000000000e+00 1.461423125886e+07 3.977842878593e+07  3.308665789059e-02
3.300000000000e+01 1.954949683954e+06 1.000000000000e+00 6.726264363772e+01 8.246666267485e-04 9.435554705148e-03 -3.712944349143e+07 2.819018178344e+03 9.339799944742e+06 -1.629962406754e+07 -3.161692446937e-02 9.178784803331e-06 3.509574811752e-03 0.000000000000e+00 1.469642253807e+07 4.031533253072e+07  3.350983799952e-02
3.400000000000e+01 1.986797246050e+06 1.000000000000e+00 6.733494671336e+01 8.337506968525e-04 9.532805767309e-03 -3.751821531836e+07 2.558292448351e+03 9.563642604483e+06 -1.637670191944e+07 -3.201788877761e-02 8.020736446911e-06 3.539344584526e-03 0.000000000000e+00 1.477709154444e+07 4.084462294815e+07  3.392631273971e-02
3.500000000000e+01 2.018278015524e+06 1.000000000000e+00 6.739570877738e+01 8.433640410810e-04 9.626169020289e-03 -3.791063106453e+07 2.265817861971e+03 9.786795240398e+06 -1.645315907188e+07 -3.242219919888e-02 6.726037200801e-06 3.569132230667e-03 0.000000000000e+00 1.485899829867e+07 4.137633873087e+07  3.434613453710e-02
3.600000000000e+01 2.049434059600e+06 1.000000000000e+00 6.744495446282e+01 8.539060296116e-04 9.715699176722e-03 -3.831518316026e+07 2.019092227908e+03 1.001153601109e+07 -1.653118210373e+07 -3.283781076957e-02 5.632270772057e-06 3.598771908328e-03 0.000000000000e+00 1.494494308430e+07 4.191974712042e+07  3.477713130035e-02
3.700000000000e+01 2.080353415110e+06 1.000000000000e+00 6.748283023127e+01 8.668481368931e-04 9.801444905017e-03 -3.876675483386e+07 2.274766645432e+03 1.024669248808e+07 -1.661989236841e+07 -3.329986784500e-02 6.764122559788e-06 3.630728283358e-03 0.000000000000e+00 1.504665157140e+07 4.251243905224e+07  3.525572713246e-02
3.800000000000e+01 2.113298548489e+06 1.000000000000e+00 6.750986996814e+01 9.280486203152e-04 9.883189430603e-03 -4.033315507766e+07 1.900140365592e+04 1.075888750604e+07 -1.699904801883e+07 -3.487583351860e-02 8.089254734797e-05 3.727849779542e-03 0.000000000000e+00 1.552443853015e+07 4.430227149104e+07  3.688159604332e-02
3.900000000000e+01 2.143157947788e+06 1.000000000000e+00 6.752535725930e+01 9.256562341151e-04 9.962073783573e-03 -4.040183418706e+07 -9.356825843798e+02 1.090459373487e+07 -1.698137013591e+07 -3.494831154460e-02 -7.468689052976e-06 3.737719995532e-03 0.000000000000e+00 1.549287019603e+07 4.448873266758e+07  3.695919643062e-02
4.000000000000e+01 2.172544101843e+06 1.000000000000e+00 6.752988574847e+01 9.204234397780e-04 1.003701598499e-02 -4.040138161982e+07 -9.365545495237e+02 1.102437938957e+07 -1.694623040821e+07 -3.495228613881e-02 -7.472094637968e-06 3.744176484170e-03 0.000000000000e+00 1.544107754615e+07 4.459320593699e+07  3.696686163578e-02
4.200000000000e+01 2.229827605393e+06 1.000000000000e+00 6.757085467195e+01 9.108092196194e-04 1.017736171026e-02 -4.040097893307e+07 -9.365423944459e+02 1.124194659216e+07 -1.688830180049e+07 -3.495950782072e-02 -7.472061700724e-06 3.756347098099e-03 0.000000000000e+00 1.534911138047e+07 4.478363887984e+07  3.698104303338e-02
4.400000000000e+01 2.285593809495e+06 1.000000000000e+00 6.759066828649e+01 9.019910469753e-04 1.030820132462e-02 -4.040018133041e+07 -9.359308572115e+02 1.145062754437e+07 -1.682916796728e+07 -3.496625417086e-02 -7.469919381331e-06 3.767748126272e-03 0.000000000000e+00 1.525957391777e+07 4.496579750972e+07  3.699431122103e-02
5.000000000000e+01 2.437116678573e+06 1.000000000000e+00 6.734086521760e+01 8.840938667415e-04 1.058190161740e-02 -4.039333213597e+07 -9.361807878662e+02 1.196525495047e+07 -1.662907053430e+07 -3.498165826895e-02 -7.470787058849e-06 3.791754343637e-03 0.000000000000e+00 1.501904923994e+07 4.540813377771e+07  3.702344984432e-02
6.500000000000e+01 2.768502507756e+06 1.000000000000e+00 6.648644605861e+01 8.608802342293e-04 1.104624060647e-02 -4.037020499695e+07 -9.363629313915e+02 1.299365924203e+07 -1.616320137677e+07 -3.500693786884e-02 -7.471458209002e-06 3.834643561360e-03 0.000000000000e+00 1.451324904389e+07 4.628068472478e+07  3.707329883576e-02
8.000000000000e+01 3.023556374630e+06 1.000000000000e+00 6.542969247624e+01 8.541273991992e-04 1.126660499478e-02 -4.034575290913e+07 -9.371567701933e+02 1.367788848398e+07 -1.576408427885e+07 -3.502053635033e-02 -7.474717629195e-06 3.856401480712e-03 0.000000000000e+00 1.414398290133e+07 4.684891688960e+07  3.709936946224e-02
1.000000000000e+02 3.324236305531e+06 1.000000000000e+00 6.427463271857e+01 8.523635495643e-04 1.145109127174e-02 -4.031847530076e+07 -9.363349983628e+02 1.434095242017e+07 -1.535293724200e+07 -3.503157640841e-02 -7.471635220295e-06 3.875606949930e-03 0.000000000000e+00 1.377682004086e+07 4.739545451767e+07  3.712142862768e-02
1.860000000000e+02 3.922717201764e+06 1.000000000000e+00 6.153628170521e+01 8.657006804195e-04 1.167041742619e-02 -4.025274707806e+07 -9.363207005885e+02 1.562351703954e+07 -1.446417186934e+07 -3.504560982275e-02 -7.471851918773e-06 3.905566574605e-03 0.000000000000e+00 1.303113396928e+07 4.843798371203e+07  3.715267618777e-02
2.720000000000e+02 4.213038211969e+06 1.000000000000e+00 5.948547595359e+01 8.915827966654e-04 1.150232738131e-02 -4.021149075746e+07 -9.366780255036e+02 1.595467232334e+07 -1.398959026695e+07 -3.504110475140e-02 -7.473143277106e-06 3.894685555488e-03 0.000000000000e+00 1.274880290035e+07 4.867691859544e+07  3.714191499966e-02
3.580000000000e+02 4.354403691727e+06 1.000000000000e+00 5.805270967561e+01 9.135200146805e-04 1.132643519906e-02 -4.018323127988e+07 -9.363628981189e+02 1.609015322548e+07 -1.368687197066e+07 -3.503494823769e-02 -7.471914663710e-06 3.881973293935e-03 0.000000000000e+00 1.259331667502e+07 4.876177855207e+07  3.712845560449e-02
4.440000000000e+02 4.426532453840e+06 1.000000000000e+00 5.696357475614e+01 9.316769278368e-04 1.116184632075e-02 -4.016250136231e+07 -9.363096064225e+02 1.613441853084e+07 -1.347458352662e+07 -3.502887603953e-02 -7.471833861057e-06 3.869201598414e-03 0.000000000000e+00 1.250088878603e+07 4.877643465834e+07  3.711504854165e-02
5.300000000000e+02 4.465496889446e+06 1.000000000000e+00 5.612699021294e+01 9.464018791280e-04 1.101919980891e-02 -4.014697533611e+07 -9.358131428600e+02 1.613747569344e+07 -1.332091487238e+07 -3.502347908816e-02 -7.470231481016e-06 3.857753525679e-03 0.000000000000e+00 1.244347150502e+07 4.876153057321e+07  3.710307894300e-02
6.160000000000e+02 4.488012314786e+06 1.000000000000e+00 5.549026067416e+01 9.580698809645e-04 1.090097581139e-02 -4.013539716569e+07 -9.362897570591e+02 1.612128671563e+07 -1.320957832591e+07 -3.501893447925e-02 -7.471918575907e-06 3.848060347956e-03 0.000000000000e+00 1.240789625865e+07 4.873455576314e+07  3.709297077870e-02
7.020000000000e+02 4.501822576458e+06 1.000000000000e+00 5.502246718042e+01 9.668256763317e-04 1.081028740637e-02 -4.012699161422e+07 -9.359888748074e+02 1.610178756124e+07 -1.313009155448e+07 -3.501541904933e-02 -7.471291590280e-06 3.840536556241e-03 0.000000000000e+00 1.238509853582e+07 4.870837187944e+07  3.708513794759e-02
7.880000000000e+02 4.511441113274e+06 1.000000000000e+00 5.465670951073e+01 9.740870759335e-04 1.072856700309e-02 -4.012076397942e+07 -9.361744569990e+02 1.606444488059e+07 -1.307467516295e+07 -3.501221499915e-02 -7.471852099956e-06 3.833487577580e-03 0.000000000000e+00 1.237699808726e+07 4.866907096443e+07  3.707788943430e-02
8.740000000000e+02 4.519827167133e+06 1.000000000000e+00 5.406599893403e+01 9.851388109138e-04 1.061303886702e-02 -4.011013607587e+07 -9.358133367071e+02 1.604053115881e+07 -1.297408569256e+07 -3.500778753326e-02 -7.470910818677e-06 3.824024129114e-03 0.000000000000e+00 1.234789686987e+07 4.863697491411e+07  3.706803394019e-02
9.370000000000e+02 4.525201002277e+06 1.000000000000e+00 5.365779407733e+01 9.936376983377e-04 1.051808372440e-02 -4.010304021927e+07 -9.358668403069e+02 1.599741679611e+07 -1.291260915684e+07 -3.500399577133e-02 -7.471071368390e-06 3.816072207731e-03 0.000000000000e+00 1.233941086000e+07 4.859202827909e+07  3.705968253948e-02
1.000000000000e+03 4.529391016052e+06 1.000000000000e+00 5.333501593124e+01 1.000809418954e-03 1.043858344014e-02 -4.009733033670e+07 -9.360795149928e+02 1.595881206035e+07 -1.286530564392e+07 -3.500071674838e-02 -7.471704411959e-06 3.809537175205e-03 0.000000000000e+00 1.233460797342e+07 4.855256963330e+07  3.705265773842e-02
1.100000000000e+03 4.533536316160e+06 1.000000000000e+00 5.301050912482e+01 1.008311808256e-03 1.035541036775e-02 -4.009155240965e+07 -9.357089770494e+02 1.591597430297e+07 -1.281893564327e+07 -3.499722605971e-02 -7.470611273024e-06 3.802749277891e-03 0.000000000000e+00 1.233150458332e+07 4.850945128850e+07  3.704527739810e-02
1.200000000000e+03 4.536797682875e+06 1.000000000000e+00 5.273157995109e+01 1.014537177950e-03 1.028629183514e-02 -4.008661474640e+07 -9.360486452713e+02 1.588220558755e+07 -1.277817891355e+07 -3.499437327361e-02 -7.471754975849e-06 3.797079954615e-03 0.000000000000e+00 1.232752935746e+07 4.847513363684e+07  3.703917625646e-02
1.300000000000e+03 4.539703052078e+06 1.000000000000e+00 5.246375662071e+01 1.020448487904e-03 1.022050390040e-02 -4.008188714203e+07 -9.360609599640e+02 1.585049202218e+07 -1.273883818734e+07 -3.499167588211e-02 -7.471854490420e-06 3.791675170145e-03 0.000000000000e+00 1.232341110240e+07 4.844286930082e+07  3.703338247750e-02
1.400000000000e+03 4.542442562524e+06 1.000000000000e+00 5.218963067332e+01 1.026534968612e-03 1.015252674998e-02 -4.007705289897e+07 -9.360702158894e+02 1.581715908514e+07 -1.269883408341e+07 -3.498888705156e-02 -7.471939244447e-06 3.786096637608e-03 0.000000000000e+00 1.231957596575e+07 4.840915032554e+07  3.702739823382e-02
1.500000000000e+03 4.545082446453e+06 1.000000000000e+00 5.189913200929e+01 1.033079384090e-03 1.007914019176e-02 -4.007193019541e+07 -9.358537963850e+02 1.578002773517e+07 -1.265698027611e+07 -3.498586349106e-02 -7.471399928359e-06 3.780088023247e-03 0.000000000000e+00 1.231629424545e+07 4.837191392557e+07  3.702093354724e-02
1.600000000000e+03 4.547643486992e+06 1.000000000000e+00 5.158611879313e+01 1.040253175319e-03 9.998371484524e-03 -4.006640897993e+07 -9.359987523770e+02 1.573775886768e+07 -1.261255652752e+07 -3.498251828241e-02 -7.471884709563e-06 3.773492490058e-03 0.000000000000e+00 1.231373554659e+07 4.832990560671e+07  3.701381186072e-02
1.700000000000e+03 4.550130771774e+06 1.000000000000e+00 5.124679990711e+01 1.048162482912e-03 9.908998543466e-03 -4.006042168409e+07 -9.359880756226e+02 1.568950117174e+07 -1.256512580999e+07 -3.497879731867e-02 -7.471900279784e-06 3.766211926764e-03 0.000000000000e+00 1.231201544078e+07 4.828234224211e+07  3.700592311065e-02
1.800000000000e+03 4.552544175198e+06 1.000000000000e+00 5.087888722012e+01 1.056871795352e-03 9.810285493209e-03 -4.005392716576e+07 -9.352036793368e+02 1.563475011035e+07 -1.251442144905e+07 -3.497466786158e-02 -7.469154836629e-06 3.758187588624e-03 0.000000000000e+00 1.231119950149e+07 4.822877261869e+07  3.699720119167e-02
1.900000000000e+03 4.554883463307e+06 1.000000000000e+00 5.048109404415e+01 1.066417296181e-03 9.701813719229e-03 -4.004690277422e+07 -9.359569054116e+02 1.557319827345e+07 -1.246030076019e+07 -3.497011116954e-02 -7.471921608852e-06 3.749385208079e-03 0.000000000000e+00 1.231133508699e+07 4.816893877053e+07  3.698760805569e-02
2.000000000000e+03 4.557147803229e+06 1.000000000000e+00 5.005281822980e+01 1.076815238869e-03 9.583394164847e-03 -4.003933772301e+07 -9.359921455123e+02 1.550472993857e+07 -1.240268846098e+07 -3.496511927688e-02 -7.471959805483e-06 3.739790235995e-03 0.000000000000e+00 1.231243208181e+07 4.810276417115e+07  3.697712774430e-02