 TITLE = "Time curves in points"
 VARIABLES = "TIME"  "PRESSURE1"  "SATURATION1"  "TEMPERATURE1"  "DISPLACEMENT_X1"  "DISPLACEMENT_Y1"  "STRESS_XX"  "STRESS_XY"  "STRESS_YY"  "STRESS_ZZ"  "STRAIN_XX"  "STRAIN_XY"  "STRAIN_YY"  "STRAIN_PLS"  p_(1st_Invariant)  q_(2nd_Invariant)   Effective_Strain
 ZONE T="POINT=POINT15"
0.000000000000e+00 1.000000000000e+05 1.000000000000e+00 2.500000000000e+01 0.000000000000e+00 0.000000000000e+00 -3.444049899891e+07 -5.858766693045e+04 -1.446208944789e+07 -1.168309508854e+07 0.000000000000e+00 0.000000000000e+00 0.000000000000e+00 0.000000000000e+00 2.019522784511e+07 2.150325191297e+07  0.000000000000e+00
1.000000000000e-03 1.960039119575e+05 1.000000000000e+00 2.500000003922e+01 0.000000000000e+00 6.243865739175e-05 -3.448773272104e+07 -5.848513165650e+04 -1.449381021439e+07 -1.170678144371e+07 -8.746164868838e-07 7.616906065167e-09 -2.984209918848e-07 0.000000000000e+00 2.022944145971e+07 2.152343758248e+07  7.701812901946e-07
2.000000000000e-03 2.110301634482e+05 1.000000000000e+00 2.499999991814e+01 0.000000000000e+00 6.232561940684e-05 -3.448091915702e+07 -5.857426937631e+04 -1.449155886895e+07 -1.170406194094e+07 -7.225513549362e-07 9.952468794839e-10 -3.158096927397e-07 0.000000000000e+00 2.022551332230e+07 2.151918300217e+07  6.273997710443e-07
3.000000000000e-03 2.214048532335e+05 1.000000000000e+00 2.499999996345e+01 0.000000000000e+00 6.227522215596e-05 -3.447540683617e+07 -5.868026819227e+04 -1.449132120691e+07 -1.170233693469e+07 -5.818796699510e-07 -6.878950877577e-09 -3.710539064965e-07 0.000000000000e+00 2.022302165926e+07 2.151482610538e+07  5.103902301944e-07
4.000000000000e-03 2.285516429807e+05 1.000000000000e+00 2.500000020706e+01 0.000000000000e+00 6.216158268245e-05 -3.447070158521e+07 -5.880926812052e+04 -1.449309535025e+07 -1.170145753405e+07 -4.397766579314e-07 -1.646180269059e-08 -4.696141114205e-07 0.000000000000e+00 2.022175148984e+07 2.150996534652e+07  4.563206886742e-07
1.000000000000e-02 2.383748876322e+05 1.000000000000e+00 2.500562013607e+01 0.000000000000e+00 6.382889331137e-05 -3.443581902055e+07 -6.064924749532e+04 -1.454076358487e+07 -1.170706549567e+07 1.064157175493e-06 -1.531459848185e-07 -2.031852822881e-06 0.000000000000e+00 2.022788270036e+07 2.145298793212e+07  2.737412688474e-06
2.000000000000e-02 2.339019572337e+05 1.000000000000e+00 2.506208476331e+01 0.000000000000e+00 7.446309627911e-05 -3.436712736716e+07 -6.506120696241e+04 -1.466060624377e+07 -1.174086341489e+07 4.870912729645e-06 -4.808915452307e-07 -5.227800296566e-06 0.000000000000e+00 2.025619900861e+07 2.131718897011e+07  8.787127847482e-06
3.000000000000e-02 2.226011893648e+05 1.000000000000e+00 2.517761121051e+01 0.000000000000e+00 8.990469063408e-05 -3.430911060110e+07 -6.957712034509e+04 -1.479619865877e+07 -1.180241289117e+07 9.311944587861e-06 -8.163593965160e-07 -7.977966591597e-06 0.000000000000e+00 2.030257405035e+07 2.116951786593e+07  1.505489866328e-05
4.000000000000e-02 2.085792893110e+05 1.000000000000e+00 2.534734615133e+01 0.000000000000e+00 1.089093963422e-04 -3.426996604429e+07 -7.366426598732e+04 -1.493386580831e+07 -1.188871962464e+07 1.397156394094e-05 -1.119975929939e-06 -9.885639188864e-06 0.000000000000e+00 2.036418382575e+07 2.102510924416e+07  2.085213033250e-05
5.000000000000e-02 1.938518400507e+05 1.000000000000e+00 2.555910063164e+01 0.000000000000e+00 1.290162377308e-04 -3.425176361024e+07 -7.715273644261e+04 -1.506937016018e+07 -1.199518281951e+07 1.860200158660e-05 -1.379119449474e-06 -1.096431073451e-05 0.000000000000e+00 2.043877219664e+07 2.089026029088e+07  2.599835783195e-05
6.000000000000e-02 1.789834898879e+05 1.000000000000e+00 2.579984334792e+01 0.000000000000e+00 1.514278565387e-04 -3.424978366953e+07 -8.009874093392e+04 -1.519595934203e+07 -1.211401327704e+07 2.308924494975e-05 -1.597965497400e-06 -1.125249192349e-05 0.000000000000e+00 2.051991876287e+07 2.076749188961e+07  3.045002184477e-05
7.000000000000e-02 1.648571695325e+05 1.000000000000e+00 2.605851251381e+01 0.000000000000e+00 1.731049191593e-04 -3.426298592468e+07 -8.253968916628e+04 -1.531698936425e+07 -1.224215424807e+07 2.735839725396e-05 -1.779293080375e-06 -1.098837096767e-05 0.000000000000e+00 2.060737651234e+07 2.065627387976e+07  3.434163750513e-05
8.000000000000e-02 1.520598724209e+05 1.000000000000e+00 2.632667934489e+01 0.000000000000e+00 1.949490873191e-04 -3.428663888395e+07 -8.459283701020e+04 -1.543045562496e+07 -1.237469043405e+07 3.140263138867e-05 -1.931812634495e-06 -1.028005945794e-05 0.000000000000e+00 2.069726164765e+07 2.055565334109e+07  3.776005162294e-05
9.000000000000e-02 1.415311319150e+05 1.000000000000e+00 2.659830396968e+01 0.000000000000e+00 2.152418438233e-04 -3.431937503954e+07 -8.631331525117e+04 -1.553937845528e+07 -1.251002036425e+07 3.521325730266e-05 -2.059619589539e-06 -9.299224319647e-06 0.000000000000e+00 2.078959128636e+07 2.046408968696e+07  4.082439393370e-05
1.000000000000e-01 1.342880976520e+05 1.000000000000e+00 2.686923310750e+01 0.000000000000e+00 2.339552948430e-04 -3.435904209709e+07 -8.775704422101e+04 -1.564380125131e+07 -1.264605309402e+07 3.879255369978e-05 -2.166868027299e-06 -8.125141066031e-06 0.000000000000e+00 2.088296548080e+07 2.038071187631e+07  4.359083690592e-05
2.000000000000e-01 1.519776802304e+05 1.000000000000e+00 2.902104310329e+01 0.000000000000e+00 4.279769954840e-04 -3.477317181750e+07 -9.476767331749e+04 -1.626052968503e+07 -1.369842925072e+07 6.249884990493e-05 -2.687657617323e-06 8.056060072999e-06 0.000000000000e+00 2.157737691775e+07 1.991834502522e+07  5.906930137064e-05
3.000000000000e-01 1.790572852396e+05 1.000000000000e+00 3.070768399391e+01 0.000000000000e+00 6.181724013777e-04 -3.511891395901e+07 -9.967420710688e+04 -1.666679785938e+07 -1.450894916183e+07 7.976202420428e-05 -3.052142984535e-06 2.307112458160e-05 0.000000000000e+00 2.209822032674e+07 1.962099842238e+07  7.128817873757e-05
4.000000000000e-01 2.066914115448e+05 1.000000000000e+00 3.205934977555e+01 0.000000000000e+00 7.894346735243e-04 -3.541469309812e+07 -1.035202133831e+05 -1.697198284429e+07 -1.515913162403e+07 9.292557620503e-05 -3.337846307910e-06 3.588531659525e-05 0.000000000000e+00 2.251526918881e+07 1.941355274404e+07  8.137369717661e-05
5.000000000000e-01 2.329672035767e+05 1.000000000000e+00 3.317184845531e+01 0.000000000000e+00 9.482370915414e-04 -3.566636387829e+07 -1.069436936272e+05 -1.721272349856e+07 -1.569419984701e+07 1.034517669377e-04 -3.592161983186e-06 4.681748343282e-05 0.000000000000e+00 2.285776240796e+07 1.925874755999e+07  8.994167185438e-05
6.000000000000e-01 2.574499089701e+05 1.000000000000e+00 3.410964206560e+01 0.000000000000e+00 1.097827196145e-03 -3.588404715534e+07 -1.101649011867e+05 -1.740941739403e+07 -1.614536980183e+07 1.121241292551e-04 -3.831451687606e-06 5.626945135164e-05 0.000000000000e+00 2.314627811707e+07 1.913893887642e+07  9.732907246179e-05
7.000000000000e-01 2.802222965386e+05 1.000000000000e+00 3.491618489167e+01 0.000000000000e+00 1.239940973130e-03 -3.607678964743e+07 -1.132010388459e+05 -1.757304016854e+07 -1.653360029667e+07 1.193851122141e-04 -4.056993342293e-06 6.461202382084e-05 0.000000000000e+00 2.339447670422e+07 1.904576484255e+07  1.037457590039e-04
8.000000000000e-01 3.015584664199e+05 1.000000000000e+00 3.562141889441e+01 0.000000000000e+00 1.375715824816e-03 -3.625173886715e+07 -1.160294213889e+05 -1.771017179333e+07 -1.687334802313e+07 1.255061996073e-04 -4.267101759767e-06 7.213776474009e-05 0.000000000000e+00 2.361175289454e+07 1.897488856672e+07  1.093460150767e-04
9.000000000000e-01 3.214760045040e+05 1.000000000000e+00 3.624655662569e+01 0.000000000000e+00 1.506105027548e-03 -3.641149895593e+07 -1.187505967929e+05 -1.782847944878e+07 -1.717503616922e+07 1.307778131644e-04 -4.469246218353e-06 7.894904010663e-05 0.000000000000e+00 2.380500485797e+07 1.891932494690e+07  1.143281549686e-04
1.000000000000e+00 3.401226122245e+05 1.000000000000e+00 3.680707518524e+01 0.000000000000e+00 1.631737303542e-03 -3.655949787297e+07 -1.213945812060e+05 -1.793218461086e+07 -1.744632526784e+07 1.353571627661e-04 -4.665656489044e-06 8.517358632091e-05 0.000000000000e+00 2.397933591722e+07 1.887610454471e+07  1.187962599717e-04
2.000000000000e+00 4.671720763694e+05 1.000000000000e+00 4.007010834523e+01 0.000000000000e+00 2.628455341809e-03 -3.760851953538e+07 -1.433061284009e+05 -1.847416419408e+07 -1.906493354335e+07 1.565132369667e-04 -6.293371423515e-06 1.251626520347e-04 0.000000000000e+00 2.504920575760e+07 1.884755108859e+07  1.438446751343e-04
3.000000000000e+00 5.669204485162e+05 1.000000000000e+00 4.231089734745e+01 0.000000000000e+00 3.462295653623e-03 -3.843463726582e+07 -1.623358915526e+05 -1.881882503685e+07 -2.020075607005e+07 1.680165579710e-04 -7.707010971934e-06 1.545486574379e-04 0.000000000000e+00 2.581807279091e+07 1.896473521954e+07  1.622538500649e-04
4.000000000000e+00 6.510622430743e+05 1.000000000000e+00 4.402956206316e+01 0.000000000000e+00 4.181339535084e-03 -3.912367015519e+07 -1.789289345006e+05 -1.906818145655e+07 -2.108448727713e+07 1.752482097715e-04 -8.939637019496e-06 1.781111495404e-04 0.000000000000e+00 2.642544629629e+07 1.912971939670e+07  1.773742028919e-04
5.000000000000e+00 7.254035437310e+05 1.000000000000e+00 4.544864994937e+01 0.000000000000e+00 4.815037196266e-03 -3.971877723491e+07 -1.934846683948e+05 -1.926576253777e+07 -2.181974365722e+07 1.804537552141e-04 -1.002092010878e-05 1.980819463559e-04 0.000000000000e+00 2.693476114330e+07 1.930606965019e+07  1.906741741885e-04
6.000000000000e+00 7.929929650988e+05 1.000000000000e+00 4.668777858518e+01 0.000000000000e+00 5.384761245964e-03 -4.024442081018e+07 -2.065807279684e+05 -1.943872036893e+07 -2.246372495692e+07 1.848491564069e-04 -1.099377024853e-05 2.155771037585e-04 0.000000000000e+00 2.738228871201e+07 1.947353360612e+07  2.028695183405e-04
7.000000000000e+00 8.558563136304e+05 1.000000000000e+00 4.776451332755e+01 0.000000000000e+00 5.898911851050e-03 -4.071204772498e+07 -2.182028562658e+05 -1.958233145800e+07 -2.302473837540e+07 1.883177979723e-04 -1.185712835062e-05 2.310806188511e-04 0.000000000000e+00 2.777303918613e+07 1.963977675350e+07  2.139322944854e-04
8.000000000000e+00 9.146399701799e+05 1.000000000000e+00 4.876058458216e+01 0.000000000000e+00 6.372286398183e-03 -4.114094437683e+07 -2.288136438568e+05 -1.971701975924e+07 -2.354305305446e+07 1.916390389829e-04 -1.264535828596e-05 2.453295985988e-04 0.000000000000e+00 2.813367239685e+07 1.979422882928e+07  2.244484795224e-04
9.000000000000e+00 9.703372484239e+05 1.000000000000e+00 4.967363714009e+01 0.000000000000e+00 6.810201813958e-03 -4.153428127765e+07 -2.385319656929e+05 -1.983932352604e+07 -2.401790476908e+07 1.946667320670e-04 -1.336729076521e-05 2.584242366605e-04 0.000000000000e+00 2.846383652426e+07 1.994112038014e+07  2.343238665113e-04
1.000000000000e+01 1.023443027822e+06 1.000000000000e+00 5.051032884249e+01 0.000000000000e+00 7.217054889540e-03 -4.189547318003e+07 -2.474994058593e+05 -1.995000911772e+07 -2.445289645059e+07 1.974078667202e-04 -1.403344346329e-05 2.704698914252e-04 0.000000000000e+00 2.876612624945e+07 2.008096618617e+07  2.435605804284e-04
1.100000000000e+01 1.074252378356e+06 1.000000000000e+00 5.129075261320e+01 0.000000000000e+00 7.597764941195e-03 -4.223233660384e+07 -2.558061326877e+05 -2.005197470311e+07 -2.485822838166e+07 1.999509827041e-04 -1.465051459911e-05 2.817377842651e-04 0.000000000000e+00 2.904751322954e+07 2.021535042550e+07  2.523226911562e-04
1.200000000000e+01 1.123145537297e+06 1.000000000000e+00 5.201381134970e+01 0.000000000000e+00 7.954643476247e-03 -4.254625056035e+07 -2.634790544997e+05 -2.014329143977e+07 -2.523340142592e+07 2.022263202494e-04 -1.522050307658e-05 2.922810185474e-04 0.000000000000e+00 2.930764780868e+07 2.034641331358e+07  2.605988386138e-04
1.300000000000e+01 1.170375194811e+06 1.000000000000e+00 5.268259098611e+01 0.000000000000e+00 8.289891012249e-03 -4.283805744128e+07 -2.706452778636e+05 -2.022568914640e+07 -2.558027373558e+07 2.042716076018e-04 -1.575285109789e-05 3.021043609455e-04 0.000000000000e+00 2.954800677442e+07 2.047268140300e+07  2.683785536398e-04
1.400000000000e+01 1.216652637515e+06 1.000000000000e+00 5.330105528491e+01 0.000000000000e+00 8.605482435840e-03 -4.310948737729e+07 -2.773424886332e+05 -2.029899176869e+07 -2.590069926068e+07 2.060914437681e-04 -1.625035818363e-05 3.112832116211e-04 0.000000000000e+00 2.976972613555e+07 2.059492338313e+07  2.756997224356e-04
1.500000000000e+01 1.261522918597e+06 1.000000000000e+00 5.387297891050e+01 0.000000000000e+00 8.902606695958e-03 -4.336265530453e+07 -2.835819320586e+05 -2.036375273592e+07 -2.619679927764e+07 2.076860642436e-04 -1.671385969524e-05 3.198758048969e-04 0.000000000000e+00 2.997440243936e+07 2.071380067403e+07  2.825921870672e-04
1.600000000000e+01 1.305126560981e+06 1.000000000000e+00 5.440179052023e+01 0.000000000000e+00 9.182714705882e-03 -4.359813649031e+07 -2.894446407619e+05 -2.042156220588e+07 -2.647042277718e+07 2.091027787545e-04 -1.714937519891e-05 3.278917545673e-04 0.000000000000e+00 3.016337382446e+07 2.082790863256e+07  2.890608949590e-04
1.700000000000e+01 1.347593761466e+06 1.000000000000e+00 5.489050806219e+01 0.000000000000e+00 9.447069968332e-03 -4.381633691431e+07 -2.949941523790e+05 -2.047367695163e+07 -2.672312434478e+07 2.103842498027e-04 -1.756162463332e-05 3.353421222360e-04 0.000000000000e+00 3.033771273690e+07 2.093603845167e+07  2.951108311740e-04
1.800000000000e+01 1.389052735390e+06 1.000000000000e+00 5.534178435914e+01 0.000000000000e+00 9.696726822626e-03 -4.401814608251e+07 -3.002673835958e+05 -2.052074859253e+07 -2.695629437474e+07 2.115490818106e-04 -1.795335038085e-05 3.422543481152e-04 0.000000000000e+00 3.049839634993e+07 2.103796193819e+07  3.007564265296e-04
1.900000000000e+01 1.429591500330e+06 1.000000000000e+00 5.575796323472e+01 0.000000000000e+00 9.932584034098e-03 -4.420448446824e+07 -3.052832034089e+05 -2.056309210388e+07 -2.717112344523e+07 2.126073072450e-04 -1.832595413840e-05 3.486609545976e-04 0.000000000000e+00 3.064623333912e+07 2.113381278756e+07  3.060163123784e-04
2.000000000000e+01 1.469293608682e+06 1.000000000000e+00 5.614111083334e+01 0.000000000000e+00 1.015517146466e-02 -4.437808310184e+07 -3.099556457884e+05 -2.059864128784e+07 -2.736853389569e+07 2.134917461566e-04 -1.867304985802e-05 3.546729444962e-04 0.000000000000e+00 3.078175276179e+07 2.122727606310e+07  3.109629003154e-04
2.100000000000e+01 1.508082098440e+06 1.000000000000e+00 5.651572149916e+01 0.000000000000e+00 1.036824556129e-02 -4.454378411831e+07 -3.144607181056e+05 -2.063534680738e+07 -2.756084477302e+07 2.144801124172e-04 -1.900771237301e-05 3.604525720716e-04 0.000000000000e+00 3.091332523290e+07 2.131419056390e+07  3.157558337474e-04
2.200000000000e+01 1.546103877700e+06 1.000000000000e+00 5.687205991380e+01 0.000000000000e+00 1.057191386708e-02 -4.470014767735e+07 -3.187879381844e+05 -2.067013826458e+07 -2.774337130108e+07 2.154518798381e-04 -1.932916300744e-05 3.659398747032e-04 0.000000000000e+00 3.103788574767e+07 2.139642490626e+07  3.203278322886e-04
2.300000000000e+01 1.583429864235e+06 1.000000000000e+00 5.720737052371e+01 0.000000000000e+00 1.076616680083e-02 -4.484868849998e+07 -3.228478836696e+05 -2.070003021570e+07 -2.791471947431e+07 2.162990100032e-04 -1.963075895777e-05 3.711939629529e-04 0.000000000000e+00 3.115447939666e+07 2.147782728219e+07  3.247113075440e-04
2.400000000000e+01 1.620108796691e+06 1.000000000000e+00 5.752132531308e+01 0.000000000000e+00 1.095146244511e-02 -4.498848323996e+07 -3.267095623291e+05 -2.072624118129e+07 -2.807486510960e+07 2.170549004004e-04 -1.991762651533e-05 3.761686792563e-04 0.000000000000e+00 3.126319651028e+07 2.155654861570e+07  3.288716852658e-04
2.500000000000e+01 1.656192917748e+06 1.000000000000e+00 5.781431139797e+01 0.000000000000e+00 1.112815947186e-02 -4.511946003811e+07 -3.303934612041e+05 -2.074911664127e+07 -2.822402632982e+07 2.177303217914e-04 -2.019128757462e-05 3.808592932079e-04 0.000000000000e+00 3.136420100307e+07 2.163213525474e+07  3.328043600444e-04
2.600000000000e+01 1.691716213409e+06 1.000000000000e+00 5.808694277237e+01 0.000000000000e+00 1.129659490747e-02 -4.524162905302e+07 -3.339151385715e+05 -2.076895877597e+07 -2.836251188541e+07 2.183363647314e-04 -2.045289789333e-05 3.852660488411e-04 0.000000000000e+00 3.145769990480e+07 2.170423036635e+07  3.365086493570e-04
2.700000000000e+01 1.726707846541e+06 1.000000000000e+00 5.833989622005e+01 0.000000000000e+00 1.145708091707e-02 -4.535517489476e+07 -3.372874821909e+05 -2.078598555655e+07 -2.849067944257e+07 2.188794570181e-04 -2.070341484792e-05 3.893941348281e-04 0.000000000000e+00 3.154394663129e+07 2.177270259459e+07  3.399875384554e-04
2.800000000000e+01 1.761207355485e+06 1.000000000000e+00 5.857384815821e+01 0.000000000000e+00 1.160994155074e-02 -4.546011666770e+07 -3.405325679872e+05 -2.080069271074e+07 -2.860892017422e+07 2.193734183414e-04 -2.094447836421e-05 3.932396677054e-04 0.000000000000e+00 3.162324318422e+07 2.183705799612e+07  3.432372595184e-04
2.900000000000e+01 1.795239383678e+06 1.000000000000e+00 5.878945157670e+01 0.000000000000e+00 1.175543431463e-02 -4.555670492061e+07 -3.436521225097e+05 -2.081309057494e+07 -2.871754085468e+07 2.198203370793e-04 -2.117621670017e-05 3.968136580236e-04 0.000000000000e+00 3.169577878341e+07 2.189740637883e+07  3.462652800737e-04
3.000000000000e+01 1.828814801809e+06 1.000000000000e+00 5.898732735168e+01 0.000000000000e+00 1.189382589123e-02 -4.564517217041e+07 -3.466585585921e+05 -2.082340990412e+07 -2.881689773151e+07 2.202248089403e-04 -2.139955195201e-05 4.001207669365e-04 0.000000000000e+00 3.176182660202e+07 2.195367376067e+07  3.490743439817e-04
3.100000000000e+01 1.861850495525e+06 1.000000000000e+00 5.918598549435e+01 0.000000000000e+00 1.202764029131e-02 -4.572971954426e+07 -3.496317997763e+05 -2.083668848020e+07 -2.891616852161e+07 2.207716786869e-04 -2.162042129712e-05 4.033147634570e-04 0.000000000000e+00 3.182752551536e+07 2.200420352636e+07  3.518021930235e-04
3.200000000000e+01 1.894421488072e+06 1.000000000000e+00 5.937697639130e+01 0.000000000000e+00 1.215665959637e-02 -4.580915356742e+07 -3.525505467418e+05 -2.085022357064e+07 -2.901128695703e+07 2.213542425704e-04 -2.183724250027e-05 4.063450019845e-04 0.000000000000e+00 3.189022136503e+07 2.205068271244e+07  3.543985985937e-04
3.300000000000e+01 1.926555659600e+06 1.000000000000e+00 5.955745626517e+01 0.000000000000e+00 1.228085740795e-02 -4.588290940784e+07 -3.554147176357e+05 -2.086321782086e+07 -2.910085843965e+07 2.219416807094e-04 -2.205000948096e-05 4.091892991883e-04 0.000000000000e+00 3.194899522278e+07 2.209342484202e+07  3.568423183571e-04
3.400000000000e+01 1.958279953357e+06 1.000000000000e+00 5.972658109677e+01 0.000000000000e+00 1.240022457007e-02 -4.595095819269e+07 -3.582201239830e+05 -2.087540383991e+07 -2.918450046996e+07 2.225208583982e-04 -2.225841109533e-05 4.118433796065e-04 0.000000000000e+00 3.200362083419e+07 2.213265175502e+07  3.591282082847e-04
3.500000000000e+01 1.989627564578e+06 1.000000000000e+00 5.988415469201e+01 0.000000000000e+00 1.251494126336e-02 -4.601242773946e+07 -3.610109147816e+05 -2.088767109668e+07 -2.926215006012e+07 2.231218314383e-04 -2.246572698323e-05 4.142718662752e-04 0.000000000000e+00 3.205408296542e+07 2.216685667710e+07  3.612278505341e-04
3.600000000000e+01 2.020634135390e+06 1.000000000000e+00 6.003022103161e+01 0.000000000000e+00 1.262520480088e-02 -4.606638952539e+07 -3.638409994557e+05 -2.090124666806e+07 -2.933391234548e+07 2.237829928457e-04 -2.267596184473e-05 4.164330870801e-04 0.000000000000e+00 3.210051617964e+07 2.219419225462e+07  3.631078339723e-04
3.700000000000e+01 2.051361737692e+06 1.000000000000e+00 6.016492785138e+01 0.000000000000e+00 1.273156509672e-02 -4.610942961994e+07 -3.668845883213e+05 -2.092009716921e+07 -2.940000489693e+07 2.246392269591e-04 -2.290205701761e-05 4.181877918057e-04 0.000000000000e+00 3.214317722869e+07 2.220837460019e+07  3.646586648855e-04
3.800000000000e+01 2.083287020103e+06 1.000000000000e+00 6.028866548787e+01 0.000000000000e+00 1.284887235319e-02 -4.603251437081e+07 -3.755977569368e+05 -2.106827578172e+07 -2.946506957057e+07 2.299127669477e-04 -2.354932097190e-05 4.151007026477e-04 0.000000000000e+00 3.218861990770e+07 2.201188342151e+07  3.624848054625e-04
3.900000000000e+01 2.113075158540e+06 1.000000000000e+00 6.040116681718e+01 0.000000000000e+00 1.294139651171e-02 -4.610175039497e+07 -3.767124042307e+05 -2.104408235539e+07 -2.951833665401e+07 2.293196348637e-04 -2.363212334230e-05 4.179778072964e-04 0.000000000000e+00 3.222138980146e+07 2.208575104243e+07  3.648531977892e-04
4.000000000000e+01 2.142460697470e+06 1.000000000000e+00 6.050277272890e+01 0.000000000000e+00 1.302839710866e-02 -4.617309600670e+07 -3.773484767929e+05 -2.100896953569e+07 -2.956514783384e+07 2.284083559648e-04 -2.367937444693e-05 4.210206987074e-04 0.000000000000e+00 3.224907112541e+07 2.217114951766e+07  3.673503756882e-04
4.200000000000e+01 2.199743116275e+06 1.000000000000e+00 6.070353137102e+01 0.000000000000e+00 1.319188309350e-02 -4.630527647385e+07 -3.785993948295e+05 -2.094559397311e+07 -2.965668823946e+07 2.268988679649e-04 -2.377229978679e-05 4.267747203834e-04 0.000000000000e+00 3.230251956214e+07 2.232747382783e+07  3.721295796124e-04
4.400000000000e+01 2.255508367281e+06 1.000000000000e+00 6.088145664395e+01 0.000000000000e+00 1.334402544771e-02 -4.642405349868e+07 -3.797528450831e+05 -2.088216827690e+07 -2.973618850619e+07 2.254400169500e-04 -2.385798466277e-05 4.320833990068e-04 0.000000000000e+00 3.234747009392e+07 2.247366999681e+07  3.765872892708e-04
5.000000000000e+01 2.407029548280e+06 1.000000000000e+00 6.110376251631e+01 0.000000000000e+00 1.365707814729e-02 -4.663039807251e+07 -3.819197232787e+05 -2.069722884333e+07 -2.982226218443e+07 2.209728122566e-04 -2.401895275730e-05 4.421496003026e-04 0.000000000000e+00 3.238329636675e+07 2.279456193731e+07  3.851661232014e-04
6.500000000000e+01 2.738412900207e+06 1.000000000000e+00 6.116215475679e+01 0.000000000000e+00 1.418047046565e-02 -4.678438246744e+07 -3.857284570601e+05 -2.023493198081e+07 -2.975381010255e+07 2.127108859752e-04 -2.430188726678e-05 4.567781207264e-04 0.000000000000e+00 3.225770818360e+07 2.330681741004e+07  3.981233967090e-04
8.000000000000e+01 2.993465893724e+06 1.000000000000e+00 6.080672396128e+01 0.000000000000e+00 1.441736549962e-02 -4.669790969752e+07 -3.872474757509e+05 -1.986280594377e+07 -2.949459787070e+07 2.062948488174e-04 -2.441472865524e-05 4.609720620622e-04 0.000000000000e+00 3.201843783733e+07 2.355576267768e+07  4.021751878525e-04
1.000000000000e+02 3.294145306883e+06 1.000000000000e+00 6.031955409286e+01 0.000000000000e+00 1.461061637067e-02 -4.651664715245e+07 -3.885273102119e+05 -1.946709143080e+07 -2.915364573724e+07 2.003635212485e-04 -2.450980207234e-05 4.630060933007e-04 0.000000000000e+00 3.171246144016e+07 2.374749816338e+07  4.044166701068e-04
1.860000000000e+02 3.892626698402e+06 1.000000000000e+00 5.884437027137e+01 0.000000000000e+00 1.481956973586e-02 -4.581791239498e+07 -3.902031609986e+05 -1.857881515647e+07 -2.816624578721e+07 1.896416712393e-04 -2.463429384506e-05 4.593243567750e-04 0.000000000000e+00 3.085432444622e+07 2.394140899719e+07  4.020650878120e-04
2.720000000000e+02 4.182948269365e+06 1.000000000000e+00 5.740652461788e+01 0.000000000000e+00 1.458697799753e-02 -4.514863645010e+07 -3.877905681325e+05 -1.818272628666e+07 -2.734582358876e+07 1.840276675355e-04 -2.445507266072e-05 4.435634045681e-04 0.000000000000e+00 3.022572877517e+07 2.375884149148e+07  3.883051496959e-04
3.580000000000e+02 4.324314095300e+06 1.000000000000e+00 5.632819007730e+01 0.000000000000e+00 1.435667663266e-02 -4.463068341126e+07 -3.855925442706e+05 -1.793662734572e+07 -2.674060009011e+07 1.807861933142e-04 -2.429179088812e-05 4.302244924249e-04 0.000000000000e+00 2.976930361570e+07 2.356936291261e+07  3.765214291815e-04
4.440000000000e+02 4.396443065099e+06 1.000000000000e+00 5.547754095058e+01 0.000000000000e+00 1.414543686653e-02 -4.422341085595e+07 -3.835789204494e+05 -1.777469095935e+07 -2.627305833794e+07 1.785476231446e-04 -2.414220740427e-05 4.188734359809e-04 0.000000000000e+00 2.942372005108e+07 2.339716846673e+07  3.664613093401e-04
5.300000000000e+02 4.435407630124e+06 1.000000000000e+00 5.480783314931e+01 0.000000000000e+00 1.396417127103e-02 -4.390348074001e+07 -3.818521058910e+05 -1.766356585350e+07 -2.591000762332e+07 1.769460009082e-04 -2.401392975135e-05 4.095161990837e-04 0.000000000000e+00 2.915901807228e+07 2.325055780083e+07  3.581635901102e-04
6.160000000000e+02 4.457923140021e+06 1.000000000000e+00 5.428842769212e+01 0.000000000000e+00 1.381488683275e-02 -4.365582361252e+07 -3.804296123887e+05 -1.758694103251e+07 -2.563139781936e+07 1.757963300680e-04 -2.390825880547e-05 4.020138997163e-04 0.000000000000e+00 2.895805415479e+07 2.313058807379e+07  3.515135438946e-04
7.020000000000e+02 4.471733458232e+06 1.000000000000e+00 5.390298112949e+01 0.000000000000e+00 1.370070139481e-02 -4.347229971897e+07 -3.793401722858e+05 -1.753396728209e+07 -2.542586997543e+07 1.749790404821e-04 -2.382732896926e-05 3.963476048144e-04 0.000000000000e+00 2.881071232550e+07 2.303927340449e+07  3.464964497361e-04
7.880000000000e+02 4.481352036468e+06 1.000000000000e+00 5.359220289655e+01 0.000000000000e+00 1.359868302379e-02 -4.332647898698e+07 -3.783549307689e+05 -1.750302543149e+07 -2.526428754843e+07 1.743936060964e-04 -2.375413959943e-05 3.914952405483e-04 0.000000000000e+00 2.869793065563e+07 2.295854544026e+07  3.421990121184e-04
8.740000000000e+02 4.489738131595e+06 1.000000000000e+00 5.310537577069e+01 0.000000000000e+00 1.345353410991e-02 -4.309446315561e+07 -3.769830602493e+05 -1.743576725119e+07 -2.500452709719e+07 1.733630916438e-04 -2.365222921797e-05 3.843451561992e-04 0.000000000000e+00 2.851158583466e+07 2.284461955348e+07  3.358913216235e-04
9.370000000000e+02 4.495111994429e+06 1.000000000000e+00 5.275159323252e+01 0.000000000000e+00 1.333561334106e-02 -4.292415687634e+07 -3.758868035129e+05 -1.739923964168e+07 -2.481886909815e+07 1.727928849095e-04 -2.357079300327e-05 3.788060274450e-04 0.000000000000e+00 2.838075520539e+07 2.275106032664e+07  3.310032447712e-04
1.000000000000e+03 4.499302027140e+06 1.000000000000e+00 5.246388243437e+01 0.000000000000e+00 1.323737752469e-02 -4.278175979964e+07 -3.750050737002e+05 -1.736983083929e+07 -2.466676834053e+07 1.724324624753e-04 -2.350529307433e-05 3.742488976796e-04 0.000000000000e+00 2.827278632649e+07 2.267165762333e+07  3.269862824824e-04
1.100000000000e+03 4.503447343828e+06 1.000000000000e+00 5.216936964690e+01 0.000000000000e+00 1.313491180859e-02 -4.263389639503e+07 -3.741013820344e+05 -1.734060238860e+07 -2.451068127892e+07 1.721270123584e-04 -2.343816169343e-05 3.695370064168e-04 0.000000000000e+00 2.816172668752e+07 2.258817600204e+07  3.228405936298e-04
1.200000000000e+03 4.506708720430e+06 1.000000000000e+00 5.192025738058e+01 0.000000000000e+00 1.304955860063e-02 -4.251040388361e+07 -3.733373960923e+05 -1.731523911905e+07 -2.437895387246e+07 1.718211448283e-04 -2.338140845203e-05 3.655863384742e-04 0.000000000000e+00 2.806819895837e+07 2.251974864431e+07  3.193751465948e-04
1.300000000000e+03 4.509614096533e+06 1.000000000000e+00 5.168219822456e+01 0.000000000000e+00 1.296826924999e-02 -4.239292512198e+07 -3.726062213814e+05 -1.729093792230e+07 -2.425321739969e+07 1.715144298431e-04 -2.332709261635e-05 3.618187425079e-04 0.000000000000e+00 2.797902681465e+07 2.245512308496e+07  3.160780386177e-04
1.400000000000e+03 4.512353612459e+06 1.000000000000e+00 5.143780994797e+01 0.000000000000e+00 1.288434008349e-02 -4.227218636139e+07 -3.718535607899e+05 -1.726633622825e+07 -2.412419738315e+07 1.712068403361e-04 -2.327118068670e-05 3.579403476722e-04 0.000000000000e+00 2.788757332427e+07 2.238863500617e+07  3.126913530423e-04
1.500000000000e+03 4.514993501238e+06 1.000000000000e+00 5.117703367254e+01 0.000000000000e+00 1.279386135993e-02 -4.214283880758e+07 -3.710468536824e+05 -1.724068386775e+07 -2.398654361200e+07 1.708983236922e-04 -2.321125387300e-05 3.537802952769e-04 0.000000000000e+00 2.779002209577e+07 2.231704566213e+07  3.090672448965e-04
1.600000000000e+03 4.517554546543e+06 1.000000000000e+00 5.089373351051e+01 0.000000000000e+00 1.269443730495e-02 -4.200163225890e+07 -3.701666764696e+05 -1.721353331723e+07 -2.383699925360e+07 1.705886336169e-04 -2.314586928005e-05 3.492342395556e-04 0.000000000000e+00 2.768405494325e+07 2.223843724927e+07  3.051177445732e-04
1.700000000000e+03 4.520041835520e+06 1.000000000000e+00 5.058412186792e+01 0.000000000000e+00 1.258458547640e-02 -4.184656003816e+07 -3.692004967168e+05 -1.718462295381e+07 -2.367355818725e+07 1.702777907799e-04 -2.307409592698e-05 3.442373848752e-04 0.000000000000e+00 2.756824705974e+07 2.215167343036e+07  3.007908966155e-04
1.800000000000e+03 4.522455244882e+06 1.000000000000e+00 5.024591284061e+01 0.000000000000e+00 1.246341237174e-02 -4.167641591160e+07 -3.681412848497e+05 -1.715378978339e+07 -2.349500959542e+07 1.699656249269e-04 -2.299541161686e-05 3.387508120801e-04 0.000000000000e+00 2.744173843014e+07 2.205614386737e+07  2.960587775060e-04
1.900000000000e+03 4.524794537194e+06 1.000000000000e+00 4.987782121186e+01 0.000000000000e+00 1.233041028032e-02 -4.149052335019e+07 -3.669846438269e+05 -1.712095563158e+07 -2.330067725273e+07 1.696521473367e-04 -2.290948971231e-05 3.327523078475e-04 0.000000000000e+00 2.730405207816e+07 2.195157576951e+07  2.909095049545e-04
2.000000000000e+03 4.527058883136e+06 1.000000000000e+00 4.947924582705e+01 0.000000000000e+00 1.218534777893e-02 -4.128856144050e+07 -3.657287196483e+05 -1.708606681928e+07 -2.309023838513e+07 1.693372888997e-04 -2.281619248761e-05 3.262318772216e-04 0.000000000000e+00 2.715495554830e+07 2.183795238900e+07  2.853434236231e-04