 TITLE = "Profiles along polylines"
 VARIABLES = "DIST" "PRESSURE1" "SATURATION1" "VELOCITY_X1" "VELOCITY_Y1" "TEMPERATURE1" "DISPLACEMENT_X1" "DISPLACEMENT_Y1" "STRESS_XX" "STRESS_XY" "STRESS_YY" "STRESS_ZZ" "STRAIN_XX" "STRAIN_XY" "STRAIN_YY" "STRAIN_PLS"  p_(1st_Invariant)  q_(2nd_Invariant)   Effective_Strain
 ZONE T="TIME=0.000000000000e+00"
0.000000000000e+00 -7.000000000000e+07 0.000000000000e+00 0.000000000000e+00 0.000000000000e+00 2.500000000000e+01 0.000000000000e+00 0.000000000000e+00 0.000000000000e+00 0.000000000000e+00 0.000000000000e+00 0.000000000000e+00 0.000000000000e+00 0.000000000000e+00 0.000000000000e+00 0.000000000000e+00 -0.000000000000e+00 0.000000000000e+00  0.000000000000e+00
1.856488293236e-01 -7.000000000000e+07 0.000000000000e+00 0.000000000000e+00 0.000000000000e+00 2.500000000000e+01 0.000000000000e+00 0.000000000000e+00 0.000000000000e+00 0.000000000000e+00 0.000000000000e+00 0.000000000000e+00 0.000000000000e+00 0.000000000000e+00 0.000000000000e+00 0.000000000000e+00 -0.000000000000e+00 0.000000000000e+00  0.000000000000e+00
3.329966101904e-01 -7.000000000000e+07 0.000000000000e+00 0.000000000000e+00 0.000000000000e+00 2.500000000000e+01 0.000000000000e+00 0.000000000000e+00 0.000000000000e+00 0.000000000000e+00 0.000000000000e+00 0.000000000000e+00 0.000000000000e+00 0.000000000000e+00 0.000000000000e+00 0.000000000000e+00 -0.000000000000e+00 0.000000000000e+00  0.000000000000e+00
4.500000000000e-01 -7.000000000000e+07 6.684759947500e-01 0.000000000000e+00 0.000000000000e+00 2.500000000000e+01 0.000000000000e+00 0.000000000000e+00 0.000000000000e+00 0.000000000000e+00 0.000000000000e+00 0.000000000000e+00 0.000000000000e+00 0.000000000000e+00 0.000000000000e+00 0.000000000000e+00 -0.000000000000e+00 0.000000000000e+00  0.000000000000e+00
5.425413849766e-01 -7.000000000000e+07 6.684759947500e-01 0.000000000000e+00 0.000000000000e+00 2.500000000000e+01 0.000000000000e+00 0.000000000000e+00 0.000000000000e+00 0.000000000000e+00 0.000000000000e+00 0.000000000000e+00 0.000000000000e+00 0.000000000000e+00 0.000000000000e+00 0.000000000000e+00 -0.000000000000e+00 0.000000000000e+00  0.000000000000e+00
6.536499690359e-01 -7.000000000000e+07 6.684759947500e-01 0.000000000000e+00 0.000000000000e+00 2.500000000000e+01 0.000000000000e+00 0.000000000000e+00 0.000000000000e+00 0.000000000000e+00 0.000000000000e+00 0.000000000000e+00 0.000000000000e+00 0.000000000000e+00 0.000000000000e+00 0.000000000000e+00 -0.000000000000e+00 0.000000000000e+00  0.000000000000e+00
7.871337589362e-01 -7.000000000000e+07 6.684759947500e-01 0.000000000000e+00 0.000000000000e+00 2.500000000000e+01 0.000000000000e+00 0.000000000000e+00 0.000000000000e+00 0.000000000000e+00 0.000000000000e+00 0.000000000000e+00 0.000000000000e+00 0.000000000000e+00 0.000000000000e+00 0.000000000000e+00 -0.000000000000e+00 0.000000000000e+00  0.000000000000e+00
9.474533848814e-01 -7.000000000000e+07 6.504857124747e-01 0.000000000000e+00 0.000000000000e+00 2.500000000000e+01 0.000000000000e+00 0.000000000000e+00 0.000000000000e+00 0.000000000000e+00 0.000000000000e+00 0.000000000000e+00 0.000000000000e+00 0.000000000000e+00 0.000000000000e+00 0.000000000000e+00 -0.000000000000e+00 0.000000000000e+00  0.000000000000e+00
1.140000000000e+00 1.000000000000e+05 9.737398629779e-01 0.000000000000e+00 0.000000000000e+00 2.500000000000e+01 0.000000000000e+00 0.000000000000e+00 3.304572143556e+04 5.605493944878e+02 -4.446166165700e+06 1.775888667205e+05 0.000000000000e+00 0.000000000000e+00 0.000000000000e+00 0.000000000000e+00 1.411843859181e+06 4.553204604223e+06  0.000000000000e+00
1.240000000000e+00 1.000000000000e+05 1.000000000000e+00 0.000000000000e+00 0.000000000000e+00 2.500000000000e+01 0.000000000000e+00 0.000000000000e+00 -1.262331305483e+06 1.487475914788e+03 -1.327249178965e+07 -1.357396928539e+06 0.000000000000e+00 0.000000000000e+00 0.000000000000e+00 0.000000000000e+00 5.297406674556e+06 1.196291125004e+07  0.000000000000e+00
1.487693532361e+00 1.000000000000e+05 1.000000000000e+00 0.000000000000e+00 0.000000000000e+00 2.500000000000e+01 0.000000000000e+00 0.000000000000e+00 -6.266898055332e+06 1.626371943122e+02 -1.670623109008e+07 -3.888888743625e+06 0.000000000000e+00 0.000000000000e+00 0.000000000000e+00 0.000000000000e+00 8.954005963013e+06 1.180929437947e+07  0.000000000000e+00
1.823812918126e+00 1.000000000000e+05 1.000000000000e+00 0.000000000000e+00 0.000000000000e+00 2.500000000000e+01 0.000000000000e+00 0.000000000000e+00 -1.222332787539e+07 -2.874861964183e+03 -1.817378474036e+07 -6.116083784726e+06 0.000000000000e+00 0.000000000000e+00 0.000000000000e+00 0.000000000000e+00 1.217106546683e+07 1.044257078524e+07  0.000000000000e+00
2.280000000000e+00 1.000000000000e+05 1.000000000000e+00 0.000000000000e+00 0.000000000000e+00 2.500000000000e+01 0.000000000000e+00 0.000000000000e+00 -1.862400571852e+07 -6.140100975330e+03 -1.726483383688e+07 -7.763601866620e+06 0.000000000000e+00 0.000000000000e+00 0.000000000000e+00 0.000000000000e+00 1.455081380734e+07 1.024864271960e+07  0.000000000000e+00
2.850000000000e+00 1.000000000000e+05 1.000000000000e+00 0.000000000000e+00 0.000000000000e+00 2.500000000000e+01 0.000000000000e+00 0.000000000000e+00 -2.290522887646e+07 -8.679469202581e+03 -1.624244662485e+07 -8.741252650395e+06 0.000000000000e+00 0.000000000000e+00 0.000000000000e+00 0.000000000000e+00 1.596297605057e+07 1.227353357649e+07  0.000000000000e+00
3.420000000000e+00 1.000000000000e+05 1.000000000000e+00 0.000000000000e+00 0.000000000000e+00 2.500000000000e+01 0.000000000000e+00 0.000000000000e+00 -2.538927640774e+07 -1.052437051289e+04 -1.550903669435e+07 -9.266443930625e+06 0.000000000000e+00 0.000000000000e+00 0.000000000000e+00 0.000000000000e+00 1.672158567757e+07 1.408075802056e+07  0.000000000000e+00
3.972609728322e+00 1.000000000000e+05 1.000000000000e+00 0.000000000000e+00 0.000000000000e+00 2.500000000000e+01 0.000000000000e+00 0.000000000000e+00 -2.694644531562e+07 -1.204288093443e+04 -1.504926595748e+07 -9.595663381930e+06 0.000000000000e+00 0.000000000000e+00 0.000000000000e+00 0.000000000000e+00 1.719712488501e+07 1.536774481875e+07  0.000000000000e+00
4.633649783484e+00 1.000000000000e+05 1.000000000000e+00 0.000000000000e+00 0.000000000000e+00 2.500000000000e+01 0.000000000000e+00 0.000000000000e+00 -2.832397357321e+07 -1.368094842372e+04 -1.460189164019e+07 -9.874709564020e+06 0.000000000000e+00 0.000000000000e+00 0.000000000000e+00 0.000000000000e+00 1.760019159247e+07 1.659846752638e+07  0.000000000000e+00
5.424552109452e+00 1.000000000000e+05 1.000000000000e+00 0.000000000000e+00 0.000000000000e+00 2.500000000000e+01 0.000000000000e+00 0.000000000000e+00 -2.920962299827e+07 -1.515730601599e+04 -1.426998862307e+07 -1.004083348640e+07 0.000000000000e+00 0.000000000000e+00 0.000000000000e+00 0.000000000000e+00 1.784014836925e+07 1.744308313127e+07  0.000000000000e+00
6.370375975935e+00 1.000000000000e+05 1.000000000000e+00 0.000000000000e+00 0.000000000000e+00 2.500000000000e+01 0.000000000000e+00 0.000000000000e+00 -2.991523946550e+07 -1.651999425732e+04 -1.402854325573e+07 -1.018008481637e+07 0.000000000000e+00 0.000000000000e+00 0.000000000000e+00 0.000000000000e+00 1.804128917920e+07 1.812009540962e+07  0.000000000000e+00
7.501825115922e+00 1.000000000000e+05 1.000000000000e+00 0.000000000000e+00 0.000000000000e+00 2.500000000000e+01 0.000000000000e+00 0.000000000000e+00 -3.049326599438e+07 -1.759502775661e+04 -1.382997626749e+07 -1.029392267856e+07 0.000000000000e+00 0.000000000000e+00 0.000000000000e+00 0.000000000000e+00 1.820572164681e+07 1.868400689636e+07  0.000000000000e+00
8.855503976798e+00 1.000000000000e+05 1.000000000000e+00 0.000000000000e+00 0.000000000000e+00 2.500000000000e+01 0.000000000000e+00 0.000000000000e+00 -3.085225541536e+07 -1.786850061417e+04 -1.369136799394e+07 -1.036003702279e+07 0.000000000000e+00 0.000000000000e+00 0.000000000000e+00 0.000000000000e+00 1.830122014403e+07 1.904634812082e+07  0.000000000000e+00
1.047459878112e+01 1.000000000000e+05 1.000000000000e+00 0.000000000000e+00 0.000000000000e+00 2.500000000000e+01 0.000000000000e+00 0.000000000000e+00 -3.113220835338e+07 -1.688267742772e+04 -1.359250579186e+07 -1.041436424357e+07 0.000000000000e+00 0.000000000000e+00 0.000000000000e+00 0.000000000000e+00 1.837969279627e+07 1.932579266621e+07  0.000000000000e+00
1.241154661369e+01 1.000000000000e+05 1.000000000000e+00 0.000000000000e+00 0.000000000000e+00 2.500000000000e+01 0.000000000000e+00 0.000000000000e+00 -3.130685851467e+07 -1.409868786187e+04 -1.352808692198e+07 -1.044743363099e+07 0.000000000000e+00 0.000000000000e+00 0.000000000000e+00 0.000000000000e+00 1.842745968921e+07 1.950246065449e+07  0.000000000000e+00
1.472871140527e+01 1.000000000000e+05 1.000000000000e+00 0.000000000000e+00 0.000000000000e+00 2.500000000000e+01 0.000000000000e+00 0.000000000000e+00 -3.142400077938e+07 -8.843686767664e+03 -1.348940852721e+07 -1.047097279198e+07 0.000000000000e+00 0.000000000000e+00 0.000000000000e+00 0.000000000000e+00 1.846146069952e+07 1.961874619650e+07  0.000000000000e+00
1.750000000000e+01 1.000000000000e+05 1.000000000000e+00 0.000000000000e+00 0.000000000000e+00 2.500000000000e+01 0.000000000000e+00 0.000000000000e+00 -3.145630060804e+07 -9.319594333115e+02 -1.347899521696e+07 -1.047753874750e+07 0.000000000000e+00 0.000000000000e+00 0.000000000000e+00 0.000000000000e+00 1.847094485750e+07 1.965070869555e+07  0.000000000000e+00
 TITLE = "Profiles along polylines"
 VARIABLES = "DIST" "PRESSURE1" "SATURATION1" "VELOCITY_X1" "VELOCITY_Y1" "TEMPERATURE1" "DISPLACEMENT_X1" "DISPLACEMENT_Y1" "STRESS_XX" "STRESS_XY" "STRESS_YY" "STRESS_ZZ" "STRAIN_XX" "STRAIN_XY" "STRAIN_YY" "STRAIN_PLS"  p_(1st_Invariant)  q_(2nd_Invariant)   Effective_Strain
 ZONE T="TIME=1.000000000000e-03"
0.000000000000e+00 -7.000000000000e+07 0.000000000000e+00 0.000000000000e+00 0.000000000000e+00 2.500000000000e+01 0.000000000000e+00 6.366750890006e-05 6.738861809440e+07 -3.195356136530e-01 6.754273790279e+07 4.047940679916e+07 1.749098734191e-04 -4.153962977489e-12 1.759116521736e-04 0.000000000000e+00 -5.847025426545e+07 2.698660126685e+07  1.754129082345e-04
1.856488293236e-01 -7.000000000000e+07 0.000000000000e+00 0.000000000000e+00 0.000000000000e+00 2.500000000000e+01 3.245992870854e-05 6.366739510984e-05 6.735115808365e+07 -4.726568324784e+01 6.756098147606e+07 4.047364186791e+07 1.747038554023e-04 -6.144538822219e-10 1.760677074529e-04 0.000000000000e+00 -5.846192714254e+07 2.698303977357e+07  1.753897585306e-04
3.329966101904e-01 -7.000000000000e+07 0.000000000000e+00 0.000000000000e+00 0.000000000000e+00 2.500000000000e+01 5.846802611733e-05 6.366715145891e-05 6.917305782853e+07 -8.312961674907e+01 6.714530435810e+07 4.089550865599e+07 1.838040696215e-04 -1.080685017739e-09 1.706236720637e-04 0.000000000000e+00 -5.907129028088e+07 2.732016970835e+07  1.775811031117e-04
4.500000000000e-01 -7.000000000000e+07 6.684759947500e-01 -2.131502240121e-14 -1.849270749377e-07 3.310906251120e+01 7.112439638578e-05 6.366685890938e-05 1.891221378486e+07 -1.115694050652e+02 3.016347860518e+07 1.470467842356e+07 -1.745157378134e-04 -3.222802609680e-07 1.477305534531e-04 0.000000000000e+00 -2.126012360453e+07 1.384320802782e+07  2.793951991271e-04
5.425413849766e-01 -6.999999999989e+07 6.684759947436e-01 -3.761931487684e-12 -1.848676933305e-07 2.807634570670e+01 8.631382312586e-06 6.357648136165e-05 -3.411934979762e+05 -9.395040226149e+01 -1.264029675060e+05 -1.747386271601e+05 -7.088772101002e-04 -8.002084735206e-07 2.058458691896e-04 0.000000000000e+00 2.141116975474e+05 1.951647828790e+05  8.311442638462e-04
6.536499690359e-01 -6.999999993365e+07 6.684759878566e-01 -3.299515754527e-09 -1.848325880385e-07 2.599809537035e+01 -7.089840286549e-05 6.346183201266e-05 -3.256158393466e+05 -8.714034753542e+01 -1.130690546051e+05 -1.571563397485e+05 -7.174142727363e-04 -7.422048528254e-07 1.877534225350e-04 0.000000000000e+00 1.986137445667e+05 1.942916274325e+05  8.274256607606e-04
7.871337589362e-01 -6.999993003809e+07 6.684774325879e-01 -3.816477680429e-06 -1.848056506535e-07 2.525080984488e+01 -1.655537682068e-04 6.330578568648e-05 -2.987019524397e+05 -8.937500543417e+01 -1.011140467963e+05 -1.408314926535e+05 -6.723189927805e-04 -7.612382166317e-07 1.691436968684e-04 0.000000000000e+00 1.802158306298e+05 1.810270504130e+05  7.709362338146e-04
9.474533848814e-01 -6.991580129891e+07 6.507528602308e-01 -2.437363284039e-03 -1.580322805175e-07 2.505445512082e+01 -9.127064098649e-05 6.309055283419e-05 9.157271817777e+05 -1.029271725485e+02 5.958590543450e+05 5.284935160127e+05 1.649102362091e-03 -8.766667693404e-07 2.868879392699e-04 0.000000000000e+00 -6.800265840451e+05 3.583320458513e+05  1.526020320206e-03
1.140000000000e+00 1.349371324694e+05 9.738732786163e-01 -2.019618020084e-02 -7.176476130584e-04 2.500485102010e+01 3.100751550387e-06 6.277339162031e-05 -1.871247919502e+05 4.456844196958e+02 -4.420357261709e+06 1.129440138910e+05 -1.837665179446e-04 -8.227556228956e-07 4.529483524241e-05 0.000000000000e+00 1.498179346589e+06 4.390963452275e+06  2.101129699732e-04
1.240000000000e+00 1.413412552946e+05 1.000000000000e+00 -1.912507446065e-02 -1.252585888065e-03 2.500280428798e+01 2.342265987984e-06 6.276102543038e-05 -1.487323942242e+06 2.450445229844e+03 -1.320654526206e+07 -1.406055983839e+06 -6.549533025614e-06 7.153486340419e-08 4.256778793073e-06 0.000000000000e+00 5.366641729379e+06 1.176006666770e+07  9.429306100916e-06
1.487693532361e+00 1.556961197234e+05 1.000000000000e+00 -1.668949622423e-02 -1.060120106664e-03 2.500075208135e+01 1.007211877528e-06 6.274991221898e-05 -6.429891952381e+06 1.740066520191e+03 -1.668080226367e+07 -3.930460593426e+06 -4.509961754922e-06 1.171804642082e-07 2.488596545051e-06 0.000000000000e+00 9.013718269826e+06 1.170255421272e+07  6.147970138191e-06
1.823812918126e+00 1.717928622387e+05 1.000000000000e+00 -1.407500256654e-02 -8.343706375937e-04 2.500007432559e+01 -2.022252141850e-07 6.275154915761e-05 -1.234028072984e+07 -1.308218892594e+03 -1.817541876442e+07 -6.151699883017e+06 -3.021079514374e-06 1.163791996038e-07 1.262191328575e-06 0.000000000000e+00 1.222246645909e+07 1.041434574969e+07  3.817572671526e-06
2.280000000000e+00 1.897522717761e+05 1.000000000000e+00 -1.080450907902e-02 -6.178745246235e-04 2.500000402545e+01 -1.291325047568e-06 6.276215045585e-05 -1.870411284532e+07 -4.881124902084e+03 -1.727614923753e+07 -7.791030769285e+06 -1.956619753515e-06 9.352393686972e-08 5.985015034518e-07 0.000000000000e+00 1.459043095071e+07 1.027380299043e+07  2.320311391591e-06
2.850000000000e+00 2.074446307919e+05 1.000000000000e+00 -8.741383585309e-03 -5.169176379831e-04 2.499999994532e+01 -2.193508427413e-06 6.277792896530e-05 -2.296065472713e+07 -7.645463259137e+03 -1.625343047716e+07 -8.761175589745e+06 -1.318679563344e-06 7.681187008442e-08 3.320232332523e-07 0.000000000000e+00 1.599175359801e+07 1.230337959524e+07  1.518119778082e-06
3.420000000000e+00 2.215970185909e+05 1.000000000000e+00 -7.354823483911e-03 -4.556995872020e-04 2.500000000096e+01 -2.814082513509e-06 6.279384246796e-05 -2.542851342331e+07 -9.604704479290e+03 -1.551617005517e+07 -9.280355043536e+06 -9.406763846753e-07 6.831804821062e-08 2.517450775097e-07 0.000000000000e+00 1.674167950734e+07 1.410502592106e+07  1.095016146567e-06
3.972609728322e+00 2.330505661732e+05 1.000000000000e+00 -6.170055220174e-03 -4.143423897757e-04 2.500000000020e+01 -3.245933998054e-06 6.280909729845e-05 -2.697386826663e+07 -1.118607863104e+04 -1.505166050574e+07 -9.604608631759e+06 -6.863146152039e-07 6.364817110904e-08 2.433117723546e-07 0.000000000000e+00 1.721004580138e+07 1.538670437497e+07  8.422410961734e-07
4.633649783484e+00 2.447525257874e+05 1.000000000000e+00 -5.063055921838e-03 -3.843603950768e-04 2.499999999998e+01 -3.608579679534e-06 6.282718202281e-05 -2.833985710605e+07 -1.287395573576e+04 -1.459819311350e+07 -9.878365065861e+06 -4.541840087291e-07 5.994802824894e-08 2.731496314518e-07 0.000000000000e+00 1.760547176180e+07 1.661231153190e+07  6.447754088176e-07
5.424552109452e+00 2.565441707821e+05 1.000000000000e+00 -4.298457931970e-03 -3.623238966003e-04 2.500000000001e+01 -3.877958274639e-06 6.284895609273e-05 -2.921541267869e+07 -1.436964097173e+04 -1.425997084434e+07 -1.003956505691e+07 -2.621583679842e-07 5.851226043047e-08 3.249758288153e-07 0.000000000000e+00 1.783831619331e+07 1.745267080426e+07  5.194251495614e-07
6.370375975935e+00 2.680807782276e+05 1.000000000000e+00 -3.547741570992e-03 -3.462440019069e-04 2.499999999998e+01 -4.028287901507e-06 6.287521775870e-05 -2.991137375965e+07 -1.573847932374e+04 -1.401164619899e+07 -1.017385598759e+07 -8.777313745241e-08 5.805539506603e-08 3.962484670948e-07 0.000000000000e+00 1.803229198207e+07 1.812596292905e+07  4.578299129476e-07
7.501825115922e+00 2.794199820965e+05 1.000000000000e+00 -2.776495605589e-03 -3.349118681415e-04 2.499999999999e+01 -4.020673141577e-06 6.290688461034e-05 -3.047996310034e+07 -1.682170710698e+04 -1.380557025107e+07 -1.028261000542e+07 7.392249054683e-08 5.744667682931e-08 4.863241790209e-07 0.000000000000e+00 1.818938111894e+07 1.868664490544e+07  4.646781781178e-07
8.855503976798e+00 2.902924433088e+05 1.000000000000e+00 -2.217119764407e-03 -3.264088149119e-04 2.499999999998e+01 -3.814586723923e-06 6.294466019572e-05 -3.083071713285e+07 -1.711124740363e+04 -1.366010521937e+07 -1.034419670566e+07 2.116387141116e-07 5.625309564033e-08 5.728341333673e-07 0.000000000000e+00 1.827833968596e+07 1.904631773778e+07  5.110667692032e-07
1.047459878112e+01 3.001110515483e+05 1.000000000000e+00 -1.628522891811e-03 -3.210050958718e-04 2.499999999996e+01 -3.355501576417e-06 6.298794072209e-05 -3.110295325483e+07 -1.617994474142e+04 -1.355447435305e+07 -1.039417828235e+07 3.368536722122e-07 5.220299955431e-08 6.628320248209e-07 0.000000000000e+00 1.835053529674e+07 1.932345096800e+07  5.811322977409e-07
1.241154661369e+01 3.083650975032e+05 1.000000000000e+00 -1.171255185209e-03 -3.171848420128e-04 2.500000000001e+01 -2.591697255482e-06 6.303357063539e-05 -3.127133942424e+07 -1.351276388894e+04 -1.348470147755e+07 -1.042376227055e+07 4.400585420803e-07 4.352578084681e-08 7.322374049064e-07 0.000000000000e+00 1.839326772411e+07 1.949815897750e+07  6.428680218654e-07
1.472871140527e+01 3.143751555563e+05 1.000000000000e+00 -6.076283789138e-04 -3.149048949761e-04 2.499999999966e+01 -1.474656969668e-06 6.307287640935e-05 -3.138380869679e+07 -8.475210104447e+03 -1.344159548037e+07 -1.044457125306e+07 5.122201935871e-07 2.737255212464e-08 7.952845799073e-07 0.000000000000e+00 1.842332514341e+07 1.961322595881e+07  6.998100014356e-07
1.750000000000e+01 3.166832744713e+05 1.000000000000e+00 -2.790489179235e-04 -3.137548235771e-04 2.500000000003e+01 0.000000000000e+00 6.308990815894e-05 -3.141410605561e+07 -9.114131080800e+02 -1.342974268682e+07 -1.045010462278e+07 5.482444576200e-07 1.526298445769e-09 8.103979156899e-07 0.000000000000e+00 1.843131778840e+07 1.964440034505e+07  7.162594432764e-07
 TITLE = "Profiles along polylines"
 VARIABLES = "DIST" "PRESSURE1" "SATURATION1" "VELOCITY_X1" "VELOCITY_Y1" "TEMPERATURE1" "DISPLACEMENT_X1" "DISPLACEMENT_Y1" "STRESS_XX" "STRESS_XY" "STRESS_YY" "STRESS_ZZ" "STRAIN_XX" "STRAIN_XY" "STRAIN_YY" "STRAIN_PLS"  p_(1st_Invariant)  q_(2nd_Invariant)   Effective_Strain
 ZONE T="TIME=9.000000000000e-01"
0.000000000000e+00 -7.000000000000e+07 0.000000000000e+00 0.000000000000e+00 0.000000000000e+00 2.500000000000e+01 0.000000000000e+00 8.939159374632e-04 5.967931590947e+07 -8.770813952279e-01 6.107690437012e+07 3.622686608388e+07 1.524409238663e-04 -1.140205813796e-11 1.615252488606e-04 0.000000000000e+00 -5.232769545449e+07 2.418155349802e+07  1.571800977371e-04
1.856488293236e-01 -7.000000000000e+07 0.000000000000e+00 0.000000000000e+00 0.000000000000e+00 2.500000000000e+01 2.829477290773e-05 8.939155919647e-04 5.963899438061e+07 -1.166603428857e+02 6.107729915143e+07 3.621488805961e+07 1.522566910865e-04 -1.516584457514e-09 1.616056720968e-04 0.000000000000e+00 -5.231039386388e+07 2.417536931395e+07  1.571399005571e-04
3.329966101904e-01 -7.000000000000e+07 0.000000000000e+00 0.000000000000e+00 0.000000000000e+00 2.500000000000e+01 5.121876250820e-05 8.939148297685e-04 6.288321937492e+07 -2.175548701158e+02 6.038665392999e+07 3.698096199147e+07 1.683646729924e-04 -2.828213311508e-09 1.521369976003e-04 0.000000000000e+00 -5.341694509880e+07 2.474859785911e+07  1.608658861402e-04
4.500000000000e-01 -1.825455417321e+08 4.447347592060e-01 -3.515172207293e-03 -1.464769594080e-07 8.283348462567e+01 5.530186380196e-05 8.939139410344e-04 -1.906708171290e+07 -2.353299793241e+02 7.916541419446e+06 -4.384664940368e+06 -2.855755644543e-02 -6.063676587080e-07 4.004436660997e-04 0.000000000000e+00 5.178401744607e+06 2.339881362238e+07  2.875986924457e-02
5.425413849766e-01 -1.226642315127e+08 5.272211560514e-01 -5.012050668619e-03 -2.127082508063e-07 7.355501941886e+01 -5.462480460385e-03 8.937593417352e-04 -2.365450249573e+07 -6.650436381459e+01 -1.583726084588e+07 -1.376602266255e+07 -4.211182263341e-02 -5.664409536253e-07 -8.820730433761e-03 0.000000000000e+00 1.775259533472e+07 9.032755063154e+06  3.846756889033e-02
6.536499690359e-01 -7.854812253515e+07 6.273424054583e-01 -4.818317047137e-03 -2.543543314792e-07 6.573361624658e+01 -7.872673964841e-03 8.935906751952e-04 -7.311851060654e+06 2.716991842933e+01 -7.883741069619e+06 -5.379939493575e+06 -8.227383645288e-03 2.314157090195e-07 -1.066287737432e-02 0.000000000000e+00 6.858510541283e+06 2.272483533714e+06  9.677768998381e-03
7.871337589362e-01 -5.089559797900e+07 7.335714557578e-01 -4.050383162515e-03 -2.075721952959e-07 5.931954520063e+01 -7.038306965295e-03 8.933396617056e-04 5.267415077350e+06 -2.026720204720e+01 -7.440069964318e+05 1.384845014531e+06 1.653460436847e-02 -1.726228565535e-07 -9.066089005677e-03 0.000000000000e+00 -1.969417698483e+06 5.279372904469e+06  2.248313382179e-02
9.474533848814e-01 -2.984247135388e+07 8.166774406110e-01 -4.852515173949e-03 -1.408305575085e-07 5.367778754723e+01 -2.528249444081e-03 8.928574716569e-04 1.799171104595e+07 -2.743451847806e+02 7.419277046984e+06 8.561227560803e+06 4.016136499986e-02 -2.336694002863e-06 -4.863196194498e-03 0.000000000000e+00 -1.132407188458e+07 1.005023459562e+07  4.280068375261e-02
1.140000000000e+00 3.221762364192e+05 9.953957013209e-01 -8.315130152206e-03 -2.782604270400e-04 4.850921061954e+01 1.801299629674e-04 8.919501608732e-04 -3.912792840114e+06 6.331182282499e+01 -7.195619062343e+06 -6.096599698964e+06 -2.051207088318e-03 -2.575862421080e-06 1.539692215508e-04 0.000000000000e+00 5.735003867140e+06 2.894287821489e+06  2.132369504607e-03
1.240000000000e+00 3.242066392019e+05 1.000000000000e+00 -6.195659568350e-03 -5.131552921042e-04 4.754491137781e+01 2.004565398144e-04 8.919247764409e-04 -6.690004345095e+06 2.440673068355e+03 -1.698892097124e+07 -1.196444991454e+07 1.923769694371e-04 7.080893140787e-08 2.559374555920e-04 0.000000000000e+00 1.188112507696e+07 8.920000136725e+06  2.308168592503e-04
1.487693532361e+00 3.288737998542e+05 1.000000000000e+00 -5.441365883172e-03 -4.678346311736e-04 4.548073206582e+01 2.443297557916e-04 8.918931530946e-04 -1.169161520238e+07 1.766448532618e+03 -1.997648276997e+07 -1.373290743415e+07 1.641454859007e-04 1.191402708456e-07 2.441684889668e-04 0.000000000000e+00 1.513366846883e+07 7.476234221987e+06  2.155988841947e-04
1.823812918126e+00 3.341395924271e+05 1.000000000000e+00 -4.608994579182e-03 -4.155749781713e-04 4.320611496752e+01 2.933051016599e-04 8.918757876207e-04 -1.745270822700e+07 -1.680460246508e+03 -2.087192484606e+07 -1.490906311809e+07 1.323622478934e-04 8.872698474156e-08 2.263797427419e-04 0.000000000000e+00 1.774456539705e+07 5.182514334699e+06  1.969858994494e-04
2.280000000000e+00 3.400202934397e+05 1.000000000000e+00 -3.538235720054e-03 -3.661248476382e-04 4.068907690810e+01 3.450504038158e-04 8.918656538942e-04 -2.357331060533e+07 -5.546787307959e+03 -1.925124542687e+07 -1.536637109501e+07 9.855724697325e-05 4.407472957615e-08 2.086075694265e-04 0.000000000000e+00 1.939697570907e+07 7.110785354243e+06  1.807508424331e-04
2.850000000000e+00 3.458142124492e+05 1.000000000000e+00 -2.862576151826e-03 -3.433419752950e-04 3.823030640400e+01 3.918178471684e-04 8.918584853891e-04 -2.749016344122e+07 -8.438337160436e+03 -1.754914661243e+07 -1.518416881457e+07 6.901074512141e-05 1.791266598790e-08 1.907737437022e-04 0.000000000000e+00 2.007449295607e+07 1.131050101805e+07  1.673071038195e-04
3.420000000000e+00 3.504485616522e+05 1.000000000000e+00 -2.408345892576e-03 -3.295973454164e-04 3.628894648100e+01 4.238714569814e-04 8.918532574841e-04 -2.963726615876e+07 -1.042888169874e+04 -1.628679348223e+07 -1.478093941643e+07 4.704164157780e-05 7.093454765488e-09 1.759360087799e-04 0.000000000000e+00 2.023499968581e+07 1.416357677280e+07  1.577658921093e-04
3.972609728322e+00 3.541988347917e+05 1.000000000000e+00 -2.020220842614e-03 -3.203488140400e-04 3.474112344303e+01 4.442642471067e-04 8.918492777184e-04 -3.088618097684e+07 -1.201345292253e+04 -1.541297127426e+07 -1.434970819826e+07 3.024576861868e-05 2.186080884563e-09 1.630697528406e-04 0.000000000000e+00 2.021628681645e+07 1.603132160434e+07  1.502477314706e-04
4.633649783484e+00 3.580301911513e+05 1.000000000000e+00 -1.657640409160e-03 -3.136610608574e-04 3.319533788731e+01 4.577928850013e-04 8.918455811905e-04 -3.190953302689e+07 -1.368654279053e+04 -1.455196657448e+07 -1.383319849696e+07 1.385166637249e-05 -4.155815344949e-10 1.488839485215e-04 0.000000000000e+00 2.009823269944e+07 1.772789799533e+07  1.424640586465e-04
5.424552109452e+00 3.618906970247e+05 1.000000000000e+00 -1.407245040909e-03 -3.087556241191e-04 3.168500316570e+01 4.622044212520e-04 8.918425819667e-04 -3.245779321116e+07 -1.516155107640e+04 -1.384820581896e+07 -1.327055154461e+07 -6.853657451750e-07 -3.153473443811e-10 1.356271748864e-04 0.000000000000e+00 1.985885019157e+07 1.890505288772e+07  1.359711532419e-04
6.370375975935e+00 3.656674933688e+05 1.000000000000e+00 -1.161416025962e-03 -3.051804873803e-04 3.026718839136e+01 4.543959783220e-04 8.918408863794e-04 -3.281259414052e+07 -1.649345594431e+04 -1.326674720836e+07 -1.270540867997e+07 -1.381828728149e-05 1.971417537965e-09 1.220930252644e-04 0.000000000000e+00 1.959491667628e+07 1.983249571522e+07  1.295560434385e-04
7.501825115922e+00 3.693795180321e+05 1.000000000000e+00 -9.089023493106e-04 -3.026633816513e-04 2.895768555555e+01 4.311012122254e-04 8.918409301762e-04 -3.301879718603e+07 -1.754617838467e+04 -1.276594956668e+07 -1.213812878696e+07 -2.530636023510e-05 3.628810487136e-09 1.080200757706e-04 0.000000000000e+00 1.930762517989e+07 2.057396602051e+07  1.226472324490e-04
8.855503976798e+00 3.729386548895e+05 1.000000000000e+00 -7.257720745936e-04 -3.007762032506e-04 2.779623283947e+01 3.900292960074e-04 8.918434247590e-04 -3.305616206291e+07 -1.777756300151e+04 -1.239047141977e+07 -1.163908917105e+07 -3.435173854538e-05 6.755365511898e-09 9.582666683287e-05 0.000000000000e+00 1.902857421791e+07 2.105146375609e+07  1.168529193431e-04
1.047459878112e+01 3.761527329390e+05 1.000000000000e+00 -5.330852722073e-04 -2.995773716530e-04 2.684457941189e+01 3.280334953902e-04 8.918489730375e-04 -3.302958186166e+07 -1.677374629644e+04 -1.210744347636e+07 -1.120134247042e+07 -4.124325331046e-05 8.092026895775e-09 8.439007728719e-05 0.000000000000e+00 1.877945593615e+07 2.138960748494e+07  1.109198477237e-04
1.241154661369e+01 3.788546175728e+05 1.000000000000e+00 -3.833975232918e-04 -2.987301023611e-04 2.612776105972e+01 2.434548490441e-04 8.918573397340e-04 -3.297215889888e+07 -1.395827130654e+04 -1.192089238920e+07 -1.087854417187e+07 -4.584133703810e-05 1.043094411081e-08 7.570847416412e-05 0.000000000000e+00 1.859053181998e+07 2.159133266120e+07  1.063192327329e-04
1.472871140527e+01 3.808219314875e+05 1.000000000000e+00 -1.988984535369e-04 -2.982245709674e-04 2.565559885442e+01 1.344402396453e-04 8.918651599794e-04 -3.290178028072e+07 -8.773182951436e+03 -1.182176712765e+07 -1.065511537002e+07 -4.804937143666e-05 5.237426348382e-09 6.878054773959e-05 0.000000000000e+00 1.845955425946e+07 2.168689226605e+07  1.017072662648e-04
1.750000000000e+01 3.815774611815e+05 1.000000000000e+00 -9.134233618292e-05 -2.979695961118e-04 2.547503917203e+01 0.000000000000e+00 8.918706572566e-04 -3.287153810203e+07 -8.369469106079e+02 -1.178211915985e+07 -1.056529203212e+07 -4.930655634815e-05 7.058073115131e-09 6.628623269273e-05 0.000000000000e+00 1.840631643133e+07 2.172340762302e+07  1.004656516444e-04
 TITLE = "Profiles along polylines"
 VARIABLES = "DIST" "PRESSURE1" "SATURATION1" "VELOCITY_X1" "VELOCITY_Y1" "TEMPERATURE1" "DISPLACEMENT_X1" "DISPLACEMENT_Y1" "STRESS_XX" "STRESS_XY" "STRESS_YY" "STRESS_ZZ" "STRAIN_XX" "STRAIN_XY" "STRAIN_YY" "STRAIN_PLS"  p_(1st_Invariant)  q_(2nd_Invariant)   Effective_Strain
 ZONE T="TIME=1.000000000000e+00"
0.000000000000e+00 -7.000000000000e+07 0.000000000000e+00 0.000000000000e+00 0.000000000000e+00 2.500000000000e+01 0.000000000000e+00 9.845313052452e-04 5.920086891593e+07 -6.707052966328e-01 6.066228543428e+07 3.595894630506e+07 1.510724969706e-04 -8.719168856225e-12 1.605717043399e-04 0.000000000000e+00 -5.194070021842e+07 2.400601663149e+07  1.560391081047e-04
1.856488293236e-01 -7.000000000000e+07 0.000000000000e+00 0.000000000000e+00 0.000000000000e+00 2.500000000000e+01 2.804159423775e-05 9.845309518252e-04 5.916139690056e+07 -1.162283076431e+02 6.066020914408e+07 3.594648181339e+07 1.508969480666e-04 -1.510967999361e-09 1.606392276495e-04 0.000000000000e+00 -5.192269595268e+07 2.399944831973e+07  1.559964140947e-04