 TITLE = "Time curves in points"
 VARIABLES = "TIME"  "PRESSURE1"  "SATURATION1"  "TEMPERATURE1"  "DISPLACEMENT_X1"  "DISPLACEMENT_Y1"  "STRESS_XX"  "STRESS_XY"  "STRESS_YY"  "STRESS_ZZ"  "STRAIN_XX"  "STRAIN_XY"  "STRAIN_YY"  "STRAIN_PLS"  p_(1st_Invariant)  q_(2nd_Invariant)   Effective_Strain
 ZONE T="POINT=POINT1"
0.000000000000e+00 -7.000000000000e+07 6.684759947500e-01 2.500000000000e+01 0.000000000000e+00 0.000000000000e+00 0.000000000000e+00 0.000000000000e+00 0.000000000000e+00 0.000000000000e+00 0.000000000000e+00 0.000000000000e+00 0.000000000000e+00 0.000000000000e+00 -0.000000000000e+00 0.000000000000e+00  0.000000000000e+00
1.000000000000e-03 -7.000000000000e+07 6.684759947500e-01 3.310906251120e+01 4.117234909758e-05 6.346411752175e-05 1.496806054060e+07 -8.389488890383e+01 2.081611215354e+07 1.051590897790e+07 -5.354211821711e-03 -2.426750332932e-07 1.593633344729e-04 0.000000000000e+00 -1.543336055735e+07 8.947500955759e+06  5.435645879762e-03
2.000000000000e-03 -7.015907471057e+07 6.678662381927e-01 3.680326491090e+01 4.114062829605e-05 6.323968014433e-05 1.491128001058e+07 -1.490381387235e+02 2.076376203087e+07 1.047692370740e+07 -5.388137177673e-03 -4.321219863351e-07 1.590317974197e-04 0.000000000000e+00 -1.538398858295e+07 8.936836813101e+06  5.469387448180e-03
3.000000000000e-03 -7.037130643829e+07 6.670521895367e-01 3.937002963826e+01 4.110964099631e-05 6.290169619479e-05 1.484503327005e+07 -1.718167717355e+02 2.070692225688e+07 1.043465892970e+07 -5.444759580629e-03 -4.975339059553e-07 1.587803292103e-04 0.000000000000e+00 -1.532887148554e+07 8.925596292572e+06  5.525860977721e-03
4.000000000000e-03 -7.061820310675e+07 6.661049303527e-01 4.139950482367e+01 4.107935749508e-05 6.237228143728e-05 1.477286409445e+07 -1.443454575916e+02 2.064707773258e+07 1.039006948987e+07 -5.514459344076e-03 -4.125294412167e-07 1.585648063616e-04 0.000000000000e+00 -1.527000377230e+07 8.914075740881e+06  5.595427092180e-03
1.000000000000e-02 -7.212935243525e+07 6.602938370899e-01 4.814735807511e+01 4.091603954089e-05 5.965814295576e-05 1.435255903047e+07 -1.675626228107e+02 2.031818562759e+07 1.014177011028e+07 -5.970190791588e-03 -4.814455155905e-07 1.576692166296e-04 0.000000000000e+00 -1.493750492278e+07 8.856604230065e+06  6.050566392532e-03
2.000000000000e-02 -7.524730940055e+07 6.482622408616e-01 5.436284697329e+01 4.065899710050e-05 5.788901655314e-05 1.356348120840e+07 -1.817720785341e+02 1.974874815241e+07 9.696364154198e+06 -6.916666849305e-03 -5.242897564945e-07 1.560557570411e-04 0.000000000000e+00 -1.433619783834e+07 8.782441167612e+06  6.996000300857e-03
3.000000000000e-02 -7.893055077024e+07 6.339986410985e-01 5.830141004820e+01 4.040064152554e-05 5.826279729934e-05 1.269395110818e+07 -1.825965751469e+02 1.916932606286e+07 9.222686973231e+06 -8.012233590729e-03 -5.265426768868e-07 1.536559220179e-04 0.000000000000e+00 -1.369532138142e+07 8.744020381882e+06  8.090156069343e-03
4.000000000000e-02 -8.274830792201e+07 6.191580337515e-01 6.102918923515e+01 4.013833520603e-05 6.099670823069e-05 1.183015221372e+07 -1.977776436480e+02 1.863875327765e+07 8.766859499708e+06 -9.123345348581e-03 -5.723678536650e-07 1.503708624106e-04 0.000000000000e+00 -1.307858833036e+07 8.752002562190e+06  9.199452594404e-03
5.000000000000e-02 -8.646459330674e+07 6.110473733131e-01 6.303909276829e+01 3.987560739887e-05 6.465026484270e-05 1.089075728548e+07 -1.734561636504e+02 1.803180653435e+07 8.257278338916e+06 -1.037282264710e-02 -4.979013251461e-07 1.595803929373e-04 0.000000000000e+00 -1.239328071958e+07 8.759885768681e+06  1.045352645894e-02
6.000000000000e-02 -8.999223956686e+07 6.035635923876e-01 6.459150071785e+01 3.961306547172e-05 7.064880546127e-05 9.980668804971e+06 -1.641914916808e+02 1.749879515609e+07 7.780320612783e+06 -1.158063684302e-02 -4.692804782852e-07 1.665289517713e-04 0.000000000000e+00 -1.175326152462e+07 8.826451824177e+06  1.166479290672e-02
7.000000000000e-02 -9.331717808832e+07 5.965377192733e-01 6.584443884672e+01 3.935295715734e-05 7.671974877812e-05 9.109914680114e+06 -1.822036266762e+02 1.702873300742e+07 7.336285163258e+06 -1.272930552173e-02 -5.237796406340e-07 1.713127528047e-04 0.000000000000e+00 -1.115831095026e+07 8.938595828618e+06  1.281582070404e-02
8.000000000000e-02 -9.644616749832e+07 5.900015872083e-01 6.688978167670e+01 3.909873021707e-05 8.358686255236e-05 8.283268939805e+06 -2.036607455403e+02 1.660515164433e+07 6.921807744513e+06 -1.381280439958e-02 -5.885486380527e-07 1.746225555684e-04 0.000000000000e+00 -1.060340944288e+07 9.079494965726e+06  1.390093833743e-02
9.000000000000e-02 -9.940042925394e+07 5.839014698215e-01 6.778635897997e+01 3.884822753230e-05 8.977501966406e-05 7.507952688531e+06 -1.934093648341e+02 1.621918042140e+07 6.536674345036e+06 -1.482557011737e-02 -5.573685244818e-07 1.775858108159e-04 0.000000000000e+00 -1.008793581832e+07 9.235252957489e+06  1.491515597797e-02
1.000000000000e-01 -1.021958467132e+08 5.772939128518e-01 6.856670098494e+01 3.860402525492e-05 9.532683142212e-05 6.804558467329e+06 -1.913848048560e+02 1.588655169039e+07 6.193345605638e+06 -1.574196114405e-02 -5.500241634582e-07 1.789399280315e-04 0.000000000000e+00 -9.628151921120e+06 9.402511007369e+06  1.583218956621e-02
2.000000000000e-01 -1.187516715383e+08 5.380454143739e-01 7.279261553079e+01 3.687111023504e-05 1.902723645348e-04 2.857329867961e+06 -1.876218175993e+02 1.406743929957e+07 4.289380908726e+06 -2.070685712940e-02 -5.433380057567e-07 1.907564114386e-04 0.000000000000e+00 -7.071383358751e+06 1.056711289231e+07  2.080289130937e-02
3.000000000000e-01 -1.341076682495e+08 5.086722595976e-01 7.558238944071e+01 3.535460874699e-05 3.001214815015e-04 -4.318626794472e+05 -1.960915272212e+02 1.235605043290e+07 2.644867973590e+06 -2.481446686354e-02 -5.664602246382e-07 2.141499069423e-04 0.000000000000e+00 -4.856351909013e+06 1.156079708041e+07  2.492223189517e-02
4.000000000000e-01 -1.471562405977e+08 4.912841607164e-01 7.759060160320e+01 3.404635650094e-05 4.057403398333e-04 -3.340540727328e+06 -2.180324312966e+02 1.077218467562e+07 1.166834758336e+06 -2.838345515243e-02 -6.283549737380e-07 2.411818034640e-04 0.000000000000e+00 -2.866159568877e+06 1.248495493357e+07  2.850481133316e-02
5.000000000000e-01 -1.578188187449e+08 4.765742241596e-01 7.913407279571e+01 3.288317377415e-05 5.083181749275e-04 -5.635554141529e+06 -2.263268073103e+02 9.535733271697e+06 9.174208180543e+03 -3.109060254296e-02 -6.472189423882e-07 2.558284792427e-04 0.000000000000e+00 -1.303117779450e+06 1.328130731168e+07  3.121930296338e-02
6.000000000000e-01 -1.664470105045e+08 4.628553684482e-01 8.036202926716e+01 3.188181211923e-05 6.083763067600e-04 -7.362838166276e+06 -2.716239364414e+02 8.604528929969e+06 -8.575807660450e+05 -3.304476735585e-02 -7.713874128190e-07 2.616286297936e-04 0.000000000000e+00 -1.280366658829e+05 1.390695340777e+07  3.317635540761e-02
7.000000000000e-01 -1.732705738903e+08 4.540722539412e-01 8.135405474006e+01 3.100474310195e-05 7.058224527815e-04 -8.830522701191e+06 -2.599721016584e+02 7.759021702531e+06 -1.611247228608e+06 -3.468965967746e-02 -7.191853354836e-07 2.722076420055e-04 0.000000000000e+00 8.942494090894e+05 1.440716596211e+07  3.482656137997e-02
8.000000000000e-01 -1.785574945229e+08 4.487369201661e-01 8.216210467788e+01 3.024129019293e-05 8.010123868442e-04 -1.006713324026e+07 -2.515892513128e+02 7.012233163917e+06 -2.257202780546e+06 -3.606371264738e-02 -6.793764992111e-07 2.858383347454e-04 0.000000000000e+00 1.770700952296e+06 1.480915618227e+07  3.620747804555e-02
9.000000000000e-01 -1.825455417321e+08 4.447347592060e-01 8.283348462567e+01 2.954103147584e-05 8.938826157238e-04 -1.107512802761e+07 -2.359768235928e+02 6.386802737285e+06 -2.787023597432e+06 -3.713235718549e-02 -6.144361804933e-07 2.959384235856e-04 0.000000000000e+00 2.491782962585e+06 1.512895883789e+07  3.728120735818e-02
1.000000000000e+00 -1.854867374019e+08 4.417945786223e-01 8.339527917161e+01 2.891585401457e-05 9.845458447439e-04 -1.191862944841e+07 -2.404125332842e+02 5.853055009645e+06 -3.232068010793e+06 -3.798058741200e-02 -6.060891766444e-07 3.024367048009e-04 0.000000000000e+00 3.099214149852e+06 1.539202031459e+07  3.813270529252e-02
2.000000000000e+00 -1.860998072911e+08 4.410419393713e-01 8.535753342327e+01 2.496270340590e-05 1.735883600726e-03 -1.527939418407e+07 -1.244400794668e+02 3.159159854403e+06 -5.140965810339e+06 -4.031395505713e-02 -1.779559513027e-07 3.179514033884e-04 0.000000000000e+00 5.753733380001e+06 1.599468804107e+07  4.047386742238e-02
3.000000000000e+00 -1.774891049769e+08 4.495795701855e-01 8.593561658345e+01 2.200113501747e-05 2.373383605824e-03 -1.682085186802e+07 2.541732413986e+02 1.496029663822e+06 -6.116799526667e+06 -4.053567471825e-02 1.130531487259e-06 3.161004895374e-04 0.000000000000e+00 7.147207243621e+06 1.593800574490e+07  4.069464577607e-02
4.000000000000e+00 -1.655179178190e+08 4.640228359022e-01 8.594181032048e+01 1.959361016313e-05 2.928425767513e-03 -1.753745989003e+07 5.505198134506e+02 3.314351905451e+05 -6.664150314643e+06 -3.987044374446e-02 2.264158053012e-06 3.096570961712e-04 0.000000000000e+00 7.956725004710e+06 1.559590476538e+07  4.002617085245e-02
5.000000000000e+00 -1.531383084912e+08 4.825992387004e-01 8.575846034028e+01 1.754962589166e-05 3.420065135630e-03 -1.788799300504e+07 8.767071749787e+02 -6.054557262390e+05 -7.024230126897e+06 -3.891613342409e-02 3.540948865277e-06 3.090600425910e-04 0.000000000000e+00 8.505892952726e+06 1.513122777708e+07  3.907158069825e-02
6.000000000000e+00 -1.414940115436e+08 4.976938466234e-01 8.561855106046e+01 1.573791197073e-05 3.863625615891e-03 -1.785661224484e+07 1.147607594534e+03 -1.227222938256e+06 -7.157815238197e+06 -3.756255554955e-02 4.643941433152e-06 2.964221619780e-04 0.000000000000e+00 8.747216807096e+06 1.459747887529e+07  3.771164122834e-02
7.000000000000e+00 -1.312343115127e+08 5.110276230506e-01 8.535781862233e+01 1.416448416887e-05 4.266776672204e-03 -1.776730491646e+07 1.511655771509e+03 -1.723749836359e+06 -7.237265439457e+06 -3.625433547018e-02 5.849329605534e-06 2.790023340592e-04 0.000000000000e+00 8.909440064092e+06 1.411871557564e+07  3.639464012113e-02
8.000000000000e+00 -1.218124767845e+08 5.294013430437e-01 8.528219644329e+01 1.272398878472e-05 4.639897496671e-03 -1.781330443940e+07 1.452909973910e+03 -2.289670359692e+06 -7.392670165795e+06 -3.523707852417e-02 5.875579451672e-06 2.736476577553e-04 0.000000000000e+00 9.165214988295e+06 1.370425943624e+07  3.537469764578e-02
9.000000000000e+00 -1.135309107159e+08 5.485280278307e-01 8.520333284130e+01 1.139264834185e-05 4.985306816429e-03 -1.785550975415e+07 1.516156769744e+03 -2.842166203713e+06 -7.547154785933e+06 -3.432421510930e-02 6.328417278541e-06 2.738653623117e-04 0.000000000000e+00 9.414943581267e+06 1.330036837959e+07  3.446196568479e-02
1.000000000000e+01 -1.060027448602e+08 5.654957290928e-01 8.512020154099e+01 1.015207769528e-05 5.307097284702e-03 -1.778485939754e+07 1.559312851430e+03 -3.296103309464e+06 -7.633394656458e+06 -3.332413717125e-02 6.695300085240e-06 2.718625183458e-04 0.000000000000e+00 9.571452454489e+06 1.287999223965e+07  3.346089875917e-02
1.100000000000e+01 -9.920712317928e+07 5.774470269866e-01 8.508991988987e+01 9.026159167649e-06 5.610607024496e-03 -1.755151968919e+07 1.501897432991e+03 -3.587835570837e+06 -7.613386381018e+06 -3.217647692966e-02 6.626201424964e-06 2.630607703675e-04 0.000000000000e+00 9.584247213681e+06 1.244901684206e+07  3.230881256100e-02
1.200000000000e+01 -9.310164138532e+07 5.881956835387e-01 8.506072826050e+01 7.970265816447e-06 5.894741725252e-03 -1.730645074840e+07 1.637193425728e+03 -3.830530007900e+06 -7.576007357918e+06 -3.106822935271e-02 7.059164460512e-06 2.539761032418e-04 0.000000000000e+00 9.570996038072e+06 1.204804102420e+07  3.119599519641e-02
1.300000000000e+01 -8.749469948919e+07 5.980313935091e-01 8.501131504997e+01 6.977551208879e-06 6.162371613543e-03 -1.710385593950e+07 1.831575270609e+03 -4.035179993198e+06 -7.542417952512e+06 -3.002463242898e-02 7.617269548954e-06 2.400431481494e-04 0.000000000000e+00 9.560484628402e+06 1.171563326499e+07  3.014537368431e-02
1.400000000000e+01 -8.219117683120e+07 6.142796177226e-01 8.492254073212e+01 6.041018773030e-06 6.415716474325e-03 -1.703071567970e+07 1.771358395125e+03 -4.331315357683e+06 -7.587398366735e+06 -2.919578756340e-02 7.432679218015e-06 2.352731493218e-04 0.000000000000e+00 9.649809801373e+06 1.142482178855e+07  2.931413508059e-02
1.500000000000e+01 -7.715797270225e+07 6.332700015334e-01 8.481756001037e+01 5.164540173547e-06 6.654798468142e-03 -1.695332049129e+07 1.637389927365e+03 -4.625970090333e+06 -7.633864496561e+06 -2.840694127995e-02 7.183264743390e-06 2.345459774478e-04 0.000000000000e+00 9.737718359396e+06 1.113245868600e+07  2.852494019809e-02
1.600000000000e+01 -7.243873170816e+07 6.510621195969e-01 8.470075219002e+01 4.344871109209e-06 6.880470683216e-03 -1.681157457984e+07 1.636251292634e+03 -4.860836851027e+06 -7.640370207841e+06 -2.756670213203e-02 7.254137925036e-06 2.313894242201e-04 0.000000000000e+00 9.770927212901e+06 1.083182679979e+07  2.768312498081e-02
1.700000000000e+01 -6.798215785606e+07 6.678476487847e-01 8.456897411303e+01 3.564128242698e-06 7.093925358341e-03 -1.662374067107e+07 1.598661041632e+03 -5.057008794690e+06 -7.619536147649e+06 -2.669595339213e-02 7.201808077079e-06 2.270169845316e-04 0.000000000000e+00 9.766761871138e+06 1.052215631819e+07  2.681018565140e-02
1.800000000000e+01 -6.374879270820e+07 6.837835260982e-01 8.442126094455e+01 2.818229549232e-06 7.296159625995e-03 -1.639328517086e+07 1.501768031269e+03 -5.215790430207e+06 -7.572716403949e+06 -2.578779480074e-02 7.013678712692e-06 2.209517284730e-04 0.000000000000e+00 9.727264001672e+06 1.020524217319e+07  2.589898040003e-02
1.900000000000e+01 -5.970229451246e+07 6.990164963757e-01 8.425635540426e+01 2.105860317398e-06 7.487594390519e-03 -1.611564055884e+07 1.376811156539e+03 -5.342571439167e+06 -7.500100836180e+06 -2.484109853344e-02 6.721941394514e-06 2.141067604042e-04 0.000000000000e+00 9.652770944727e+06 9.872727268654e+06  2.494884367537e-02
2.000000000000e+01 -5.591167274559e+07 7.132931210343e-01 8.407728787583e+01 1.434162964238e-06 7.670547576848e-03 -1.580673246640e+07 1.257053405182e+03 -5.435217398094e+06 -7.406845022611e+06 -2.388544897954e-02 6.285078908870e-06 2.066532212285e-04 0.000000000000e+00 9.549598295701e+06 9.539752587233e+06  2.398944563734e-02
2.100000000000e+01 -5.230263645346e+07 7.252707748085e-01 8.398894200474e+01 8.058394961699e-07 7.843877582845e-03 -1.544333770641e+07 1.128015084296e+03 -5.478818695694e+06 -7.279409349861e+06 -2.288512111844e-02 5.989956599293e-06 1.971888634063e-04 0.000000000000e+00 9.400521917322e+06 9.197377334442e+06  2.298435230140e-02
2.200000000000e+01 -4.892775349576e+07 7.360609168376e-01 8.389868228381e+01 1.997195276052e-07 8.009844324189e-03 -1.507974299697e+07 1.024193650247e+03 -5.512433784900e+06 -7.148885961432e+06 -2.190436552777e-02 5.717816826656e-06 1.873881949443e-04 0.000000000000e+00 9.247020914432e+06 8.863122499922e+06  2.199866043894e-02
2.300000000000e+01 -4.578630731372e+07 7.458698453962e-01 8.379980671317e+01 -3.705912865154e-07 8.169313837095e-03 -1.472089451519e+07 9.406907101317e+02 -5.527410958356e+06 -7.014754478815e+06 -2.095124036409e-02 5.386692587761e-06 1.768294497924e-04 0.000000000000e+00 9.087686650786e+06 8.547424472530e+06  2.104021446667e-02
2.400000000000e+01 -4.273737162208e+07 7.561677636123e-01 8.368692938956e+01 -9.089712719767e-07 8.321203859504e-03 -1.435109378262e+07 8.331050548023e+02 -5.526403528398e+06 -6.872829891694e+06 -1.999548898144e-02 5.093540352245e-06 1.660733369111e-04 0.000000000000e+00 8.916775734239e+06 8.234453746959e+06  2.007904269060e-02
2.500000000000e+01 -3.972039199675e+07 7.706768458512e-01 8.355718390763e+01 -1.427291798884e-06 8.466191078524e-03 -1.399451731395e+07 7.256237190749e+02 -5.542916536909e+06 -6.743617512732e+06 -1.906048480538e-02 4.834803549615e-06 1.577968398394e-04 0.000000000000e+00 8.760350454531e+06 7.919810275960e+06  1.913987291631e-02
2.600000000000e+01 -3.674690137144e+07 7.856724807927e-01 8.341465035837e+01 -1.926995958060e-06 8.604653953758e-03 -1.360323787130e+07 6.388051079103e+02 -5.534171210577e+06 -6.595228794070e+06 -1.808642327057e-02 4.619205383362e-06 1.491349006494e-04 0.000000000000e+00 8.577545958648e+06 7.594335838161e+06  1.816145172858e-02
2.700000000000e+01 -3.382536400471e+07 8.010888143274e-01 8.325927508362e+01 -2.409290666211e-06 8.736834739263e-03 -1.318027685096e+07 5.487736278921e+02 -5.503174918007e+06 -6.429544337397e+06 -1.707614001552e-02 4.397011362385e-06 1.400130276512e-04 0.000000000000e+00 8.370998702120e+06 7.258389823735e+06  1.714657696285e-02
2.800000000000e+01 -3.094423886445e+07 8.170103714323e-01 8.309101773899e+01 -2.876235683069e-06 8.863101229784e-03 -1.272439257257e+07 4.201799899389e+02 -5.450702429364e+06 -6.246317850876e+06 -1.602540282561e-02 4.055055128085e-06 1.304000486436e-04 0.000000000000e+00 8.140470950938e+06 6.910319289208e+06  1.609100066914e-02
2.900000000000e+01 -2.809010080804e+07 8.334582007690e-01 8.290988114144e+01 -3.332729190909e-06 8.983543235610e-03 -1.223185026248e+07 2.997587354410e+02 -5.374008335759e+06 -6.043347392291e+06 -1.492703751836e-02 3.746251726876e-06 1.201974624135e-04 0.000000000000e+00 7.883068663510e+06 6.548876963952e+06  1.498749914558e-02
3.000000000000e+01 -2.525050293831e+07 8.504808551470e-01 8.271590707982e+01 -3.773504431844e-06 9.098134946944e-03 -1.169550757517e+07 2.237079604231e+02 -5.270683604011e+06 -5.817438523247e+06 -1.377169594129e-02 3.567537902079e-06 1.093767809988e-04 0.000000000000e+00 7.594543234144e+06 6.169643428986e+06  1.382671017750e-02
3.100000000000e+01 -2.240930200359e+07 8.681657928440e-01 8.259379673141e+01 -4.205612474936e-06 9.208903452459e-03 -1.111275957194e+07 8.088745731316e+01 -5.139570469433e+06 -5.567325450499e+06 -1.255114470675e-02 3.196126765789e-06 9.781985709190e-05 0.000000000000e+00 7.273218497290e+06 5.771213131249e+06  1.260034063037e-02
3.200000000000e+01 -1.960626311165e+07 8.861326011886e-01 8.247041856742e+01 -4.632198875756e-06 9.315643636612e-03 -1.049896663560e+07 -2.135551817046e+01 -4.990004279211e+06 -5.300912715881e+06 -1.128737028159e-02 2.934150042532e-06 8.570919757377e-05 0.000000000000e+00 6.929961210230e+06 5.360274939546e+06  1.133046915258e-02
3.300000000000e+01 -1.677025423042e+07 9.047373427703e-01 8.234022744185e+01 -5.053590833890e-06 9.418549228944e-03 -9.827150272264e+06 -1.630162031744e+02 -4.805837363478e+06 -5.003918469288e+06 -9.939614266410e-03 2.543880791772e-06 7.262204090901e-05 0.000000000000e+00 6.545635368344e+06 4.925260634581e+06  9.976124508731e-03
3.400000000000e+01 -1.387183897452e+07 9.239741181844e-01 8.220176805925e+01 -5.467682218910e-06 9.517375857300e-03 -9.080547363322e+06 -2.441519410828e+02 -4.577069658696e+06 -4.667437570312e+06 -8.485448669817e-03 2.292023383185e-06 5.839966976409e-05 0.000000000000e+00 6.108351530777e+06 4.458980612109e+06  8.514799634152e-03
3.500000000000e+01 -1.087324667103e+07 9.437517590390e-01 8.205443775994e+01 -5.883298952641e-06 9.612542315980e-03 -8.248067953304e+06 -3.477180078886e+02 -4.298212380724e+06 -4.285608814007e+06 -6.903511851972e-03 1.956218069331e-06 4.270754076453e-05 0.000000000000e+00 5.610629716012e+06 3.956172458968e+06  6.924965221469e-03
3.600000000000e+01 -7.735474268510e+06 9.636979323476e-01 8.189801261950e+01 -6.307268504293e-06 9.703842999641e-03 -7.315742861827e+06 -4.504456983497e+02 -3.963647241102e+06 -3.851392740124e+06 -5.170358168616e-03 1.517859945298e-06 2.532231283512e-05 0.000000000000e+00 5.043594281018e+06 3.409609149640e+06  5.183066384874e-03
3.700000000000e+01 -4.373860178370e+06 9.829980795009e-01 8.173236980522e+01 -6.777588107130e-06 9.787625221501e-03 -6.273932205814e+06 3.679041891979e+02 -3.577037671433e+06 -3.361097811417e+06 -3.251024312092e-03 3.680182612619e-06 5.564598346594e-06 0.000000000000e+00 4.404022562888e+06 2.811091885196e+06  3.253816423573e-03
3.800000000000e+01 1.969319373483e+06 1.000000000000e+00 8.155815856454e+01 -8.480988199867e-06 9.777965571051e-03 -4.879205557169e+06 6.151357094262e+03 -3.368641767252e+06 -2.765880107795e+06 -1.115270342360e-05 2.483200837632e-05 -3.466389731734e-05 0.000000000000e+00 3.671242477405e+06 1.885669121513e+06  5.281342939631e-05
3.900000000000e+01 2.143157947788e+06 1.000000000000e+00 8.137922573310e+01 -8.546609249587e-06 9.968902714624e-03 -4.885079347991e+06 -5.735311379116e+02 -3.429220862872e+06 -2.783332974645e+06 4.550908372918e-05 -1.743286445647e-06 -3.473043407442e-05 0.000000000000e+00 3.699211061836e+06 1.864676229852e+06  6.976350857006e-05
4.000000000000e+01 2.172544101843e+06 1.000000000000e+00 8.118933133057e+01 -8.586238985585e-06 1.004385056095e-02 -4.901502870648e+06 -5.762404864257e+02 -3.443772151787e+06 -2.792442524794e+06 4.335774780741e-05 -1.751474900794e-06 -3.493842908713e-05 0.000000000000e+00 3.712572515743e+06 1.870474093175e+06  6.800472566034e-05
4.200000000000e+01 2.229827605392e+06 1.000000000000e+00 8.091450153903e+01 -8.663346601051e-06 1.018415941928e-02 -4.933775564039e+06 -5.571061483881e+02 -3.472830482720e+06 -2.810601122457e+06 3.966746504984e-05 -1.693099758612e-06 -3.533765810371e-05 0.000000000000e+00 3.739069056405e+06 1.881592387822e+06  6.505853473515e-05
4.400000000000e+01 2.285593809494e+06 1.000000000000e+00 8.061916116606e+01 -8.737372637435e-06 1.031503892908e-02 -4.964676691245e+06 -5.776488356221e+02 -3.500949242978e+06 -2.828027370512e+06 3.621768946442e-05 -1.755720997509e-06 -3.571385348152e-05 0.000000000000e+00 3.764551101578e+06 1.892167303797e+06  6.236923347513e-05
5.000000000000e+01 2.437116678573e+06 1.000000000000e+00 7.942409543209e+01 -8.925678146540e-06 1.058873674581e-02 -5.042620753404e+06 -5.763614876770e+02 -3.575781977263e+06 -2.872493415878e+06 2.800274617812e-05 -1.751315275385e-06 -3.656238528143e-05 0.000000000000e+00 3.830298715515e+06 1.917770248231e+06  5.616057621916e-05
6.500000000000e+01 2.768502507756e+06 1.000000000000e+00 7.676123224804e+01 -9.312805315300e-06 1.105305795584e-02 -5.201531889294e+06 -5.666867007045e+02 -3.737629098194e+06 -2.965373162018e+06 1.731977509582e-05 -1.722333296004e-06 -3.814887520640e-05 0.000000000000e+00 3.968178049835e+06 1.967205936491e+06  4.924368511357e-05
8.000000000000e+01 3.023556374630e+06 1.000000000000e+00 7.431444500797e+01 -9.590051847678e-06 1.127344323763e-02 -5.314611841888e+06 -5.766372881303e+02 -3.860867462425e+06 -3.032995561516e+06 1.232737957014e-05 -1.752764946956e-06 -3.909147774462e-05 0.000000000000e+00 4.069491621943e+06 2.000564851618e+06  4.659635134126e-05
1.000000000000e+02 3.324236305531e+06 1.000000000000e+00 7.184336417688e+01 -9.910628160849e-06 1.145789119172e-02 -5.447374986270e+06 -5.575706286488e+02 -4.010413339240e+06 -3.114287304133e+06 9.687455048630e-06 -1.694641527810e-06 -4.007416893036e-05 0.000000000000e+00 4.190691876548e+06 2.038528960265e+06  4.578884078709e-05
1.860000000000e+02 3.922717201764e+06 1.000000000000e+00 6.661921361739e+01 -1.052073859443e-05 1.167724549736e-02 -5.697066013752e+06 -5.720102460916e+02 -4.303108079473e+06 -3.269504054274e+06 1.191644942947e-05 -1.738372813317e-06 -4.176409215527e-05 0.000000000000e+00 4.423226049166e+06 2.110037325941e+06  4.891816301548e-05
2.720000000000e+02 4.213038211969e+06 1.000000000000e+00 6.336129275053e+01 -1.077967406690e-05 1.150918576568e-02 -5.803642792539e+06 -5.869280336522e+02 -4.445988491687e+06 -3.339492468708e+06 1.731863970374e-05 -1.784074240438e-06 -4.200273662257e-05 0.000000000000e+00 4.529707917645e+06 2.137708765810e+06  5.292583669435e-05
3.580000000000e+02 4.354403691727e+06 1.000000000000e+00 6.123180505088e+01 -1.088683528378e-05 1.133326812653e-02 -5.845662043989e+06 -5.747542717698e+02 -4.511615438874e+06 -3.368545912597e+06 2.261212383161e-05 -1.746904493746e-06 -4.190829946393e-05 0.000000000000e+00 4.575274465153e+06 2.147369856008e+06  5.678383917204e-05
4.440000000000e+02 4.426532453839e+06 1.000000000000e+00 5.967385339351e+01 -1.092676150107e-05 1.116867199431e-02 -5.859491963641e+06 -5.710103655774e+02 -4.542096098160e+06 -3.379447414267e+06 2.698181704778e-05 -1.735533998276e-06 -4.168765721178e-05 0.000000000000e+00 4.593678492023e+06 2.149175045424e+06  5.999770153783e-05
5.300000000000e+02 4.465496889446e+06 1.000000000000e+00 5.850929423872e+01 -1.093798736198e-05 1.102602972301e-02 -5.861695552190e+06 -5.733179799988e+02 -4.556583283901e+06 -3.382655408881e+06 3.051967964401e-05 -1.742563249636e-06 -4.144537892102e-05 0.000000000000e+00 4.600311414991e+06 2.147913719506e+06  6.263528994833e-05
6.160000000000e+02 4.488012314786e+06 1.000000000000e+00 5.764205143038e+01 -1.093792174095e-05 1.090782891674e-02 -5.859726388049e+06 -5.850095040121e+02 -4.563877566195e+06 -3.382906097776e+06 3.331797201846e-05 -1.778276097679e-06 -4.122439046752e-05 0.000000000000e+00 4.602170017340e+06 2.145758441908e+06  6.474980706192e-05
7.020000000000e+02 4.501822576458e+06 1.000000000000e+00 5.701255823050e+01 -1.093457004375e-05 1.081711907047e-02 -5.856889667526e+06 -5.739938072979e+02 -4.567824821315e+06 -3.382258899004e+06 3.541319123242e-05 -1.744660507811e-06 -4.104756698120e-05 0.000000000000e+00 4.602324462615e+06 2.143718049465e+06  6.634571371485e-05
7.880000000000e+02 4.511441113274e+06 1.000000000000e+00 5.653877440105e+01 -1.093005080081e-05 1.073539067849e-02 -5.854187021676e+06 -5.697053937105e+02 -4.570860506267e+06 -3.381616310415e+06 3.708879072748e-05 -1.731533409444e-06 -4.088529830283e-05 0.000000000000e+00 4.602221279453e+06 2.141825923376e+06  6.762075799166e-05
8.740000000000e+02 4.519827167133e+06 1.000000000000e+00 5.574293709857e+01 -1.091568887492e-05 1.061990556717e-02 -5.845930613988e+06 -5.915185738983e+02 -4.570420541337e+06 -3.377768167626e+06 3.973619888681e-05 -1.797173916298e-06 -4.063928233190e-05 0.000000000000e+00 4.598039774317e+06 2.137893073911e+06  6.967823819557e-05
9.370000000000e+02 4.525201002277e+06 1.000000000000e+00 5.522755768205e+01 -1.090417291143e-05 1.052490849376e-02 -5.839925993761e+06 -5.703569000040e+02 -4.570587859017e+06 -3.375197775566e+06 4.185296382702e-05 -1.733471281895e-06 -4.044090413050e-05 0.000000000000e+00 4.595237209448e+06 2.134837686258e+06  7.133529122222e-05
1.000000000000e+03 4.529391016052e+06 1.000000000000e+00 5.483601678884e+01 -1.089444872755e-05 1.044540438147e-02 -5.834937237307e+06 -5.680609990067e+02 -4.570753065397e+06 -3.373115729939e+06 4.377885068490e-05 -1.727361629700e-06 -4.027746329342e-05 0.000000000000e+00 4.592935344214e+06 2.132259819779e+06  7.287739157470e-05
1.100000000000e+03 4.533536316160e+06 1.000000000000e+00 5.445290493107e+01 -1.088423711189e-05 1.036224170133e-02 -5.829770779670e+06 -5.739219545331e+02 -4.570959287142e+06 -3.370998266758e+06 4.586555832385e-05 -1.744528691836e-06 -4.010790252643e-05 0.000000000000e+00 4.590576111190e+06 2.129562991640e+06  7.457207767704e-05
1.200000000000e+03 4.536797682874e+06 1.000000000000e+00 5.411538590812e+01 -1.087539660841e-05 1.029311125423e-02 -5.825264041172e+06 -5.668932374124e+02 -4.570895813333e+06 -3.369079144377e+06 4.754296986289e-05 -1.724921753638e-06 -3.996523646277e-05 0.000000000000e+00 4.588412999628e+06 2.127281026597e+06  7.593777852156e-05
1.300000000000e+03 4.539703052077e+06 1.000000000000e+00 5.378897452190e+01 -1.086673522455e-05 1.022732862975e-02 -5.820849710792e+06 -5.696968289634e+02 -4.570689789179e+06 -3.367164919524e+06 4.911738089149e-05 -1.733919220144e-06 -3.982865112931e-05 0.000000000000e+00 4.586234806498e+06 2.125081521226e+06  7.722782537349e-05
1.400000000000e+03 4.542442562524e+06 1.000000000000e+00 5.345626141554e+01 -1.085756360730e-05 1.015935930441e-02 -5.816202532337e+06 -5.751778233797e+02 -4.570357329591e+06 -3.365131860145e+06 5.074319940440e-05 -1.748133882131e-06 -3.968729280043e-05 0.000000000000e+00 4.583897240691e+06 2.122786862412e+06  7.856832456038e-05
1.500000000000e+03 4.545082446453e+06 1.000000000000e+00 5.310717610983e+01 -1.084742904126e-05 1.008596327861e-02 -5.811112470937e+06 -5.699827325627e+02 -4.569892148796e+06 -3.362897149200e+06 5.250956976194e-05 -1.730659594948e-06 -3.953474474169e-05 0.000000000000e+00 4.581300589644e+06 2.120285951000e+06  8.003242432483e-05
1.600000000000e+03 4.547643486991e+06 1.000000000000e+00 5.273557656599e+01 -1.083603980418e-05 1.000519021355e-02 -5.805445894912e+06 -5.676588292436e+02 -4.569275661902e+06 -3.360404248690e+06 5.446941877289e-05 -1.724307066830e-06 -3.936705117552e-05 0.000000000000e+00 4.578375268501e+06 2.117512399473e+06  8.166947043190e-05
1.700000000000e+03 4.550130771773e+06 1.000000000000e+00 5.233767154458e+01 -1.082320267998e-05 9.915820934055e-03 -5.799111981232e+06 -5.691019515331e+02 -4.568492164005e+06 -3.357614452171e+06 5.665630621631e-05 -1.729623773765e-06 -3.918169519837e-05 0.000000000000e+00 4.575072865803e+06 2.114422154543e+06  8.351052142768e-05
1.800000000000e+03 4.552544175197e+06 1.000000000000e+00 5.191117283656e+01 -1.080879505850e-05 9.817105498734e-03 -5.792054815256e+06 -5.679930320033e+02 -4.567528305284e+06 -3.354502936144e+06 5.908979107747e-05 -1.726523706988e-06 -3.897717919027e-05 0.000000000000e+00 4.571362018894e+06 2.110989912205e+06  8.557406110898e-05
1.900000000000e+03 4.554883463306e+06 1.000000000000e+00 5.145479370212e+01 -1.079276207751e-05 9.708617970979e-03 -5.784244039278e+06 -5.604604070612e+02 -4.566380005403e+06 -3.351057080913e+06 6.178119808897e-05 -1.702994443378e-06 -3.875263896089e-05 0.000000000000e+00 4.567227041864e+06 2.107202324748e+06  8.787245585550e-05