 TITLE = "Time curves in points"
 VARIABLES = "TIME"  "PRESSURE1"  "SATURATION1"  "TEMPERATURE1"  "DISPLACEMENT_X1"  "DISPLACEMENT_Y1"  "STRESS_XX"  "STRESS_XY"  "STRESS_YY"  "STRESS_ZZ"  "STRAIN_XX"  "STRAIN_XY"  "STRAIN_YY"  "STRAIN_PLS"  p_(1st_Invariant)  q_(2nd_Invariant)   Effective_Strain
 ZONE T="POINT=POINT13"
0.000000000000e+00 1.000000000000e+05 1.000000000000e+00 2.500000000000e+01 0.000000000000e+00 0.000000000000e+00 -2.538927640774e+07 -1.052437051289e+04 -1.550903669435e+07 -9.266443930625e+06 0.000000000000e+00 0.000000000000e+00 0.000000000000e+00 0.000000000000e+00 1.672158567757e+07 1.408075802056e+07  0.000000000000e+00
1.000000000000e-03 2.215970185909e+05 1.000000000000e+00 2.500000000096e+01 -2.814088428919e-06 6.279316017123e-05 -2.542851346981e+07 -9.602815637471e+03 -1.551617007048e+07 -9.280355062078e+06 -9.406774230647e-07 6.845836217430e-08 2.517451976073e-07 0.000000000000e+00 1.674167953412e+07 1.410502594345e+07  1.095043526345e-06
2.000000000000e-03 2.374056888651e+05 1.000000000000e+00 2.500000000360e+01 -2.258206847860e-06 6.219745997195e-05 -2.542555953547e+07 -9.800027069299e+03 -1.550890058124e+07 -9.277288038493e+06 -9.448778806118e-07 5.380837009568e-08 4.078367790510e-07 0.000000000000e+00 1.673724938507e+07 1.410567914495e+07  1.205473774546e-06
3.000000000000e-03 2.481523565294e+05 1.000000000000e+00 2.500000002005e+01 -1.747262693847e-06 6.171670667142e-05 -2.542493453273e+07 -9.884552188895e+03 -1.550334282635e+07 -9.275433262344e+06 -9.905551788477e-07 4.752936121139e-08 5.453759893744e-07 0.000000000000e+00 1.673457020714e+07 1.410729983083e+07  1.351161227742e-06
4.000000000000e-03 2.554830814759e+05 1.000000000000e+00 2.500000026425e+01 -1.226491295865e-06 6.120155357750e-05 -2.542638269510e+07 -9.922518746337e+03 -1.549899069237e+07 -9.274562422744e+06 -1.076689537793e-06 4.470898837284e-08 6.746812091848e-07 0.000000000000e+00 1.673331193674e+07 1.410989915110e+07  1.531951035451e-06
1.000000000000e-02 2.655056782691e+05 1.000000000000e+00 2.500574045669e+01 4.217324285565e-06 5.840375590137e-05 -2.547370884796e+07 -9.979468073894e+03 -1.546834224518e+07 -9.281904881041e+06 -2.561798192880e-06 4.047846689716e-08 2.085771984521e-06 0.000000000000e+00 1.674131865806e+07 1.415193416743e+07  4.032554670678e-06
2.000000000000e-02 2.610996539115e+05 1.000000000000e+00 2.506298839666e+01 1.768484418349e-05 5.658461631472e-05 -2.559720697326e+07 -1.002357087756e+04 -1.540532531759e+07 -9.322118902334e+06 -5.655207770076e-06 3.720225862480e-08 5.920064371517e-06 0.000000000000e+00 1.677488373106e+07 1.424357656142e+07  1.002556148766e-05
3.000000000000e-02 2.498200502418e+05 1.000000000000e+00 2.517971472982e+01 3.322486122780e-05 5.693806539444e-05 -2.573885751719e+07 -1.005351627257e+04 -1.535208809614e+07 -9.392659347674e+06 -8.296440003663e-06 3.497774356725e-08 1.051752056671e-05 0.000000000000e+00 1.682786832033e+07 1.432826875534e+07  1.633128299621e-05
4.000000000000e-02 2.358078147646e+05 1.000000000000e+00 2.535078353582e+01 4.939261826035e-05 5.962202385185e-05 -2.588453217990e+07 -1.007636198222e+04 -1.531565423104e+07 -9.489024615560e+06 -1.012793181126e-05 3.328063370689e-08 1.545005979189e-05 0.000000000000e+00 1.689640367550e+07 1.439555610709e+07  2.231053171039e-05
5.000000000000e-02 2.210867255385e+05 1.000000000000e+00 2.556378881541e+01 6.538232647176e-05 6.330617006800e-05 -2.602841721476e+07 -1.009304628318e+04 -1.529929527853e+07 -9.605663316687e+06 -1.113993849270e-05 3.204122849306e-08 2.038997264110e-05 0.000000000000e+00 1.697779193666e+07 1.444366572677e+07  2.769468062528e-05
6.000000000000e-02 2.062323625594e+05 1.000000000000e+00 2.580558519821e+01 8.075396524530e-05 6.930551459449e-05 -2.616481991653e+07 -1.010635908451e+04 -1.529557330661e+07 -9.733770430277e+06 -1.144806033935e-05 3.105227753724e-08 2.528648153148e-05 0.000000000000e+00 1.706472121780e+07 1.447505048614e+07  3.255684709627e-05
7.000000000000e-02 1.921173127982e+05 1.000000000000e+00 2.606507573398e+01 9.534850420901e-05 7.532225854938e-05 -2.629514261479e+07 -1.011868721375e+04 -1.530671157920e+07 -9.870422388231e+06 -1.121297355095e-05 3.013647365041e-08 2.994841841633e-05 0.000000000000e+00 1.715742552741e+07 1.449259993306e+07  3.685718504865e-05
8.000000000000e-02 1.793834173774e+05 1.000000000000e+00 2.633384210671e+01 1.091195461272e-04 8.212386380225e-05 -2.641801457398e+07 -1.012898273809e+04 -1.532662260357e+07 -1.001039196044e+07 -1.057791935292e-05 2.937166327088e-08 3.440773590782e-05 0.000000000000e+00 1.725167637933e+07 1.449986171483e+07  4.074002346308e-05
9.000000000000e-02 1.689331176524e+05 1.000000000000e+00 2.660587521050e+01 1.220955180057e-04 8.831222762297e-05 -2.653535650136e+07 -1.014212574070e+04 -1.535605777402e+07 -1.015237917951e+07 -9.662522804623e-06 2.839532593468e-08 3.858824057064e-05 0.000000000000e+00 1.734793115163e+07 1.449926815489e+07  4.421853492230e-05
1.000000000000e-01 1.617743555300e+05 1.000000000000e+00 2.687705765486e+01 1.342907030003e-04 9.385100451743e-05 -2.664728833810e+07 -1.015026618884e+04 -1.539291976325e+07 -1.029437253884e+07 -8.545951965743e-06 2.779060692947e-08 4.249312003158e-05 0.000000000000e+00 1.744486021340e+07 1.449266140368e+07  4.734812588305e-05
2.000000000000e-01 1.796941805816e+05 1.000000000000e+00 2.902877258995e+01 2.128545248251e-04 1.886770826268e-04 -2.736512883239e+07 -1.019828792645e+04 -1.569003745389e+07 -1.136357752039e+07 4.504728989615e-06 2.422327785031e-08 7.117064797939e-05 0.000000000000e+00 1.813958126889e+07 1.433660145700e+07  6.902862446996e-05
3.000000000000e-01 2.070588055799e+05 1.000000000000e+00 3.071647659315e+01 2.687245524413e-04 2.983457504670e-04 -2.788396255836e+07 -1.022682728158e+04 -1.588304011673e+07 -1.217393547928e+07 1.533277192706e-05 2.210321146941e-08 9.410098754743e-05 0.000000000000e+00 1.864697938479e+07 1.422295987154e+07  8.744862627765e-05
4.000000000000e-01 2.349366444406e+05 1.000000000000e+00 3.207113244939e+01 3.105570570636e-04 4.037724225777e-04 -2.829560852229e+07 -1.024945132718e+04 -1.602683006235e+07 -1.281823255418e+07 2.397409890583e-05 2.042256808184e-08 1.126912523492e-04 0.000000000000e+00 1.904689037961e+07 1.414863633066e+07  1.028222047808e-04
5.000000000000e-01 2.614177955233e+05 1.000000000000e+00 3.318829725466e+01 3.433846082490e-04 5.061900372122e-04 -2.863937537964e+07 -1.027116568714e+04 -1.612774645474e+07 -1.334485980198e+07 3.076605626525e-05 1.880950134211e-08 1.285033698355e-04 0.000000000000e+00 1.937066054546e+07 1.411042444813e+07  1.162158570590e-04
6.000000000000e-01 2.860655246122e+05 1.000000000000e+00 3.413186115956e+01 3.698017361675e-04 6.060496771605e-04 -2.893511799762e+07 -1.029953081460e+04 -1.619639795832e+07 -1.378589714121e+07 3.616271734045e-05 1.670237758793e-08 1.423348437314e-04 0.000000000000e+00 1.963913769905e+07 1.409937997692e+07  1.281395176393e-04
7.000000000000e-01 3.089766518315e+05 1.000000000000e+00 3.494487203999e+01 3.913774482011e-04 7.035358694505e-04 -2.919507010312e+07 -1.033512180968e+04 -1.624183015325e+07 -1.416309011904e+07 4.051737831249e-05 1.405847509558e-08 1.546573870960e-04 0.000000000000e+00 1.986666345847e+07 1.410795251727e+07  1.389037582638e-04
8.000000000000e-01 3.304295337389e+05 1.000000000000e+00 3.565691630465e+01 4.090511378599e-04 7.988150171509e-04 -2.942626603376e+07 -1.037874615361e+04 -1.627111671389e+07 -1.449118601098e+07 4.411651973219e-05 1.081780954718e-08 1.657560194017e-04 0.000000000000e+00 2.006285625288e+07 1.412946157029e+07  1.486901036774e-04
9.000000000000e-01 3.504485616522e+05 1.000000000000e+00 3.628894648100e+01 4.238714646329e-04 8.918526728103e-04 -2.963726604729e+07 -1.042831466792e+04 -1.628679353339e+07 -1.478093939834e+07 4.704164504589e-05 7.135577055182e-09 1.759360062079e-04 0.000000000000e+00 2.023499965967e+07 1.416357664962e+07  1.577658887305e-04
1.000000000000e+00 3.691814360826e+05 1.000000000000e+00 3.685626587202e+01 4.363074614768e-04 9.827058670422e-04 -2.983127857961e+07 -1.048061331642e+04 -1.629235087498e+07 -1.503977275227e+07 4.944927556293e-05 3.250534595398e-09 1.853434009518e-04 0.000000000000e+00 2.038780073562e+07 1.420670297860e+07  1.662296912538e-04
2.000000000000e+00 4.965754139858e+05 1.000000000000e+00 4.017231608114e+01 4.794738009737e-04 1.735906280349e-03 -3.115054779835e+07 -1.080423926622e+04 -1.607098397143e+07 -1.653014865742e+07 5.580466677247e-05 -2.079025024700e-08 2.489224195606e-04 0.000000000000e+00 2.125056014240e+07 1.485531636904e+07  2.262421278507e-04
3.000000000000e+00 5.964824559071e+05 1.000000000000e+00 4.245554050293e+01 4.928987717214e-04 2.378589857783e-03 -3.217132439746e+07 -1.092788024495e+04 -1.577296132639e+07 -1.754532494130e+07 5.559665506369e-05 -2.997500866712e-08 2.976983797776e-04 0.000000000000e+00 2.182987022172e+07 1.558794663831e+07  2.741610510967e-04
4.000000000000e+00 6.807083713390e+05 1.000000000000e+00 4.420819266506e+01 4.948024201318e-04 2.938932416857e-03 -3.301202037531e+07 -1.095660650636e+04 -1.547063925412e+07 -1.831911887237e+07 5.311172189784e-05 -3.210895951468e-08 3.376684027591e-04 0.000000000000e+00 2.226725950060e+07 1.630484533249e+07  3.144942893230e-04
5.000000000000e+00 7.551020213731e+05 1.000000000000e+00 4.565417316055e+01 4.924593413952e-04 3.436266465369e-03 -3.373110972028e+07 -1.093687406978e+04 -1.518807144896e+07 -1.895498201680e+07 5.002046302073e-05 -3.064312136881e-08 3.717815523152e-04 0.000000000000e+00 2.262472106201e+07 1.697599115160e+07  3.494665746396e-04
6.000000000000e+00 8.227294698145e+05 1.000000000000e+00 4.691432353352e+01 4.895382794791e-04 3.885020514153e-03 -3.436952058831e+07 -1.090076820235e+04 -1.492879733688e+07 -1.950872103539e+07 4.687550861291e-05 -2.796097121699e-08 4.019791828830e-04 0.000000000000e+00 2.293567965353e+07 1.760343003416e+07  3.807119652375e-04
7.000000000000e+00 8.856231524212e+05 1.000000000000e+00 4.800736979148e+01 4.852300298605e-04 4.292250544096e-03 -3.492866326732e+07 -1.087036841574e+04 -1.469140848635e+07 -1.998670210484e+07 4.386093454364e-05 -2.570270135404e-08 4.285500656249e-04 0.000000000000e+00 2.320225795284e+07 1.817758960844e+07  4.083899312311e-04
8.000000000000e+00 9.444320508232e+05 1.000000000000e+00 4.901619071825e+01 4.818897951743e-04 4.667680437157e-03 -3.544207738866e+07 -1.084464118915e+04 -1.447764763304e+07 -2.042881936094e+07 4.121276526301e-05 -2.379153595057e-08 4.529112525458e-04 0.000000000000e+00 2.344951479421e+07 1.871259445077e+07  4.337757153936e-04
9.000000000000e+00 1.000152122572e+06 1.000000000000e+00 4.993928744965e+01 4.787874625589e-04 5.015803060846e-03 -3.591207293156e+07 -1.082044286821e+04 -1.428069735383e+07 -2.083300259675e+07 3.876830814252e-05 -2.199394639459e-08 4.752390688180e-04 0.000000000000e+00 2.367525762738e+07 1.921234210131e+07  4.570896422334e-04
1.000000000000e+01 1.053278720059e+06 1.000000000000e+00 5.078394817746e+01 4.757740680348e-04 5.339978307676e-03 -3.634386377376e+07 -1.079763827491e+04 -1.409660686182e+07 -2.120215432420e+07 3.644171245202e-05 -2.029989089244e-08 4.957880655411e-04 0.000000000000e+00 2.388087498660e+07 1.968122594549e+07  4.786088585203e-04
1.100000000000e+01 1.104106076948e+06 1.000000000000e+00 5.157074846908e+01 4.729194649605e-04 5.643819912427e-03 -3.674376488108e+07 -1.079385544942e+04 -1.392615119719e+07 -2.154565652311e+07 3.434689585375e-05 -2.001888099941e-08 5.148779290439e-04 0.000000000000e+00 2.407185753380e+07 2.012068031086e+07  4.985925527596e-04
1.200000000000e+01 1.153015525371e+06 1.000000000000e+00 5.229896758094e+01 4.699656986371e-04 5.929305264081e-03 -3.711374663653e+07 -1.078014929870e+04 -1.376625441850e+07 -2.186286024680e+07 3.238656895995e-05 -1.900070980246e-08 5.325988048466e-04 0.000000000000e+00 2.424762043394e+07 2.053351713360e+07  5.171666365253e-04
1.300000000000e+01 1.200259622520e+06 1.000000000000e+00 5.297193109440e+01 4.669053298020e-04 6.198026359183e-03 -3.745662622018e+07 -1.076983750763e+04 -1.361435916893e+07 -2.215499755651e+07 3.050185592802e-05 -1.823469103765e-08 5.490914427628e-04 0.000000000000e+00 2.440866098187e+07 2.092291492488e+07  5.344936563229e-04
1.400000000000e+01 1.246550173193e+06 1.000000000000e+00 5.359378133377e+01 4.636863974945e-04 6.451521648867e-03 -3.777409671795e+07 -1.076269893545e+04 -1.346915861307e+07 -2.242363211214e+07 2.868794950543e-05 -1.770439710445e-08 5.644624611891e-04 0.000000000000e+00 2.455562914772e+07 2.129025681568e+07  5.506792159638e-04
1.500000000000e+01 1.291432803793e+06 1.000000000000e+00 5.416843284912e+01 4.602861949850e-04 6.690726188901e-03 -3.806823569178e+07 -1.075933074291e+04 -1.333084745138e+07 -2.267081496466e+07 2.694386499966e-05 -1.745418851551e-08 5.787808102887e-04 0.000000000000e+00 2.468996603594e+07 2.163625001858e+07  5.657902501075e-04
1.600000000000e+01 1.335047033712e+06 1.000000000000e+00 5.469941050046e+01 4.568040038504e-04 6.916653157768e-03 -3.834154829341e+07 -1.075736153315e+04 -1.319802008108e+07 -2.289810952213e+07 2.523462335954e-05 -1.730790436162e-08 5.921567676058e-04 0.000000000000e+00 2.481255929887e+07 2.196348380307e+07  5.799513527321e-04
1.700000000000e+01 1.377524042292e+06 1.000000000000e+00 5.518981195544e+01 4.533644950139e-04 7.130190307327e-03 -3.859661068576e+07 -1.075590394320e+04 -1.306932789674e+07 -2.310696815014e+07 2.351848354141e-05 -1.719962625141e-08 6.046943692076e-04 0.000000000000e+00 2.492430224421e+07 2.227471782610e+07  5.932848435087e-04
1.800000000000e+01 1.418991762346e+06 1.000000000000e+00 5.564235493768e+01 4.499853701949e-04 7.332126374641e-03 -3.883477022863e+07 -1.075871559789e+04 -1.294418730122e+07 -2.329857112842e+07 2.178923971377e-05 -1.740849202797e-08 6.164591305202e-04 0.000000000000e+00 2.502584288609e+07 2.257110681539e+07  6.058584452738e-04
1.900000000000e+01 1.459538864391e+06 1.000000000000e+00 5.605943227539e+01 4.466799020342e-04 7.523150488868e-03 -3.905724873749e+07 -1.076165017534e+04 -1.282223106300e+07 -2.347401227564e+07 2.004213770987e-05 -1.762648921005e-08 6.275053191220e-04 0.000000000000e+00 2.511783069204e+07 2.285360528327e+07  6.177281487216e-04
2.000000000000e+01 1.499248947439e+06 1.000000000000e+00 5.644315823292e+01 4.432078463751e-04 7.703883349275e-03 -3.926289473897e+07 -1.077582655533e+04 -1.270514420530e+07 -2.363419160457e+07 1.835337558640e-05 -1.867959172383e-08 6.378037774828e-04 0.000000000000e+00 2.520074351628e+07 2.311942093607e+07  6.288280001200e-04
2.100000000000e+01 1.538044856172e+06 1.000000000000e+00 5.681807715739e+01 4.403857647058e-04 7.876598841301e-03 -3.946135801820e+07 -1.078159666471e+04 -1.259411456654e+07 -2.379106373505e+07 1.680856148991e-05 -1.910822842059e-08 6.477544146257e-04 0.000000000000e+00 2.528217877326e+07 2.337497873529e+07  6.395158251312e-04
2.200000000000e+01 1.576073708529e+06 1.000000000000e+00 5.717450172764e+01 4.378007773783e-04 8.041702803284e-03 -3.965032760219e+07 -1.078885590785e+04 -1.248662091902e+07 -2.393969307075e+07 1.531020941075e-05 -1.964748648206e-08 6.572675540026e-04 0.000000000000e+00 2.535888053065e+07 2.362059015202e+07  6.497477489951e-04
2.300000000000e+01 1.613406437984e+06 1.000000000000e+00 5.750972237819e+01 4.350731703712e-04 8.199477410263e-03 -3.982718139466e+07 -1.079878019978e+04 -1.238365539763e+07 -2.407862843258e+07 1.390181055820e-05 -2.038471959702e-08 6.662524439506e-04 0.000000000000e+00 2.542982174162e+07 2.385306199966e+07  6.594114537934e-04
2.400000000000e+01 1.650091232070e+06 1.000000000000e+00 5.782343461243e+01 4.322880717604e-04 8.350190750995e-03 -3.999316723613e+07 -1.080774493033e+04 -1.228374096891e+07 -2.420769192409e+07 1.253040898834e-05 -2.105067100940e-08 6.747573381308e-04 0.000000000000e+00 2.549486670971e+07 2.407462192966e+07  6.685802064267e-04
2.500000000000e+01 1.686180685897e+06 1.000000000000e+00 5.811604494253e+01 4.294803003846e-04 8.494100748346e-03 -4.014903975118e+07 -1.081503647195e+04 -1.218632180631e+07 -2.432708475752e+07 1.117544938541e-05 -2.159232838702e-08 6.828103551262e-04 0.000000000000e+00 2.555414877167e+07 2.428627885776e+07  6.772917839245e-04
2.600000000000e+01 1.721709347394e+06 1.000000000000e+00 5.838817848328e+01 4.266940526314e-04 8.631453772689e-03 -4.029561024420e+07 -1.082304358018e+04 -1.209095567166e+07 -2.443713620136e+07 9.819027558349e-06 -2.218714214124e-08 6.904401508984e-04 0.000000000000e+00 2.560790070574e+07 2.448900380810e+07  6.855833763172e-04
2.700000000000e+01 1.756706026883e+06 1.000000000000e+00 5.864051959178e+01 4.239403750305e-04 8.762486362800e-03 -4.043331407985e+07 -1.083063120622e+04 -1.199741725920e+07 -2.453814871582e+07 8.456207057400e-06 -2.275079436112e-08 6.976663281841e-04 0.000000000000e+00 2.565629335162e+07 2.468326517326e+07  6.934768947444e-04
2.800000000000e+01 1.791210254227e+06 1.000000000000e+00 5.887375096565e+01 4.212509098729e-04 8.887418075130e-03 -4.056274964820e+07 -1.083933125555e+04 -1.190535224935e+07 -2.463043443273e+07 7.076355432326e-06 -2.339708374002e-08 7.045136408923e-04 0.000000000000e+00 2.569951211009e+07 2.486979609206e+07  7.010022522944e-04
2.900000000000e+01 1.825247224266e+06 1.000000000000e+00 5.908853129358e+01 4.186395104668e-04 9.006456767693e-03 -4.068437951934e+07 -1.084856621454e+04 -1.181463181220e+07 -2.471432399974e+07 5.674572707635e-06 -2.408310926537e-08 7.109991553327e-04 0.000000000000e+00 2.573777844376e+07 2.504902962846e+07  7.081789215990e-04
3.000000000000e+01 1.858826997691e+06 1.000000000000e+00 5.928548729769e+01 4.160961932760e-04 9.119804520674e-03 -4.079835789635e+07 -1.085547822776e+04 -1.172517264371e+07 -2.479005803316e+07 4.254068517291e-06 -2.459657310415e-08 7.171349028320e-04 0.000000000000e+00 2.577119619107e+07 2.522109932707e+07  7.150173611606e-04
3.100000000000e+01 1.891867107987e+06 1.000000000000e+00 5.948315500541e+01 4.142006134802e-04 9.229011405255e-03 -4.091141906353e+07 -1.086623231108e+04 -1.163876692223e+07 -2.486677143332e+07 2.904008599299e-06 -2.539544786518e-08 7.231936130645e-04 0.000000000000e+00 2.580565247302e+07 2.538995561988e+07  7.217459918189e-04
3.200000000000e+01 1.924442697650e+06 1.000000000000e+00 5.967309829942e+01 4.125761248870e-04 9.334182732505e-03 -4.102089414710e+07 -1.087600980927e+04 -1.155380014338e+07 -2.494015108136e+07 1.563320993731e-06 -2.612177630233e-08 7.290750517774e-04 0.000000000000e+00 2.583828179061e+07 2.555479434207e+07  7.282946510921e-04
3.300000000000e+01 1.956581469878e+06 1.000000000000e+00 5.985249399110e+01 4.111184924146e-04 9.435378272001e-03 -4.112612273802e+07 -1.088604075677e+04 -1.146953835916e+07 -2.500877955989e+07 2.038882476604e-07 -2.686693240245e-08 7.347538329653e-04 0.000000000000e+00 2.586814688569e+07 2.571569084693e+07  7.346519115348e-04
3.400000000000e+01 1.988310332098e+06 1.000000000000e+00 6.002050707080e+01 4.097813781071e-04 9.532625044172e-03 -4.122687320607e+07 -1.089637364360e+04 -1.138589242957e+07 -2.507226633829e+07 -1.180191653477e-06 -2.763451828132e-08 7.402187621191e-04 0.000000000000e+00 2.589501065798e+07 2.587250470974e+07  7.408095645585e-04
3.500000000000e+01 2.019662816807e+06 1.000000000000e+00 6.017694315111e+01 4.086713872786e-04 9.625985022025e-03 -4.132419419223e+07 -1.090595026080e+04 -1.130183658443e+07 -2.513054969188e+07 -2.630160863090e-06 -2.834592413018e-08 7.455056466436e-04 0.000000000000e+00 2.591886015618e+07 2.602700615112e+07  7.468242022787e-04
3.600000000000e+01 2.050674490948e+06 1.000000000000e+00 6.032184477356e+01 4.079156700299e-04 9.715509116698e-03 -4.141932088049e+07 -1.091538298742e+04 -1.121631941085e+07 -2.518369946211e+07 -4.189303532859e-06 -2.904664096494e-08 7.506561331279e-04 0.000000000000e+00 2.593977991782e+07 2.618114895288e+07  7.527595295898e-04
3.700000000000e+01 2.081407831671e+06 1.000000000000e+00 6.045535759715e+01 4.079926889094e-04 9.801263895048e-03 -4.151665817991e+07 -1.090379593912e+04 -1.112564217889e+07 -2.523197844303e+07 -6.011469648457e-06 -2.818588880556e-08 7.558173638922e-04 0.000000000000e+00 2.595809293394e+07 2.634192555472e+07  7.588409588671e-04
3.800000000000e+01 2.113350428244e+06 1.000000000000e+00 6.057786748005e+01 4.238343874256e-04 9.883308555984e-03 -4.175030366765e+07 -1.026146626355e+04 -1.091457674027e+07 -2.528118327252e+07 -1.286212266940e-05 1.953002995138e-08 7.654845452787e-04 0.000000000000e+00 2.598202122681e+07 2.672521278463e+07  7.719959718335e-04
3.900000000000e+01 2.143157947788e+06 1.000000000000e+00 6.068911562213e+01 4.190099848766e-04 9.961831855993e-03 -4.179295526328e+07 -1.102592240517e+04 -1.086331766779e+07 -2.531708891382e+07 -1.311268668740e-05 -3.725814056925e-08 7.687220917908e-04 0.000000000000e+00 2.599112061496e+07 2.680493318787e+07  7.753616014888e-04
4.000000000000e+01 2.172544101843e+06 1.000000000000e+00 6.078943432377e+01 4.132875651096e-04 1.003677506481e-02 -4.182296816969e+07 -1.102529541223e+04 -1.082097816250e+07 -2.534805330205e+07 -1.307734593409e-05 -3.721156395031e-08 7.714448078357e-04 0.000000000000e+00 2.599733321141e+07 2.686617618638e+07  7.780659119179e-04
4.200000000000e+01 2.229827605392e+06 1.000000000000e+00 6.098757655460e+01 4.032644621799e-04 1.017712050429e-02 -4.188113934592e+07 -1.102467456573e+04 -1.074118143723e+07 -2.541017113004e+07 -1.293075601115e-05 -3.716544392495e-08 7.767159198140e-04 0.000000000000e+00 2.601083063773e+07 2.698304801529e+07  7.832613565959e-04
4.400000000000e+01 2.285593809495e+06 1.000000000000e+00 6.116288333507e+01 3.937613206132e-04 1.030795977327e-02 -4.193057635426e+07 -1.102381457153e+04 -1.066290669999e+07 -2.546214691745e+07 -1.283645850309e-05 -3.710155864183e-08 7.815537964440e-04 0.000000000000e+00 2.601854332390e+07 2.709146151359e+07  7.880504415382e-04
5.000000000000e+01 2.437116678573e+06 1.000000000000e+00 6.137887994116e+01 3.691583831899e-04 1.058165948921e-02 -4.197957604310e+07 -1.102180170920e+04 -1.045845540638e+07 -2.548892555531e+07 -1.366181182531e-05 -3.695203172580e-08 7.901423367556e-04 0.000000000000e+00 2.597565233493e+07 2.730785932185e+07  7.970610625619e-04
6.500000000000e+01 2.768502507756e+06 1.000000000000e+00 6.141736623214e+01 3.261404720450e-04 1.104599765763e-02 -4.189027408161e+07 -1.101853020690e+04 -9.951005824520e+06 -2.531917765477e+07 -1.664980384728e-05 -3.670900584016e-08 8.026855420616e-04 0.000000000000e+00 2.572015252030e+07 2.766676279797e+07  8.111386171746e-04
8.000000000000e+01 3.023556374630e+06 1.000000000000e+00 6.104694031263e+01 2.978491033599e-04 1.126636405858e-02 -4.168117402589e+07 -1.101659109302e+04 -9.568566203902e+06 -2.500884378952e+07 -2.040991677266e-05 -3.656495738065e-08 8.053637558325e-04 0.000000000000e+00 2.541952800644e+07 2.781716265862e+07  8.157602314103e-04
1.000000000000e+02 3.324236305531e+06 1.000000000000e+00 6.054170887125e+01 2.728704841969e-04 1.145084979934e-02 -4.140778787239e+07 -1.101451651209e+04 -9.160276440971e+06 -2.462446016391e+07 -2.453268002198e-05 -3.641084565474e-08 8.062516980761e-04 0.000000000000e+00 2.506417482576e+07 2.793495828370e+07  8.187937297897e-04
1.860000000000e+02 3.922717201764e+06 1.000000000000e+00 5.903012489566e+01 2.323840552143e-04 1.167017646549e-02 -4.062762374632e+07 -1.101044621997e+04 -8.243355687347e+06 -2.358052720293e+07 -3.432980817601e-05 -3.610848109669e-08 8.015341018029e-04 0.000000000000e+00 2.415050221220e+07 2.805863392749e+07  8.192386514046e-04
2.720000000000e+02 4.213038211969e+06 1.000000000000e+00 5.757488621183e+01 2.214364600090e-04 1.150208768901e-02 -4.003283413911e+07 -1.101085141154e+04 -7.899023536847e+06 -2.278666479593e+07 -4.172394073944e-05 -3.613858104203e-08 7.848372637043e-04 0.000000000000e+00 2.357284082396e+07 2.785367776908e+07  8.065090979825e-04
3.580000000000e+02 4.354403691727e+06 1.000000000000e+00 5.648574033373e+01 2.181172180352e-04 1.132619432731e-02 -3.959782743782e+07 -1.100904046712e+04 -7.695664623013e+06 -2.221234399586e+07 -4.689846440852e-05 -3.600405374210e-08 7.710586793584e-04 0.000000000000e+00 2.316861201890e+07 2.766530077535e+07  7.955453631927e-04
4.440000000000e+02 4.426532453840e+06 1.000000000000e+00 5.562775712185e+01 2.174016436865e-04 1.116160547996e-02 -3.926621023184e+07 -1.100895220690e+04 -7.573066305512e+06 -2.177470250428e+07 -5.083650930235e-05 -3.599749726895e-08 7.593570757495e-04 0.000000000000e+00 2.287132634721e+07 2.749632168511e+07  7.860092786357e-04
5.300000000000e+02 4.465496889446e+06 1.000000000000e+00 5.495287082362e+01 2.178003258711e-04 1.101895887598e-02 -3.901101084394e+07 -1.100856386194e+04 -7.495756618381e+06 -2.143798226576e+07 -5.386442661133e-05 -3.596864878614e-08 7.497218266980e-04 0.000000000000e+00 2.264824990936e+07 2.735332672131e+07  7.780536832866e-04
6.160000000000e+02 4.488012314786e+06 1.000000000000e+00 5.442978833274e+01 2.186666962417e-04 1.090073353123e-02 -3.881654966474e+07 -1.100667492419e+04 -7.447050021507e+06 -2.118142082089e+07 -5.617100790709e-05 -3.582832769609e-08 7.420015037726e-04 0.000000000000e+00 2.248167350238e+07 2.723671185497e+07  7.716219216149e-04
7.020000000000e+02 4.501822576458e+06 1.000000000000e+00 5.404171608217e+01 2.195286294670e-04 1.081004747971e-02 -3.867366272341e+07 -1.100814102275e+04 -7.415488827407e+06 -2.099288775813e+07 -5.786643527490e-05 -3.593723787473e-08 7.361711200792e-04 0.000000000000e+00 2.236067976965e+07 2.714801767611e+07  7.667437933990e-04
7.880000000000e+02 4.511441113274e+06 1.000000000000e+00 5.372922177348e+01 2.207459596493e-04 1.072832566151e-02 -3.856334271239e+07 -1.100778730182e+04 -7.404314445301e+06 -2.084681696292e+07 -5.919432154471e-05 -3.591096146327e-08 7.311606818782e-04 0.000000000000e+00 2.227149137353e+07 2.706900375102e+07  7.624830980425e-04
8.740000000000e+02 4.519827167133e+06 1.000000000000e+00 5.323953454171e+01 2.218303458583e-04 1.061279895920e-02 -3.838278887061e+07 -1.100802982341e+04 -7.364008868548e+06 -2.060869582696e+07 -6.133253532866e-05 -3.592897735226e-08 7.238132468220e-04 0.000000000000e+00 2.211849785537e+07 2.695835265764e+07  7.563468791299e-04
9.370000000000e+02 4.525201002277e+06 1.000000000000e+00 5.288417531801e+01 2.235754917259e-04 1.051784308682e-02 -3.825516941994e+07 -1.100714659157e+04 -7.348557959322e+06 -2.044115140542e+07 -6.281546281789e-05 -3.586336584419e-08 7.181640592219e-04 0.000000000000e+00 2.201495959489e+07 2.686982136047e+07  7.515432189468e-04
1.000000000000e+03 4.529391016052e+06 1.000000000000e+00 5.259531212533e+01 2.254175151654e-04 1.043834168141e-02 -3.814996168020e+07 -1.100696805564e+04 -7.335250990827e+06 -2.030433600384e+07 -6.398946168623e-05 -3.585010317566e-08 7.135766031358e-04 0.000000000000e+00 2.192984955829e+07 2.679748722964e+07  7.476279865762e-04
1.100000000000e+03 4.533536316160e+06 1.000000000000e+00 5.229971020815e+01 2.275762353332e-04 1.035516860385e-02 -3.804174177989e+07 -1.100588769530e+04 -7.322064417658e+06 -2.016431804324e+07 -6.517053249708e-05 -3.576984783591e-08 7.088657230314e-04 0.000000000000e+00 2.184270808026e+07 2.672288402906e+07  7.435959736793e-04
1.200000000000e+03 4.536797682874e+06 1.000000000000e+00 5.204965271686e+01 2.291978346327e-04 1.028604974705e-02 -3.795061177473e+07 -1.100663064497e+04 -7.310618594748e+06 -2.004589003952e+07 -6.618445815791e-05 -3.582503838272e-08 7.048920991726e-04 0.000000000000e+00 2.176904013633e+07 2.666060865896e+07  7.402068356016e-04
1.300000000000e+03 4.539703052077e+06 1.000000000000e+00 5.181069984557e+01 2.306874935509e-04 1.022026149584e-02 -3.786372206147e+07 -1.100642647584e+04 -7.299749814831e+06 -1.993279383540e+07 -6.715784210411e-05 -3.580987153305e-08 7.010950805592e-04 0.000000000000e+00 2.169875523723e+07 2.660140141624e+07  7.369725397243e-04
1.400000000000e+03 4.542442562524e+06 1.000000000000e+00 5.156544378992e+01 2.322525644955e-04 1.015228525174e-02 -3.777459786489e+07 -1.100787223579e+04 -7.288952660878e+06 -1.981684264994e+07 -6.815427311987e-05 -3.591727084334e-08 6.971893593890e-04 0.000000000000e+00 2.162679772523e+07 2.654057545046e+07  7.336446317366e-04
1.500000000000e+03 4.545082446453e+06 1.000000000000e+00 5.130381469185e+01 2.340129381999e-04 1.007889911172e-02 -3.767951327304e+07 -1.100776446993e+04 -7.277979706816e+06 -1.969332003544e+07 -6.921054253240e-05 -3.590926537969e-08 6.930089434300e-04 0.000000000000e+00 2.155027100510e+07 2.647543949455e+07  7.300787791017e-04
1.600000000000e+03 4.547643486991e+06 1.000000000000e+00 5.101967084496e+01 2.360419988212e-04 9.998129895856e-03 -3.757620735406e+07 -1.100728668513e+04 -7.266705660242e+06 -1.955936052956e+07 -7.034910433144e-05 -3.587377279463e-08 6.884520549415e-04 0.000000000000e+00 2.146742451462e+07 2.640438176821e+07  7.261867650504e-04
1.700000000000e+03 4.550130771773e+06 1.000000000000e+00 5.070922120887e+01 2.383842478145e-04 9.908756761801e-03 -3.746328305732e+07 -1.100709574382e+04 -7.255057564346e+06 -1.941319626722e+07 -7.158373162530e-05 -3.585958858327e-08 6.834557401878e-04 0.000000000000e+00 2.137717896296e+07 2.632644662901e+07  7.219143270293e-04
1.800000000000e+03 4.552544175197e+06 1.000000000000e+00 5.037017770210e+01 2.410680822234e-04 9.810043926463e-03 -3.733990481887e+07 -1.100797052861e+04 -7.242991874736e+06 -1.925376268823e+07 -7.292292998808e-05 -3.592457259638e-08 6.779820757251e-04 0.000000000000e+00 2.127888646061e+07 2.624111324356e+07  7.172293162131e-04
1.900000000000e+03 4.554883463306e+06 1.000000000000e+00 5.000125366953e+01 2.441081671549e-04 9.701572499514e-03 -3.720560056180e+07 -1.100793787061e+04 -7.230496549692e+06 -1.908046422826e+07 -7.437128609617e-05 -3.592214657292e-08 6.720093878564e-04 0.000000000000e+00 2.117218711325e+07 2.614813462446e+07  7.121136930838e-04
2.000000000000e+03 4.557147803229e+06 1.000000000000e+00 4.960184698452e+01 2.475117171349e-04 9.583152098479e-03 -3.706014690369e+07 -1.100654577804e+04 -7.217552038361e+06 -1.889301726337e+07 -7.593103749045e-05 -3.581873398261e-08 6.655278681530e-04 0.000000000000e+00 2.105690540181e+07 2.604747859918e+07  7.065600406896e-04