 TITLE = "Profiles along polylines"
 VARIABLES = "DIST" "PRESSURE1" "SATURATION1" "VELOCITY_X1" "VELOCITY_Y1" "TEMPERATURE1" "DISPLACEMENT_X1" "DISPLACEMENT_Y1" "STRESS_XX" "STRESS_XY" "STRESS_YY" "STRESS_ZZ" "STRAIN_XX" "STRAIN_XY" "STRAIN_YY" "STRAIN_PLS"  p_(1st_Invariant)  q_(2nd_Invariant)   Effective_Strain
 ZONE T="TIME=0.000000000000e+00"
0.000000000000e+00 -7.000000000000e+07 0.000000000000e+00 0.000000000000e+00 0.000000000000e+00 2.500000000000e+01 0.000000000000e+00 0.000000000000e+00 0.000000000000e+00 0.000000000000e+00 0.000000000000e+00 0.000000000000e+00 0.000000000000e+00 0.000000000000e+00 0.000000000000e+00 0.000000000000e+00 -0.000000000000e+00 0.000000000000e+00  0.000000000000e+00
1.856488293236e-01 -7.000000000000e+07 0.000000000000e+00 0.000000000000e+00 0.000000000000e+00 2.500000000000e+01 0.000000000000e+00 0.000000000000e+00 0.000000000000e+00 0.000000000000e+00 0.000000000000e+00 0.000000000000e+00 0.000000000000e+00 0.000000000000e+00 0.000000000000e+00 0.000000000000e+00 -0.000000000000e+00 0.000000000000e+00  0.000000000000e+00
3.329966101904e-01 -7.000000000000e+07 0.000000000000e+00 0.000000000000e+00 0.000000000000e+00 2.500000000000e+01 0.000000000000e+00 0.000000000000e+00 0.000000000000e+00 0.000000000000e+00 0.000000000000e+00 0.000000000000e+00 0.000000000000e+00 0.000000000000e+00 0.000000000000e+00 0.000000000000e+00 -0.000000000000e+00 0.000000000000e+00  0.000000000000e+00
4.500000000000e-01 -7.000000000000e+07 6.684759947500e-01 0.000000000000e+00 0.000000000000e+00 2.500000000000e+01 0.000000000000e+00 0.000000000000e+00 0.000000000000e+00 0.000000000000e+00 0.000000000000e+00 0.000000000000e+00 0.000000000000e+00 0.000000000000e+00 0.000000000000e+00 0.000000000000e+00 -0.000000000000e+00 0.000000000000e+00  0.000000000000e+00
5.425413849766e-01 -7.000000000000e+07 6.684759947500e-01 0.000000000000e+00 0.000000000000e+00 2.500000000000e+01 0.000000000000e+00 0.000000000000e+00 0.000000000000e+00 0.000000000000e+00 0.000000000000e+00 0.000000000000e+00 0.000000000000e+00 0.000000000000e+00 0.000000000000e+00 0.000000000000e+00 -0.000000000000e+00 0.000000000000e+00  0.000000000000e+00
6.536499690359e-01 -7.000000000000e+07 6.684759947500e-01 0.000000000000e+00 0.000000000000e+00 2.500000000000e+01 0.000000000000e+00 0.000000000000e+00 0.000000000000e+00 0.000000000000e+00 0.000000000000e+00 0.000000000000e+00 0.000000000000e+00 0.000000000000e+00 0.000000000000e+00 0.000000000000e+00 -0.000000000000e+00 0.000000000000e+00  0.000000000000e+00
7.871337589362e-01 -7.000000000000e+07 6.684759947500e-01 0.000000000000e+00 0.000000000000e+00 2.500000000000e+01 0.000000000000e+00 0.000000000000e+00 0.000000000000e+00 0.000000000000e+00 0.000000000000e+00 0.000000000000e+00 0.000000000000e+00 0.000000000000e+00 0.000000000000e+00 0.000000000000e+00 -0.000000000000e+00 0.000000000000e+00  0.000000000000e+00
9.474533848814e-01 -7.000000000000e+07 6.504857124747e-01 0.000000000000e+00 0.000000000000e+00 2.500000000000e+01 0.000000000000e+00 0.000000000000e+00 0.000000000000e+00 0.000000000000e+00 0.000000000000e+00 0.000000000000e+00 0.000000000000e+00 0.000000000000e+00 0.000000000000e+00 0.000000000000e+00 -0.000000000000e+00 0.000000000000e+00  0.000000000000e+00
1.140000000000e+00 1.000000000000e+05 9.737398629779e-01 0.000000000000e+00 0.000000000000e+00 2.500000000000e+01 0.000000000000e+00 0.000000000000e+00 3.304572143556e+04 5.605493944878e+02 -4.446166165700e+06 1.775888667205e+05 0.000000000000e+00 0.000000000000e+00 0.000000000000e+00 0.000000000000e+00 1.411843859181e+06 4.553204604223e+06  0.000000000000e+00
1.240000000000e+00 1.000000000000e+05 1.000000000000e+00 0.000000000000e+00 0.000000000000e+00 2.500000000000e+01 0.000000000000e+00 0.000000000000e+00 -1.262331305483e+06 1.487475914788e+03 -1.327249178965e+07 -1.357396928539e+06 0.000000000000e+00 0.000000000000e+00 0.000000000000e+00 0.000000000000e+00 5.297406674556e+06 1.196291125004e+07  0.000000000000e+00
1.487693532361e+00 1.000000000000e+05 1.000000000000e+00 0.000000000000e+00 0.000000000000e+00 2.500000000000e+01 0.000000000000e+00 0.000000000000e+00 -6.266898055332e+06 1.626371943122e+02 -1.670623109008e+07 -3.888888743625e+06 0.000000000000e+00 0.000000000000e+00 0.000000000000e+00 0.000000000000e+00 8.954005963013e+06 1.180929437947e+07  0.000000000000e+00
1.823812918126e+00 1.000000000000e+05 1.000000000000e+00 0.000000000000e+00 0.000000000000e+00 2.500000000000e+01 0.000000000000e+00 0.000000000000e+00 -1.222332787539e+07 -2.874861964183e+03 -1.817378474036e+07 -6.116083784726e+06 0.000000000000e+00 0.000000000000e+00 0.000000000000e+00 0.000000000000e+00 1.217106546683e+07 1.044257078524e+07  0.000000000000e+00
2.280000000000e+00 1.000000000000e+05 1.000000000000e+00 0.000000000000e+00 0.000000000000e+00 2.500000000000e+01 0.000000000000e+00 0.000000000000e+00 -1.862400571852e+07 -6.140100975330e+03 -1.726483383688e+07 -7.763601866620e+06 0.000000000000e+00 0.000000000000e+00 0.000000000000e+00 0.000000000000e+00 1.455081380734e+07 1.024864271960e+07  0.000000000000e+00
2.850000000000e+00 1.000000000000e+05 1.000000000000e+00 0.000000000000e+00 0.000000000000e+00 2.500000000000e+01 0.000000000000e+00 0.000000000000e+00 -2.290522887646e+07 -8.679469202581e+03 -1.624244662485e+07 -8.741252650395e+06 0.000000000000e+00 0.000000000000e+00 0.000000000000e+00 0.000000000000e+00 1.596297605057e+07 1.227353357649e+07  0.000000000000e+00
3.420000000000e+00 1.000000000000e+05 1.000000000000e+00 0.000000000000e+00 0.000000000000e+00 2.500000000000e+01 0.000000000000e+00 0.000000000000e+00 -2.538927640774e+07 -1.052437051289e+04 -1.550903669435e+07 -9.266443930625e+06 0.000000000000e+00 0.000000000000e+00 0.000000000000e+00 0.000000000000e+00 1.672158567757e+07 1.408075802056e+07  0.000000000000e+00
3.972609728322e+00 1.000000000000e+05 1.000000000000e+00 0.000000000000e+00 0.000000000000e+00 2.500000000000e+01 0.000000000000e+00 0.000000000000e+00 -2.694644531562e+07 -1.204288093443e+04 -1.504926595748e+07 -9.595663381930e+06 0.000000000000e+00 0.000000000000e+00 0.000000000000e+00 0.000000000000e+00 1.719712488501e+07 1.536774481875e+07  0.000000000000e+00
4.633649783484e+00 1.000000000000e+05 1.000000000000e+00 0.000000000000e+00 0.000000000000e+00 2.500000000000e+01 0.000000000000e+00 0.000000000000e+00 -2.832397357321e+07 -1.368094842372e+04 -1.460189164019e+07 -9.874709564020e+06 0.000000000000e+00 0.000000000000e+00 0.000000000000e+00 0.000000000000e+00 1.760019159247e+07 1.659846752638e+07  0.000000000000e+00
5.424552109452e+00 1.000000000000e+05 1.000000000000e+00 0.000000000000e+00 0.000000000000e+00 2.500000000000e+01 0.000000000000e+00 0.000000000000e+00 -2.920962299827e+07 -1.515730601599e+04 -1.426998862307e+07 -1.004083348640e+07 0.000000000000e+00 0.000000000000e+00 0.000000000000e+00 0.000000000000e+00 1.784014836925e+07 1.744308313127e+07  0.000000000000e+00
6.370375975935e+00 1.000000000000e+05 1.000000000000e+00 0.000000000000e+00 0.000000000000e+00 2.500000000000e+01 0.000000000000e+00 0.000000000000e+00 -2.991523946550e+07 -1.651999425732e+04 -1.402854325573e+07 -1.018008481637e+07 0.000000000000e+00 0.000000000000e+00 0.000000000000e+00 0.000000000000e+00 1.804128917920e+07 1.812009540962e+07  0.000000000000e+00
7.501825115922e+00 1.000000000000e+05 1.000000000000e+00 0.000000000000e+00 0.000000000000e+00 2.500000000000e+01 0.000000000000e+00 0.000000000000e+00 -3.049326599438e+07 -1.759502775661e+04 -1.382997626749e+07 -1.029392267856e+07 0.000000000000e+00 0.000000000000e+00 0.000000000000e+00 0.000000000000e+00 1.820572164681e+07 1.868400689636e+07  0.000000000000e+00
8.855503976798e+00 1.000000000000e+05 1.000000000000e+00 0.000000000000e+00 0.000000000000e+00 2.500000000000e+01 0.000000000000e+00 0.000000000000e+00 -3.085225541536e+07 -1.786850061417e+04 -1.369136799394e+07 -1.036003702279e+07 0.000000000000e+00 0.000000000000e+00 0.000000000000e+00 0.000000000000e+00 1.830122014403e+07 1.904634812082e+07  0.000000000000e+00
1.047459878112e+01 1.000000000000e+05 1.000000000000e+00 0.000000000000e+00 0.000000000000e+00 2.500000000000e+01 0.000000000000e+00 0.000000000000e+00 -3.113220835338e+07 -1.688267742772e+04 -1.359250579186e+07 -1.041436424357e+07 0.000000000000e+00 0.000000000000e+00 0.000000000000e+00 0.000000000000e+00 1.837969279627e+07 1.932579266621e+07  0.000000000000e+00
1.241154661369e+01 1.000000000000e+05 1.000000000000e+00 0.000000000000e+00 0.000000000000e+00 2.500000000000e+01 0.000000000000e+00 0.000000000000e+00 -3.130685851467e+07 -1.409868786187e+04 -1.352808692198e+07 -1.044743363099e+07 0.000000000000e+00 0.000000000000e+00 0.000000000000e+00 0.000000000000e+00 1.842745968921e+07 1.950246065449e+07  0.000000000000e+00
1.472871140527e+01 1.000000000000e+05 1.000000000000e+00 0.000000000000e+00 0.000000000000e+00 2.500000000000e+01 0.000000000000e+00 0.000000000000e+00 -3.142400077938e+07 -8.843686767664e+03 -1.348940852721e+07 -1.047097279198e+07 0.000000000000e+00 0.000000000000e+00 0.000000000000e+00 0.000000000000e+00 1.846146069952e+07 1.961874619650e+07  0.000000000000e+00
1.750000000000e+01 1.000000000000e+05 1.000000000000e+00 0.000000000000e+00 0.000000000000e+00 2.500000000000e+01 0.000000000000e+00 0.000000000000e+00 -3.145630060804e+07 -9.319594333115e+02 -1.347899521696e+07 -1.047753874750e+07 0.000000000000e+00 0.000000000000e+00 0.000000000000e+00 0.000000000000e+00 1.847094485750e+07 1.965070869555e+07  0.000000000000e+00
 TITLE = "Profiles along polylines"
 VARIABLES = "DIST" "PRESSURE1" "SATURATION1" "VELOCITY_X1" "VELOCITY_Y1" "TEMPERATURE1" "DISPLACEMENT_X1" "DISPLACEMENT_Y1" "STRESS_XX" "STRESS_XY" "STRESS_YY" "STRESS_ZZ" "STRAIN_XX" "STRAIN_XY" "STRAIN_YY" "STRAIN_PLS"  p_(1st_Invariant)  q_(2nd_Invariant)   Effective_Strain
 ZONE T="TIME=1.000000000000e-03"
0.000000000000e+00 -7.000000000000e+07 0.000000000000e+00 0.000000000000e+00 0.000000000000e+00 2.500000000000e+01 0.000000000000e+00 6.353405554786e-05 2.718320976154e+06 -1.642568100924e-01 1.584793137834e+06 1.290934234196e+06 9.278013822722e-06 -2.135338531199e-12 1.910082873646e-06 0.000000000000e+00 -1.864682782728e+06 1.305502073267e+06  8.485763476235e-06
1.856488293236e-01 -7.000000000000e+07 0.000000000000e+00 0.000000000000e+00 0.000000000000e+00 2.500000000000e+01 1.707281234963e-06 6.353396241694e-05 2.705677215669e+06 -2.986255110467e+01 1.640031206841e+06 1.303712526753e+06 9.112770477956e-06 -3.882131643607e-10 2.186071420569e-06 0.000000000000e+00 -1.883140316421e+06 1.267717765322e+06  8.240165495170e-06
3.329966101904e-01 -7.000000000000e+07 0.000000000000e+00 0.000000000000e+00 0.000000000000e+00 2.500000000000e+01 3.026802861116e-06 6.353375172253e-05 2.691723142866e+06 -5.869906698282e+01 1.746392734599e+06 1.331434763239e+06 8.841874467570e-06 -7.630878707767e-10 2.697226813837e-06 0.000000000000e+00 -1.923183546901e+06 1.207523125080e+06  7.848900396486e-06
4.500000000000e-01 -7.000000000000e+07 6.684759947500e-01 -2.131502240121e-14 -1.849270749377e-07 3.310906251120e+01 4.071223973293e-06 6.353349176684e-05 2.717293492572e+06 -8.618021826209e+01 1.702313507092e+06 1.387487833616e+06 1.878269373810e-03 -2.532262548515e-07 9.536831979991e-06 0.000000000000e+00 -1.935698277760e+06 1.203678260740e+06  1.873519213858e-03
5.425413849766e-01 -6.999999999989e+07 6.684759947436e-01 -3.761931487684e-12 -1.848676933305e-07 2.807634570670e+01 5.145582131475e-04 6.346054833848e-05 2.634620278214e+06 -7.547752139168e+01 1.327775146902e+06 1.375758534699e+06 5.361083134843e-03 -6.428684787304e-07 -2.043456578100e-04 0.000000000000e+00 -1.779384653271e+06 1.283526300121e+06  5.466121552451e-03
6.536499690359e-01 -6.999999993365e+07 6.684759878566e-01 -3.299515754527e-09 -1.848325880385e-07 2.599809537035e+01 1.097942104580e-03 6.336457414615e-05 2.572621935212e+06 -6.963412747324e+01 1.304165084649e+06 1.353258641776e+06 5.192872069839e-03 -5.930982466175e-07 -2.090735082692e-04 0.000000000000e+00 -1.743348553879e+06 1.244636458884e+06  5.300502344355e-03
7.871337589362e-01 -6.999993003809e+07 6.684774325879e-01 -3.816477680429e-06 -1.848056506539e-07 2.525080984488e+01 1.814972062548e-03 6.323142479049e-05 2.670616482665e+06 -7.219059981173e+01 1.233586784910e+06 1.365468237276e+06 5.558202306864e-03 -6.148726166930e-07 -5.616402545545e-04 0.000000000000e+00 -1.756557168284e+06 1.375837752684e+06  5.859246022507e-03
9.474533848814e-01 -6.991580129891e+07 6.507528602308e-01 -2.437363284039e-03 -1.580322805175e-07 2.505445512082e+01 2.734518353323e-03 6.304703897980e-05 -9.639188521378e+06 -7.889649689011e+01 -5.866131855156e+06 -5.683717205238e+06 -1.684506711921e-02 -6.719890902312e-07 -7.768447236253e-04 0.000000000000e+00 7.063012527257e+06 3.867491763481e+06  1.647039082169e-02
1.140000000000e+00 1.349371324694e+05 9.738732786163e-01 -2.019618020084e-02 -7.176476130584e-04 2.500485102010e+01 -1.117394587834e-04 6.277192353588e-05 1.590150409320e+06 4.709163591355e+02 -5.897510485650e+06 1.801228169127e+05 6.215913851885e-04 -7.062544279398e-07 -3.370010147551e-04 0.000000000000e+00 1.375745753139e+06 6.891693238254e+06  8.422730899441e-04
1.240000000000e+00 1.413412552946e+05 1.000000000000e+00 -1.912507446065e-02 -1.252585888065e-03 2.500280428798e+01 -1.020086459019e-04 6.275961394942e-05 1.087566463129e+06 2.471674279238e+03 -1.546475670280e+07 -1.311052294451e+06 8.556054499659e-05 7.311187850199e-08 -8.314835461181e-05 0.000000000000e+00 5.229414178041e+06 1.549290417042e+07  1.461112258075e-04
1.487693532361e+00 1.556961197234e+05 1.000000000000e+00 -1.668949622423e-02 -1.060120106664e-03 2.500075208135e+01 -8.463692640702e-05 6.274861984937e-05 -4.693378198407e+06 1.756109472259e+03 -1.824698063773e+07 -3.879359979450e+06 5.809109773072e-05 1.183722263618e-07 -5.758176586749e-05 0.000000000000e+00 8.939906271861e+06 1.397839952619e+07  1.001761719195e-04
1.823812918126e+00 1.717928622387e+05 1.000000000000e+00 -1.407500256654e-02 -8.343706375937e-04 2.500007432559e+01 -6.927579455539e-05 6.275036215047e-05 -1.118233909740e+07 -1.297839334840e+03 -1.914854674902e+07 -6.096255788664e+06 3.792882904298e-05 1.171502524655e-07 -3.694191446081e-05 0.000000000000e+00 1.214238054503e+07 1.139497734074e+07  6.484216103163e-05
2.280000000000e+00 1.897522717761e+05 1.000000000000e+00 -1.080450907902e-02 -6.178745246235e-04 2.500000402545e+01 -5.596117502014e-05 6.276104966821e-05 -1.798545458275e+07 -4.874761709812e+03 -1.786865163364e+07 -7.753184009349e+06 2.333066463010e-05 9.399663115280e-08 -2.281446715000e-05 0.000000000000e+00 1.453576340858e+07 1.017437545637e+07  3.996402146070e-05
2.850000000000e+00 2.074446307919e+05 1.000000000000e+00 -8.741383585309e-03 -5.169176379831e-04 2.499999994532e+01 -4.549094305713e-05 6.277690104352e-05 -2.249144871000e+07 -7.641322947990e+03 -1.662470541913e+07 -8.731796267196e+06 1.501774052127e-05 7.711943605532e-08 -1.454942087749e-05 0.000000000000e+00 1.594931679877e+07 1.195920309651e+07  2.560733191744e-05
3.420000000000e+00 2.215970185909e+05 1.000000000000e+00 -7.354823483911e-03 -4.556995872020e-04 2.500000000096e+01 -3.853219015892e-05 6.279288099904e-05 -2.509303125119e+07 -9.601474608823e+03 -1.576960387675e+07 -9.255740538373e+06 1.060583695956e-05 6.855798144534e-08 -1.007576420152e-05 0.000000000000e+00 1.670612522210e+07 1.378725940587e+07  1.791314642413e-05
3.972609728322e+00 2.330505661732e+05 1.000000000000e+00 -6.170055220174e-03 -4.143423897756e-04 2.500000000020e+01 -3.363009552897e-05 6.280819494388e-05 -2.671849826224e+07 -1.118349124071e+04 -1.523556390782e+07 -9.583168651066e+06 8.002514836286e-06 6.384037724805e-08 -7.383728159134e-06 0.000000000000e+00 1.717907694038e+07 1.512328709033e+07  1.332892741952e-05
4.633649783484e+00 2.447525257874e+05 1.000000000000e+00 -5.063055921838e-03 -3.843603950768e-04 2.499999999998e+01 -2.917006971447e-05 6.282634444339e-05 -2.815123529392e+07 -1.287192577359e+04 -1.472621007932e+07 -9.860183611971e+06 5.876457868619e-06 6.009882543850e-08 -5.157077386584e-06 0.000000000000e+00 1.757920966174e+07 1.640842895198e+07  9.562655899215e-06
5.424552109452e+00 2.565441707821e+05 1.000000000000e+00 -4.298457931970e-03 -3.623238966003e-04 2.500000000001e+01 -2.523789901084e-05 6.284819549799e-05 -2.907003087477e+07 -1.436784175771e+04 -1.434875246931e+07 -1.002258500323e+07 4.507049497764e-06 5.864591632923e-08 -3.603315092612e-06 0.000000000000e+00 1.781378944910e+07 1.729505992580e+07  7.039034901240e-06
6.370375975935e+00 2.680807782276e+05 1.000000000000e+00 -3.547741570992e-03 -3.462440019069e-04 2.499999999998e+01 -2.160954295180e-05 6.287454387744e-05 -2.979964048350e+07 -1.573702621312e+04 -1.407157400427e+07 -1.015831434633e+07 3.485059015693e-06 5.816334042625e-08 -2.406902404613e-06 0.000000000000e+00 1.800984294470e+07 1.800651069303e+07  5.131974413010e-06
7.501825115922e+00 2.794199820965e+05 1.000000000000e+00 -2.776495605589e-03 -3.349118681415e-04 2.499999999999e+01 -1.817858734461e-05 6.290630267329e-05 -3.039488814568e+07 -1.682058956332e+04 -1.384325348850e+07 -1.026839249025e+07 2.705770243068e-06 5.752969435855e-08 -1.441418060392e-06 0.000000000000e+00 1.816884470814e+07 1.859857206808e+07  3.648143874071e-06
8.855503976798e+00 2.902924433088e+05 1.000000000000e+00 -2.217119764407e-03 -3.264088149119e-04 2.499999999998e+01 -1.492281301482e-05 6.294417607295e-05 -3.076242829092e+07 -1.711028414360e+04 -1.368268200121e+07 -1.033048308763e+07 2.238718459034e-06 5.632465210003e-08 -7.750950044541e-07 0.000000000000e+00 1.825853112659e+07 1.897921379086e+07  2.712447141979e-06
1.047459878112e+01 3.001110515483e+05 1.000000000000e+00 -1.628522891811e-03 -3.210050958718e-04 2.499999999996e+01 -1.162414905694e-05 6.298756069903e-05 -3.104753697741e+07 -1.617921111647e+04 -1.356610449410e+07 -1.038104244144e+07 1.907269885452e-06 5.225749740715e-08 -2.570473052674e-07 0.000000000000e+00 1.833156130432e+07 1.927239825442e+07  2.049927524493e-06
1.241154661369e+01 3.083650975032e+05 1.000000000000e+00 -1.171255185209e-03 -3.171848420128e-04 2.500000000001e+01 -8.174786149689e-06 6.303329098792e-05 -3.122398971851e+07 -1.351224866243e+04 -1.348929578566e+07 -1.041093565126e+07 1.722344609924e-06 4.356405481563e-08 8.517438747365e-08 0.000000000000e+00 1.837474038514e+07 1.945738915041e+07  1.683068467135e-06
1.472871140527e+01 3.143751555563e+05 1.000000000000e+00 -6.076283789138e-04 -3.149048949760e-04 2.499999999966e+01 -4.363115697434e-06 6.307267237952e-05 -3.134178112205e+07 -8.474935368336e+03 -1.344165374124e+07 -1.043198045890e+07 1.605586329483e-06 2.739296109293e-08 3.254625360280e-07 0.000000000000e+00 1.840513844073e+07 1.957923502381e+07  1.470893010428e-06
1.750000000000e+01 3.166832744713e+05 1.000000000000e+00 -2.790489179235e-04 -3.137548235771e-04 2.500000000003e+01 0.000000000000e+00 6.308973672046e-05 -3.137370334305e+07 -9.113863667734e+02 -1.342825037551e+07 -1.043753611562e+07 1.582086372674e-06 1.528284942831e-09 3.989963552739e-07 0.000000000000e+00 1.841316327806e+07 1.961258214964e+07  1.425116027789e-06
 TITLE = "Profiles along polylines"
 VARIABLES = "DIST" "PRESSURE1" "SATURATION1" "VELOCITY_X1" "VELOCITY_Y1" "TEMPERATURE1" "DISPLACEMENT_X1" "DISPLACEMENT_Y1" "STRESS_XX" "STRESS_XY" "STRESS_YY" "STRESS_ZZ" "STRAIN_XX" "STRAIN_XY" "STRAIN_YY" "STRAIN_PLS"  p_(1st_Invariant)  q_(2nd_Invariant)   Effective_Strain
 ZONE T="TIME=9.000000000000e-01"
0.000000000000e+00 -7.000000000000e+07 0.000000000000e+00 0.000000000000e+00 0.000000000000e+00 2.500000000000e+01 0.000000000000e+00 8.938502150051e-04 -1.354395729815e+07 -8.300062334524e-01 -9.714789001497e+06 -6.977623889895e+06 -4.268116715367e-05 -1.079008103489e-11 -1.779157322541e-05 0.000000000000e+00 1.007879006318e+07 5.712763653464e+06  3.713296374752e-05
1.856488293236e-01 -7.000000000000e+07 0.000000000000e+00 0.000000000000e+00 0.000000000000e+00 2.500000000000e+01 -7.881770123484e-06 8.938496039455e-04 -1.356770134649e+07 -2.320971967089e+02 -9.912177473293e+06 -7.043963645935e+06 -4.240429505360e-05 -3.017263557216e-09 -1.864338987783e-05 0.000000000000e+00 1.017461415524e+07 5.663420311782e+06  3.681223230480e-05
3.329966101904e-01 -7.000000000000e+07 0.000000000000e+00 0.000000000000e+00 0.000000000000e+00 2.500000000000e+01 -1.325518602329e-05 8.938482622338e-04 -8.821624232135e+06 -4.279019973383e+02 -1.162667045847e+07 -6.134488407183e+06 -1.746638286219e-05 -5.562725965400e-09 -3.569918333339e-05 0.000000000000e+00 8.860927699264e+06 4.756734597219e+06  3.091877600784e-05
4.500000000000e-01 -1.825455417321e+08 4.447347592060e-01 -3.515172207293e-03 -1.464769594053e-07 8.283348462567e+01 -3.641570454962e-05 8.938467450491e-04 -9.102306945863e+07 -4.073324118821e+02 -5.552953401003e+07 -4.616047694053e+07 -3.692703894644e-02 -7.791676686852e-07 2.863668797585e-04 0.000000000000e+00 6.423769346973e+07 4.098916013688e+07  3.707105196895e-02
5.425413849766e-01 -1.226642315127e+08 5.272211560514e-01 -5.012050668619e-03 -2.127082508214e-07 7.355501941886e+01 -6.573295601962e-03 8.936747112295e-04 -3.034555898782e+07 -3.619542081989e+01 -2.188735176223e+07 -1.871607750996e+07 -4.952618294987e-02 -3.082890732296e-07 -1.350542662639e-02 0.000000000000e+00 2.364966275333e+07 1.041256666979e+07  4.434373818607e-02
6.536499690359e-01 -7.854812253515e+07 6.273424054583e-01 -4.818317047137e-03 -2.543543315228e-07 6.573361624658e+01 -9.763747555503e-03 8.935214455262e-04 -1.174029975051e+07 6.936974784921e+01 -1.266453983935e+07 -8.909967715675e+06 -1.205346450165e-02 5.908464327851e-07 -1.598950273490e-02 0.000000000000e+00 1.110493576851e+07 3.388348493735e+06  1.442987531599e-02
7.871337589362e-01 -5.089559797900e+07 7.335714557578e-01 -4.050383162515e-03 -2.075721953276e-07 5.931954520063e+01 -9.741894113685e-03 8.932929179613e-04 2.262684657990e+06 2.482310811556e+01 -2.930515236032e+06 -6.941051090766e+05 1.259200689445e-02 2.114271038234e-07 -9.524144073786e-03 0.000000000000e+00 4.539785623728e+05 4.511843366383e+06  1.921447490677e-02
9.474533848814e-01 -2.984247135388e+07 8.166774406110e-01 -4.852515173949e-03 -1.408305575080e-07 5.367778754723e+01 -6.058100265675e-03 8.928442558361e-04 1.261715007200e+07 -2.278030249701e+02 -2.607095430257e+06 -1.680410757829e+06 6.088866599454e-02 -1.940278130660e-06 -3.946448920434e-03 0.000000000000e+00 -2.776547961305e+06 1.478270343322e+07  6.295473077658e-02
1.140000000000e+00 3.221762364192e+05 9.953957013209e-01 -8.315130152206e-03 -2.782604270398e-04 4.850921061954e+01 2.368212864318e-04 8.919487426133e-04 -6.518633207780e+06 6.035301749732e+01 -7.905311903099e+06 -7.788663178629e+06 -1.675848327107e-03 -2.598100217948e-06 5.774662489294e-04 0.000000000000e+00 7.404202763169e+06 1.332190091106e+06  2.027239744510e-03
1.240000000000e+00 3.242066392019e+05 1.000000000000e+00 -6.195659568349e-03 -5.131552921040e-04 4.754491137781e+01 2.503580011491e-04 8.919233287449e-04 -8.355360267172e+06 2.447251502886e+03 -1.578033025899e+07 -1.210147947748e+07 1.356105618123e-04 7.129761511591e-08 3.059176372424e-04 0.000000000000e+00 1.207905666788e+07 6.430301996175e+06  2.654998641173e-04
1.487693532361e+00 3.288737998542e+05 1.000000000000e+00 -5.441365883172e-03 -4.678346311735e-04 4.548073206581e+01 2.833997766161e-04 8.918917731190e-04 -1.268148511537e+07 1.773635288458e+03 -1.927692640707e+07 -1.382000149918e+07 1.306138115478e-04 1.196741441366e-07 2.733869334326e-04 0.000000000000e+00 1.525947100720e+07 6.106312869216e+06  2.368381656352e-04
1.823812918126e+00 3.341395924271e+05 1.000000000000e+00 -4.608994579182e-03 -4.155749781712e-04 4.320611496752e+01 3.238662551375e-04 8.918745070637e-04 -1.808028383729e+07 -1.675246381832e+03 -2.049497640942e+07 -1.498425127018e+07 1.118449994463e-04 8.911430040325e-08 2.431733874663e-04 0.000000000000e+00 1.785317050563e+07 4.784572408975e+06  2.108195833183e-04
2.280000000000e+00 3.400202934397e+05 1.000000000000e+00 -3.538235720054e-03 -3.661248476382e-04 4.068907690810e+01 3.687103449671e-04 8.918644838996e-04 -2.393738184626e+07 -5.543169523290e+03 -1.904471003139e+07 -1.541363184865e+07 8.679000030246e-05 4.434347929441e-08 2.180342835363e-04 0.000000000000e+00 1.946524124210e+07 7.408693023712e+06  1.901269663005e-04
2.850000000000e+00 3.458142124492e+05 1.000000000000e+00 -2.862576151826e-03 -3.433419752950e-04 3.823030640400e+01 4.102928315282e-04 8.918574318407e-04 -2.772037759536e+07 -8.435724217411e+03 -1.742728862734e+07 -1.521667566529e+07 6.166733099393e-05 1.810677032692e-08 1.965072947466e-04 0.000000000000e+00 2.012144729600e+07 1.155805950618e+07  1.740686565590e-04
3.420000000000e+00 3.504485616522e+05 1.000000000000e+00 -2.408345892577e-03 -3.295973454163e-04 3.628894648100e+01 4.389885948936e-04 8.918523086055e-04 -2.979876483606e+07 -1.042675033096e+04 -1.620619888851e+07 -1.480521064151e+07 4.194462192352e-05 7.251784943952e-09 1.798310249066e-04 0.000000000000e+00 2.027005812203e+07 1.434447518724e+07  1.629589047436e-04
3.972609728322e+00 3.541988347917e+05 1.000000000000e+00 -2.020220842614e-03 -3.203488140399e-04 3.474112344303e+01 4.570522092880e-04 8.918484177354e-04 -3.100738310699e+07 -1.201166649345e+04 -1.535497550081e+07 -1.436867010527e+07 2.644827461638e-05 2.318787044270e-09 1.659281809720e-04 0.000000000000e+00 2.024367623769e+07 1.616815230998e+07  1.544122999959e-04
4.633649783484e+00 3.580301911513e+05 1.000000000000e+00 -1.657640409160e-03 -3.136610608574e-04 3.319533788731e+01 4.684936468228e-04 8.918448145974e-04 -3.199713832799e+07 -1.368510806393e+04 -1.451207900634e+07 -1.384751381685e+07 1.112946707024e-05 -3.090018443905e-10 1.508971986483e-04 0.000000000000e+00 2.011891038373e+07 1.782665055417e+07  1.456517222491e-04
5.424552109452e+00 3.618906970247e+05 1.000000000000e+00 -1.407245040909e-03 -3.087556241190e-04 3.168500316570e+01 4.711148337494e-04 8.918419133471e-04 -3.252441112935e+07 -1.516029303834e+04 -1.382066185312e+07 -1.328227373032e+07 -2.724350094582e-06 -2.218930889527e-10 1.370856319437e-04 0.000000000000e+00 1.987578223759e+07 1.897868975257e+07  1.384679090018e-04
6.370375975935e+00 3.656674933688e+05 1.000000000000e+00 -1.161416025962e-03 -3.051804873803e-04 3.026718839136e+01 4.617033133330e-04 8.918403198636e-04 -3.286295113738e+07 -1.649244892560e+04 -1.324786480639e+07 -1.271485105843e+07 -1.533797310730e-05 2.046224641736e-09 1.231450885377e-04 0.000000000000e+00 1.960855566740e+07 1.988697166770e+07  1.314867381862e-04
7.501825115922e+00 3.693795180321e+05 1.000000000000e+00 -9.089023493105e-04 -3.026633816513e-04 2.895768555555e+01 4.369612677903e-04 8.918404652336e-04 -3.305619168502e+07 -1.754539002962e+04 -1.275373717925e+07 -1.214568342043e+07 -2.641469809732e-05 3.687374005080e-09 1.087542794040e-04 0.000000000000e+00 1.931853742823e+07 2.061323108177e+07  1.240884404862e-04
8.855503976798e+00 3.729386548895e+05 1.000000000000e+00 -7.257720745936e-04 -3.007762032506e-04 2.779623283947e+01 3.946121685207e-04 8.918430606925e-04 -3.308555613487e+07 -1.777691873863e+04 -1.238277548906e+07 -1.164559861342e+07 -3.520173907282e-05 6.803225040813e-09 9.635429497609e-05 0.000000000000e+00 1.903797674578e+07 2.108106058586e+07  1.179625003263e-04
1.047459878112e+01 3.761527329390e+05 1.000000000000e+00 -5.330852722073e-04 -2.995773716530e-04 2.684457941189e+01 3.314316420854e-04 8.918487062521e-04 -3.305280584071e+07 -1.677326197750e+04 -1.210297529164e+07 -1.120696920872e+07 -4.189686510991e-05 8.128004873593e-09 8.476503157087e-05 0.000000000000e+00 1.878758344702e+07 2.141191833000e+07  1.117669323870e-04
1.241154661369e+01 3.788546175728e+05 1.000000000000e+00 -3.833975232918e-04 -2.987301023611e-04 2.612776105972e+01 2.457424009217e-04 8.918571604413e-04 -3.299153328096e+07 -1.395794498061e+04 -1.191852262157e+07 -1.088364555620e+07 -4.637147695439e-05 1.045518546512e-08 7.598597409428e-05 0.000000000000e+00 1.859790048624e+07 2.160905617313e+07  1.069942255848e-04
1.472871140527e+01 3.808219314875e+05 1.000000000000e+00 -1.988984535369e-04 -2.982245709674e-04 2.565559885442e+01 1.356195503480e-04 8.918650452695e-04 -3.291858254583e+07 -8.773004998836e+03 -1.182072485211e+07 -1.065984336689e+07 -4.849784425683e-05 5.250645684337e-09 6.899487214328e-05 0.000000000000e+00 1.846638358828e+07 2.170160335916e+07  1.022664946405e-04
1.750000000000e+01 3.815774611815e+05 1.000000000000e+00 -9.134233618292e-05 -2.979695961118e-04 2.547503917203e+01 0.000000000000e+00 8.918705695132e-04 -3.288760039311e+07 -8.369307095159e+02 -1.178149878252e+07 -1.056992460624e+07 -4.973108869219e-05 7.059276624821e-09 6.648134231828e-05 0.000000000000e+00 1.841300792729e+07 2.173722721406e+07  1.009907903705e-04
 TITLE = "Profiles along polylines"
 VARIABLES = "DIST" "PRESSURE1" "SATURATION1" "VELOCITY_X1" "VELOCITY_Y1" "TEMPERATURE1" "DISPLACEMENT_X1" "DISPLACEMENT_Y1" "STRESS_XX" "STRESS_XY" "STRESS_YY" "STRESS_ZZ" "STRAIN_XX" "STRAIN_XY" "STRAIN_YY" "STRAIN_PLS"  p_(1st_Invariant)  q_(2nd_Invariant)   Effective_Strain
 ZONE T="TIME=1.000000000000e+00"
0.000000000000e+00 -7.000000000000e+07 0.000000000000e+00 0.000000000000e+00 0.000000000000e+00 2.500000000000e+01 0.000000000000e+00 9.844908164903e-04 -1.424749943338e+07 -2.229535091244e+00 -1.021730653147e+07 -7.339441789454e+06 -4.490237468549e-05 -2.898395618618e-11 -1.870612082311e-05 0.000000000000e+00 1.060141591810e+07 6.010233802095e+06  3.906651971364e-05
1.856488293236e-01 -7.000000000000e+07 0.000000000000e+00 0.000000000000e+00 0.000000000000e+00 2.500000000000e+01 -8.291852331441e-06 9.844901106060e-04 -1.426971817731e+07 -2.781961221462e+02 -1.042184971181e+07 -7.407470366738e+06 -4.460461076873e-05 -3.616549587901e-09 -1.959346574299e-05 0.000000000000e+00 1.069967941862e+07 5.957475138089e+06  3.872358877756e-05