 TITLE = "Time curves in points"
 VARIABLES = "TIME"  "PRESSURE1"  "SATURATION1"  "TEMPERATURE1"  "DISPLACEMENT_X1"  "DISPLACEMENT_Y1"  "STRESS_XX"  "STRESS_XY"  "STRESS_YY"  "STRESS_ZZ"  "STRAIN_XX"  "STRAIN_XY"  "STRAIN_YY"  "STRAIN_PLS"  p_(1st_Invariant)  q_(2nd_Invariant)   Effective_Strain
 ZONE T="POINT=POINT18"
0.000000000000e+00 1.000000000000e+05 1.000000000000e+00 2.500000000000e+01 0.000000000000e+00 0.000000000000e+00 -3.130685851467e+07 -1.409868786187e+04 -1.352808692198e+07 -1.044743363099e+07 0.000000000000e+00 0.000000000000e+00 0.000000000000e+00 0.000000000000e+00 1.842745968921e+07 1.950246065449e+07  0.000000000000e+00
1.000000000000e-03 3.083650975032e+05 1.000000000000e+00 2.500000000001e+01 -8.174803706142e-06 6.303324800751e-05 -3.122398958821e+07 -1.351222782562e+04 -1.348929586443e+07 -1.041093563580e+07 1.722348875550e-06 4.356560269336e-08 8.517088748881e-08 0.000000000000e+00 1.837474036281e+07 1.945738900111e+07  1.683074458276e-06
2.000000000000e-03 3.159689439173e+05 1.000000000000e+00 2.499999999999e+01 -7.616264256941e-06 6.240424727490e-05 -3.122808859681e+07 -1.356062691014e+04 -1.348864777959e+07 -1.041197091292e+07 1.608553134825e-06 3.997024212888e-08 1.476957603392e-07 0.000000000000e+00 1.837623576311e+07 1.946105803679e+07  1.541581528058e-06
3.000000000000e-03 3.211298798470e+05 1.000000000000e+00 2.499999999994e+01 -7.130529047814e-06 6.190718410861e-05 -3.123194189902e+07 -1.358888771214e+04 -1.348850009532e+07 -1.041308259829e+07 1.506721652235e-06 3.787086826602e-08 1.944723467549e-07 0.000000000000e+00 1.837784153088e+07 1.946424838458e+07  1.421026580800e-06
4.000000000000e-03 3.246441808822e+05 1.000000000000e+00 2.499999999989e+01 -6.687535195476e-06 6.138383044579e-05 -3.123581780130e+07 -1.360844548650e+04 -1.348899940252e+07 -1.041439516112e+07 1.411511900930e-06 3.641800502740e-08 2.246789842613e-07 0.000000000000e+00 1.837973745498e+07 1.946709411315e+07  1.315176127190e-06
1.000000000000e-02 3.282972316046e+05 1.000000000000e+00 2.499999999994e+01 -5.338820769749e-06 5.856327701846e-05 -3.125081392244e+07 -1.367053813418e+04 -1.349722428292e+07 -1.042136146159e+07 1.113261418837e-06 3.180540834294e-08 1.779317297265e-07 0.000000000000e+00 1.838979988898e+07 1.947457429965e+07  1.037285355736e-06
2.000000000000e-02 3.209720154730e+05 1.000000000000e+00 2.499999999911e+01 -2.655212075371e-06 5.672191637455e-05 -3.127739278931e+07 -1.373059327096e+04 -1.350448254233e+07 -1.043151259966e+07 5.030886350424e-07 2.734416961101e-08 2.853815086975e-07 0.000000000000e+00 1.840446264377e+07 1.949193852561e+07  4.395585255383e-07
3.000000000000e-02 3.083467034309e+05 1.000000000000e+00 2.499999998948e+01 4.880041901325e-07 5.706006496715e-05 -3.130539839888e+07 -1.377135436619e+04 -1.350537729528e+07 -1.044018271207e+07 -2.150869735928e-07 2.431620253677e-08 5.741805744166e-07 0.000000000000e+00 1.841698613541e+07 1.951402742490e+07  7.079677488496e-07
4.000000000000e-02 2.935043100365e+05 1.000000000000e+00 2.499999996592e+01 3.927484423074e-06 5.973259435849e-05 -3.133312322163e+07 -1.380209048924e+04 -1.349944963201e+07 -1.044672189672e+07 -1.001982103060e-06 2.203294768151e-08 1.037234925799e-06 0.000000000000e+00 1.842643158345e+07 1.953972829415e+07  1.766513971306e-06
5.000000000000e-02 2.781876015460e+05 1.000000000000e+00 2.500000002207e+01 7.541706269099e-06 6.340845768831e-05 -3.136106330951e+07 -1.382604206891e+04 -1.349039572925e+07 -1.045238795759e+07 -1.829303106410e-06 2.025368747741e-08 1.583976432264e-06 0.000000000000e+00 1.843461566545e+07 1.956737211423e+07  2.958738723963e-06
6.000000000000e-02 2.628169376310e+05 1.000000000000e+00 2.500000066198e+01 1.127201706971e-05 6.940137895422e-05 -3.138721378458e+07 -1.384470640454e+04 -1.347476434754e+07 -1.045554448134e+07 -2.683364155283e-06 1.886719397302e-08 2.281812920414e-06 0.000000000000e+00 1.843917420449e+07 1.959728888533e+07  4.304778310941e-06
7.000000000000e-02 2.482548207077e+05 1.000000000000e+00 2.500000344145e+01 1.508804249601e-05 7.541255898926e-05 -3.141398146831e+07 -1.385974497494e+04 -1.345879713392e+07 -1.045878702195e+07 -3.557155185638e-06 1.775004302926e-08 2.995318077596e-06 0.000000000000e+00 1.844385520806e+07 1.962791420393e+07  5.681640592744e-06
8.000000000000e-02 2.351205290081e+05 1.000000000000e+00 2.500001194551e+01 1.896440319389e-05 8.220962392710e-05 -3.144033411492e+07 -1.387183929540e+04 -1.344061308299e+07 -1.046124361390e+07 -4.444722929780e-06 1.685160779525e-08 3.761970527787e-06 0.000000000000e+00 1.844739693727e+07 1.965947599096e+07  7.115458718208e-06
9.000000000000e-02 2.243279765763e+05 1.000000000000e+00 2.500003296209e+01 2.288265605391e-05 8.839177971032e-05 -3.146771023861e+07 -1.388212136120e+04 -1.342394476704e+07 -1.046446902238e+07 -5.341749495078e-06 1.608779719307e-08 4.500880291839e-06 0.000000000000e+00 1.845204134268e+07 1.969102926390e+07  8.534375346071e-06
1.000000000000e-01 2.168958664196e+05 1.000000000000e+00 2.500007761001e+01 2.682757126807e-05 9.392756677703e-05 -3.149602265951e+07 -1.389123185182e+04 -1.340890356635e+07 -1.046847574411e+07 -6.244532607189e-06 1.541101788967e-08 5.208374553340e-06 0.000000000000e+00 1.845780065666e+07 1.972243494026e+07  9.932065756796e-06
2.000000000000e-01 2.305342222078e+05 1.000000000000e+00 2.502667785432e+01 6.380840301336e-05 1.887324122088e-04 -3.171559940328e+07 -1.394682716296e+04 -1.316181555470e+07 -1.047070212188e+07 -1.431754620143e-05 1.128108049035e-08 1.446862330312e-05 0.000000000000e+00 1.844937235995e+07 2.003536640780e+07  2.492967616957e-05
3.000000000000e-01 2.539215366433e+05 1.000000000000e+00 2.509252329441e+01 9.891833748262e-05 2.983917480450e-04 -3.191370073508e+07 -1.396861297477e+04 -1.289676927670e+07 -1.047578298099e+07 -2.148687804420e-05 9.662705898825e-09 2.450191696740e-05 0.000000000000e+00 1.842875099759e+07 2.033581010313e+07  3.985598882220e-05
4.000000000000e-01 2.778424060555e+05 1.000000000000e+00 2.519884269912e+01 1.312140602276e-04 4.038125402372e-04 -3.210883506186e+07 -1.396487759515e+04 -1.266814255722e+07 -1.050562652932e+07 -2.762624981502e-05 9.940191242039e-09 3.410224120038e-05 0.000000000000e+00 1.842753471613e+07 2.060724131996e+07  5.355641758750e-05
5.000000000000e-01 3.006476900648e+05 1.000000000000e+00 2.534048625341e+01 1.603843675918e-04 5.062273554936e-04 -3.229904601654e+07 -1.395319691194e+04 -1.247123089281e+07 -1.055607626738e+07 -3.281738071831e-05 1.080789913781e-08 4.328995043462e-05 0.000000000000e+00 1.844211772558e+07 2.085147442609e+07  6.611855579914e-05
6.000000000000e-01 3.220253449416e+05 1.000000000000e+00 2.551037594353e+01 1.862417383606e-04 6.060824040254e-04 -3.248239213008e+07 -1.394281806264e+04 -1.230168127813e+07 -1.062252309488e+07 -3.715935419969e-05 1.157889937162e-08 5.205553257272e-05 0.000000000000e+00 1.846886550103e+07 2.107054464583e+07  7.762052854177e-05
7.000000000000e-01 3.420511584359e+05 1.000000000000e+00 2.570176351459e+01 2.089134146295e-04 7.035622970168e-04 -3.265869229725e+07 -1.394022677054e+04 -1.215537234359e+07 -1.070117403669e+07 -4.078632542749e-05 1.177139535590e-08 6.041118512296e-05 0.000000000000e+00 1.850507955918e+07 2.126775253736e+07  8.818722300549e-05
8.000000000000e-01 3.610103641588e+05 1.000000000000e+00 2.590902649044e+01 2.286445367154e-04 7.988315205101e-04 -3.282816922705e+07 -1.394537330552e+04 -1.202856936960e+07 -1.078894001051e+07 -4.382130379199e-05 1.138908132879e-08 6.838088889925e-05 0.000000000000e+00 1.854855953572e+07 2.144631467732e+07  9.794280334887e-05
9.000000000000e-01 3.788546175728e+05 1.000000000000e+00 2.612776105972e+01 2.457423926148e-04 8.918572483914e-04 -3.299153321361e+07 -1.395813316895e+04 -1.191852261899e+07 -1.088364553522e+07 -4.637147523221e-05 1.044120575975e-08 7.598597341108e-05 0.000000000000e+00 1.859790045594e+07 2.160905611864e+07  1.069942235895e-04
1.000000000000e+00 3.956972551497e+05 1.000000000000e+00 2.635461483105e+01 2.605011911514e-04 9.826964750950e-04 -3.314926232939e+07 -1.397587866304e+04 -1.182276629737e+07 -1.098352449245e+07 -4.852019540732e-05 9.122969056236e-09 8.325242662497e-05 0.000000000000e+00 1.865185103974e+07 2.175827274416e+07  1.154322318894e-04
2.000000000000e+00 5.150057627839e+05 1.000000000000e+00 2.862803369585e+01 3.136813634783e-04 1.735802115050e-03 -3.440187845797e+07 -1.414994894547e+04 -1.141602958321e+07 -1.203990471927e+07 -5.580895747227e-05 -3.807966210164e-09 1.375967701474e-04 0.000000000000e+00 1.928593758681e+07 2.268036088222e+07  1.724141619071e-04
3.000000000000e+00 6.107955930557e+05 1.000000000000e+00 3.070915667974e+01 3.299877527160e-04 2.378438305906e-03 -3.544390735794e+07 -1.424905993601e+04 -1.122744776595e+07 -1.302645422161e+07 -5.786962081309e-05 -1.117049693619e-08 1.812445048751e-04 0.000000000000e+00 1.989926978183e+07 2.336896192316e+07  2.160717813745e-04
4.000000000000e+00 6.926709898540e+05 1.000000000000e+00 3.256538003682e+01 3.320327486366e-04 2.938759253978e-03 -3.633383899827e+07 -1.429689863142e+04 -1.112950933172e+07 -1.391400686032e+07 -5.795798373015e-05 -1.472422859499e-08 2.178484590130e-04 0.000000000000e+00 2.045911839677e+07 2.393388560105e+07  2.518792112620e-04
5.000000000000e+00 7.655249447360e+05 1.000000000000e+00 3.421390786706e+01 3.289350566190e-04 3.436085683991e-03 -3.710899720119e+07 -1.431717978093e+04 -1.106994091849e+07 -1.470527894961e+07 -5.735946795071e-05 -1.623082827246e-08 2.494511062496e-04 0.000000000000e+00 2.096140568976e+07 2.442515052236e+07  2.825320273832e-04
6.000000000000e+00 8.320078002305e+05 1.000000000000e+00 3.568672708440e+01 3.245129707490e-04 3.884839726629e-03 -3.779693572699e+07 -1.432497534511e+04 -1.102564839617e+07 -1.541328603093e+07 -5.661406445989e-05 -1.680992732619e-08 2.773936629564e-04 0.000000000000e+00 2.141195671803e+07 2.486948124015e+07  3.096074613218e-04
7.000000000000e+00 8.939780193959e+05 1.000000000000e+00 3.700928498412e+01 3.192367848544e-04 4.292070546834e-03 -3.840907823868e+07 -1.432669481825e+04 -1.099219262012e+07 -1.604914837426e+07 -5.573304214195e-05 -1.693765961679e-08 3.022540502472e-04 0.000000000000e+00 2.181680641102e+07 2.527079454219e+07  3.336303665105e-04
8.000000000000e+00 9.520385377497e+05 1.000000000000e+00 3.821072827080e+01 3.146317767854e-04 4.667502094773e-03 -3.896650224838e+07 -1.432610976000e+04 -1.096000142989e+07 -1.662664227698e+07 -5.498758897256e-05 -1.689419814669e-08 3.248994965572e-04 0.000000000000e+00 2.218438198508e+07 2.564708055074e+07  3.555963422681e-04
9.000000000000e+00 1.007090273366e+06 1.000000000000e+00 3.931176277075e+01 3.103507474197e-04 5.015626565811e-03 -3.947663646069e+07 -1.432438173683e+04 -1.092999206308e+07 -1.715551498905e+07 -5.429158755298e-05 -1.676583071113e-08 3.456579737725e-04 0.000000000000e+00 2.252071450427e+07 2.599905514576e+07  3.757570123115e-04
1.000000000000e+01 1.059630031119e+06 1.000000000000e+00 4.032707739919e+01 3.062754725226e-04 5.339804350548e-03 -3.994615563851e+07 -1.432282765795e+04 -1.090233629239e+07 -1.764294208378e+07 -5.362643635342e-05 -1.665038485120e-08 3.647896230598e-04 0.000000000000e+00 2.283047800490e+07 2.632882236612e+07  3.943470959741e-04
1.100000000000e+01 1.109950423624e+06 1.000000000000e+00 4.126965432734e+01 3.024948826739e-04 5.643646339020e-03 -4.038154028772e+07 -1.432167535803e+04 -1.087551461276e+07 -1.809496209402e+07 -5.300855151528e-05 -1.656478542892e-08 3.825751715404e-04 0.000000000000e+00 2.311733899816e+07 2.664037134982e+07  4.116472093008e-04
1.200000000000e+01 1.158414524305e+06 1.000000000000e+00 4.214857045805e+01 2.988285648437e-04 5.929133318383e-03 -4.078631209034e+07 -1.431992443047e+04 -1.085022260269e+07 -1.851600115789e+07 -5.240433895466e-05 -1.643471652446e-08 3.991531828582e-04 0.000000000000e+00 2.338417861697e+07 2.693419382550e+07  4.277696081149e-04
1.300000000000e+01 1.205265988134e+06 1.000000000000e+00 4.297047241277e+01 2.952167626387e-04 6.197855174052e-03 -4.116358021013e+07 -1.431862864191e+04 -1.082663078491e+07 -1.890935729231e+07 -5.180678412531e-05 -1.633845794596e-08 4.146398210830e-04 0.000000000000e+00 2.363318942911e+07 2.721132701686e+07  4.428219513648e-04
1.400000000000e+01 1.251210413433e+06 1.000000000000e+00 4.374060683530e+01 2.916220818782e-04 6.451351716551e-03 -4.151551270030e+07 -1.431749736030e+04 -1.080415329209e+07 -1.927733541584e+07 -5.121080345773e-05 -1.625441988323e-08 4.291424582616e-04 0.000000000000e+00 2.386566713607e+07 2.747289728880e+07  4.569053805238e-04
1.500000000000e+01 1.295786606581e+06 1.000000000000e+00 4.446330145891e+01 2.879681104622e-04 6.690557474430e-03 -4.184387184910e+07 -1.431628027041e+04 -1.078329112808e+07 -1.962212644047e+07 -5.060047664124e-05 -1.616400749153e-08 4.427238624111e-04 0.000000000000e+00 2.408309647255e+07 2.771905376404e+07  4.700711284761e-04
1.600000000000e+01 1.339131724233e+06 1.000000000000e+00 4.514222035109e+01 2.842811909323e-04 6.916484586620e-03 -4.215066367472e+07 -1.431565960976e+04 -1.076386383694e+07 -1.994555917326e+07 -4.998238580375e-05 -1.611790127128e-08 4.554586632997e-04 0.000000000000e+00 2.428669556164e+07 2.795087323194e+07  4.823958377427e-04
1.700000000000e+01 1.381371181862e+06 1.000000000000e+00 4.578051508854e+01 2.805948494167e-04 7.130022947783e-03 -4.243768501079e+07 -1.431459513735e+04 -1.074568031644e+07 -2.024921772310e+07 -4.936443214908e-05 -1.603882617821e-08 4.674127973410e-04 0.000000000000e+00 2.447752768344e+07 2.816939558110e+07  4.939485179361e-04
1.800000000000e+01 1.422623258432e+06 1.000000000000e+00 4.638092652595e+01 2.769127300835e-04 7.331958658859e-03 -4.270627531111e+07 -1.431404099107e+04 -1.072858849593e+07 -2.053441720605e+07 -4.874751965133e-05 -1.599766102578e-08 4.786407600411e-04 0.000000000000e+00 2.465642700436e+07 2.837533481673e+07  5.047829716509e-04
1.900000000000e+01 1.462974446505e+06 1.000000000000e+00 4.694585896327e+01 2.732392916007e-04 7.522983054771e-03 -4.295762547680e+07 -1.431344628564e+04 -1.071246705339e+07 -2.080231972696e+07 -4.813271788607e-05 -1.595348290860e-08 4.891902215407e-04 0.000000000000e+00 2.482413741905e+07 2.856933820412e+07  5.149464895226e-04
2.000000000000e+01 1.502507800416e+06 1.000000000000e+00 4.747743591083e+01 2.695389098579e-04 7.703715425810e-03 -4.319244879057e+07 -1.431323790574e+04 -1.069723215090e+07 -2.105385713347e+07 -4.751190872713e-05 -1.593800325907e-08 4.990989073037e-04 0.000000000000e+00 2.498117935831e+07 2.875167173628e+07  5.244713941049e-04
2.100000000000e+01 1.541141801111e+06 1.000000000000e+00 4.798108112960e+01 2.662664104933e-04 7.876430674886e-03 -4.341564391720e+07 -1.431263163825e+04 -1.068022615766e+07 -2.129163461098e+07 -4.697027855147e-05 -1.589296624501e-08 5.085622933601e-04 0.000000000000e+00 2.512916822861e+07 2.892820926142e+07  5.336001561399e-04
2.200000000000e+01 1.579012597869e+06 1.000000000000e+00 4.845978641530e+01 2.632039811269e-04 8.041534180451e-03 -4.362753211347e+07 -1.431246742511e+04 -1.066280561897e+07 -2.151719097759e+07 -4.646260365342e-05 -1.588076755455e-08 5.175871498426e-04 0.000000000000e+00 2.526917623668e+07 2.909776012511e+07  5.423132660891e-04
2.300000000000e+01 1.616195873616e+06 1.000000000000e+00 4.891513136759e+01 2.601940002654e-04 8.199308817539e-03 -4.382805505981e+07 -1.431216795887e+04 -1.064562532732e+07 -2.173124521296e+07 -4.596001291778e-05 -1.585852149150e-08 5.261758608462e-04 0.000000000000e+00 2.540164186670e+07 2.925948432250e+07  5.505964124843e-04
2.400000000000e+01 1.652744292822e+06 1.000000000000e+00 4.934819090550e+01 2.572068660642e-04 8.350021696931e-03 -4.401772499702e+07 -1.431190755928e+04 -1.062889351370e+07 -2.193438321668e+07 -4.545977044781e-05 -1.583917752183e-08 5.343424540615e-04 0.000000000000e+00 2.552700057580e+07 2.941346102058e+07  5.584617578639e-04
2.500000000000e+01 1.688706440365e+06 1.000000000000e+00 4.975985551106e+01 2.542285524372e-04 8.493931494866e-03 -4.419695303765e+07 -1.431155758158e+04 -1.061266625105e+07 -2.212705408753e+07 -4.496046532514e-05 -1.581317917803e-08 5.421015275916e-04 0.000000000000e+00 2.564555779208e+07 2.955983013150e+07  5.659228280813e-04
2.600000000000e+01 1.724115300852e+06 1.000000000000e+00 5.015093021922e+01 2.512501308767e-04 8.631284135972e-03 -4.436609424388e+07 -1.431125390696e+04 -1.059695328980e+07 -2.230964793329e+07 -4.446079585671e-05 -1.579062049220e-08 5.494672089948e-04 0.000000000000e+00 2.575756515566e+07 2.969873860378e+07  5.729927803087e-04
2.700000000000e+01 1.758998235123e+06 1.000000000000e+00 5.052216656485e+01 2.482764976131e-04 8.762316747439e-03 -4.452556742546e+07 -1.431128299350e+04 -1.058173164168e+07 -2.248254609582e+07 -4.396215370748e-05 -1.579278120652e-08 5.564545162475e-04 0.000000000000e+00 2.586328172099e+07 2.983043236868e+07  5.796871909346e-04
2.800000000000e+01 1.793391624023e+06 1.000000000000e+00 5.087427294239e+01 2.453115635606e-04 8.887247960284e-03 -4.467575795829e+07 -1.431111942886e+04 -1.056698564688e+07 -2.264610724245e+07 -4.346553090925e-05 -1.578063069051e-08 5.630773529291e-04 0.000000000000e+00 2.596295028254e+07 2.995513534124e+07  5.860203192672e-04
2.900000000000e+01 1.827319648265e+06 1.000000000000e+00 5.120791808599e+01 2.423570364177e-04 9.006286375679e-03 -4.481700746202e+07 -1.431086488690e+04 -1.055269291820e+07 -2.280066111298e+07 -4.297136871391e-05 -1.576172185943e-08 5.693487980423e-04 0.000000000000e+00 2.605678716440e+07 3.007305032271e+07  5.920053126740e-04
3.000000000000e+01 1.860795160606e+06 1.000000000000e+00 5.152373270005e+01 2.394110995194e-04 9.119634140033e-03 -4.494960239307e+07 -1.431071786069e+04 -1.053882312852e+07 -2.294650524372e+07 -4.247925558220e-05 -1.575079991240e-08 5.752810293728e-04 0.000000000000e+00 2.614497692177e+07 3.018434874243e+07  5.976539638734e-04
3.100000000000e+01 1.893730299869e+06 1.000000000000e+00 5.182511079230e+01 2.368243719234e-04 9.228840124975e-03 -4.507691244209e+07 -1.431047163966e+04 -1.052332783882e+07 -2.308525137689e+07 -4.205448674251e-05 -1.573250920682e-08 5.810099965078e-04 0.000000000000e+00 2.622849721927e+07 3.029345240358e+07  6.031378564102e-04
3.200000000000e+01 1.926193300668e+06 1.000000000000e+00 5.211364601199e+01 2.344176100291e-04 9.334011202781e-03 -4.519875882936e+07 -1.431017609377e+04 -1.050731686055e+07 -2.321772747332e+07 -4.165966897347e-05 -1.571055436917e-08 5.865252307110e-04 0.000000000000e+00 2.630793438775e+07 3.039915831057e+07  6.084256914168e-04
3.300000000000e+01 1.958214424838e+06 1.000000000000e+00 5.238991559297e+01 2.320942337923e-04 9.435206230642e-03 -4.531498391517e+07 -1.431025164462e+04 -1.049125449066e+07 -2.334421747502e+07 -4.127840066929e-05 -1.571616671853e-08 5.918200330839e-04 0.000000000000e+00 2.638348529362e+07 3.050087371844e+07  6.135016243760e-04
3.400000000000e+01 1.989824630631e+06 1.000000000000e+00 5.265418160542e+01 2.298113388523e-04 9.532452117091e-03 -4.542556535734e+07 -1.431009470756e+04 -1.047539296010e+07 -2.346487699982e+07 -4.090407188561e-05 -1.570450853703e-08 5.968908151403e-04 0.000000000000e+00 2.645527843909e+07 3.059831946385e+07  6.183583539065e-04
3.500000000000e+01 2.021048807738e+06 1.000000000000e+00 5.290663240863e+01 2.275716373357e-04 9.625812036899e-03 -4.553068967134e+07 -1.430998045684e+04 -1.045977284990e+07 -2.357983798914e+07 -4.053870965975e-05 -1.569602134077e-08 6.017409702655e-04 0.000000000000e+00 2.652343350346e+07 3.069158218618e+07  6.230003093900e-04
3.600000000000e+01 2.051915334547e+06 1.000000000000e+00 5.314745064832e+01 2.253896751861e-04 9.715335537885e-03 -4.563061859763e+07 -1.431003157773e+04 -1.044444504570e+07 -2.368925733209e+07 -4.018620846960e-05 -1.569981889203e-08 6.063744357308e-04 0.000000000000e+00 2.658810699181e+07 3.078080915583e+07  6.274334848280e-04
3.700000000000e+01 2.082462267422e+06 1.000000000000e+00 5.337683014573e+01 2.233389532175e-04 9.801090417332e-03 -4.572607994864e+07 -1.430944306571e+04 -1.042935530134e+07 -2.379340463287e+07 -3.986358747785e-05 -1.565610085628e-08 6.108032402649e-04 0.000000000000e+00 2.664961329428e+07 3.086664915755e+07  6.316791219124e-04
3.800000000000e+01 2.113406988325e+06 1.000000000000e+00 5.359501612753e+01 2.237929592667e-04 9.883172754235e-03 -4.583714758840e+07 -1.429686298464e+04 -1.041239053863e+07 -2.389775420475e+07 -4.011311571319e-05 -1.472158054865e-08 6.153092012640e-04 0.000000000000e+00 2.671576411059e+07 3.096858612923e+07  6.363147374156e-04
3.900000000000e+01 2.143157947788e+06 1.000000000000e+00 5.380215921442e+01 2.209645101937e-04 9.961652615096e-03 -4.591518039156e+07 -1.431158861231e+04 -1.039855166480e+07 -2.398926588200e+07 -3.961247181868e-05 -1.581548431810e-08 6.192222217326e-04 0.000000000000e+00 2.676766597945e+07 3.103937326251e+07  6.399486161945e-04
4.000000000000e+01 2.172544101843e+06 1.000000000000e+00 5.399845064135e+01 2.179901262436e-04 1.003659610872e-02 -4.598668012607e+07 -1.431127811794e+04 -1.038508913521e+07 -2.407513233478e+07 -3.907885085423e-05 -1.579241902202e-08 6.229115839349e-04 0.000000000000e+00 2.681563386535e+07 3.110472407346e+07  6.433417968829e-04
4.200000000000e+01 2.229827605392e+06 1.000000000000e+00 5.435968908593e+01 2.128137922976e-04 1.017694181151e-02 -4.611823569309e+07 -1.431090697545e+04 -1.035509743174e+07 -2.423160408578e+07 -3.815339259234e-05 -1.576484843730e-08 6.298373693867e-04 0.000000000000e+00 2.690164573687e+07 3.122967632835e+07  6.497547432773e-04
4.400000000000e+01 2.285593809494e+06 1.000000000000e+00 5.469219720801e+01 2.078948685932e-04 1.030778138591e-02 -4.623701707631e+07 -1.431043584671e+04 -1.032479789787e+07 -2.437411979993e+07 -3.727183172896e-05 -1.572985030210e-08 6.362562214559e-04 0.000000000000e+00 2.697864492470e+07 3.134532212529e+07  6.556871238225e-04
5.000000000000e+01 2.437116678573e+06 1.000000000000e+00 5.537543848970e+01 1.939125503915e-04 1.058148190252e-02 -4.645586288016e+07 -1.430940799678e+04 -1.026490190115e+07 -2.465973630351e+07 -3.479177716755e-05 -1.565349573559e-08 6.490895428957e-04 0.000000000000e+00 2.712683369494e+07 3.156001644768e+07  6.671661576611e-04
6.500000000000e+01 2.768502507756e+06 1.000000000000e+00 5.631568876404e+01 1.675319893428e-04 1.104582162585e-02 -4.665275040045e+07 -1.430729021679e+04 -1.005118868261e+07 -2.498147163429e+07 -3.015457277813e-05 -1.549617493693e-08 6.689776318704e-04 0.000000000000e+00 2.722847023912e+07 3.187658404499e+07  6.845532160540e-04
8.000000000000e+01 3.023556374630e+06 1.000000000000e+00 5.663857047303e+01 1.479946995036e-04 1.126618822977e-02 -4.661642242697e+07 -1.430545065717e+04 -9.899937226826e+06 -2.503643266826e+07 -2.676383821540e-05 -1.535952193656e-08 6.766369529185e-04 0.000000000000e+00 2.718426410735e+07 3.196021718920e+07  6.904080472714e-04
1.000000000000e+02 3.324236305531e+06 1.000000000000e+00 5.678970307341e+01 1.297769537605e-04 1.145067461303e-02 -4.648988939605e+07 -1.430387174707e+04 -9.716311767446e+06 -2.499461846067e+07 -2.361713906314e-05 -1.524223147210e-08 6.819042279850e-04 0.000000000000e+00 2.706693987472e+07 3.199820750611e+07  6.940142455875e-04
1.860000000000e+02 3.922717201764e+06 1.000000000000e+00 5.651434013221e+01 9.653163809523e-05 1.167000286980e-02 -4.592560289153e+07 -1.430088969569e+04 -9.241504438862e+06 -2.458339843181e+07 -1.793181282457e-05 -1.502070765482e-08 6.842660419745e-04 0.000000000000e+00 2.658350192073e+07 3.191071692135e+07  6.934058677098e-04
2.720000000000e+02 4.213038211969e+06 1.000000000000e+00 5.565863389374e+01 8.177485903175e-05 1.150191345121e-02 -4.534748362794e+07 -1.429959770551e+04 -9.114779632372e+06 -2.407093810344e+07 -1.549305237348e-05 -1.492473124179e-08 6.699387225906e-04 0.000000000000e+00 2.617773378792e+07 3.153718544329e+07  6.778180604576e-04
3.580000000000e+02 4.354403691727e+06 1.000000000000e+00 5.491482439366e+01 7.374916288714e-05 1.132602077374e-02 -4.489281532626e+07 -1.429897074179e+04 -9.040807700141e+06 -2.365114780410e+07 -1.419758371496e-05 -1.487815679361e-08 6.570940403837e-04 0.000000000000e+00 2.586159027683e+07 3.122529547227e+07  6.643066292023e-04
4.440000000000e+02 4.426532453840e+06 1.000000000000e+00 5.428887031940e+01 6.859721857822e-05 1.116143200061e-02 -4.453273254702e+07 -1.429845583634e+04 -9.005947566237e+06 -2.331300093309e+07 -1.338282140962e-05 -1.483990667492e-08 6.458291044340e-04 0.000000000000e+00 2.561722701545e+07 3.096064004147e+07  6.526234352744e-04
5.300000000000e+02 4.465496889446e+06 1.000000000000e+00 5.377624834960e+01 6.513549794547e-05 1.101878552967e-02 -4.424856297762e+07 -1.429809656551e+04 -8.990477233812e+06 -2.304328597095e+07 -1.284593599732e-05 -1.481321798430e-08 6.363857324729e-04 0.000000000000e+00 2.542744206079e+07 3.074312153364e+07  6.429049615721e-04
6.160000000000e+02 4.488012314786e+06 1.000000000000e+00 5.336720502353e+01 6.279415960990e-05 1.090056145219e-02 -4.402782786690e+07 -1.429802781138e+04 -8.985537490151e+06 -2.283213369753e+07 -1.249000204034e-05 -1.480811053459e-08 6.287264099392e-04 0.000000000000e+00 2.528183301820e+07 3.056917580916e+07  6.350635350158e-04
7.020000000000e+02 4.501822576458e+06 1.000000000000e+00 5.305912787775e+01 6.119153792185e-05 1.080987419679e-02 -4.386394160951e+07 -1.429756316462e+04 -8.984798683521e+06 -2.267471971469e+07 -1.224960327123e-05 -1.477359391814e-08 6.229070462513e-04 0.000000000000e+00 2.517448666924e+07 3.043807566290e+07  6.291212966480e-04
7.880000000000e+02 4.511441113274e+06 1.000000000000e+00 5.280009927160e+01 6.022015592274e-05 1.072815288167e-02 -4.373302047719e+07 -1.429771072564e+04 -8.994279744655e+06 -2.254749417982e+07 -1.211233822333e-05 -1.478455559420e-08 6.178293726853e-04 0.000000000000e+00 2.509159813389e+07 3.032571087586e+07  6.239737185748e-04
8.740000000000e+02 4.519827167133e+06 1.000000000000e+00 5.241137386379e+01 5.820328464142e-05 1.061262570927e-02 -4.352604261676e+07 -1.429725953560e+04 -8.992854265653e+06 -2.234866671926e+07 -1.180960908499e-05 -1.475103861938e-08 6.104972990849e-04 0.000000000000e+00 2.495585453389e+07 3.016124417496e+07  6.164869456518e-04
9.370000000000e+02 4.525201002277e+06 1.000000000000e+00 5.210907649775e+01 5.732335609393e-05 1.051767028980e-02 -4.337280770448e+07 -1.429724435890e+04 -8.998891008751e+06 -2.219857012176e+07 -1.169304310752e-05 -1.474991120806e-08 6.046980607198e-04 0.000000000000e+00 2.485675627833e+07 3.003454046068e+07  6.106285557023e-04
1.000000000000e+03 4.529391016052e+06 1.000000000000e+00 5.185429705108e+01 5.687023473833e-05 1.043816914663e-02 -4.324412901852e+07 -1.429742763871e+04 -9.000539221590e+06 -2.207120321158e+07 -1.164432000702e-05 -1.476352627932e-08 5.999060704361e-04 0.000000000000e+00 2.477195715056e+07 2.993125217097e+07  6.058121676285e-04
1.100000000000e+03 4.533536316160e+06 1.000000000000e+00 5.158773657568e+01 5.657619338043e-05 1.035499647701e-02 -4.311015630302e+07 -1.429720759096e+04 -9.000966630579e+06 -2.193777154809e+07 -1.162422378947e-05 -1.474717987534e-08 5.949341620299e-04 0.000000000000e+00 2.468296482723e+07 2.982506365673e+07  6.008306152492e-04
1.200000000000e+03 4.536797682875e+06 1.000000000000e+00 5.136659202229e+01 5.620270255477e-05 1.028587754696e-02 -4.299854489222e+07 -1.429734652629e+04 -9.002280642772e+06 -2.182720981431e+07 -1.158523578571e-05 -1.475750078509e-08 5.907787771795e-04 0.000000000000e+00 2.460934511643e+07 2.973593320075e+07  5.966557578186e-04
1.300000000000e+03 4.539703052077e+06 1.000000000000e+00 5.115655250825e+01 5.580848292329e-05 1.022008949148e-02 -4.289245928551e+07 -1.429733479406e+04 -9.003964996772e+06 -2.172230346471e+07 -1.154143480779e-05 -1.475662924816e-08 5.868196939027e-04 0.000000000000e+00 2.453957591566e+07 2.965099410225e+07  5.926746997838e-04
1.400000000000e+03 4.542442562524e+06 1.000000000000e+00 5.094021040217e+01 5.542602072029e-05 1.015211229963e-02 -4.278339636290e+07 -1.429731121103e+04 -9.005808246090e+06 -2.161434556624e+07 -1.150039105381e-05 -1.475487736576e-08 5.827413655563e-04 0.000000000000e+00 2.446785005841e+07 2.956374985056e+07  5.885758339968e-04
1.500000000000e+03 4.545082446453e+06 1.000000000000e+00 5.070749560171e+01 5.507422448411e-05 1.007872607145e-02 -4.266645662192e+07 -1.429715088036e+04 -9.007731514926e+06 -2.149831811825e+07 -1.146650588548e-05 -1.474296708796e-08 5.783603389314e-04 0.000000000000e+00 2.439083541836e+07 2.947045845999e+07  5.841779996614e-04
1.600000000000e+03 4.547643486991e+06 1.000000000000e+00 5.045226626688e+01 5.476433159099e-05 9.997957178491e-03 -4.253865844933e+07 -1.429719054302e+04 -9.009707549255e+06 -2.137116884263e+07 -1.144240399836e-05 -1.474591345651e-08 5.735642559904e-04 0.000000000000e+00 2.430651161374e+07 2.936886205214e+07  5.793702088885e-04
1.700000000000e+03 4.550130771773e+06 1.000000000000e+00 5.017073127728e+01 5.450345900490e-05 9.908584260767e-03 -4.239816572201e+07 -1.429712792715e+04 -9.011726300672e+06 -2.123101701137e+07 -1.142974214412e-05 -1.474126199232e-08 5.682836343483e-04 0.000000000000e+00 2.421363634468e+07 2.925760425678e+07  5.740838476485e-04
1.800000000000e+03 4.552544175198e+06 1.000000000000e+00 4.986060250043e+01 5.429592309563e-05 9.809870921011e-03 -4.224387014690e+07 -1.429700524994e+04 -9.013780999538e+06 -2.107672726929e+07 -1.142952548897e-05 -1.473214882784e-08 5.624765551130e-04 0.000000000000e+00 2.411145947191e+07 2.913591135931e+07  5.682775289235e-04
1.900000000000e+03 4.554883463306e+06 1.000000000000e+00 4.952059324706e+01 5.414419202524e-05 9.701399502057e-03 -4.207515385284e+07 -1.429702549903e+04 -9.015879498463e+06 -2.090766627620e+07 -1.144232859587e-05 -1.473365304589e-08 5.561192025524e-04 0.000000000000e+00 2.399956654250e+07 2.900339609720e+07  5.619277477012e-04
2.000000000000e+03 4.557147803229e+06 1.000000000000e+00 4.915010136740e+01 5.404924680030e-05 9.582979968035e-03 -4.189172097868e+07 -1.429698023260e+04 -9.018013293751e+06 -2.072353197478e+07 -1.146838160837e-05 -1.473029039659e-08 5.492006732462e-04 0.000000000000e+00 2.387775541574e+07 2.885994868908e+07  5.550237353682e-04