 TITLE = "Time curves in points"
 VARIABLES = "TIME"  "PRESSURE1"  "SATURATION1"  "TEMPERATURE1"  "DISPLACEMENT_X1"  "DISPLACEMENT_Y1"  "STRESS_XX"  "STRESS_XY"  "STRESS_YY"  "STRESS_ZZ"  "STRAIN_XX"  "STRAIN_XY"  "STRAIN_YY"  "STRAIN_PLS"  p_(1st_Invariant)  q_(2nd_Invariant)   Effective_Strain
 ZONE T="POINT=POINT2"
0.000000000000e+00 -7.000000000000e+07 6.684759947500e-01 2.500000000000e+01 0.000000000000e+00 0.000000000000e+00 0.000000000000e+00 0.000000000000e+00 0.000000000000e+00 0.000000000000e+00 0.000000000000e+00 0.000000000000e+00 0.000000000000e+00 0.000000000000e+00 -0.000000000000e+00 0.000000000000e+00  0.000000000000e+00
1.000000000000e-03 -6.999999537629e+07 6.684760111000e-01 3.309920063102e+01 0.000000000000e+00 1.358742545763e-04 2.983040686066e+07 7.245974639301e+05 1.711364515189e+07 1.407246081027e+07 1.421027236770e-04 2.079074927486e-05 -1.700097453020e-05 0.000000000000e+00 -2.033883760761e+07 1.453320238614e+07  1.555469953536e-04
2.000000000000e-03 -7.015897611663e+07 6.679155787534e-01 3.680474757738e+01 0.000000000000e+00 1.356557583551e-04 2.976144163202e+07 7.222980790501e+05 1.703958960785e+07 1.402395352638e+07 1.414132422913e-04 2.028830356513e-05 -3.788981358353e-05 0.000000000000e+00 -2.027499492208e+07 1.452133600716e+07  1.674106037324e-04
3.000000000000e-03 -7.037098644128e+07 6.671689084845e-01 3.938015885731e+01 0.000000000000e+00 1.353327408861e-04 2.968167901680e+07 7.196603202301e+05 1.694883237666e+07 1.396811675064e+07 1.403877106479e-04 1.861159772314e-05 -7.677589512368e-05 0.000000000000e+00 -2.019954271470e+07 1.450919629332e+07  1.934446024881e-04
4.000000000000e-03 -7.061767541777e+07 6.663004323391e-01 4.141326417304e+01 0.000000000000e+00 1.348102768719e-04 2.959499830115e+07 7.168243410986e+05 1.684754499822e+07 1.390745378342e+07 1.391651926362e-04 1.627783048230e-05 -1.259904612851e-04 0.000000000000e+00 -2.011666569426e+07 1.449696136909e+07  2.314496430911e-04
1.000000000000e-02 -7.212436584080e+07 6.610101988942e-01 4.814031443772e+01 0.000000000000e+00 1.318592669701e-04 2.910759855367e+07 7.025152264654e+05 1.625216206266e+07 1.356337997203e+07 1.316557930297e-04 -1.092558874053e-06 -4.532609830047e-04 0.000000000000e+00 -1.964104686279e+07 1.444083954760e+07  5.314666327949e-04
2.000000000000e-02 -7.521838996300e+07 6.501913288293e-01 5.432127419821e+01 0.000000000000e+00 1.297319399035e-04 2.823020465645e+07 6.833678958452e+05 1.510285535179e+07 1.292591333382e+07 1.174047478798e-04 -4.200101880892e-05 -1.141196905616e-03 0.000000000000e+00 -1.875299111402e+07 1.438905242347e+07  1.206394812630e-03
3.000000000000e-02 -7.885304633079e+07 6.375369856498e-01 5.823716280856e+01 0.000000000000e+00 1.297638225289e-04 2.732008096886e+07 6.730784444344e+05 1.382491599614e+07 1.223996734502e+07 1.024561275810e-04 -9.422091920658e-05 -1.939303115872e-03 0.000000000000e+00 -1.779498810334e+07 1.440068703795e+07  1.999179848242e-03
4.000000000000e-02 -8.260242327411e+07 6.245443995564e-01 6.095065630048e+01 0.000000000000e+00 1.321619017965e-04 2.648226204308e+07 6.747148614999e+05 1.256436720203e+07 1.158239636334e+07 8.876581305119e-05 -1.518933837861e-04 -2.748382982058e-03 0.000000000000e+00 -1.687634186948e+07 1.448118609912e+07  2.806183464374e-03
5.000000000000e-02 -8.623995779398e+07 6.178036143255e-01 6.295232042415e+01 0.000000000000e+00 1.354713249590e-04 2.534923392060e+07 6.612444702946e+05 1.102430315949e+07 1.074345780214e+07 6.913302006946e-05 -2.123822944218e-04 -3.705057098039e-03 0.000000000000e+00 -1.570566496074e+07 1.451266131598e+07  3.758149541711e-03
6.000000000000e-02 -8.968091226371e+07 6.112976906321e-01 6.450103477421e+01 0.000000000000e+00 1.411175543225e-04 2.437997604197e+07 6.628425212223e+05 9.574068993037e+06 9.982747684513e+06 5.325114780696e-05 -2.771815131995e-04 -4.624746400344e-03 0.000000000000e+00 -1.464559757317e+07 1.465090863119e+07  4.676310167231e-03
7.000000000000e-02 -9.292392938875e+07 6.047947063201e-01 6.575112486100e+01 0.000000000000e+00 1.468000593368e-04 2.357342738844e+07 6.812492092779e+05 8.225377462137e+06 9.303678687434e+06 4.107359690075e-05 -3.461524167424e-04 -5.500630900988e-03 0.000000000000e+00 -1.370082784601e+07 1.488515537329e+07  5.553739508875e-03
8.000000000000e-02 -9.597684695761e+07 5.987103585852e-01 6.679366742605e+01 0.000000000000e+00 1.532487840211e-04 2.286712239227e+07 7.117898905553e+05 6.948454750790e+06 8.677722946805e+06 3.152907433772e-05 -4.180012949464e-04 -6.343707156912e-03 0.000000000000e+00 -1.283110002996e+07 1.517849257480e+07  6.400609427035e-03
9.000000000000e-02 -9.886346754405e+07 5.929822425977e-01 6.768829038096e+01 0.000000000000e+00 1.591825095523e-04 2.222321676881e+07 7.443310590660e+05 5.754361483637e+06 8.097263142275e+06 2.298171092347e-05 -4.870455971494e-04 -7.138316277476e-03 0.000000000000e+00 -1.202494713157e+07 1.548513998641e+07  7.199429032818e-03
1.000000000000e-01 -1.016032165072e+08 5.873455843141e-01 6.846872345115e+01 0.000000000000e+00 1.644234969503e-04 2.164275134241e+07 7.774287877344e+05 4.656692365342e+06 7.567070413556e+06 1.449342829324e-05 -5.514688225840e-04 -7.875726699427e-03 0.000000000000e+00 -1.128883804044e+07 1.579157475819e+07  7.940641093170e-03
2.000000000000e-01 -1.181504402572e+08 5.520553179435e-01 7.270598302649e+01 0.000000000000e+00 2.574709063109e-04 1.845336268378e+07 9.918244862414e+05 -1.450111380460e+06 4.627161131259e+06 -4.151217770196e-05 -9.159030104105e-04 -1.209621194841e-02 0.000000000000e+00 -7.210137478192e+06 1.775031922597e+07  1.217926769701e-02
3.000000000000e-01 -1.336338813975e+08 5.238622770480e-01 7.551347421724e+01 0.000000000000e+00 3.658363070269e-04 1.536523364893e+07 1.104078346552e+06 -6.564685664128e+06 2.040697313441e+06 -1.032723604062e-04 -1.183414836299e-03 -1.559878808126e-02 0.000000000000e+00 -3.613748432748e+06 1.923318980039e+07  1.568194321964e-02
4.000000000000e-01 -1.468337436515e+08 5.053221643792e-01 7.753845443330e+01 0.000000000000e+00 4.700758128136e-04 1.266693567840e+07 1.207111456685e+06 -1.108638761314e+07 -2.387643366736e+05 -1.515503594278e-04 -1.421634241086e-03 -1.869024256275e-02 0.000000000000e+00 -4.472612428634e+05 2.070254935308e+07  1.877708053277e-02
5.000000000000e-01 -1.576243856302e+08 4.899377762349e-01 7.910019779374e+01 0.000000000000e+00 5.715122260705e-04 1.065885964538e+07 1.301388398736e+06 -1.453015725421e+07 -1.960868823056e+06 -1.851423849275e-04 -1.611055137590e-03 -2.107445018632e-02 0.000000000000e+00 1.944055477295e+06 2.193049020470e+07  2.116722585411e-02
6.000000000000e-01 -1.663707386255e+08 4.767885865080e-01 8.034131145665e+01 0.000000000000e+00 6.705414354151e-04 9.155288381982e+06 1.373460340085e+06 -1.707004502327e+07 -3.237663519964e+06 -2.140251405289e-04 -1.749890442965e-03 -2.285071873548e-02 0.000000000000e+00 3.717473387085e+06 2.284739051783e+07  2.294551971273e-02
7.000000000000e-01 -1.732967288043e+08 4.680998904366e-01 8.134433199461e+01 0.000000000000e+00 7.672112392580e-04 7.762847825387e+06 1.416690621717e+06 -1.924752441154e+07 -4.363825172667e+06 -2.407413728208e-04 -1.861343559262e-03 -2.434517585042e-02 0.000000000000e+00 5.282833919606e+06 2.356037970108e+07  2.443928092391e-02
8.000000000000e-01 -1.786683261392e+08 4.623781740773e-01 8.216160041108e+01 0.000000000000e+00 8.616944363235e-04 6.554704880067e+06 1.445947983662e+06 -2.107171542719e+07 -5.320245692669e+06 -2.642803879807e-04 -1.950468027843e-03 -2.558480142471e-02 0.000000000000e+00 6.612418746598e+06 2.413386564896e+07  2.567690252740e-02
9.000000000000e-01 -1.827329828006e+08 4.580426417477e-01 8.284030409014e+01 0.000000000000e+00 9.539883403877e-04 5.582315233148e+06 1.467917300091e+06 -2.248767798321e+07 -6.073136025942e+06 -2.831408976524e-04 -2.018645138146e-03 -2.654659620149e-02 0.000000000000e+00 7.659499592002e+06 2.455748295414e+07  2.663663447503e-02
1.000000000000e+00 -1.857446764972e+08 4.548262746498e-01 8.340750005276e+01 0.000000000000e+00 1.044098476632e-03 4.825400486504e+06 1.492150474847e+06 -2.362376975651e+07 -6.670467439292e+06 -2.966164125868e-04 -2.077576150830e-03 -2.732203313678e-02 0.000000000000e+00 8.489612236431e+06 2.492271859749e+07  2.741215570796e-02
2.000000000000e+00 -1.865346209102e+08 4.540266981427e-01 8.537368196158e+01 0.000000000000e+00 1.792312579688e-03 2.103004218303e+06 1.520767836619e+06 -2.677568368984e+07 -8.517078018491e+06 -3.385116647078e-04 -2.231600353203e-03 -2.938593815713e-02 0.000000000000e+00 1.106325249668e+07 2.543637014151e+07  2.947270922542e-02
3.000000000000e+00 -1.779756229599e+08 4.632179859253e-01 8.594055503270e+01 0.000000000000e+00 2.427584083347e-03 1.161734993124e+06 1.494514604313e+06 -2.714143550806e+07 -8.922295458973e+06 -3.476109050685e-04 -2.245760241003e-03 -2.953977578939e-02 0.000000000000e+00 1.163399865797e+07 2.498094912250e+07  2.962399628698e-02
4.000000000000e+00 -1.659453122592e+08 4.777255350771e-01 8.593358505496e+01 0.000000000000e+00 2.980904906972e-03 1.037247919337e+06 1.447845757170e+06 -2.628691286453e+07 -8.685645763242e+06 -3.395888475103e-04 -2.199184552066e-03 -2.885746173829e-02 0.000000000000e+00 1.131177023614e+07 2.411976960602e+07  2.894093959205e-02
5.000000000000e+00 -1.534804877826e+08 4.962754146721e-01 8.574019148796e+01 0.000000000000e+00 3.471139492823e-03 1.014684466960e+06 1.368888231284e+06 -2.512845985911e+07 -8.320037550063e+06 -3.325163105072e-04 -2.123222737257e-03 -2.793015553486e-02 0.000000000000e+00 1.081127098074e+07 2.306910510669e+07  2.800787652436e-02
6.000000000000e+00 -1.417531261417e+08 5.128625754617e-01 8.559242980945e+01 0.000000000000e+00 3.913603025484e-03 1.369180997266e+06 1.293241799314e+06 -2.346215685108e+07 -7.675912455371e+06 -3.198014316922e-04 -2.023818349819e-03 -2.670040824568e-02 0.000000000000e+00 9.922962769729e+06 2.188206358111e+07  2.677242549335e-02
7.000000000000e+00 -1.313745199588e+08 5.275460241650e-01 8.532214681570e+01 0.000000000000e+00 4.315858205241e-03 1.961568000165e+06 1.250713655505e+06 -2.176669156226e+07 -6.950934172679e+06 -3.019773779896e-04 -1.937281080937e-03 -2.549519484863e-02 0.000000000000e+00 8.918685911592e+06 2.087289356748e+07  2.556670398339e-02
8.000000000000e+00 -1.218730959906e+08 5.455279995570e-01 8.524103736831e+01 0.000000000000e+00 4.687943438880e-03 2.351018866531e+06 1.205836126775e+06 -2.045079655410e+07 -6.411618273402e+06 -2.851507358358e-04 -1.868804859249e-03 -2.451344469984e-02 0.000000000000e+00 8.170465320322e+06 2.003159214226e+07  2.458612515233e-02
9.000000000000e+00 -1.135456723911e+08 5.638272292629e-01 8.515896216799e+01 0.000000000000e+00 5.032583828878e-03 2.548706552399e+06 1.149249611241e+06 -1.929163725439e+07 -5.981014617778e+06 -2.746513348546e-04 -1.796370442817e-03 -2.362533498108e-02 0.000000000000e+00 7.574648439923e+06 1.916838652349e+07  2.369438745439e-02
1.000000000000e+01 -1.059793814307e+08 5.802612876493e-01 8.507174828328e+01 0.000000000000e+00 5.353538349713e-03 2.840295100067e+06 1.087620596748e+06 -1.799385907345e+07 -5.476440673175e+06 -2.650403252740e-04 -1.716192968847e-03 -2.265480622657e-02 0.000000000000e+00 6.876668215519e+06 1.826216510754e+07  2.271875897238e-02
1.100000000000e+01 -9.909822239385e+07 5.940697235376e-01 8.503712413052e+01 0.000000000000e+00 5.656285413387e-03 3.280463018643e+06 1.028404493438e+06 -1.652640121514e+07 -4.871478954097e+06 -2.578044549179e-04 -1.627178220912e-03 -2.159146252218e-02 0.000000000000e+00 6.039139050198e+06 1.733419938195e+07  2.164796684784e-02
1.200000000000e+01 -9.295714370289e+07 6.064074931299e-01 8.500709436574e+01 0.000000000000e+00 5.939744155735e-03 3.738500428941e+06 9.766686147560e+05 -1.510623124041e+07 -4.275922621544e+06 -2.495221222053e-04 -1.544051366960e-03 -2.056940099338e-02 0.000000000000e+00 5.214551144338e+06 1.646775277323e+07  2.061994863715e-02
1.300000000000e+01 -8.732663386457e+07 6.177177505005e-01 8.495625991997e+01 0.000000000000e+00 6.206653532648e-03 4.316070464421e+06 9.521820518832e+05 -1.376909882653e+07 -3.671318910254e+06 -2.361066276631e-04 -1.479518347891e-03 -1.962614070050e-02 0.000000000000e+00 4.374782424120e+06 1.578411860862e+07  1.967674279106e-02
1.400000000000e+01 -8.200086889634e+07 6.338216818148e-01 8.486705774908e+01 0.000000000000e+00 6.459261814095e-03 4.658461976829e+06 9.199571655232e+05 -1.276025073244e+07 -3.245763927137e+06 -2.249580053991e-04 -1.425215228924e-03 -1.886735819780e-02 0.000000000000e+00 3.782517560916e+06 1.519032135729e+07  1.891764159580e-02
1.500000000000e+01 -7.695663969346e+07 6.518493195536e-01 8.476324701420e+01 0.000000000000e+00 6.697694482111e-03 4.922471277767e+06 8.817604682646e+05 -1.181465686704e+07 -2.865061228207e+06 -2.156039813174e-04 -1.369247829369e-03 -1.813825944227e-02 0.000000000000e+00 3.252415605826e+06 1.458659302761e+07  1.818671984104e-02
1.600000000000e+01 -7.222795146696e+07 6.687652458732e-01 8.464730144316e+01 0.000000000000e+00 6.922846698572e-03 5.256262452722e+06 8.447859970982e+05 -1.078106144672e+07 -2.434370096311e+06 -2.050815960352e-04 -1.309744377682e-03 -1.735975821261e-02 0.000000000000e+00 2.653056363436e+06 1.396944565192e+07  1.740659035379e-02
1.700000000000e+01 -6.776362494508e+07 6.847516233467e-01 8.451638002229e+01 0.000000000000e+00 7.135943767986e-03 5.640420889309e+06 8.070234795191e+05 -9.674487928539e+06 -1.964452145182e+06 -1.946741262468e-04 -1.246268189003e-03 -1.653757085267e-02 0.000000000000e+00 1.999506394804e+06 1.333665811081e+07  1.658219719347e-02
1.800000000000e+01 -6.352441181018e+07 6.999404065213e-01 8.436963525027e+01 0.000000000000e+00 7.337654448263e-03 6.067197457378e+06 7.685516134570e+05 -8.507481733349e+06 -1.461657831093e+06 -1.831250644312e-04 -1.180412484126e-03 -1.567911724850e-02 0.000000000000e+00 1.300647369021e+06 1.269434124766e+07  1.572186801951e-02
1.900000000000e+01 -5.947137322035e+07 7.144609247882e-01 8.420550107586e+01 0.000000000000e+00 7.528731651626e-03 6.526556372081e+06 7.278586499789e+05 -7.273486335647e+06 -9.270352674087e+05 -1.718733389219e-04 -1.109764730780e-03 -1.477937715264e-02 0.000000000000e+00 5.579884103250e+05 1.203023934739e+07  1.481938196550e-02
2.000000000000e+01 -5.570661916702e+07 7.279403840183e-01 8.402769552271e+01 0.000000000000e+00 7.711351071706e-03 6.998906821270e+06 6.867909326310e+05 -6.028219658570e+06 -3.844435931032e+05 -1.608035452065e-04 -1.038541540288e-03 -1.387739371266e-02 0.000000000000e+00 -1.954145231989e+05 1.137765763791e+07  1.391445599086e-02
2.100000000000e+01 -5.208363472869e+07 7.403246089115e-01 8.393963600303e+01 0.000000000000e+00 7.884412290135e-03 7.526789022708e+06 6.454460185074e+05 -4.706392122490e+06 1.999528629345e+05 -1.500499023404e-04 -9.631589518314e-04 -1.293026914371e-02 0.000000000000e+00 -1.006783254384e+06 1.072159208178e+07  1.296368832467e-02
2.200000000000e+01 -4.869859103963e+07 7.518073448756e-01 8.385004954402e+01 0.000000000000e+00 8.050126010865e-03 8.048002323370e+06 6.049080289967e+05 -3.409674245756e+06 7.745760264403e+05 -1.393760864371e-04 -8.895507892845e-04 -1.200272103240e-02 0.000000000000e+00 -1.804301368018e+06 1.009664585744e+07  1.203269493551e-02
2.300000000000e+01 -4.556372566460e+07 7.623569474486e-01 8.375183754585e+01 0.000000000000e+00 8.209298998137e-03 8.580832933770e+06 5.700417522530e+05 -2.156293159172e+06 1.338959698153e+06 -1.281693289742e-04 -8.207621026608e-04 -1.111199941716e-02 0.000000000000e+00 -2.587833157583e+06 9.536694470019e+06  1.113955529644e-02
2.400000000000e+01 -4.249966813182e+07 7.735265781505e-01 8.363904537339e+01 0.000000000000e+00 8.360974564068e-03 9.135234161693e+06 5.364763217624e+05 -8.967379623789e+05 1.911578740711e+06 -1.162179761618e-04 -7.524099736087e-04 -1.021697804665e-02 0.000000000000e+00 -3.383358313342e+06 9.012079285796e+06  1.024261259727e-02
2.500000000000e+01 -3.946992246748e+07 7.878662754900e-01 8.350995262075e+01 0.000000000000e+00 8.505732601969e-03 9.646215878851e+06 5.002357659562e+05 3.169938640179e+05 2.454867303805e+06 -1.048566677053e-04 -6.839751159733e-04 -9.339062394686e-03 0.000000000000e+00 -4.139359015558e+06 8.509459310193e+06  9.362333269448e-03
2.600000000000e+01 -3.648795378572e+07 8.025711787031e-01 8.336809681710e+01 0.000000000000e+00 8.644022199734e-03 1.019075030178e+07 4.636460073417e+05 1.581889428997e+06 3.024696742949e+06 -9.309465601467e-05 -6.128045143662e-04 -8.427971543862e-03 0.000000000000e+00 -4.932445491242e+06 8.026092069024e+06  8.448749017803e-03
2.700000000000e+01 -3.356096605393e+07 8.175875760967e-01 8.321341883346e+01 0.000000000000e+00 8.776070495666e-03 1.076463862580e+07 4.263998513956e+05 2.893645494887e+06 3.618447183059e+06 -8.093848824276e-05 -5.390231274158e-04 -7.486396817579e-03 0.000000000000e+00 -5.758910434580e+06 7.570892400828e+06  7.504557848668e-03
2.800000000000e+01 -3.067654675071e+07 8.329529107597e-01 8.304585324656e+01 0.000000000000e+00 8.902164141969e-03 1.137027930154e+07 3.883568963588e+05 4.256882182076e+06 4.238319797810e+06 -6.831967299519e-05 -4.624175640092e-04 -6.511437708372e-03 0.000000000000e+00 -6.621827093808e+06 7.154388023367e+06  6.526876689756e-03
2.900000000000e+01 -2.782237962269e+07 8.487208743021e-01 8.286538415682e+01 0.000000000000e+00 9.022476737834e-03 1.201138244141e+07 3.494286889761e+05 5.681599512815e+06 4.888647507465e+06 -5.529391909431e-05 -3.823258994235e-04 -5.496670395635e-03 0.000000000000e+00 -7.527209820562e+06 6.788257515634e+06  5.509176861175e-03
3.000000000000e+01 -2.498527270894e+07 8.648790606948e-01 8.267204394571e+01 0.000000000000e+00 9.137023430738e-03 1.269527884994e+07 3.095490754742e+05 7.177419198140e+06 5.574755976931e+06 -4.172937871698e-05 -2.983661274540e-04 -4.436373220581e-03 0.000000000000e+00 -8.482484675003e+06 6.491997932198e+06  4.445794488403e-03
3.100000000000e+01 -2.214934943915e+07 8.814778676295e-01 8.255052594415e+01 0.000000000000e+00 9.247695405924e-03 1.342686155544e+07 2.686298358846e+05 8.755283665619e+06 6.301540618035e+06 -2.760428791047e-05 -2.099003479637e-04 -3.323087303333e-03 0.000000000000e+00 -9.494561946365e+06 6.286798283612e+06  3.329281338643e-03
3.200000000000e+01 -1.935151182058e+07 8.982243904119e-01 8.242766297742e+01 0.000000000000e+00 9.354406794698e-03 1.419053132579e+07 2.271250812284e+05 1.038813557899e+07 7.055734116355e+06 -1.317546022827e-05 -1.184737941782e-04 -2.175732762297e-03 0.000000000000e+00 -1.054480034038e+07 6.195884075670e+06  2.178859445886e-03
3.300000000000e+01 -1.652325329260e+07 9.153678531470e-01 8.229794208306e+01 0.000000000000e+00 9.457268080194e-03 1.501787707957e+07 1.846745076340e+05 1.212787484532e+07 7.863556445280e+06 1.956325501886e-06 -2.151081148189e-05 -9.610748221037e-04 0.000000000000e+00 -1.166976945672e+07 6.242013141274e+06  9.627756546084e-04
3.400000000000e+01 -1.363663608733e+07 9.328905707185e-01 8.215991165291e+01 0.000000000000e+00 9.556075404465e-03 1.592763646538e+07 1.413806922611e+05 1.400284107387e+07 8.739831726202e+06 1.803498497025e-05 8.222422762747e-05 3.383493746191e-04 0.000000000000e+00 -1.289010308848e+07 6.449363250051e+06  3.591460774238e-04
3.500000000000e+01 -1.065694982479e+07 9.506820818212e-01 8.201296658974e+01 0.000000000000e+00 9.651259178677e-03 1.693497634054e+07 9.721966545300e+04 1.604182392519e+07 9.698510836702e+06 3.507966601028e-05 1.941484836388e-04 1.740427841160e-03 0.000000000000e+00 -1.422510370081e+07 6.835879063586e+06  1.755661393027e-03
3.600000000000e+01 -7.548471276706e+06 9.684051340386e-01 8.185688129035e+01 0.000000000000e+00 9.742604833713e-03 1.805911791838e+07 5.254600467038e+04 1.827161608451e+07 1.075422329692e+07 5.365265971978e-05 3.148635137714e-04 3.260846993755e-03 0.000000000000e+00 -1.569498576660e+07 7.413986839745e+06  3.280010016347e-03
3.700000000000e+01 -4.219398421637e+06 9.854151069978e-01 8.169151075588e+01 0.000000000000e+00 9.826512127083e-03 1.932344421899e+07 5.664347522492e+03 2.075541774785e+07 1.193495359527e+07 7.381177096497e-05 4.479210952035e-04 4.941463489447e-03 0.000000000000e+00 -1.733793852070e+07 8.198814617379e+06  4.965951202573e-03
3.800000000000e+01 2.090572734685e+06 1.000000000000e+00 8.151767899883e+01 0.000000000000e+00 9.816290298796e-03 2.124507988682e+07 -1.017469694782e+05 2.510536296713e+07 1.392484353172e+07 1.073579340376e-04 6.835708862624e-04 7.906970486786e-03 0.000000000000e+00 -2.009176212856e+07 9.837524466931e+06  7.942583928331e-03
3.900000000000e+01 2.140131956349e+06 1.000000000000e+00 8.133875720498e+01 0.000000000000e+00 1.000708790205e-02 2.118973898876e+07 -1.021295138875e+05 2.503152937349e+07 1.388442438832e+07 1.076949521430e-04 6.784759988717e-04 7.857480044851e-03 0.000000000000e+00 -2.003523091686e+07 9.809370697139e+06  7.892171371916e-03
4.000000000000e+01 2.169517864080e+06 1.000000000000e+00 8.114888553295e+01 0.000000000000e+00 1.008200417056e-02 2.118116813194e+07 -1.025909489526e+05 2.503540713323e+07 1.388335536777e+07 1.074659450019e-04 6.788358690167e-04 7.859631248487e-03 0.000000000000e+00 -2.003331021098e+07 9.811845835935e+06  7.894502137769e-03
4.200000000000e+01 2.226800933249e+06 1.000000000000e+00 8.087411831808e+01 0.000000000000e+00 1.022231149171e-02 2.116397246224e+07 -1.034923728762e+05 2.504217278503e+07 1.388075960091e+07 1.070371827591e-04 6.795296185385e-04 7.863943927172e-03 0.000000000000e+00 -2.002896828273e+07 9.816492133682e+06  7.899153002207e-03
4.400000000000e+01 2.282566755688e+06 1.000000000000e+00 8.057884030626e+01 0.000000000000e+00 1.035313852258e-02 2.114759859216e+07 -1.043695586442e+05 2.504873587456e+07 1.387836641460e+07 1.066351017092e-04 6.801701834781e-04 7.867922847137e-03 0.000000000000e+00 -2.002490029377e+07 9.820975523036e+06  7.903447264064e-03
5.000000000000e+01 2.434088948783e+06 1.000000000000e+00 7.938388861324e+01 0.000000000000e+00 1.062674244164e-02 2.110731990382e+07 -1.067365609106e+05 2.506569239616e+07 1.387328723305e+07 1.057291015748e-04 6.814144936223e-04 7.875280759100e-03 0.000000000000e+00 -2.001543317768e+07 9.832045335677e+06  7.911482569949e-03
6.500000000000e+01 2.765473785960e+06 1.000000000000e+00 7.672160526678e+01 0.000000000000e+00 1.109077303395e-02 2.102617535944e+07 -1.119259956278e+05 2.510110393954e+07 1.386378201430e+07 1.041708845438e-04 6.835615448181e-04 7.889588108112e-03 0.000000000000e+00 -1.999702043776e+07 9.855391671216e+06  7.926938619266e-03
8.000000000000e+01 3.020527303102e+06 1.000000000000e+00 7.427524819115e+01 0.000000000000e+00 1.131101895355e-02 2.096956455947e+07 -1.159036986139e+05 2.512563438146e+07 1.385778528928e+07 1.033063014713e-04 6.844459920319e-04 7.895770604803e-03 0.000000000000e+00 -1.998432807674e+07 9.871558790819e+06  7.933699119904e-03
1.000000000000e+02 3.321207026676e+06 1.000000000000e+00 7.180475266375e+01 0.000000000000e+00 1.149526681291e-02 2.090116270081e+07 -1.205902534902e+05 2.514847134636e+07 1.384777282261e+07 1.024793764121e-04 6.851689461696e-04 7.901723414020e-03 0.000000000000e+00 -1.996580228993e+07 9.888957950276e+06  7.940172586323e-03
1.860000000000e+02 3.919688121244e+06 1.000000000000e+00 6.658180883606e+01 0.000000000000e+00 1.171406094029e-02 2.077497865970e+07 -1.299437860255e+05 2.519552710404e+07 1.383170894741e+07 1.012614211708e-04 6.860729901226e-04 7.912197076285e-03 0.000000000000e+00 -1.993407157038e+07 9.924412281551e+06  7.951352373791e-03
2.720000000000e+02 4.210009356002e+06 1.000000000000e+00 6.332445349263e+01 0.000000000000e+00 1.154573781130e-02 2.072199415696e+07 -1.344258615022e+05 2.520889702662e+07 1.382412939057e+07 1.013044236763e-04 6.848052681946e-04 7.905465543696e-03 0.000000000000e+00 -1.991834019138e+07 9.935647731710e+06  7.944347939514e-03
3.580000000000e+02 4.351374974385e+06 1.000000000000e+00 6.119532452327e+01 0.000000000000e+00 1.136969660621e-02 2.070350183570e+07 -1.365996586852e+05 2.521650285645e+07 1.382360468394e+07 1.015843552567e-04 6.836453270180e-04 7.898947194688e-03 0.000000000000e+00 -1.991453645869e+07 9.940076674800e+06  7.937467449205e-03
4.440000000000e+02 4.423503819664e+06 1.000000000000e+00 5.963761477377e+01 0.000000000000e+00 1.120503934745e-02 2.069973055225e+07 -1.376974404965e+05 2.522098769184e+07 1.382576780568e+07 1.019269710049e-04 6.825867548103e-04 7.892597972565e-03 0.000000000000e+00 -1.991549534992e+07 9.941275816724e+06  7.930750109087e-03
5.300000000000e+02 4.462468307096e+06 1.000000000000e+00 5.847322533476e+01 0.000000000000e+00 1.106234952140e-02 2.070157488016e+07 -1.382830569570e+05 2.522367964263e+07 1.382855493735e+07 1.022540213906e-04 6.816807024874e-04 7.886995684408e-03 0.000000000000e+00 -1.991793648671e+07 9.941112485253e+06  7.924818327620e-03
6.160000000000e+02 4.484983766297e+06 1.000000000000e+00 5.760610204719e+01 0.000000000000e+00 1.094407220905e-02 2.070497739353e+07 -1.386162895752e+05 2.522519454535e+07 1.383107385370e+07 1.025354984998e-04 6.809360530220e-04 7.882311274786e-03 0.000000000000e+00 -1.992041526419e+07 9.940427208237e+06  7.919857926131e-03
7.020000000000e+02 4.498794050609e+06 1.000000000000e+00 5.697669359629e+01 0.000000000000e+00 1.085338826382e-02 2.070823045955e+07 -1.388174377527e+05 2.522604310387e+07 1.383305320120e+07 1.027557623488e-04 6.803634322339e-04 7.878670952749e-03 0.000000000000e+00 -1.992244225487e+07 9.939681434315e+06  7.916003984847e-03
7.880000000000e+02 4.508412604012e+06 1.000000000000e+00 5.650296308085e+01 0.000000000000e+00 1.077166025415e-02 2.071081557970e+07 -1.389534090940e+05 2.522576609793e+07 1.383428527542e+07 1.029496905647e-04 6.798458760851e-04 7.875280689488e-03 0.000000000000e+00 -1.992362231768e+07 9.938640018550e+06  7.912424287955e-03
8.740000000000e+02 4.516798674396e+06 1.000000000000e+00 5.570721299604e+01 0.000000000000e+00 1.065611330652e-02 2.071775926193e+07 -1.390675569324e+05 2.522722757145e+07 1.383775493901e+07 1.032448068777e-04 6.791290538207e-04 7.870704790717e-03 0.000000000000e+00 -1.992758059080e+07 9.937451621910e+06  7.907571865743e-03
9.370000000000e+02 4.522172520628e+06 1.000000000000e+00 5.519188171239e+01 0.000000000000e+00 1.056116993503e-02 2.072243270264e+07 -1.391374012343e+05 2.522708888416e+07 1.383970209521e+07 1.034812658189e-04 6.785499473383e-04 7.866982733897e-03 0.000000000000e+00 -1.992974122733e+07 9.936111943511e+06  7.903627677809e-03
1.000000000000e+03 4.526362541987e+06 1.000000000000e+00 5.480037704128e+01 0.000000000000e+00 1.048165129338e-02 2.072622078310e+07 -1.391924360341e+05 2.522685015119e+07 1.384120970181e+07 1.036799720129e-04 6.780818167826e-04 7.864053509750e-03 0.000000000000e+00 -1.993142687870e+07 9.934991141072e+06  7.900514359443e-03
1.100000000000e+03 4.530507848734e+06 1.000000000000e+00 5.441729925187e+01 0.000000000000e+00 1.039846815894e-02 2.073007375291e+07 -1.392467866049e+05 2.522645595866e+07 1.384267679111e+07 1.038882548313e-04 6.775993827594e-04 7.861070928263e-03 0.000000000000e+00 -1.993306883423e+07 9.933792226304e+06  7.897339978714e-03
1.200000000000e+03 4.533769219407e+06 1.000000000000e+00 5.407980824842e+01 0.000000000000e+00 1.032932012320e-02 2.073346315867e+07 -1.392890037464e+05 2.522625978659e+07 1.384401639750e+07 1.040612571013e-04 6.771946296450e-04 7.858542144702e-03 0.000000000000e+00 -1.993457978092e+07 9.932813582838e+06  7.894651436890e-03
1.300000000000e+03 4.536674591374e+06 1.000000000000e+00 5.375342288870e+01 0.000000000000e+00 1.026351350626e-02 2.073677723743e+07 -1.393257342672e+05 2.522609644847e+07 1.384533108771e+07 1.042261906476e-04 6.768073416435e-04 7.856110220125e-03 0.000000000000e+00 -1.993606825787e+07 9.931875632812e+06  7.892067091778e-03
1.400000000000e+03 4.539414104015e+06 1.000000000000e+00 5.342073486203e+01 0.000000000000e+00 1.019554442531e-02 2.074023553882e+07 -1.393598030769e+05 2.522588163297e+07 1.384667932489e+07 1.043969873640e-04 6.764068336929e-04 7.853592070243e-03 0.000000000000e+00 -1.993759883223e+07 9.930883904597e+06  7.889391256531e-03
1.500000000000e+03 4.542053989886e+06 1.000000000000e+00 5.307167410396e+01 0.000000000000e+00 1.012215101150e-02 2.074398004480e+07 -1.393915439159e+05 2.522560253008e+07 1.384811108132e+07 1.045812195998e-04 6.759780300429e-04 7.850904618050e-03 0.000000000000e+00 -1.993923121874e+07 9.929799608849e+06  7.886534236571e-03
1.600000000000e+03 4.544615032333e+06 1.000000000000e+00 5.270009877828e+01 0.000000000000e+00 1.004137785637e-02 2.074809942003e+07 -1.394214686620e+05 2.522521829339e+07 1.384964668204e+07 1.047840809371e-04 6.755091201534e-04 7.847974504917e-03 0.000000000000e+00 -1.994098813182e+07 9.928582556056e+06  7.883417942236e-03
1.700000000000e+03 4.547102318795e+06 1.000000000000e+00 5.230221775521e+01 0.000000000000e+00 9.951993324363e-03 2.075265292666e+07 -1.394493663207e+05 2.522472105177e+07 1.385130567415e+07 1.050084904647e-04 6.749941822252e-04 7.844767982820e-03 0.000000000000e+00 -1.994289321753e+07 9.927216158670e+06  7.880006071161e-03
1.800000000000e+03 4.549515724596e+06 1.000000000000e+00 5.187574288738e+01 0.000000000000e+00 9.853263141422e-03 2.075767624214e+07 -1.394735752252e+05 2.522409944171e+07 1.385309767721e+07 1.052563714246e-04 6.744291078251e-04 7.841260241943e-03 0.000000000000e+00 -1.994495778702e+07 9.925687375553e+06  7.876272109925e-03
1.900000000000e+03 4.551855014388e+06 1.000000000000e+00 5.141938747193e+01 0.000000000000e+00 9.744781509969e-03 2.076318912035e+07 -1.394989824381e+05 2.522333737246e+07 1.385502483403e+07 1.055289231226e-04 6.738107338614e-04 7.837430460483e-03 0.000000000000e+00 -1.994718377561e+07 9.923984734102e+06  7.872194083937e-03
2.000000000000e+03 4.554119356722e+06 1.000000000000e+00 5.093254934562e+01 0.000000000000e+00 9.626347326944e-03 2.076920157249e+07 -1.395205927130e+05 2.522244015181e+07 1.385709257733e+07 1.058265138567e-04 6.731387473143e-04 7.833278009131e-03 0.000000000000e+00 -1.994957810054e+07 9.922109303684e+06  7.867771122434e-03