 TITLE = "Time curves in points"
 VARIABLES = "TIME"  "PRESSURE1"  "SATURATION1"  "TEMPERATURE1"  "DISPLACEMENT_X1"  "DISPLACEMENT_Y1"  "STRESS_XX"  "STRESS_XY"  "STRESS_YY"  "STRESS_ZZ"  "STRAIN_XX"  "STRAIN_XY"  "STRAIN_YY"  "STRAIN_PLS"  p_(1st_Invariant)  q_(2nd_Invariant)   Effective_Strain
 ZONE T="POINT=POINT1"
0.000000000000e+00 -7.000000000000e+07 6.684759947500e-01 2.500000000000e+01 0.000000000000e+00 0.000000000000e+00 0.000000000000e+00 0.000000000000e+00 0.000000000000e+00 0.000000000000e+00 0.000000000000e+00 0.000000000000e+00 0.000000000000e+00 0.000000000000e+00 -0.000000000000e+00 0.000000000000e+00  0.000000000000e+00
1.000000000000e-03 -7.000000000000e+07 6.684759947500e-01 3.310906251120e+01 4.071226332263e-06 6.353171617213e-05 2.717293892484e+06 -8.547997275970e+01 1.702315725791e+06 1.387488618115e+06 1.878269342222e-03 -2.508204928125e-07 9.536842722786e-06 0.000000000000e+00 -1.935699412130e+06 1.203677468879e+06  1.873519175969e-03
2.000000000000e-03 -7.015907471057e+07 6.678662381927e-01 3.680326491091e+01 3.643598578744e-06 6.328980917801e-05 2.394790036043e+06 -1.288563094511e+02 1.514505646102e+06 1.222319414240e+06 1.707983165559e-03 -3.754655810153e-07 7.677747420830e-06 0.000000000000e+00 -1.710538365462e+06 1.057109469231e+06  1.704157387455e-03
3.000000000000e-03 -7.037130643829e+07 6.670521895367e-01 3.937002963826e+01 3.209018383321e-06 6.295057537060e-05 2.033141923411e+06 -1.468070333821e+02 1.297952104386e+06 1.036966193522e+06 1.511107867075e-03 -4.232063015780e-07 6.141161127513e-06 0.000000000000e+00 -1.456020073773e+06 8.947021654719e+05  1.508046842845e-03
4.000000000000e-03 -7.061820310675e+07 6.661049303527e-01 4.139950482369e+01 2.769986281151e-06 6.249403804536e-05 1.645947006642e+06 -1.522438916303e+02 1.062490783801e+06 8.379127587581e+05 1.299754085883e-03 -4.414413789958e-07 4.775108418131e-06 0.000000000000e+00 -1.182116849734e+06 7.224181400426e+05  1.297373347716e-03
1.000000000000e-02 -7.212935243526e+07 6.602938370899e-01 4.814735807512e+01 1.985210213426e-06 5.975695972334e-05 1.911851190600e+05 -1.647992800406e+02 -3.364442977676e+04 3.197918202438e+04 5.469873620599e-04 -4.762011078658e-07 9.507178447259e-06 0.000000000000e+00 -6.317329043588e+04 2.002516888770e+05  5.422969062592e-04
2.000000000000e-02 -7.524730940055e+07 6.482622408616e-01 5.436284697329e+01 8.452974084033e-07 5.795903853376e-05 -2.560485783898e+06 -1.647823539494e+02 -2.099151691526e+06 -1.483659173473e+06 -8.941456292338e-04 -4.757289869547e-07 2.185246680931e-05 0.000000000000e+00 2.047765549632e+06 9.357392522505e+05  9.052700719804e-04
3.000000000000e-02 -7.893055077024e+07 6.339986410985e-01 5.830141004820e+01 -3.846060146286e-07 5.830450598375e-05 -5.749053066012e+06 -1.522083069484e+02 -4.418378300434e+06 -3.219669992083e+06 -2.557433813968e-03 -4.363227680128e-07 3.614351749780e-05 0.000000000000e+00 4.462367119510e+06 2.191503572201e+06  2.575695884926e-03
4.000000000000e-02 -8.274830792201e+07 6.191580337515e-01 6.102918923515e+01 -1.642302615634e-06 6.107045582802e-05 -9.052039799179e+06 -1.850531811903e+02 -6.735858752686e+06 -4.998223777575e+06 -4.258681053987e-03 -5.354765276465e-07 5.000398359213e-05 0.000000000000e+00 6.928707443147e+06 3.522605178653e+06  4.283902029192e-03
5.000000000000e-02 -8.646459330675e+07 6.110473733131e-01 6.303909276829e+01 -2.897227188938e-06 6.471463612664e-05 -1.229751001554e+07 -1.561560353303e+02 -8.905838043386e+06 -6.718893532026e+06 -5.908839319385e-03 -4.466251567783e-07 6.151702698298e-05 0.000000000000e+00 9.307413863650e+06 4.868630560994e+06  5.939836805266e-03
6.000000000000e-02 -8.999223956686e+07 6.035635923876e-01 6.459150071785e+01 -4.151545641494e-06 7.075723221977e-05 -1.540950252961e+07 -1.699344350921e+02 -1.089007038763e+07 -8.344660331719e+06 -7.465076720792e-03 -4.878947058907e-07 7.079621190978e-05 0.000000000000e+00 1.154807774965e+07 6.197433932405e+06  7.500725459480e-03
7.000000000000e-02 -9.331717808832e+07 5.965377192733e-01 6.584443884672e+01 -5.376742420803e-06 7.682000974419e-05 -1.836347577444e+07 -1.848301219384e+02 -1.270897183418e+07 -9.873022429092e+06 -8.909014759068e-03 -5.326555073583e-07 7.836944376694e-05 0.000000000000e+00 1.364849001257e+07 7.486782421480e+06  8.948456913309e-03
8.000000000000e-02 -9.644616749832e+07 5.900015872083e-01 6.688978167670e+01 -6.571000148191e-06 8.359236765915e-05 -2.115902583493e+07 -1.599808107289e+02 -1.438325151055e+07 -1.130947840641e+07 -1.023663500374e-02 -4.561192985644e-07 8.441896980674e-05 0.000000000000e+00 1.561725191730e+07 8.728481640320e+06  1.027910451195e-02
9.000000000000e-02 -9.940042925395e+07 5.839014698215e-01 6.778635897997e+01 -7.735835920678e-06 8.985839913166e-05 -2.380869918849e+07 -1.901570305180e+02 -1.593836334057e+07 -1.266518509916e+07 -1.145297885332e-02 -5.469866825993e-07 8.919333599407e-05 0.000000000000e+00 1.747074920941e+07 9.920528933360e+06  1.149783502901e-02
1.000000000000e-01 -1.021958467132e+08 5.772939128518e-01 6.856670098494e+01 -8.870942333338e-06 9.538885260495e-05 -2.632169517713e+07 -1.779800592884e+02 -1.739104334425e+07 -1.394770239384e+07 -1.256301967325e-02 -5.087272508474e-07 9.288823882756e-05 0.000000000000e+00 1.922014697174e+07 1.106184515919e+07  1.260972042051e-02
2.000000000000e-01 -1.187516715383e+08 5.380454143739e-01 7.279261553079e+01 -1.421063368831e-05 1.902872840721e-04 -3.993455294172e+07 -1.571075298541e+02 -2.511713354318e+07 -2.062369095690e+07 -1.863324302848e-02 -4.482124497884e-07 1.385773774737e-04 0.000000000000e+00 2.855845914727e+07 1.750223320969e+07  1.870291677796e-02
3.000000000000e-01 -1.341076682495e+08 5.086722595976e-01 7.558238944071e+01 -1.898855775986e-05 3.001858284113e-04 -5.231815309029e+07 -1.975939967040e+02 -3.251995486424e+07 -2.681674211871e+07 -2.402152206042e-02 -5.637743903412e-07 1.973168834199e-04 0.000000000000e+00 3.721828335775e+07 2.318207551530e+07  2.412078582620e-02
4.000000000000e-01 -1.471562405977e+08 4.912841607164e-01 7.759060160320e+01 -2.319533568556e-05 4.057167361960e-04 -6.270919733106e+07 -1.856278792254e+02 -3.871094199732e+07 -3.200053889443e+07 -2.807032943945e-02 -5.070238408641e-07 2.328184489690e-04 0.000000000000e+00 4.447355940760e+07 2.796397210744e+07  2.818745981111e-02
5.000000000000e-01 -1.578188187449e+08 4.765742241596e-01 7.913407279571e+01 -2.681824734218e-05 5.083149198570e-04 -7.114888968581e+07 -2.294541395550e+02 -4.375215635071e+07 -3.621434936708e+07 -3.103655738606e-02 -6.005308140002e-07 2.571938725347e-04 0.000000000000e+00 5.037179846787e+07 3.184196632711e+07  3.116595027481e-02
6.000000000000e-01 -1.664470105045e+08 4.628553684482e-01 8.036202926716e+01 -2.987425629449e-05 6.082551970361e-04 -7.795994532108e+07 -2.670054428981e+02 -4.781234221489e+07 -3.961605111994e+07 -3.320562846362e-02 -6.521951090364e-07 2.727835239441e-04 0.000000000000e+00 5.512944621864e+07 3.497364281640e+07  3.334285713819e-02
7.000000000000e-01 -1.732705738904e+08 4.540722539412e-01 8.135405474006e+01 -3.248025643621e-05 7.057496533332e-04 -8.339368763167e+07 -3.159522037525e+02 -5.100508182900e+07 -4.232129831865e+07 -3.479000821585e-02 -7.150777617970e-07 2.799853046701e-04 0.000000000000e+00 5.890668925977e+07 3.749247288707e+07  3.493084247500e-02
8.000000000000e-01 -1.785574945229e+08 4.487369201661e-01 8.216210467788e+01 -3.464464623299e-05 8.009758865182e-04 -8.765939402250e+07 -3.760537330526e+02 -5.350935986715e+07 -4.445124488069e+07 -3.592441000928e-02 -7.974291728699e-07 2.813549255479e-04 0.000000000000e+00 6.187333292345e+07 3.946655820457e+07  3.606591059048e-02
9.000000000000e-01 -1.825455417321e+08 4.447347592060e-01 8.283348462567e+01 -3.641570603977e-05 8.938396684127e-04 -9.102307103218e+07 -4.034115034550e+02 -5.552953898924e+07 -4.616047890682e+07 -3.692703894481e-02 -7.664286173448e-07 2.863668493710e-04 0.000000000000e+00 6.423769630941e+07 4.098915879166e+07  3.707105195116e-02
1.000000000000e+00 -1.854867374019e+08 4.417945786223e-01 8.339527917161e+01 -3.788959911166e-05 9.844944364703e-04 -9.361668142544e+07 -4.596492040344e+02 -5.710606567398e+07 -4.749608145855e+07 -3.767022831695e-02 -8.122903317664e-07 2.892152081384e-04 0.000000000000e+00 6.607294285266e+07 4.214550154967e+07  3.781566542837e-02
2.000000000000e+00 -1.860998072911e+08 4.410419393713e-01 8.535753342327e+01 -4.237257253710e-05 1.735886747927e-03 -9.751728279199e+07 -5.796463144744e+02 -6.006431904891e+07 -4.970152498744e+07 -3.993973776678e-02 -6.638126267721e-07 3.052406900300e-04 0.000000000000e+00 6.909437560945e+07 4.356867389731e+07  4.009322959298e-02
3.000000000000e+00 -1.774891049769e+08 4.495795701855e-01 8.593561658345e+01 -4.397435712462e-05 2.373589959679e-03 -9.447657695423e+07 -7.263116437788e+02 -5.879489948288e+07 -4.847282896679e+07 -3.986145925265e-02 2.464076484509e-08 2.923659017589e-04 0.000000000000e+00 6.724810180130e+07 4.180952091908e+07  4.000844339702e-02
4.000000000000e+00 -1.655179178190e+08 4.640228359022e-01 8.594181032048e+01 -4.428027660417e-05 2.928490531991e-03 -8.873501490958e+07 -9.704390565672e+02 -5.594001640679e+07 -4.593244958150e+07 -3.895262860100e-02 5.762403062974e-07 2.765583724606e-04 0.000000000000e+00 6.353582696596e+07 3.877965268589e+07  3.909164151101e-02
5.000000000000e+00 -1.531383084912e+08 4.825992387004e-01 8.575846034028e+01 -4.425684177610e-05 3.420235948106e-03 -8.229296601278e+07 -1.316557254335e+03 -5.256570957801e+07 -4.300421709639e+07 -3.735856719310e-02 8.551586835272e-07 2.508914086284e-04 0.000000000000e+00 5.928763089573e+07 3.548758737523e+07  3.748464265485e-02
6.000000000000e+00 -1.414940115436e+08 4.976938466234e-01 8.561855106046e+01 -4.419177807321e-05 3.863818242600e-03 -7.601667218312e+07 -1.478153977820e+03 -4.920497584931e+07 -4.011846444733e+07 -3.543394471198e-02 1.503134841142e-06 2.196286472760e-04 0.000000000000e+00 5.511337082659e+07 3.232733426612e+07  3.554426804307e-02
7.000000000000e+00 -1.312343115127e+08 5.110276230506e-01 8.535781862233e+01 -4.416113564668e-05 4.267294500470e-03 -7.044571468690e+07 -1.445450419824e+03 -4.615403511905e+07 -3.753492262981e+07 -3.347155059874e-02 2.534575575063e-06 1.778635414481e-04 0.000000000000e+00 5.137822414525e+07 2.955922058081e+07  3.356083614457e-02
8.000000000000e+00 -1.218124767845e+08 5.294013430437e-01 8.528219644329e+01 -4.409142886554e-05 4.639897783402e-03 -6.531522686601e+07 -1.704255284715e+03 -4.339731391566e+07 -3.518096372406e+07 -3.169877755474e-02 2.420242589365e-06 1.440759636068e-04 0.000000000000e+00 4.796450150191e+07 2.698126341654e+07  3.177106082337e-02
9.000000000000e+00 -1.135309107159e+08 5.485280278307e-01 8.520333284130e+01 -4.411135754581e-05 4.985854394067e-03 -6.090339169503e+07 -2.062563223016e+03 -4.104797142000e+07 -3.318191696424e+07 -3.026322407900e-02 1.993505686046e-06 1.203021780231e-04 0.000000000000e+00 4.504442669309e+07 2.474462278732e+07  3.032355434251e-02
1.000000000000e+01 -1.060027448602e+08 5.654957290928e-01 8.512020154099e+01 -4.417453037320e-05 5.307639739478e-03 -5.681004340990e+07 -2.022265314783e+03 -3.889556678446e+07 -3.133344799220e+07 -2.869859783425e-02 2.549004842197e-06 9.789562229771e-05 0.000000000000e+00 4.234635272885e+07 2.266242542190e+07  2.874767099769e-02
1.100000000000e+01 -9.920712317928e+07 5.774470269866e-01 8.508991988987e+01 -4.424187414329e-05 5.611269284407e-03 -5.305280091693e+07 -1.852790117823e+03 -3.692709532630e+07 -2.963891038155e+07 -2.707846213100e-02 3.041409658670e-06 7.429008180812e-05 0.000000000000e+00 3.987293554160e+07 2.075290716001e+07  2.711568400969e-02
1.200000000000e+01 -9.310164138531e+07 5.881956835387e-01 8.506072826050e+01 -4.436782297429e-05 5.895115941479e-03 -4.965588223432e+07 -1.617564144017e+03 -3.513289748825e+07 -2.810538526204e+07 -2.547783538652e-02 3.787592614162e-06 5.050572223976e-05 0.000000000000e+00 3.763138832821e+07 1.903584709798e+07  2.550312659902e-02
1.300000000000e+01 -8.749469948918e+07 5.980313935091e-01 8.501131504997e+01 -4.452171320452e-05 6.162536535891e-03 -4.652220246278e+07 -1.474105471061e+03 -3.348911988567e+07 -2.669688166666e+07 -2.389614610511e-02 4.327116103932e-06 2.648193793138e-05 0.000000000000e+00 3.556940133837e+07 1.745048852027e+07  2.390939924798e-02
1.400000000000e+01 -8.219117683119e+07 6.142796177226e-01 8.492254073212e+01 -4.467649473048e-05 6.415120255034e-03 -4.351538574940e+07 -1.388353110618e+03 -3.191457681777e+07 -2.534607932483e+07 -2.227600029723e-02 4.722931984950e-06 1.957822531144e-06 0.000000000000e+00 3.359201396400e+07 1.593498720894e+07  2.227698077498e-02
1.500000000000e+01 -7.715797270225e+07 6.332700015334e-01 8.481756001037e+01 -4.485568277291e-05 6.655578396065e-03 -4.063034619614e+07 -1.929410265962e+03 -3.033267385731e+07 -2.402874379449e+07 -2.062812946988e-02 3.234359560914e-06 -2.430448128516e-05 0.000000000000e+00 3.166392128265e+07 1.451541963694e+07  2.061598873522e-02
1.600000000000e+01 -7.243873170815e+07 6.510621195969e-01 8.470075219002e+01 -4.503226918563e-05 6.881450813021e-03 -3.790822670459e+07 -1.621674342267e+03 -2.881788729260e+07 -2.277893340407e+07 -1.901142404227e-02 4.004920009724e-06 -5.203416730176e-05 0.000000000000e+00 2.983501580042e+07 1.319088257558e+07  1.898546170543e-02
1.700000000000e+01 -6.798215785607e+07 6.678476487847e-01 8.456897411302e+01 -4.520273315138e-05 7.094779151021e-03 -3.532097503861e+07 -1.309449996927e+03 -2.738108174582e+07 -2.159012008187e+07 -1.743168308194e-02 4.679102399570e-06 -8.022446834888e-05 0.000000000000e+00 2.809739228876e+07 1.193971378688e+07  1.739171150890e-02
1.800000000000e+01 -6.374879270820e+07 6.837835260982e-01 8.442126094456e+01 -4.534471653429e-05 7.296805795946e-03 -3.286475708523e+07 -1.095874144509e+03 -2.604797859346e+07 -2.047352308588e+07 -1.596187754873e-02 5.107847765290e-06 -1.050141211907e-04 0.000000000000e+00 2.646208625486e+07 1.074908625056e+07  1.590963288619e-02
1.900000000000e+01 -5.970229451246e+07 6.990164963757e-01 8.425635540426e+01 -4.546980219320e-05 7.488065585403e-03 -3.050079316413e+07 -8.963594254432e+02 -2.478799587948e+07 -1.940688350742e+07 -1.452998901691e-02 5.516153756587e-06 -1.280555118440e-04 0.000000000000e+00 2.489855751701e+07 9.609038959965e+06  1.446638949942e-02
2.000000000000e+01 -5.591167274559e+07 7.132931210343e-01 8.407728787583e+01 -4.559407854823e-05 7.670901563358e-03 -2.826047638367e+07 -5.445252277265e+02 -2.360077422408e+07 -1.839900037377e+07 -1.311513540063e-02 5.829664625382e-06 -1.503129450626e-04 0.000000000000e+00 2.342008366051e+07 8.544588529551e+06  1.304063257232e-02
2.100000000000e+01 -5.230263645346e+07 7.252707748085e-01 8.398894200474e+01 -4.570429460131e-05 7.844179818622e-03 -2.610064312846e+07 -4.481575175513e+02 -2.246617933101e+07 -1.743085374537e+07 -1.169964474827e-02 6.012222465665e-06 -1.722158502409e-04 0.000000000000e+00 2.199922540161e+07 7.540858041385e+06  1.161449911565e-02
2.200000000000e+01 -4.892775349576e+07 7.360609168376e-01 8.389868228381e+01 -4.582997210937e-05 8.010075462894e-03 -2.408161648327e+07 -2.992192388085e+02 -2.141862581631e+07 -1.653271190182e+07 -1.032686320581e-02 6.243526838647e-06 -1.932625965687e-04 0.000000000000e+00 2.067765140047e+07 6.631351106267e+06  1.023160665048e-02
2.300000000000e+01 -4.578630731373e+07 7.458698453962e-01 8.379980671317e+01 -4.595893699345e-05 8.169371554349e-03 -2.218721435555e+07 -1.585119526881e+02 -2.044359084542e+07 -1.569495681567e+07 -8.980823393780e-03 6.276139546070e-06 -2.136139137662e-04 0.000000000000e+00 1.944192067222e+07 5.819757564040e+06  8.875951164253e-03
2.400000000000e+01 -4.273737162208e+07 7.561677636123e-01 8.368692938956e+01 -4.606938600870e-05 8.321026601679e-03 -2.031607897310e+07 -1.019382247447e+02 -1.948364066454e+07 -1.486825156967e+07 -7.606202901733e-03 6.415774343062e-06 -2.340132684222e-04 0.000000000000e+00 1.822265706910e+07 5.082990926341e+06  7.491946067431e-03
2.500000000000e+01 -3.972039199675e+07 7.706768458512e-01 8.355718390763e+01 -4.616296457472e-05 8.466363793726e-03 -1.842565828767e+07 -1.670495353397e+02 -1.850441610149e+07 -1.402856380857e+07 -6.175972230987e-03 6.103296353292e-06 -2.546788073512e-04 0.000000000000e+00 1.698621273258e+07 4.436997665473e+06  6.052661959955e-03
2.600000000000e+01 -3.674690137144e+07 7.856724807927e-01 8.341465035837e+01 -4.624961939704e-05 8.604809089273e-03 -1.653164017336e+07 1.867472248377e+00 -1.750986034992e+07 -1.318199664400e+07 -4.704085183661e-03 6.368802572817e-06 -2.757444828262e-04 0.000000000000e+00 1.574116572243e+07 3.931121388653e+06  4.572466356765e-03
2.700000000000e+01 -3.382536400471e+07 8.010888143274e-01 8.325927508362e+01 -4.632231424898e-05 8.736971503732e-03 -1.463643462403e+07 1.835140872485e+02 -1.651374917137e+07 -1.233153346645e+07 -3.203897657397e-03 6.652663373371e-06 -2.967322136803e-04 0.000000000000e+00 1.449390575395e+07 3.628209452360e+06  3.066340381500e-03
2.800000000000e+01 -3.094423886445e+07 8.170103714323e-01 8.309101773899e+01 -4.638005226506e-05 8.863095963025e-03 -1.273291026079e+07 3.969672065198e+02 -1.551280895581e+07 -1.147352023283e+07 -1.673558015713e-03 7.025099092205e-06 -3.176416014474e-04 0.000000000000e+00 1.323974648314e+07 3.579787307244e+06  1.539561309839e-03
2.900000000000e+01 -2.809010080804e+07 8.334582007690e-01 8.290988114144e+01 -4.642456119988e-05 8.983459359219e-03 -1.081146953316e+07 5.978002364085e+02 -1.450040495246e+07 -1.060242915331e+07 -1.097544680800e-04 7.355716633147e-06 -3.384793697032e-04 0.000000000000e+00 1.197143454631e+07 3.797773023962e+06  2.993777271307e-04
3.000000000000e+01 -2.525050293831e+07 8.504808551471e-01 8.271590707982e+01 -4.644735208169e-05 9.097918989882e-03 -8.859695198720e+06 8.762137004770e+02 -1.347047953720e+07 -9.711903500817e+06 1.492407050806e-03 7.909997532019e-06 -3.591980718415e-04 0.000000000000e+00 1.068069274558e+07 4.249264032388e+06  1.700752627323e-03
3.100000000000e+01 -2.240930200359e+07 8.681657928440e-01 8.259379673141e+01 -4.645144570622e-05 9.208623773994e-03 -6.868112057887e+06 1.066792727329e+03 -1.241690005863e+07 -8.796567123922e+06 3.135868563459e-03 8.180869158569e-06 -3.798183710858e-04 0.000000000000e+00 9.360526413479e+06 4.879282970135e+06  3.342034546781e-03
3.200000000000e+01 -1.960626311165e+07 8.861326011886e-01 8.247041856742e+01 -4.644571069527e-05 9.315279195916e-03 -4.875609017256e+06 1.306892771798e+03 -1.136542635131e+07 -7.876240209688e+06 4.786576975478e-03 8.583662576184e-06 -3.999144005313e-04 0.000000000000e+00 8.039091859418e+06 5.625653151460e+06  4.998569072190e-03
3.300000000000e+01 -1.677025423042e+07 9.047373427703e-01 8.234022744185e+01 -4.641737988725e-05 9.417960997346e-03 -2.820427943439e+06 1.586283196163e+03 -1.027529537095e+07 -6.917981508688e+06 6.484327361825e-03 9.072027208714e-06 -4.199012470851e-04 0.000000000000e+00 6.671234941025e+06 6.466705693368e+06  6.704166051299e-03
3.400000000000e+01 -1.387183897453e+07 9.239741181844e-01 8.220176805925e+01 -4.635783587938e-05 9.516661562724e-03 -6.750419406463e+05 1.878358376580e+03 -9.129090432224e+06 -5.906920187417e+06 8.242208149206e-03 9.529075810679e-06 -4.397287879415e-04 0.000000000000e+00 5.237017520096e+06 7.390057108808e+06  8.470653173814e-03
3.500000000000e+01 -1.087324667103e+07 9.437517590390e-01 8.205443775994e+01 -4.626869648921e-05 9.611611574051e-03 1.585164598391e+06 2.194046872468e+03 -7.911751661870e+06 -4.829767791172e+06 1.007160764375e-02 1.000766642030e-05 -4.595010308941e-04 0.000000000000e+00 3.718784951550e+06 8.391705115153e+06  1.030905603255e-02
3.600000000000e+01 -7.735474268510e+06 9.636979323476e-01 8.189801261950e+01 -4.614984540200e-05 9.702842288676e-03 3.986006303877e+06 2.442319189691e+03 -6.609867607627e+06 -3.673421741206e+06 1.198423774520e-02 1.011438405185e-05 -4.791623207540e-04 0.000000000000e+00 2.099094348319e+06 9.475287120776e+06  1.223087294251e-02
3.700000000000e+01 -4.373860178370e+06 9.829980795009e-01 8.173236980522e+01 -4.602636311750e-05 9.786488495934e-03 6.567957924691e+06 3.591069563081e+03 -5.208240662310e+06 -2.419639380700e+06 1.400664057153e-02 1.283255887441e-05 -4.991344261670e-04 0.000000000000e+00 3.533073727729e+05 1.065908375440e+07  1.426277693170e-02
3.800000000000e+01 1.969319373483e+06 1.000000000000e+00 8.155815856454e+01 -4.662542514250e-05 9.776782210708e-03 1.076778509264e+07 7.725067511323e+03 -3.176347817251e+06 -4.345881271920e+05 1.727723559781e-02 3.422215043596e-05 -5.356713904060e-04 0.000000000000e+00 -2.385616382732e+06 1.279549945534e+07  1.755130331407e-02
3.900000000000e+01 2.143157947788e+06 1.000000000000e+00 8.137922573310e+01 -4.666003106216e-05 9.967759147805e-03 1.083750203914e+07 3.728138458877e+03 -3.196026873020e+06 -4.170943359273e+05 1.733412623254e-02 7.589970594034e-06 -5.356785622246e-04 0.000000000000e+00 -2.408126943399e+06 1.287106100394e+07  1.760808270108e-02
4.000000000000e+01 2.172544101843e+06 1.000000000000e+00 8.118933133057e+01 -4.669471842606e-05 1.004265564130e-02 1.083385461593e+07 3.751857210273e+03 -3.202382597505e+06 -4.199124502347e+05 1.733200874106e-02 7.662313407427e-06 -5.358674900501e-04 0.000000000000e+00 -2.403853189398e+06 1.287255710553e+07  1.760606478239e-02
4.200000000000e+01 2.229827605392e+06 1.000000000000e+00 8.091450153903e+01 -4.676219463139e-05 1.018301058765e-02 1.082648601513e+07 3.747317209016e+03 -3.215465857518e+06 -4.258074437454e+05 1.732838387956e-02 7.648409579676e-06 -5.362295494925e-04 0.000000000000e+00 -2.395070904623e+06 1.287580674751e+07  1.760263039954e-02
4.400000000000e+01 2.285593809494e+06 1.000000000000e+00 8.061916116606e+01 -4.682684359964e-05 1.031388782249e-02 1.081982987416e+07 3.727991604049e+03 -3.228032242988e+06 -4.312946139549e+05 1.732499807513e-02 7.589684281646e-06 -5.365695696146e-04 0.000000000000e+00 -2.386834339071e+06 1.287928680212e+07  1.759942342172e-02
5.000000000000e+01 2.437116678573e+06 1.000000000000e+00 7.942409543210e+01 -4.698966835352e-05 1.058758826795e-02 1.080776233285e+07 3.728218756478e+03 -3.260608306188e+06 -4.433210469516e+05 1.731695714151e-02 7.590489726249e-06 -5.373197677434e-04 0.000000000000e+00 -2.367944326572e+06 1.289269406593e+07  1.759177743747e-02
6.500000000000e+01 2.768502507756e+06 1.000000000000e+00 7.676123224804e+01 -4.732107385615e-05 1.105193600001e-02 1.079292290323e+07 3.724289701772e+03 -3.330037102216e+06 -4.652545797595e+05 1.730665374571e-02 7.578150336523e-06 -5.386912573867e-04 0.000000000000e+00 -2.332543740418e+06 1.293080859183e+07  1.758219461550e-02
8.000000000000e+01 3.023556374630e+06 1.000000000000e+00 7.431444500797e+01 -4.755543270013e-05 1.127225658686e-02 1.079072953130e+07 3.747137131420e+03 -3.382145505879e+06 -4.782726199028e+05 1.730195372926e-02 7.647297696471e-06 -5.394683728814e-04 0.000000000000e+00 -2.310103801839e+06 1.296713843312e+07  1.757790264065e-02
1.000000000000e+02 3.324236305531e+06 1.000000000000e+00 7.184336417688e+01 -4.782544830375e-05 1.145679082673e-02 1.078868819561e+07 3.722115794469e+03 -3.447837743912e+06 -4.951924357171e+05 1.729965856281e-02 7.572090656037e-06 -5.402559657348e-04 0.000000000000e+00 -2.281886005328e+06 1.301389316019e+07  1.757601998894e-02
1.860000000000e+02 3.922717201764e+06 1.000000000000e+00 6.661921361739e+01 -4.833492255145e-05 1.167610694936e-02 1.079919281706e+07 3.726999805691e+03 -3.573624831310e+06 -5.222796166468e+05 1.730257346762e-02 7.587263940843e-06 -5.415575744968e-04 0.000000000000e+00 -2.234429456368e+06 1.311610491310e+07  1.757961449032e-02
2.720000000000e+02 4.213038211969e+06 1.000000000000e+00 6.336129275053e+01 -4.854503988547e-05 1.150799361349e-02 1.081883509081e+07 3.739228542450e+03 -3.635540139078e+06 -5.301134703097e+05 1.730830847021e-02 7.623687387022e-06 -5.416078537922e-04 0.000000000000e+00 -2.217727160475e+06 1.317898621700e+07  1.758537378996e-02
3.580000000000e+02 4.354403691727e+06 1.000000000000e+00 6.123180505089e+01 -4.862842949546e-05 1.133211704629e-02 1.083827549266e+07 3.731046304992e+03 -3.661743004718e+06 -5.289021255241e+05 1.731376406531e-02 7.598962424255e-06 -5.414216902883e-04 0.000000000000e+00 -2.215876787473e+06 1.321510573031e+07  1.759073006428e-02
4.440000000000e+02 4.426532453839e+06 1.000000000000e+00 5.967385339351e+01 -4.865622830140e-05 1.116752757517e-02 1.085580405545e+07 3.731660114320e+03 -3.672108187755e+06 -5.243616143513e+05 1.731821634078e-02 7.599857706960e-06 -5.411542544969e-04 0.000000000000e+00 -2.219778084449e+06 1.323776410238e+07  1.759504091725e-02
5.300000000000e+02 4.465496889446e+06 1.000000000000e+00 5.850929423872e+01 -4.866090184285e-05 1.102490279393e-02 1.087053969116e+07 3.720266381256e+03 -3.675731722205e+06 -5.192288366676e+05 1.732179892344e-02 7.565504986241e-06 -5.408867131111e-04 0.000000000000e+00 -2.225193044095e+06 1.325300782195e+07  1.759848229183e-02
6.160000000000e+02 4.488012314786e+06 1.000000000000e+00 5.764205143038e+01 -4.865704984758e-05 1.090665494386e-02 1.088229859751e+07 3.732551618310e+03 -3.676743940878e+06 -5.146580366191e+05 1.732462302472e-02 7.603218568665e-06 -5.406510934607e-04 0.000000000000e+00 -2.230298873339e+06 1.326377041064e+07  1.760118224331e-02
7.020000000000e+02 4.501822576458e+06 1.000000000000e+00 5.701255823051e+01 -4.865137521690e-05 1.081597261959e-02 1.089114022889e+07 3.729253448101e+03 -3.676838407253e+06 -5.110535502496e+05 1.732673432267e-02 7.593475330742e-06 -5.404652868866e-04 0.000000000000e+00 -2.234416090463e+06 1.327136582506e+07  1.760319563130e-02
7.880000000000e+02 4.511441113274e+06 1.000000000000e+00 5.653877440105e+01 -4.864524046678e-05 1.073424504507e-02 1.089802386585e+07 3.733091069101e+03 -3.677192419971e+06 -5.083521971710e+05 1.732842068166e-02 7.604963863295e-06 -5.402968148852e-04 0.000000000000e+00 -2.237493082903e+06 1.327749932485e+07  1.760479332387e-02
8.740000000000e+02 4.519827167133e+06 1.000000000000e+00 5.574293709857e+01 -4.862946828978e-05 1.061872903383e-02 1.090992589716e+07 3.726803544062e+03 -3.674414109706e+06 -5.027088870832e+05 1.733107760525e-02 7.585730227704e-06 -5.400453523998e-04 0.000000000000e+00 -2.244267633455e+06 1.328553731521e+07  1.760731781063e-02
9.370000000000e+02 4.525201002276e+06 1.000000000000e+00 5.522755768205e+01 -4.861704861305e-05 1.052377200378e-02 1.091826675181e+07 3.727727589336e+03 -3.673082814559e+06 -4.989880498526e+05 1.733320061789e-02 7.588781158507e-06 -5.398434809235e-04 0.000000000000e+00 -2.248731962466e+06 1.329165434258e+07  1.760933453512e-02
1.000000000000e+03 4.529391016052e+06 1.000000000000e+00 5.483601678884e+01 -4.860661997280e-05 1.044426394709e-02 1.092507733939e+07 3.731914151915e+03 -3.672079539429e+06 -4.960089257675e+05 1.733513117670e-02 7.601211458235e-06 -5.396773282116e-04 0.000000000000e+00 -2.252329624731e+06 1.329672344089e+07  1.761117756270e-02
1.100000000000e+03 4.533536316160e+06 1.000000000000e+00 5.445290493107e+01 -4.859571124397e-05 1.036110546034e-02 1.093204606370e+07 3.724565202545e+03 -3.671130087295e+06 -4.930040811686e+05 1.733722286435e-02 7.578125244538e-06 -5.395050758414e-04 0.000000000000e+00 -2.255970631744e+06 1.330197527916e+07  1.761317842967e-02
1.200000000000e+03 4.536797682875e+06 1.000000000000e+00 5.411538590813e+01 -4.858632096930e-05 1.029197179742e-02 1.093797181898e+07 3.733050211950e+03 -3.670157356698e+06 -4.903864819159e+05 1.733890407525e-02 7.602199720262e-06 -5.393602882483e-04 0.000000000000e+00 -2.259142660122e+06 1.330631124499e+07  1.761478338589e-02
1.300000000000e+03 4.539703052078e+06 1.000000000000e+00 5.378897452190e+01 -4.857717202063e-05 1.022618232249e-02 1.094364900289e+07 3.732995591090e+03 -3.669138096556e+06 -4.878494403150e+05 1.734048172397e-02 7.604662251779e-06 -5.392218004955e-04 0.000000000000e+00 -2.262220488672e+06 1.331039790157e+07  1.761628808344e-02
1.400000000000e+03 4.542442562524e+06 1.000000000000e+00 5.345626141554e+01 -4.856753877318e-05 1.015820422173e-02 1.094948667338e+07 3.733499055765e+03 -3.668044021889e+06 -4.852307504229e+05 1.734211080439e-02 7.606199095765e-06 -5.390786699887e-04 0.000000000000e+00 -2.265403967024e+06 1.331456627429e+07  1.761784176777e-02
1.500000000000e+03 4.545082446453e+06 1.000000000000e+00 5.310717610982e+01 -4.855696158536e-05 1.008482459921e-02 1.095572246089e+07 3.728161439534e+03 -3.666844830950e+06 -4.824321295017e+05 1.734388008769e-02 7.595231891404e-06 -5.389244254877e-04 0.000000000000e+00 -2.268815166813e+06 1.331899812836e+07  1.761952978110e-02
1.600000000000e+03 4.547643486991e+06 1.000000000000e+00 5.273557656600e+01 -4.854514021879e-05 1.000404922210e-02 1.096250367613e+07 3.733354529570e+03 -3.665512535501e+06 -4.793900926894e+05 1.734584307113e-02 7.605835955088e-06 -5.387550568918e-04 0.000000000000e+00 -2.272533682646e+06 1.332379921705e+07  1.762140355013e-02
1.700000000000e+03 4.550130771774e+06 1.000000000000e+00 5.233767154459e+01 -4.853188531483e-05 9.914675984566e-03 1.096991963979e+07 3.733439513393e+03 -3.664034431659e+06 -4.760673134963e+05 1.734803260877e-02 7.606316747461e-06 -5.385680914993e-04 0.000000000000e+00 -2.276605964880e+06 1.332903685714e+07  1.762349458438e-02
1.800000000000e+03 4.552544175198e+06 1.000000000000e+00 5.191117283657e+01 -4.851707665954e-05 9.816002744323e-03 1.097802607524e+07 3.712972350994e+03 -3.662398172349e+06 -4.724392999841e+05 1.735046891739e-02 7.543576568971e-06 -5.383620129936e-04 0.000000000000e+00 -2.281062867636e+06 1.333474971237e+07  1.762582223329e-02
1.900000000000e+03 4.554883463307e+06 1.000000000000e+00 5.145479370212e+01 -4.850064559507e-05 9.707490875425e-03 1.098685411132e+07 3.733540807694e+03 -3.660597287471e+06 -4.684924971306e+05 1.735316299460e-02 7.606859167420e-06 -5.381359519668e-04 0.000000000000e+00 -2.285921442239e+06 1.334095976735e+07  1.762839728111e-02