 TITLE = "Time curves in points"
 VARIABLES = "TIME"  "PRESSURE1"  "SATURATION1"  "TEMPERATURE1"  "DISPLACEMENT_X1"  "DISPLACEMENT_Y1"  "STRESS_XX"  "STRESS_XY"  "STRESS_YY"  "STRESS_ZZ"  "STRAIN_XX"  "STRAIN_XY"  "STRAIN_YY"  "STRAIN_PLS"  p_(1st_Invariant)  q_(2nd_Invariant)   Effective_Strain
 ZONE T="POINT=POINT7"
0.000000000000e+00 1.000000000000e+05 1.000000000000e+00 2.500000000000e+01 0.000000000000e+00 0.000000000000e+00 -1.262331305483e+06 1.487475914788e+03 -1.327249178965e+07 -1.357396928539e+06 0.000000000000e+00 0.000000000000e+00 0.000000000000e+00 0.000000000000e+00 5.297406674556e+06 1.196291125004e+07  0.000000000000e+00
1.000000000000e-03 1.413412552946e+05 1.000000000000e+00 2.500280428798e+01 -1.503754180602e-03 6.275915331964e-05 3.067713421454e+07 2.493786915847e+03 -4.471475611018e+07 -1.209181791240e+06 1.180817871358e-03 7.475453150722e-08 -1.173360665577e-03 0.000000000000e+00 5.082267895625e+06 6.554925365437e+07  2.038781831650e-03
2.000000000000e-03 1.644189448192e+05 1.000000000000e+00 2.501564381585e+01 -1.503032238010e-03 6.218232297427e-05 3.067713312514e+07 2.320232532770e+03 -4.470168061890e+07 -1.209604581750e+06 1.180833534542e-03 6.186192019295e-08 -1.172859300824e-03 0.000000000000e+00 5.078050691837e+06 6.553735695528e+07  2.038361690433e-03
3.000000000000e-03 1.801828042397e+05 1.000000000000e+00 2.504723888815e+01 -1.502231472140e-03 6.170883477996e-05 3.067038829637e+07 2.249383161628e+03 -4.469847874434e+07 -1.221389632621e+06 1.181020742792e-03 5.659882405102e-08 -1.172302643594e-03 0.000000000000e+00 5.083160026862e+06 6.552789072776e+07  2.038042499951e-03
4.000000000000e-03 1.909645331175e+05 1.000000000000e+00 2.510343997643e+01 -1.501360365052e-03 6.119454150649e-05 3.065847760811e+07 2.219742643936e+03 -4.470801925873e+07 -1.246948357469e+06 1.181527669865e-03 5.439695702245e-08 -1.171707681491e-03 0.000000000000e+00 5.098830002695e+06 6.552453650913e+07  2.037967512272e-03
1.000000000000e-02 2.067813581907e+05 1.000000000000e+00 2.594628110919e+01 -1.495385507702e-03 5.840272824768e-05 3.053371148967e+07 2.186102576475e+03 -4.501543451308e+07 -1.666616179864e+06 1.192481161726e-03 5.189798058249e-08 -1.167538300392e-03 0.000000000000e+00 5.382779734424e+06 6.566450579776e+07  2.043874859390e-03
2.000000000000e-02 2.050625079167e+05 1.000000000000e+00 2.758034036847e+01 -1.485664924575e-03 5.658632838655e-05 3.031351344930e+07 2.165504822944e+03 -4.564493085355e+07 -2.487169182503e+06 1.214780060325e-03 5.036786174882e-08 -1.160441910083e-03 0.000000000000e+00 5.939528862252e+06 6.598546227243e+07  2.057181985821e-03
3.000000000000e-02 1.950322212313e+05 1.000000000000e+00 2.908484136141e+01 -1.476577979346e-03 5.694074855221e-05 3.010429272095e+07 2.151042513427e+03 -4.621872481297e+07 -3.244525970975e+06 1.235139399701e-03 4.929351875605e-08 -1.153623862147e-03 0.000000000000e+00 6.452986020998e+06 6.627265087313e+07  2.069131132594e-03
4.000000000000e-02 1.817985407931e+05 1.000000000000e+00 3.039238212025e+01 -1.468095104627e-03 5.962757502852e-05 2.990868514298e+07 2.136091609164e+03 -4.669887438256e+07 -3.902208074680e+06 1.252302167800e-03 4.818288015368e-08 -1.147029796594e-03 0.000000000000e+00 6.897465771418e+06 6.649605007473e+07  2.078549008689e-03
5.000000000000e-02 1.676434085483e+05 1.000000000000e+00 3.151681238627e+01 -1.460253253230e-03 6.331061454312e-05 2.972786771549e+07 2.125422798094e+03 -4.709803333413e+07 -4.467958919792e+06 1.266599694740e-03 4.739033990274e-08 -1.140842097692e-03 0.000000000000e+00 7.279374846146e+06 6.666669671970e+07  2.085853719224e-03
6.000000000000e-02 1.532845441325e+05 1.000000000000e+00 3.248853658346e+01 -1.453063605024e-03 6.930954348829e-05 2.956308151959e+07 2.116145402325e+03 -4.742277749133e+07 -4.953682911677e+06 1.278520241448e-03 4.670116193133e-08 -1.134862846689e-03 0.000000000000e+00 7.604459627805e+06 6.679016969486e+07  2.091284967643e-03
7.000000000000e-02 1.396036811256e+05 1.000000000000e+00 3.333663389762e+01 -1.446428259734e-03 7.532805135374e-05 2.941002222366e+07 2.107708310473e+03 -4.769766889340e+07 -5.378016598825e+06 1.288596147407e-03 4.607440653662e-08 -1.129312133243e-03 0.000000000000e+00 7.888554422857e+06 6.688331881533e+07  2.095484000390e-03
8.000000000000e-02 1.272619211682e+05 1.000000000000e+00 3.408501699852e+01 -1.440197214027e-03 8.213293073102e-05 2.926622641254e+07 2.097230798933e+03 -4.792727037172e+07 -5.751316411990e+06 1.297120581769e-03 4.529607710792e-08 -1.123974766520e-03 0.000000000000e+00 8.137453457059e+06 6.694727541153e+07  2.098516592410e-03
9.000000000000e-02 1.171517363113e+05 1.000000000000e+00 3.475240661445e+01 -1.434280064826e-03 8.831843298652e-05 2.912842526824e+07 2.088756201573e+03 -4.812658785850e+07 -6.085542172779e+06 1.304416353238e-03 4.466653558976e-08 -1.118963887771e-03 0.000000000000e+00 8.361234921014e+06 6.699182825045e+07  2.100756293483e-03
1.000000000000e-01 1.102703160861e+05 1.000000000000e+00 3.535333117252e+01 -1.428688620142e-03 9.385837305058e-05 2.899659458791e+07 2.082872156970e+03 -4.830312735341e+07 -6.387990104838e+06 1.310753565446e-03 4.422943513351e-08 -1.114287288677e-03 0.000000000000e+00 8.564840956778e+06 6.702311020342e+07  2.102443129664e-03
2.000000000000e-01 1.323288196601e+05 1.000000000000e+00 3.882851231477e+01 -1.391880928210e-03 1.886880048015e-04 2.811749837152e+07 2.040221999684e+03 -4.895709431334e+07 -8.062943125194e+06 1.340313961021e-03 4.106113773509e-08 -1.076364949290e-03 0.000000000000e+00 9.634179689006e+06 6.679015200914e+07  2.097062228909e-03
3.000000000000e-01 1.634812514515e+05 1.000000000000e+00 4.114283855407e+01 -1.360635450537e-03 2.983608902244e-04 2.736299888661e+07 2.020956249647e+03 -4.905347427081e+07 -9.127698754385e+06 1.351837760666e-03 3.962996773237e-08 -1.040396710055e-03 0.000000000000e+00 1.027272471286e+07 6.620089107874e+07  2.077579892301e-03
4.000000000000e-01 1.951057524480e+05 1.000000000000e+00 4.283441461058e+01 -1.334828064063e-03 4.037941984871e-04 2.671768688605e+07 2.032911251546e+03 -4.895444968400e+07 -9.883386362820e+06 1.355937426102e-03 4.051805358773e-08 -1.008650257088e-03 0.000000000000e+00 1.070671638692e+07 6.554562849607e+07  2.055141913101e-03
5.000000000000e-01 2.250539193533e+05 1.000000000000e+00 4.415040919333e+01 -1.312365825533e-03 5.062192945107e-04 2.613610379407e+07 2.070244809178e+03 -4.873991577432e+07 -1.045396028382e+07 1.355528514037e-03 4.329140358324e-08 -9.794891090917e-04 0.000000000000e+00 1.101925742136e+07 6.485007906382e+07  2.030906666832e-03
6.000000000000e-01 2.527631152710e+05 1.000000000000e+00 4.521803575671e+01 -1.292775203252e-03 6.060907132632e-04 2.561012896340e+07 2.130185293204e+03 -4.845951500242e+07 -1.090122871186e+07 1.352605133368e-03 4.774412525372e-08 -9.524613959508e-04 0.000000000000e+00 1.125020491696e+07 6.414832925658e+07  2.006247127830e-03
7.000000000000e-01 2.783761873711e+05 1.000000000000e+00 4.611200686447e+01 -1.275822119443e-03 7.035864893854e-04 2.513486923654e+07 2.221453223777e+03 -4.814686655059e+07 -1.126286276103e+07 1.348384751054e-03 5.452402866776e-08 -9.274166173424e-04 0.000000000000e+00 1.142495335836e+07 6.346431067813e+07  1.982109344263e-03
8.000000000000e-01 3.021552404606e+05 1.000000000000e+00 4.687762352566e+01 -1.261739061639e-03 7.988769420306e-04 2.472004325499e+07 2.325641467793e+03 -4.783540794161e+07 -1.156182739368e+07 1.344081329523e-03 6.226372679465e-08 -9.047437540817e-04 0.000000000000e+00 1.155906402677e+07 6.283486418513e+07  1.959889047986e-03
9.000000000000e-01 3.242066392019e+05 1.000000000000e+00 4.754491137781e+01 -1.249223872715e-03 8.919238972938e-04 2.433407506065e+07 2.438188226608e+03 -4.751145146314e+07 -1.181398524038e+07 1.339111230896e-03 7.062434316376e-08 -8.833452220043e-04 0.000000000000e+00 1.166378721429e+07 6.222045915695e+07  1.938147360873e-03
1.000000000000e+00 3.447023617940e+05 1.000000000000e+00 4.813450176080e+01 -1.238234464591e-03 9.827871907041e-04 2.397973637730e+07 2.557694694608e+03 -4.718323279487e+07 -1.202819353105e+07 1.333906387740e-03 7.950196650091e-08 -8.631979349580e-04 0.000000000000e+00 1.174389664954e+07 6.163041466101e+07  1.917248597458e-03
2.000000000000e+00 4.796085427425e+05 1.000000000000e+00 5.134024693470e+01 -1.177865021327e-03 1.736041183374e-03 2.148253304412e+07 3.323151030805e+03 -4.402469040934e+07 -1.295227974047e+07 1.275476323142e-03 1.363644371898e-07 -7.115574442884e-04 0.000000000000e+00 1.183147903523e+07 5.675582537117e+07  1.743768498382e-03
3.000000000000e+00 5.833220838915e+05 1.000000000000e+00 5.340425538575e+01 -1.136588439833e-03 2.378737815190e-03 1.948005667058e+07 4.327629489120e+03 -4.110431667400e+07 -1.339990419374e+07 1.217724680390e-03 2.109828369504e-07 -5.864603687114e-04 0.000000000000e+00 1.167472139906e+07 5.253138444417e+07  1.594031542941e-03
4.000000000000e+00 6.697140086513e+05 1.000000000000e+00 5.490878737857e+01 -1.104766887081e-03 2.939074449685e-03 1.779233080903e+07 5.221326802922e+03 -3.847414792122e+07 -1.364436482503e+07 1.164117686123e-03 2.773717802614e-07 -4.796884201602e-04 0.000000000000e+00 1.144206064574e+07 4.884004890081e+07  1.464132839643e-03
5.000000000000e+00 7.455226978264e+05 1.000000000000e+00 5.611567457007e+01 -1.078758376279e-03 3.436395544983e-03 1.633785322903e+07 6.099654349386e+03 -3.613536364777e+07 -1.380205103400e+07 1.115951149485e-03 3.426189694273e-07 -3.869623736705e-04 0.000000000000e+00 1.119985381758e+07 4.561046696716e+07  1.351635418499e-03
6.000000000000e+00 8.142013544012e+05 1.000000000000e+00 5.716990259263e+01 -1.055319013243e-03 3.885136735225e-03 1.503085875543e+07 6.841839122860e+03 -3.403308923755e+07 -1.393292681185e+07 1.072266740786e-03 3.977526954568e-07 -3.040167952564e-04 0.000000000000e+00 1.097838576465e+07 4.272112286358e+07  1.252265845581e-03
7.000000000000e+00 8.779417004956e+05 1.000000000000e+00 5.804439800794e+01 -1.035348600310e-03 4.292354928871e-03 1.388246260654e+07 7.404162190371e+03 -3.213217732363e+07 -1.401375866933e+07 1.032614352819e-03 4.395252661862e-07 -2.304091694614e-04 0.000000000000e+00 1.075449112881e+07 4.014862184956e+07  1.165034412356e-03
8.000000000000e+00 9.374371718011e+05 1.000000000000e+00 5.888785281134e+01 -1.017331519205e-03 4.667778244144e-03 1.284014529174e+07 7.765504086337e+03 -3.042728676802e+07 -1.411057611221e+07 9.974957861475e-04 4.663678070294e-07 -1.634885866601e-04 0.000000000000e+00 1.056590586283e+07 3.784605309462e+07  1.088488029389e-03
9.000000000000e+00 9.937703155433e+05 1.000000000000e+00 5.965317844942e+01 -1.000787450036e-03 5.015893039726e-03 1.188386774679e+07 8.095502346818e+03 -2.886095321537e+07 -1.419579009068e+07 9.651419965355e-04 4.908819635222e-07 -1.021453926471e-04 0.000000000000e+00 1.039095851975e+07 3.574462470676e+07  1.020057981591e-03
1.000000000000e+01 1.047436495103e+06 1.000000000000e+00 6.034406420573e+01 -9.851144949788e-04 5.340063607371e-03 1.099279610640e+07 8.383178569318e+03 -2.740121094586e+07 -1.426735795963e+07 9.347032850247e-04 5.122521971936e-07 -4.526815893299e-05 0.000000000000e+00 1.022525759970e+07 3.379847390710e+07  9.581401365760e-04
1.100000000000e+01 1.098728747000e+06 1.000000000000e+00 6.099305099283e+01 -9.710015924272e-04 5.643903446663e-03 1.017476099890e+07 8.387951897600e+03 -2.605692224310e+07 -1.433694795919e+07 9.069038953014e-04 5.126067872946e-07 7.247335724529e-06 0.000000000000e+00 1.007303640113e+07 3.202278068779e+07  9.033024689914e-04
1.200000000000e+01 1.148046967535e+06 1.000000000000e+00 6.158495237055e+01 -9.581653139681e-04 5.929384765531e-03 9.418694366841e+06 8.513627365921e+03 -2.480498678528e+07 -1.439567191737e+07 8.810025959859e-04 5.219426792270e-07 5.592897117618e-05 0.000000000000e+00 9.927321445270e+06 3.038699280968e+07  8.544125891080e-04
1.300000000000e+01 1.195651368083e+06 1.000000000000e+00 6.212186572654e+01 -9.463275075640e-04 6.198102835612e-03 8.715722503628e+06 8.608237013022e+03 -2.362713624088e+07 -1.444144714463e+07 8.565924352219e-04 5.289708244402e-07 1.013779284090e-04 0.000000000000e+00 9.784286960630e+06 2.886773585397e+07  8.106721638891e-04
1.400000000000e+01 1.242259551708e+06 1.000000000000e+00 6.260772768483e+01 -9.355284221459e-04 6.451599662992e-03 8.064470847336e+06 8.612051404052e+03 -2.251743698884e+07 -1.447428428687e+07 8.336227532715e-04 5.292541792025e-07 1.438149944823e-04 0.000000000000e+00 9.642416809461e+06 2.745852618307e+07  7.718309634096e-04
1.500000000000e+01 1.287424555555e+06 1.000000000000e+00 6.304640614474e+01 -9.256665451446e-04 6.690803849347e-03 7.459701904145e+06 8.581729403288e+03 -2.147265118856e+07 -1.449613640833e+07 8.119715570357e-04 5.270016877172e-07 1.834329744326e-04 0.000000000000e+00 9.503028564251e+06 2.615159738754e+07  7.375662281279e-04
1.600000000000e+01 1.331285541316e+06 1.000000000000e+00 6.344141475302e+01 -9.163806967103e-04 6.916732382677e-03 6.892113311500e+06 8.554690071763e+03 -2.048146421808e+07 -1.450762981938e+07 7.913165931478e-04 5.249930516610e-07 2.206753886038e-04 0.000000000000e+00 9.365660241987e+06 2.492938917578e+07  7.072879950049e-04
1.700000000000e+01 1.373981454982e+06 1.000000000000e+00 6.379585165581e+01 -9.072357454880e-04 7.130268935884e-03 6.349937095270e+06 8.503823202891e+03 -1.953154705503e+07 -1.450968043447e+07 7.712547851056e-04 5.212143699734e-07 2.560341917918e-04 0.000000000000e+00 9.230430131412e+06 2.377177363549e+07  6.803827381246e-04
1.800000000000e+01 1.415647029235e+06 1.000000000000e+00 6.411243622563e+01 -8.981667094314e-04 7.332207223821e-03 5.830550791164e+06 8.414460408098e+03 -1.861855717232e+07 -1.450272399272e+07 7.517049116880e-04 5.145759909316e-07 2.896868624560e-04 0.000000000000e+00 9.096910124627e+06 2.267312783041e+07  6.566738227927e-04
1.900000000000e+01 1.456374282014e+06 1.000000000000e+00 6.439355789026e+01 -8.891415303958e-04 7.523233436810e-03 5.331966101303e+06 8.311073926482e+03 -1.773977445250e+07 -1.448737716758e+07 7.326160268449e-04 5.068958522973e-07 3.217573385439e-04 0.000000000000e+00 8.965061839592e+06 2.162972586898e+07  6.360268984523e-04
2.000000000000e+01 1.496247460135e+06 1.000000000000e+00 6.464132388855e+01 -8.807965461326e-04 7.703973064443e-03 4.866200999870e+06 7.997654369418e+03 -1.690745401886e+07 -1.446444875589e+07 7.144645535005e-04 4.836132566296e-07 3.518204707880e-04 0.000000000000e+00 8.835233924961e+06 2.066076875802e+07  6.187686869466e-04
2.100000000000e+01 1.535192806225e+06 1.000000000000e+00 6.490430940938e+01 -8.727597677161e-04 7.876690916093e-03 4.422057659561e+06 7.859639707940e+03 -1.612559345252e+07 -1.445543907630e+07 6.976331556183e-04 4.733607389199e-07 3.805263608670e-04 0.000000000000e+00 8.719658289753e+06 1.976557152627e+07  6.050001631539e-04
2.200000000000e+01 1.573367391864e+06 1.000000000000e+00 6.515088863720e+01 -8.647715811975e-04 8.041797153876e-03 3.992797062540e+06 7.700315233256e+03 -1.537131378075e+07 -1.444449407123e+07 6.812826618264e-04 4.615252065148e-07 4.081359342019e-04 0.000000000000e+00 8.607670263144e+06 1.891774092810e+07  5.938566405022e-04
2.300000000000e+01 1.610838576131e+06 1.000000000000e+00 6.537661451534e+01 -8.575422045716e-04 8.199577762189e-03 3.592643481545e+06 7.463131073563e+03 -1.465583837807e+07 -1.442915925173e+07 6.658502355225e-04 4.439058117947e-07 4.341411558630e-04 0.000000000000e+00 8.497451382751e+06 1.813620938281e+07  5.854593748802e-04
2.400000000000e+01 1.647648378482e+06 1.000000000000e+00 6.558092359377e+01 -8.507088526893e-04 8.350294658775e-03 3.213944722290e+06 7.270928992194e+03 -1.396907342174e+07 -1.440850527897e+07 6.510171340475e-04 4.296279428930e-07 4.588824209669e-04 0.000000000000e+00 8.387877992804e+06 1.740689912277e+07  5.793588009807e-04
2.500000000000e+01 1.683854202719e+06 1.000000000000e+00 6.576416191171e+01 -8.441354094369e-04 8.494208809261e-03 2.853181881800e+06 7.094799415262e+03 -1.330723046526e+07 -1.438257238114e+07 6.366541494813e-04 4.165440314638e-07 4.825019374311e-04 0.000000000000e+00 8.278873654864e+06 1.672403681072e+07  5.752827875098e-04
2.600000000000e+01 1.719493175218e+06 1.000000000000e+00 6.592693399654e+01 -8.376582990215e-04 8.631564611893e-03 2.506057878154e+06 6.918290146362e+03 -1.266687602884e+07 -1.435183127008e+07 6.226191595066e-04 4.034319143455e-07 5.051447180872e-04 0.000000000000e+00 8.170883140256e+06 1.608175536472e+07  5.729864854108e-04
2.700000000000e+01 1.754594732155e+06 1.000000000000e+00 6.606991878478e+01 -8.312345366799e-04 8.762600205291e-03 2.171232863528e+06 6.742741442221e+03 -1.204620460054e+07 -1.431637985407e+07 6.088660349403e-04 3.903911534664e-07 5.268814614010e-04 0.000000000000e+00 8.063783863694e+06 1.547790149922e+07  5.722955126514e-04
2.800000000000e+01 1.789200920037e+06 1.000000000000e+00 6.619379701274e+01 -8.247674566139e-04 8.887536876362e-03 1.846184415274e+06 6.556455544885e+03 -1.144215976183e+07 -1.427629615412e+07 5.953039837213e-04 3.765527725215e-07 5.478285894120e-04 0.000000000000e+00 7.957423833560e+06 1.490884062717e+07  5.730435237520e-04
2.900000000000e+01 1.823338912299e+06 1.000000000000e+00 6.629922530560e+01 -8.182109230737e-04 9.006578882219e-03 1.529385809123e+06 6.358752158605e+03 -1.085369772765e+07 -1.423195487255e+07 5.818902164629e-04 3.618662352550e-07 5.680387887947e-04 0.000000000000e+00 7.852088930357e+06 1.437312565001e+07  5.750899657106e-04
3.000000000000e+01 1.857014513206e+06 1.000000000000e+00 6.638683103109e+01 -8.115912633296e-04 9.119930943616e-03 1.221413158856e+06 6.182734984806e+03 -1.028018525586e+07 -1.418321277744e+07 5.686408116347e-04 3.487906737728e-07 5.875302599284e-04 0.000000000000e+00 7.747328291482e+06 1.387124939438e+07  5.783172659426e-04
3.100000000000e+01 1.890151113501e+06 1.000000000000e+00 6.649419011281e+01 -8.048046393471e-04 9.229141327215e-03 9.170907228710e+05 5.979527774582e+03 -9.731268712428e+06 -1.414762080558e+07 5.560154193434e-04 3.336952810132e-07 6.065966011584e-04 0.000000000000e+00 7.653932931713e+06 1.341337900080e+07  5.829544180953e-04
3.200000000000e+01 1.922830080027e+06 1.000000000000e+00 6.659549683178e+01 -7.977773699347e-04 9.334317586034e-03 6.148136431985e+05 5.770367962364e+03 -9.191910401995e+06 -1.411216228602e+07 5.434709542289e-04 3.181576949628e-07 6.253128791050e-04 0.000000000000e+00 7.563086348272e+06 1.298585258856e+07  5.886746057366e-04
3.300000000000e+01 1.955077262852e+06 1.000000000000e+00 6.668654149222e+01 -7.905069127571e-04 9.435517233150e-03 3.139097229986e+05 5.562357324094e+03 -8.659314888574e+06 -1.407472867640e+07 5.309041316926e-04 3.027054761198e-07 6.437046069603e-04 0.000000000000e+00 7.473377947324e+06 1.258726672178e+07  5.953735445392e-04
3.400000000000e+01 1.986915457134e+06 1.000000000000e+00 6.676628760819e+01 -7.830352023313e-04 9.532768673995e-03 1.539175350051e+04 5.370155650891e+03 -8.134093715253e+06 -1.403483701067e+07 5.183346309555e-04 2.884276375391e-07 6.617311315279e-04 0.000000000000e+00 7.384512990806e+06 1.221969693161e+07  6.029601709899e-04
3.500000000000e+01 2.018386078475e+06 1.000000000000e+00 6.683449111677e+01 -7.750301565852e-04 9.626133149806e-03 -2.880408434091e+05 5.152439210703e+03 -7.608768440720e+06 -1.399234854389e+07 5.054861343042e-04 2.722544162680e-07 6.796650701016e-04 0.000000000000e+00 7.296385942672e+06 1.187752828502e+07  6.114734605444e-04
3.600000000000e+01 2.049530889919e+06 1.000000000000e+00 6.689117748563e+01 -7.661243693669e-04 9.715661742641e-03 -6.041164200145e+05 4.966024876996e+03 -7.075464350978e+06 -1.394722831064e+07 4.920702899382e-04 2.584064943354e-07 6.977976133428e-04 0.000000000000e+00 7.208936360543e+06 1.155721131707e+07  6.210389728775e-04
3.700000000000e+01 2.080435745441e+06 1.000000000000e+00 6.693649239167e+01 -7.549624971199e-04 9.801409614447e-03 -9.624042133541e+05 5.155891374324e+03 -6.505443790458e+06 -1.389977674620e+07 4.769999709349e-04 2.725108627083e-07 7.172073189115e-04 0.000000000000e+00 7.122541583336e+06 1.124226879163e+07  6.323034580670e-04
3.800000000000e+01 2.113302048560e+06 1.000000000000e+00 6.697096005175e+01 -6.994008229520e-04 9.883199816529e-03 -2.272297262242e+06 1.739767190607e+04 -5.009976455881e+06 -1.385637587558e+07 4.267347682104e-04 1.181900273638e-06 7.711412161441e-04 0.000000000000e+00 7.046216531233e+06 1.048680989276e+07  6.690984682181e-04
3.900000000000e+01 2.143157947788e+06 1.000000000000e+00 6.699389716341e+01 -7.022491789854e-04 9.962027675706e-03 -2.313448542475e+06 2.801680990781e+03 -4.750889744562e+06 -1.379923159149e+07 4.230837901071e-04 9.762666278806e-08 7.786419348699e-04 0.000000000000e+00 6.954523292842e+06 1.048181446931e+07  6.751684262768e-04
4.000000000000e+01 2.172544101843e+06 1.000000000000e+00 6.700587685751e+01 -7.076934208507e-04 1.003697017146e-02 -2.295875095852e+06 2.803061947868e+03 -4.563756288930e+06 -1.374222081684e+07 4.216189750659e-04 9.772924817163e-08 7.834750630205e-04 0.000000000000e+00 6.867284067206e+06 1.049777056577e+07  6.791669972130e-04
4.200000000000e+01 2.229827605392e+06 1.000000000000e+00 6.705899310480e+01 -7.176505540207e-04 1.017731565817e-02 -2.264463170437e+06 2.801355129571e+03 -4.224411380571e+06 -1.364992450244e+07 4.193575549038e-04 9.760245595527e-08 7.926511536535e-04 0.000000000000e+00 6.712933017816e+06 1.054301833976e+07  6.868423320778e-04
4.400000000000e+01 2.285593809495e+06 1.000000000000e+00 6.709089078090e+01 -7.268219871456e-04 1.030815507705e-02 -2.233803048152e+06 2.801774868468e+03 -3.897706156607e+06 -1.355421719845e+07 4.169415167260e-04 9.763363655911e-08 8.012310763952e-04 0.000000000000e+00 6.561908801068e+06 1.058698735924e+07  6.940785218604e-04
5.000000000000e+01 2.437116678573e+06 1.000000000000e+00 6.687731638316e+01 -7.459655327575e-04 1.058185505855e-02 -2.151869578574e+06 2.801948838862e+03 -3.077766898269e+06 -1.320991764395e+07 4.071964907148e-04 9.764656007409e-08 8.188976939665e-04 0.000000000000e+00 6.146518040265e+06 1.062539972663e+07  7.091898029449e-04
6.500000000000e+01 2.768502507756e+06 1.000000000000e+00 6.609227658981e+01 -7.721162273607e-04 1.104619376855e-02 -1.975366549880e+06 2.801004685373e+03 -1.400358237564e+06 -1.238092254111e+07 3.829610708179e-04 9.757642295774e-08 8.504101975443e-04 0.000000000000e+00 5.252215776184e+06 1.070465014711e+07  7.376874097656e-04
8.000000000000e+01 3.023556374630e+06 1.000000000000e+00 6.508884968109e+01 -7.814365846382e-04 1.126655944214e-02 -1.846024996397e+06 2.801669679254e+03 -2.543876407168e+05 -1.164862234415e+07 3.605654640601e-04 9.762582250320e-08 8.657750981114e-04 0.000000000000e+00 4.583011660420e+06 1.068767645017e+07  7.532631697839e-04
1.000000000000e+02 3.324236305531e+06 1.000000000000e+00 6.398428875965e+01 -7.858543316910e-04 1.145104441548e-02 -1.715842096424e+06 2.801343003375e+03 8.708464227580e+05 -1.088681543146e+07 3.371051435878e-04 9.760155515216e-08 8.792738208549e-04 0.000000000000e+00 3.910603701708e+06 1.070141039234e+07  7.683453851101e-04
1.860000000000e+02 3.922717201764e+06 1.000000000000e+00 6.134131221386e+01 -7.782857924208e-04 1.167037117460e-02 -1.446564543104e+06 2.802576964796e+03 3.099388782594e+06 -9.215099548363e+06 2.850145770533e-04 9.769322085772e-08 8.999559471338e-04 0.000000000000e+00 2.520758436291e+06 1.078569649460e+07  7.966514174389e-04
2.720000000000e+02 4.213038211969e+06 1.000000000000e+00 5.933681595054e+01 -7.555791819703e-04 1.150228257136e-02 -1.345227681319e+06 2.802826020567e+03 3.753081664331e+06 -8.288314205818e+06 2.543550620536e-04 9.771172214360e-08 8.898125128752e-04 0.000000000000e+00 1.960153407602e+06 1.046886981262e+07  7.938101267784e-04
3.580000000000e+02 4.354403691727e+06 1.000000000000e+00 5.793077727829e+01 -7.356867718137e-04 1.132638874294e-02 -1.288773620145e+06 2.803397349578e+03 4.059021803588e+06 -7.688231279038e+06 2.341631327597e-04 9.775416372727e-08 8.788872093387e-04 0.000000000000e+00 1.639327698532e+06 1.018700094148e+07  7.883350467089e-04
4.440000000000e+02 4.426532453839e+06 1.000000000000e+00 5.685962552591e+01 -7.189770728303e-04 1.116179979153e-02 -1.255229430743e+06 2.803698197129e+03 4.196846003051e+06 -7.262421516989e+06 2.195932686328e-04 9.777651240245e-08 8.681906027284e-04 0.000000000000e+00 1.440268314893e+06 9.927898633574e+06  7.818742499443e-04
5.300000000000e+02 4.465496889446e+06 1.000000000000e+00 5.603562150135e+01 -7.053077043048e-04 1.101915308078e-02 -1.234402076613e+06 2.804406764528e+03 4.252789774746e+06 -6.951341272278e+06 2.088124469826e-04 9.782914883782e-08 8.587141051592e-04 0.000000000000e+00 1.310984524715e+06 9.703743295441e+06  7.756818855491e-04
6.160000000000e+02 4.488012314786e+06 1.000000000000e+00 5.540773413179e+01 -6.944094696369e-04 1.090092954540e-02 -1.221507218099e+06 2.804931919276e+03 4.265485607388e+06 -6.724151248694e+06 2.008529122800e-04 9.786816033335e-08 8.507471780671e-04 0.000000000000e+00 1.226724286468e+06 9.517309153033e+06  7.702192115016e-04
7.020000000000e+02 4.501822576458e+06 1.000000000000e+00 5.494614336095e+01 -6.862058751956e-04 1.081024111756e-02 -1.213250908868e+06 2.805778627742e+03 4.262531947966e+06 -6.561177498610e+06 1.951062644769e-04 9.793105867658e-08 8.445841599997e-04 0.000000000000e+00 1.170632153171e+06 9.373826596506e+06  7.659015772526e-04
7.880000000000e+02 4.511441113274e+06 1.000000000000e+00 5.458452954715e+01 -6.793345267057e-04 1.072852090369e-02 -1.210416227775e+06 2.804584654726e+03 4.224149083439e+06 -6.445393233109e+06 1.909109941989e-04 9.784236353827e-08 8.388579523129e-04 0.000000000000e+00 1.143886792482e+06 9.240634848510e+06  7.615658178492e-04
8.740000000000e+02 4.519827167133e+06 1.000000000000e+00 5.400168344939e+01 -6.689805477228e-04 1.061299417812e-02 -1.199870918073e+06 2.805990282628e+03 4.221581474622e+06 -6.239224058752e+06 1.836449649403e-04 9.794678161097e-08 8.311048717950e-04 0.000000000000e+00 1.072504500734e+06 9.061338912415e+06  7.561961285325e-04
9.370000000000e+02 4.525201002277e+06 1.000000000000e+00 5.359758949594e+01 -6.609159158460e-04 1.051803751223e-02 -1.196695689695e+06 2.806118155726e+03 4.177443216082e+06 -6.110195248673e+06 1.789704033343e-04 9.795628075539e-08 8.246729521035e-04 0.000000000000e+00 1.043149240762e+06 8.912334130910e+06  7.513480292981e-04
1.000000000000e+03 4.529391016052e+06 1.000000000000e+00 5.327744951566e+01 -6.540790110907e-04 1.043853717645e-02 -1.194681376987e+06 2.805403855150e+03 4.136174740686e+06 -6.009996441960e+06 1.753235506998e-04 9.790321842686e-08 8.194184530537e-04 0.000000000000e+00 1.022834359420e+06 8.790623499263e+06  7.473430435160e-04
1.100000000000e+03 4.533536316160e+06 1.000000000000e+00 5.295519145957e+01 -6.469067204010e-04 1.035536363992e-02 -1.193168878253e+06 2.806825450316e+03 4.088715998953e+06 -5.911053042242e+06 1.717046886632e-04 9.800882263923e-08 8.139806592284e-04 0.000000000000e+00 1.005168640514e+06 8.664645606941e+06  7.431572827157e-04
1.200000000000e+03 4.536797682874e+06 1.000000000000e+00 5.267850939785e+01 -6.409703903027e-04 1.028624553191e-02 -1.191480487944e+06 2.805812650924e+03 4.052453356821e+06 -5.824649564258e+06 1.685581282639e-04 9.793358611294e-08 8.094244890527e-04 0.000000000000e+00 9.878922317937e+05 8.559272959986e+06  7.396923671428e-04
1.300000000000e+03 4.539703052077e+06 1.000000000000e+00 5.241293296211e+01 -6.353375041464e-04 1.022045717962e-02 -1.189778730017e+06 2.806564248275e+03 4.018635191539e+06 -5.741395685046e+06 1.655290494733e-04 9.798941905902e-08 8.050760988286e-04 0.000000000000e+00 9.708464078412e+05 8.458813228115e+06  7.363993064483e-04
1.400000000000e+03 4.542442562524e+06 1.000000000000e+00 5.214105380058e+01 -6.295349219738e-04 1.015247888955e-02 -1.188165052002e+06 2.808241047287e+03 3.982663046472e+06 -5.656608461142e+06 1.624397463402e-04 9.811398127132e-08 8.005907508382e-04 0.000000000000e+00 9.540368222240e+05 8.355239441197e+06  7.329969248976e-04
1.500000000000e+03 4.545082446453e+06 1.000000000000e+00 5.185280185966e+01 -6.232874767494e-04 1.007909384190e-02 -1.186713763891e+06 2.807058141907e+03 3.941744715917e+06 -5.567623332118e+06 1.591884893921e-04 9.802610830025e-08 7.957657651967e-04 0.000000000000e+00 9.375307933640e+05 8.243833543156e+06  7.293198248847e-04
1.600000000000e+03 4.547643486991e+06 1.000000000000e+00 5.154203532847e+01 -6.164303248366e-04 9.998324775853e-03 -1.185464503900e+06 2.807265113135e+03 3.894199294942e+06 -5.472806829046e+06 1.557131346491e-04 9.804148330579e-08 7.904780365893e-04 0.000000000000e+00 9.213573460014e+05 8.121734406317e+06  7.252684485900e-04
1.700000000000e+03 4.550130771773e+06 1.000000000000e+00 5.120496310407e+01 -6.088589152817e-04 9.908952112323e-03 -1.184452758495e+06 2.807114346756e+03 3.838910965908e+06 -5.371177458284e+06 1.519759085643e-04 9.803028351763e-08 7.846496648826e-04 0.000000000000e+00 9.055730836237e+05 7.987134119327e+06  7.207801027282e-04
1.800000000000e+03 4.552544175197e+06 1.000000000000e+00 5.083929706477e+01 -6.005121665912e-04 9.810238530435e-03 -1.183694141622e+06 2.807920958796e+03 3.775250636959e+06 -5.262127789729e+06 1.479536695019e-04 9.809020326916e-08 7.782347221181e-04 0.000000000000e+00 8.901904314641e+05 7.838973481033e+06  7.158190532692e-04
1.900000000000e+03 4.554883463306e+06 1.000000000000e+00 5.044375052886e+01 -5.913544024885e-04 9.701766110280e-03 -1.183202178606e+06 2.808417735287e+03 3.702817404721e+06 -5.145331813878e+06 1.436338061680e-04 9.812710666564e-08 7.712062086748e-04 0.000000000000e+00 8.752388625878e+05 7.676635022365e+06  7.103649993963e-04
2.000000000000e+03 4.557147803229e+06 1.000000000000e+00 5.001772135123e+01 -5.813697606307e-04 9.583347990172e-03 -1.182981213240e+06 2.808756403791e+03 3.621456500042e+06 -5.020626514171e+06 1.390101023211e-04 9.815226489738e-08 7.635523210834e-04 0.000000000000e+00 8.607170757900e+05 7.499859643880e+06  7.044107453747e-04