 TITLE = "Time curves in points"
 VARIABLES = "TIME"  "PRESSURE1"  "SATURATION1"  "TEMPERATURE1"  "DISPLACEMENT_X1"  "DISPLACEMENT_Y1"  "STRESS_XX"  "STRESS_XY"  "STRESS_YY"  "STRESS_ZZ"  "STRAIN_XX"  "STRAIN_XY"  "STRAIN_YY"  "STRAIN_PLS"  p_(1st_Invariant)  q_(2nd_Invariant)   Effective_Strain
 ZONE T="POINT=POINT1"
0.000000000000e+00 -7.000000000000e+07 6.684759947500e-01 2.500000000000e+01 0.000000000000e+00 0.000000000000e+00 0.000000000000e+00 0.000000000000e+00 0.000000000000e+00 0.000000000000e+00 0.000000000000e+00 0.000000000000e+00 0.000000000000e+00 0.000000000000e+00 -0.000000000000e+00 0.000000000000e+00  0.000000000000e+00
1.000000000000e-03 -7.000000000000e+07 6.684759947500e-01 3.310906251120e+01 7.112439638578e-05 6.366685890938e-05 1.891221378486e+07 -1.115694050652e+02 3.016347860518e+07 1.470467842356e+07 -1.745157378134e-04 -3.222802609680e-07 1.477305534531e-04 0.000000000000e+00 -2.126012360453e+07 1.384320802782e+07  2.793951991271e-04
2.000000000000e-03 -7.015907471057e+07 6.678662381927e-01 3.680326491090e+01 7.108743460555e-05 6.348712181613e-05 1.883646674631e+07 -1.718756057305e+02 3.009518277993e+07 1.465555479971e+07 -2.004765713073e-04 -4.943254476505e-07 1.478941436181e-04 0.000000000000e+00 -2.119573477531e+07 1.383150070990e+07  3.028424957987e-04
3.000000000000e-03 -7.037130643829e+07 6.670521895367e-01 3.937002963826e+01 7.104815275997e-05 6.315959076758e-05 1.874409231738e+07 -1.880120684252e+02 3.001686444415e+07 1.459943185858e+07 -2.470591419484e-04 -5.386253020750e-07 1.482837348093e-04 0.000000000000e+00 -2.112012954004e+07 1.381938546903e+07  3.459219684666e-04
4.000000000000e-03 -7.061820310675e+07 6.661049303527e-01 4.139950482367e+01 7.100762833927e-05 6.274470542585e-05 1.864126291465e+07 -2.131736212202e+02 2.993209726647e+07 1.453864968842e+07 -3.053429690813e-04 -6.134482728980e-07 1.488021969893e-04 0.000000000000e+00 -2.103733662318e+07 1.380711056403e+07  4.010152817376e-04
1.000000000000e-02 -7.212935243525e+07 6.602938370899e-01 4.814735807511e+01 7.078354442356e-05 6.002176220349e-05 1.803926694500e+07 -2.315783228081e+02 2.945899446509e+07 1.419561434489e+07 -6.888985591254e-04 -6.679132489951e-07 1.522637340880e-04 0.000000000000e+00 -2.056462525166e+07 1.375053844325e+07  7.763124852971e-04
2.000000000000e-02 -7.524730940055e+07 6.482622408616e-01 5.436284697329e+01 7.039546484293e-05 5.817854215206e-05 1.689319105392e+07 -2.119595298816e+02 2.861911083342e+07 1.356824438702e+07 -1.485769928323e-03 -6.073731930164e-07 1.592808268222e-04 0.000000000000e+00 -1.969351542479e+07 1.369454354971e+07  1.571476513047e-03
3.000000000000e-02 -7.893055077024e+07 6.339986410985e-01 5.830141004820e+01 6.998535543213e-05 5.858863714287e-05 1.564209878009e+07 -2.347012624516e+02 2.776634201447e+07 1.290570719817e+07 -2.398858585021e-03 -6.765094654956e-07 1.668234350609e-04 0.000000000000e+00 -1.877138266424e+07 1.369897040602e+07  2.486471349481e-03
4.000000000000e-02 -8.274830792201e+07 6.191580337515e-01 6.102918923515e+01 6.957888721656e-05 6.127823993519e-05 1.443532471270e+07 -2.323190181440e+02 2.700589672789e+07 1.228632376795e+07 -3.310023987549e-03 -6.684966764104e-07 1.737108477370e-04 0.000000000000e+00 -1.790918173618e+07 1.377140723195e+07  3.400209209790e-03
5.000000000000e-02 -8.646459330674e+07 6.110473733131e-01 6.303909276829e+01 6.912785242410e-05 6.493685702107e-05 1.290955628063e+07 -2.135902704280e+02 2.591540955354e+07 1.146216689431e+07 -4.400444922381e-03 -6.113399746526e-07 1.842434854457e-04 0.000000000000e+00 -1.676237757616e+07 1.378664895891e+07  4.495399382486e-03
6.000000000000e-02 -8.999223956686e+07 6.035635923876e-01 6.459150071785e+01 6.868314052114e-05 7.096515866035e-05 1.145825972023e+07 -2.218935131282e+02 2.497365428239e+07 1.070581240138e+07 -5.470298006689e-03 -6.361116284592e-07 1.932763781061e-04 0.000000000000e+00 -1.571257546800e+07 1.390689360309e+07  5.569452095146e-03
7.000000000000e-02 -9.331717808832e+07 5.965377192733e-01 6.584443884672e+01 6.825053249875e-05 7.701143057940e-05 1.009780825476e+07 -2.311998660988e+02 2.416928888078e+07 1.001938079739e+07 -6.501535290330e-03 -6.636891298296e-07 2.009892267512e-04 0.000000000000e+00 -1.476215931098e+07 1.411085782232e+07  6.604324164729e-03
8.000000000000e-02 -9.644616749832e+07 5.900015872083e-01 6.688978167670e+01 6.783579488141e-05 8.383082574208e-05 8.824647249862e+06 -2.325786332128e+02 2.346631383229e+07 9.391227848897e+06 -7.485710186392e-03 -6.672983054527e-07 2.075653502601e-04 0.000000000000e+00 -1.389406297702e+07 1.436675780492e+07  7.591621418507e-03
9.000000000000e-02 -9.940042925394e+07 5.839014698215e-01 6.778635897997e+01 6.743956549396e-05 9.000324803212e-05 7.638979702852e+06 -2.163345402407e+02 2.282671583208e+07 8.810682969830e+06 -8.406719794829e-03 -6.173987439995e-07 2.134858730107e-04 0.000000000000e+00 -1.309212616825e+07 1.463710003302e+07  8.515470097701e-03
1.000000000000e-01 -1.021958467132e+08 5.772939128518e-01 6.856670098494e+01 6.707521242794e-05 9.565042222809e-05 6.613654746412e+06 -2.644742225566e+02 2.231058488960e+07 8.320103661498e+06 -9.217099909804e-03 -7.633336450908e-07 2.191877084163e-04 0.000000000000e+00 -1.241478109917e+07 1.491709001839e+07  9.328625341085e-03
2.000000000000e-01 -1.187516715383e+08 5.380454143739e-01 7.279261553079e+01 6.478941544336e-05 1.904486943110e-04 1.077850780234e+06 -2.127348091097e+02 1.964096403673e+07 5.709102646673e+06 -1.358215414139e-02 -6.141968620609e-07 2.543872501916e-04 0.000000000000e+00 -8.809305821211e+06 1.673520883776e+07  1.371111782346e-02
3.000000000000e-01 -1.341076682495e+08 5.086722595976e-01 7.558238944071e+01 6.279880923194e-05 3.002633078574e-04 -3.660289002971e+06 -2.204875342740e+02 1.693402723765e+07 3.353660865795e+06 -1.713829350325e-02 -6.355114435390e-07 2.916582879131e-04 0.000000000000e+00 -5.542466366825e+06 1.813487944909e+07  1.728596816245e-02
4.000000000000e-01 -1.471562405977e+08 4.912841607164e-01 7.759060160320e+01 6.098116494153e-05 4.058275724998e-04 -8.083124033107e+06 -2.289307415733e+02 1.434851155055e+07 1.132215103082e+06 -2.043085436979e-02 -6.554738369651e-07 3.246251532258e-04 0.000000000000e+00 -2.465867540174e+06 1.952909678473e+07  2.059508587720e-02
5.000000000000e-01 -1.578188187449e+08 4.765742241596e-01 7.913407279571e+01 5.944398658304e-05 5.083730218118e-04 -1.144314350486e+07 -2.373028183004e+02 1.246455896353e+07 -5.315601476864e+05 -2.295456337652e-02 -6.743819148482e-07 3.461368371597e-04 0.000000000000e+00 -1.632851036600e+05 2.073089483077e+07  2.312957439830e-02
6.000000000000e-01 -1.664470105045e+08 4.628553684482e-01 8.036202926716e+01 5.820877324764e-05 6.083314462431e-04 -1.377057698857e+07 -2.493680001785e+02 1.122338064001e+07 -1.663551386328e+06 -2.472179060889e-02 -7.032496769338e-07 3.615530591469e-04 0.000000000000e+00 1.403582578296e+06 2.164891457206e+07  2.490453557146e-02
7.000000000000e-01 -1.732705738903e+08 4.540722539412e-01 8.135405474006e+01 5.711327700562e-05 7.058077140345e-04 -1.583494613705e+07 -2.517099209409e+02 9.995803762513e+06 -2.705618360219e+06 -2.623981383303e-02 -6.894162985047e-07 3.759755544086e-04 0.000000000000e+00 2.848253578253e+06 2.237110874058e+07  2.642980736950e-02
8.000000000000e-01 -1.785574945229e+08 4.487369201661e-01 8.216210467788e+01 5.614979760972e-05 8.009959417330e-04 -1.763937728899e+07 -2.330570353431e+02 8.843051430388e+06 -3.640581387452e+06 -2.753727649055e-02 -6.237619697176e-07 3.902443419638e-04 0.000000000000e+00 4.145635748684e+06 2.294696500876e+07  2.773445789400e-02
9.000000000000e-01 -1.825455417321e+08 4.447347592060e-01 8.283348462567e+01 5.530186380196e-05 8.939139410344e-04 -1.906708171290e+07 -2.353299793241e+02 7.916541419446e+06 -4.384664940368e+06 -2.855755644543e-02 -6.063676587080e-07 4.004436660997e-04 0.000000000000e+00 5.178401744607e+06 2.339881362238e+07  2.875986924457e-02
1.000000000000e+00 -1.854867374019e+08 4.417945786223e-01 8.339527917161e+01 5.456024203153e-05 9.845293089221e-04 -2.021679557993e+07 -2.081491717219e+02 7.195173143521e+06 -4.977131523906e+06 -2.938861814232e-02 -4.914889267585e-07 4.070465571588e-04 0.000000000000e+00 5.999584653438e+06 2.378895112245e+07  2.959424098999e-02
2.000000000000e+00 -1.860998072911e+08 4.410419393713e-01 8.535753342327e+01 5.057545578548e-05 1.736077082169e-03 -2.352287064832e+07 -1.412232653964e+02 4.595780229786e+06 -6.837635116219e+06 -3.163028776667e-02 -1.995580954498e-07 4.239854997980e-04 0.000000000000e+00 8.588241844917e+06 2.449263765461e+07  3.184439748831e-02
3.000000000000e+00 -1.774891049769e+08 4.495795701855e-01 8.593561658345e+01 4.795071318611e-05 2.373770229676e-03 -2.403068884726e+07 2.334936873513e+02 3.698108330558e+06 -7.273368625392e+06 -3.183828871874e-02 1.064404336164e-06 4.225508431230e-04 0.000000000000e+00 9.201983047365e+06 2.418746866529e+07  3.205165326302e-02
4.000000000000e+00 -1.655179178190e+08 4.640228359022e-01 8.594181032048e+01 4.601103086968e-05 2.928903918828e-03 -2.348157955570e+07 5.500637302055e+02 3.428431041044e+06 -7.176456874894e+06 -3.126183131784e-02 2.245261744373e-06 4.103393005654e-04 0.000000000000e+00 9.076535129850e+06 2.347838735388e+07  3.146900775060e-02
5.000000000000e+00 -1.531383084912e+08 4.825992387004e-01 8.575846034028e+01 4.444168895605e-05 3.420671709440e-03 -2.267424832245e+07 8.130330125657e+02 3.222165879184e+06 -6.976150745513e+06 -3.044719669742e-02 3.505631740462e-06 3.972199325347e-04 0.000000000000e+00 8.809411062925e+06 2.259491316625e+07  3.064773793762e-02
6.000000000000e+00 -1.414940115436e+08 4.976938466234e-01 8.561855106046e+01 4.320345325267e-05 3.864339422582e-03 -2.116388540701e+07 1.025473596690e+03 3.589598538711e+06 -6.372369458387e+06 -2.915948562042e-02 4.655706209124e-06 3.781166218587e-04 0.000000000000e+00 7.982218775561e+06 2.157272263987e+07  2.935037180432e-02
7.000000000000e+00 -1.312343115127e+08 5.110276230506e-01 8.535781862233e+01 4.216618146271e-05 4.267646147351e-03 -1.961497631645e+07 1.440514691226e+03 4.166338979998e+06 -5.695125836211e+06 -2.792480927461e-02 5.768196787610e-06 3.600696979112e-04 0.000000000000e+00 7.047921057553e+06 2.069494739535e+07  2.810657575491e-02
8.000000000000e+00 -1.218124767845e+08 5.294013430437e-01 8.528219644329e+01 4.114481801582e-05 4.640810646146e-03 -1.861205560014e+07 1.472429993499e+03 4.354999049695e+06 -5.315826300499e+06 -2.705657272126e-02 5.965686243076e-06 3.466015115272e-04 0.000000000000e+00 6.524294283649e+06 1.997248343146e+07  2.723152981011e-02
9.000000000000e+00 -1.135309107159e+08 5.485280278307e-01 8.520333284130e+01 4.020367871169e-05 4.986365410629e-03 -1.777329174458e+07 1.341772683763e+03 4.336291609398e+06 -5.051184829888e+06 -2.626456815535e-02 6.237556890566e-06 3.361760398529e-04 0.000000000000e+00 6.162728321692e+06 1.921991682001e+07  2.643426166831e-02
1.000000000000e+01 -1.060027448602e+08 5.654957290928e-01 8.512020154099e+01 3.937708661833e-05 5.308092025903e-03 -1.674301035186e+07 1.365633090066e+03 4.465684780987e+06 -4.677749993104e+06 -2.533395434329e-02 6.919980205441e-06 3.256998475034e-04 0.000000000000e+00 5.651691854658e+06 1.842527703211e+07  2.549836723759e-02
1.100000000000e+01 -9.920712317928e+07 5.774470269866e-01 8.508991988987e+01 3.870945226214e-05 5.611554865153e-03 -1.534696315100e+07 1.223944720771e+03 4.943184752906e+06 -4.078204618383e+06 -2.418070063327e-02 6.876596981068e-06 3.151848014937e-04 0.000000000000e+00 4.827327672159e+06 1.760767582626e+07  2.433982653527e-02
1.200000000000e+01 -9.310164138532e+07 5.881956835387e-01 8.506072826050e+01 3.808755765522e-05 5.895667632448e-03 -1.400924751733e+07 1.394902666026e+03 5.428150404824e+06 -3.495488947729e+06 -2.308474227854e-02 7.206801232855e-06 3.038597475026e-04 0.000000000000e+00 4.025528686746e+06 1.685204599171e+07  2.323816551681e-02
1.300000000000e+01 -8.749469948919e+07 5.980313935091e-01 8.501131504997e+01 3.748981056838e-05 6.163160084264e-03 -1.275616603361e+07 1.648935273291e+03 6.026732024944e+06 -2.908874956232e+06 -2.211530110086e-02 7.746816516068e-06 2.900841514836e-04 0.000000000000e+00 3.212769654966e+06 1.627285299935e+07  2.226176475463e-02
1.400000000000e+01 -8.219117683120e+07 6.142796177226e-01 8.492254073212e+01 3.686479121760e-05 6.416374223883e-03 -1.195529043969e+07 1.764474246229e+03 6.255359702194e+06 -2.584181996312e+06 -2.143212078180e-02 7.633764443635e-06 2.792933535892e-04 0.000000000000e+00 2.761370911268e+06 1.577312537463e+07  2.157312748986e-02
1.500000000000e+01 -7.715797270225e+07 6.332700015334e-01 8.481756001037e+01 3.627884283639e-05 6.655381562074e-03 -1.126446362905e+07 1.542545967841e+03 6.366171998632e+06 -2.331833160868e+06 -2.080680887411e-02 7.406968373586e-06 2.699562797254e-04 0.000000000000e+00 2.410041597094e+06 1.526902923811e+07  2.094309588439e-02
1.600000000000e+01 -7.243873170816e+07 6.510621195969e-01 8.470075219002e+01 3.576446556282e-05 6.880992936170e-03 -1.046060991868e+07 1.465074499068e+03 6.565736326194e+06 -2.015260671563e+06 -2.010656503640e-02 7.473088513779e-06 2.596173689663e-04 0.000000000000e+00 1.970044754681e+06 1.474540458431e+07  2.023762683212e-02
1.700000000000e+01 -6.798215785606e+07 6.678476487847e-01 8.456897411303e+01 3.530007468037e-05 7.094536736752e-03 -9.563250831485e+06 1.301811977711e+03 6.832223805758e+06 -1.647289617560e+06 -1.934262292323e-02 7.284134725760e-06 2.498801474172e-04 0.000000000000e+00 1.459438881096e+06 1.420169336004e+07  1.946876981943e-02
1.800000000000e+01 -6.374879270820e+07 6.837835260982e-01 8.442126094455e+01 3.488150767595e-05 7.296648891749e-03 -8.593344222855e+06 1.174825218138e+03 7.153746649954e+06 -1.238525306684e+06 -1.852775843768e-02 7.309380722225e-06 2.387363745261e-04 0.000000000000e+00 8.927076265285e+05 1.364724274573e+07  1.864827707699e-02
1.900000000000e+01 -5.970229451246e+07 6.990164963757e-01 8.425635540426e+01 3.450734075785e-05 7.488099910147e-03 -7.544392010286e+06 9.580196882128e+02 7.515881566877e+06 -7.909396451518e+05 -1.765255432928e-02 6.985814611582e-06 2.276874040026e-04 0.000000000000e+00 2.731500295202e+05 1.306568488872e+07  1.776749635081e-02
2.000000000000e+01 -5.591167274559e+07 7.132931210343e-01 8.407728787583e+01 3.417305705830e-05 7.671011398293e-03 -6.458988195263e+06 8.077415642229e+02 7.912221192051e+06 -3.204775324678e+05 -1.675212591768e-02 6.600388270644e-06 2.165737667417e-04 0.000000000000e+00 -3.775851547735e+05 1.248980193227e+07  1.686145986160e-02
2.100000000000e+01 -5.230263645346e+07 7.252707748085e-01 8.398894200474e+01 3.389405243290e-05 7.844328139949e-03 -5.259330046909e+06 6.165140586705e+02 8.406987055592e+06 2.179716682692e+05 -1.578142431879e-02 6.354079643971e-06 2.052309010688e-04 0.000000000000e+00 -1.121876225651e+06 1.191278792977e+07  1.588503793853e-02
2.200000000000e+01 -4.892775349576e+07 7.360609168376e-01 8.389868228381e+01 3.363108751620e-05 8.010286838462e-03 -4.067535029990e+06 4.518860230386e+02 8.906716314840e+06 7.559340148195e+05 -1.482172569326e-02 6.040899447937e-06 1.939039763957e-04 0.000000000000e+00 -1.865038433223e+06 1.135852774158e+07  1.491962641304e-02
2.300000000000e+01 -4.578630731372e+07 7.458698453962e-01 8.379980671317e+01 3.338935271783e-05 8.169698398824e-03 -2.902549318547e+06 4.484574115959e+02 9.427855673877e+06 1.291519162840e+06 -1.389539917156e-02 5.725387979374e-06 1.824608585879e-04 0.000000000000e+00 -2.605608506057e+06 1.085884594999e+07  1.398752568918e-02
2.400000000000e+01 -4.273737162208e+07 7.561677636123e-01 8.368692938956e+01 3.317428173437e-05 8.321614189827e-03 -1.741728882061e+06 3.444805896321e+02 9.961636649783e+06 1.828978077409e+06 -1.297615265547e-02 5.359699841238e-06 1.707583821755e-04 0.000000000000e+00 -3.349628615044e+06 1.038890872828e+07  1.306237226451e-02
2.500000000000e+01 -3.972039199675e+07 7.706768458512e-01 8.355718390763e+01 3.296876707571e-05 8.466562482785e-03 -6.650248435923e+05 2.012718561741e+02 1.041328757332e+07 2.312229778257e+06 -1.209783813529e-02 5.116230596361e-06 1.598336943514e-04 0.000000000000e+00 -4.020164169327e+06 9.930261545698e+06  1.217854486578e-02
2.600000000000e+01 -3.674690137144e+07 7.856724807927e-01 8.341465035837e+01 3.278960792546e-05 8.605011636649e-03 4.622042097691e+05 6.932470263758e+01 1.089979897373e+07 2.822258831603e+06 -1.118113112515e-02 4.870391786991e-06 1.485853615653e-04 0.000000000000e+00 -4.728087338366e+06 9.480503600841e+06  1.125616250863e-02
2.700000000000e+01 -3.382536400471e+07 8.010888143274e-01 8.325927508362e+01 3.263531785174e-05 8.737184780141e-03 1.636708749599e+06 -7.462555504944e+01 1.141743641866e+07 3.356935544449e+06 -1.022795857082e-02 4.604506828544e-06 1.369831378450e-04 0.000000000000e+00 -5.470360237569e+06 9.044155249069e+06  1.029713661023e-02
2.800000000000e+01 -3.094423886445e+07 8.170103714323e-01 8.309101773899e+01 3.250550039492e-05 8.863417534746e-03 2.863383506996e+06 -2.462144280084e+02 1.196746559485e+07 3.918219033174e+06 -9.233958385298e-03 4.250214479867e-06 1.250024743265e-04 0.000000000000e+00 -6.249689378340e+06 8.625177077140e+06  9.297092820821e-03
2.900000000000e+01 -2.809010080804e+07 8.334582007690e-01 8.290988114144e+01 3.239750653687e-05 8.983814165787e-03 4.152045895369e+06 -4.029919034112e+02 1.255683322738e+07 4.511411382833e+06 -8.191590393974e-03 3.952085634675e-06 1.125869963015e-04 0.000000000000e+00 -7.073430168527e+06 8.230990441040e+06  8.248463034330e-03
3.000000000000e+01 -2.525050293831e+07 8.504808551470e-01 8.271590707982e+01 3.231895301757e-05 9.098416992566e-03 5.515708755177e+06 -5.482878862533e+02 1.319163420066e+07 5.142596058066e+06 -7.090952182235e-03 3.690419399752e-06 9.974292203533e-05 0.000000000000e+00 -7.949979671301e+06 7.869118799269e+06  7.141348937666e-03
3.100000000000e+01 -2.240930200359e+07 8.681657928440e-01 8.259379673141e+01 3.226573377225e-05 9.209119980876e-03 6.964494210409e+06 -7.218587036852e+02 1.387798435297e+07 5.816805856437e+06 -5.923194755884e-03 3.348537798092e-06 8.639181455681e-05 0.000000000000e+00 -8.886428139938e+06 7.553017158346e+06  5.966862562755e-03
3.200000000000e+01 -1.960626311165e+07 8.861326011886e-01 8.247041856742e+01 3.223022058176e-05 9.315891507885e-03 8.474529101332e+06 -9.016021713806e+02 1.460114508272e+07 6.522053518378e+06 -4.708089063280e-03 2.965570862965e-06 7.281282248937e-05 0.000000000000e+00 -9.865909234143e+06 7.301346097390e+06  4.744917277673e-03
3.300000000000e+01 -1.677025423042e+07 9.047373427703e-01 8.234022744185e+01 3.222257910262e-05 9.418699582234e-03 1.009842936301e+07 -1.049984624815e+03 1.539477898339e+07 7.285549612352e+06 -3.405223516384e-03 2.653966478806e-06 5.860891843192e-05 0.000000000000e+00 -1.092625265292e+07 7.131732587522e+06  3.434906083110e-03
3.400000000000e+01 -1.387183897452e+07 9.239741181844e-01 8.220176805925e+01 3.225054904245e-05 9.517405645929e-03 1.186879619939e+07 -1.120611271246e+03 1.628026201870e+07 8.124414517661e+06 -1.990881504812e-03 2.510807990598e-06 4.370512758960e-05 0.000000000000e+00 -1.209115757858e+07 7.071042385961e+06  2.013094619493e-03
3.500000000000e+01 -1.087324667103e+07 9.437517590390e-01 8.205443775994e+01 3.231239175344e-05 9.612639272891e-03 1.381749363579e+07 -1.292946634586e+03 1.727824808429e+07 9.055354141628e+06 -4.421073258103e-04 1.993262534563e-06 2.787146204553e-05 0.000000000000e+00 -1.338369862057e+07 7.150901647247e+06  4.566944304123e-04
3.600000000000e+01 -7.735474268510e+06 9.636979323476e-01 8.189801261950e+01 3.240851342711e-05 9.703882032546e-03 1.598155367036e+07 -1.369738531283e+03 1.841147574697e+07 1.009754075393e+07 1.266512525295e-03 1.567659765151e-06 1.100715538394e-05 0.000000000000e+00 -1.483019005709e+07 7.404311434050e+06  1.261047900244e-03
3.700000000000e+01 -4.373860178370e+06 9.829980795009e-01 8.173236980522e+01 3.251474783368e-05 9.787581488782e-03 1.841274106851e+07 -5.080006273330e+02 1.970508560768e+07 1.127601706017e+07 3.171840009904e-03 3.793331357416e-06 -7.432820534520e-06 0.000000000000e+00 -1.646461457879e+07 7.862956889942e+06  3.175569741148e-03
3.800000000000e+01 1.969319373483e+06 1.000000000000e+00 8.155815856454e+01 3.190567155428e-05 9.777910584362e-03 2.255570526031e+07 3.461194974885e+03 2.169730774227e+07 1.323058074015e+07 6.412590401936e-03 2.491202154481e-05 -4.372221806289e-05 0.000000000000e+00 -1.916119791424e+07 8.926934849740e+06  6.434707592245e-03
3.900000000000e+01 2.143157947788e+06 1.000000000000e+00 8.137922573310e+01 3.187106555293e-05 9.968899933959e-03 2.262542220247e+07 -5.419123534179e+02 2.167762862811e+07 1.324807451255e+07 6.469481034747e-03 -1.739021906150e-06 -4.372938934228e-05 0.000000000000e+00 -1.918370844771e+07 8.941206481969e+06  6.491456897033e-03
4.000000000000e+01 2.172544101843e+06 1.000000000000e+00 8.118933133057e+01 3.183637796183e-05 1.004384921082e-02 2.262177462924e+07 -5.450910351467e+02 2.167127256637e+07 1.324525624873e+07 6.467363451141e-03 -1.748679199877e-06 -4.391831130611e-05 0.000000000000e+00 -1.917943448145e+07 8.939247839711e+06  6.489434773710e-03
4.200000000000e+01 2.229827605392e+06 1.000000000000e+00 8.091450153903e+01 3.176890164551e-05 1.018413772049e-02 2.261440605594e+07 -5.159852846785e+02 2.165818962578e+07 1.323936135882e+07 6.463738584239e-03 -1.659889834122e-06 -4.428037637850e-05 0.000000000000e+00 -1.917065234685e+07 8.935392658415e+06  6.485992775215e-03
4.400000000000e+01 2.285593809494e+06 1.000000000000e+00 8.061916116606e+01 3.170425284190e-05 1.031503325923e-02 2.260775003525e+07 -5.442774929899e+02 2.164562320477e+07 1.323387421651e+07 6.460352845647e-03 -1.746412270737e-06 -4.462039911549e-05 0.000000000000e+00 -1.916241581885e+07 8.931762388298e+06  6.482778921308e-03
5.000000000000e+01 2.437116678573e+06 1.000000000000e+00 7.942409543209e+01 3.154142726623e-05 1.058873565682e-02 2.259568227168e+07 -5.449018437476e+02 2.161304749978e+07 1.322184781870e+07 6.452311778256e-03 -1.748205400170e-06 -4.537060576769e-05 0.000000000000e+00 -1.914352586339e+07 8.923188256336e+06  6.475117005764e-03
6.500000000000e+01 2.768502507756e+06 1.000000000000e+00 7.676123224804e+01 3.121002276339e-05 1.105305088329e-02 2.258084300895e+07 -5.328552454935e+02 2.154361831783e+07 1.319991422623e+07 6.442008527325e-03 -1.711483751402e-06 -4.674208663412e-05 0.000000000000e+00 -1.910812518434e+07 8.907723041216e+06  6.465506971383e-03
8.000000000000e+01 3.023556374630e+06 1.000000000000e+00 7.431444500797e+01 3.097566355310e-05 1.127344239594e-02 2.257864957037e+07 -5.463120797829e+02 2.149151013821e+07 1.318689623050e+07 6.437308444863e-03 -1.752499383633e-06 -4.751920735359e-05 0.000000000000e+00 -1.908568531303e+07 8.898132300907e+06  6.461199818758e-03
1.000000000000e+02 3.324236305531e+06 1.000000000000e+00 7.184336417688e+01 3.070564753654e-05 1.145792419026e-02 2.257660893371e+07 -5.438946403570e+02 2.142581907083e+07 1.316997697222e+07 6.435013196785e-03 -1.745604104813e-06 -4.830679953004e-05 0.000000000000e+00 -1.905746832559e+07 8.887293533451e+06  6.459302781535e-03
1.860000000000e+02 3.922717201764e+06 1.000000000000e+00 6.661921361739e+01 3.019617331298e-05 1.167725474021e-02 2.258711276095e+07 -5.465568741495e+02 2.130003097639e+07 1.314288925609e+07 6.437928225968e-03 -1.752687033773e-06 -4.960840533363e-05 0.000000000000e+00 -1.901001099781e+07 8.870989233650e+06  6.462875939183e-03
2.720000000000e+02 4.213038211969e+06 1.000000000000e+00 6.336129275053e+01 2.998605629628e-05 1.150915511780e-02 2.260675512937e+07 -5.407536506085e+02 2.123811553004e+07 1.313505538955e+07 6.443663233111e-03 -1.736861964959e-06 -4.965868174824e-05 0.000000000000e+00 -1.899330868299e+07 8.866957079768e+06  6.468636233262e-03
3.580000000000e+02 4.354403691727e+06 1.000000000000e+00 6.123180505088e+01 2.990266555320e-05 1.133325499197e-02 2.262619574647e+07 -5.373513130202e+02 2.121191261150e+07 1.313626678192e+07 6.449118805759e-03 -1.725023914710e-06 -4.947252416804e-05 0.000000000000e+00 -1.899145837996e+07 8.867778916830e+06  6.473997529698e-03
4.440000000000e+02 4.426532453839e+06 1.000000000000e+00 5.967385339351e+01 2.987486849042e-05 1.116866365692e-02 2.264372404940e+07 -5.365231826846e+02 2.120154741539e+07 1.314080721381e+07 6.453571139962e-03 -1.721606334143e-06 -4.920508159728e-05 0.000000000000e+00 -1.899535955953e+07 8.870198310989e+06  6.478314517290e-03
5.300000000000e+02 4.465496889446e+06 1.000000000000e+00 5.850929423872e+01 2.987019440191e-05 1.102602076091e-02 2.265846067895e+07 -5.382396374017e+02 2.119792674180e+07 1.314594114449e+07 6.457153627192e-03 -1.727909701364e-06 -4.893752168296e-05 0.000000000000e+00 -1.900077618841e+07 8.872870478949e+06  6.481761635454e-03
6.160000000000e+02 4.488012314786e+06 1.000000000000e+00 5.764205143038e+01 2.987404678285e-05 1.090780004434e-02 2.267021888082e+07 -5.398092092459e+02 2.119691150265e+07 1.315051083437e+07 6.459977920721e-03 -1.732605302782e-06 -4.870191730246e-05 0.000000000000e+00 -1.900588040595e+07 8.875247641137e+06  6.484466742084e-03
7.020000000000e+02 4.501822576458e+06 1.000000000000e+00 5.701255823050e+01 2.987972011670e-05 1.081713847720e-02 2.267905976509e+07 -5.530269204810e+02 2.119681575163e+07 1.315411470076e+07 6.462088967664e-03 -1.773146335008e-06 -4.851613173423e-05 0.000000000000e+00 -1.900999673916e+07 8.877124191506e+06  6.486483842023e-03
7.880000000000e+02 4.511441113274e+06 1.000000000000e+00 5.653877440105e+01 2.988585612612e-05 1.073538100029e-02 2.268594388551e+07 -5.344491186965e+02 2.119646296967e+07 1.315681657098e+07 6.463775384915e-03 -1.716354546278e-06 -4.834764013071e-05 0.000000000000e+00 -1.901307447538e+07 8.878590448517e+06  6.488084990562e-03
8.740000000000e+02 4.519827167133e+06 1.000000000000e+00 5.574293709857e+01 2.990162963444e-05 1.061986890273e-02 2.269784612967e+07 -5.426984810342e+02 2.119924071191e+07 1.316245978793e+07 6.466432637420e-03 -1.740369507007e-06 -4.809616540292e-05 0.000000000000e+00 -1.901984887650e+07 8.881420502136e+06  6.490615070682e-03
9.370000000000e+02 4.525201002277e+06 1.000000000000e+00 5.522755768205e+01 2.991404827555e-05 1.052490969805e-02 2.270618721353e+07 -5.406479241654e+02 2.120057272401e+07 1.316618089986e+07 6.468555433366e-03 -1.735277520626e-06 -4.789430813752e-05 0.000000000000e+00 -1.902431361247e+07 8.883412891276e+06  6.492635772934e-03
1.000000000000e+03 4.529391016052e+06 1.000000000000e+00 5.483601678884e+01 2.992447731813e-05 1.044541097085e-02 2.271299771601e+07 -5.413539200430e+02 2.120157598431e+07 1.316915999855e+07 6.470486100194e-03 -1.737617964550e-06 -4.772814684076e-05 0.000000000000e+00 -1.902791123295e+07 8.885070127891e+06  6.494482405664e-03
1.100000000000e+03 4.533536316160e+06 1.000000000000e+00 5.445290493107e+01 2.993538640854e-05 1.036225796224e-02 2.271996642430e+07 -5.516648153248e+02 2.120252571152e+07 1.317216491922e+07 6.472577743369e-03 -1.768915459853e-06 -4.755589107514e-05 0.000000000000e+00 -1.903155235168e+07 8.886783337562e+06  6.496486958045e-03
1.200000000000e+03 4.536797682874e+06 1.000000000000e+00 5.411538590812e+01 2.994477477401e-05 1.029315149181e-02 2.272589150538e+07 -5.578812464702e+02 2.120349928821e+07 1.317478256255e+07 6.474258771797e-03 -1.788008631129e-06 -4.741111160652e-05 0.000000000000e+00 -1.903472445205e+07 8.888240946017e+06  6.498094786460e-03
1.300000000000e+03 4.539703052077e+06 1.000000000000e+00 5.378897452190e+01 2.995392427403e-05 1.022733701396e-02 2.273156848734e+07 -5.447709289554e+02 2.120451843265e+07 1.317731950984e+07 6.475836438527e-03 -1.747588075750e-06 -4.727261766262e-05 0.000000000000e+00 -1.903780214328e+07 8.889642279660e+06  6.499602386387e-03
1.400000000000e+03 4.542442562524e+06 1.000000000000e+00 5.345626141554e+01 2.996355791595e-05 1.015934691362e-02 2.273740686725e+07 -5.378445783566e+02 2.120561155368e+07 1.317993813087e+07 6.477465641175e-03 -1.726211498562e-06 -4.712949758254e-05 0.000000000000e+00 -1.904098551727e+07 8.891092203847e+06  6.501159201468e-03
1.500000000000e+03 4.545082446453e+06 1.000000000000e+00 5.310717610983e+01 2.997413525139e-05 1.008596235360e-02 2.274364263699e+07 -5.384950368942e+02 2.120681181077e+07 1.318273706054e+07 6.479234775683e-03 -1.728508339167e-06 -4.697524882591e-05 0.000000000000e+00 -1.904439716943e+07 8.892652634830e+06  6.502850342845e-03
1.600000000000e+03 4.547643486991e+06 1.000000000000e+00 5.273557656599e+01 2.998595588047e-05 1.000519420390e-02 2.275042372882e+07 -5.388753170516e+02 2.120814290525e+07 1.318577870122e+07 6.481197794349e-03 -1.729955995073e-06 -4.680588861405e-05 0.000000000000e+00 -1.904811511176e+07 8.894363209556e+06  6.504727729965e-03
1.700000000000e+03 4.550130771773e+06 1.000000000000e+00 5.233767154458e+01 2.999921102545e-05 9.915818381402e-03 2.275783964108e+07 -5.373198692029e+02 2.120962084057e+07 1.318910141737e+07 6.483387405188e-03 -1.725368157134e-06 -4.661892233016e-05 0.000000000000e+00 -1.905218729967e+07 8.896248259760e+06  6.506822806427e-03
1.800000000000e+03 4.552544175197e+06 1.000000000000e+00 5.191117283656e+01 3.001401979713e-05 9.817146718771e-03 2.276594621954e+07 -5.587297610085e+02 2.121125753239e+07 1.319272960337e+07 6.485823710705e-03 -1.790429030393e-06 -4.641284341326e-05 0.000000000000e+00 -1.905664445177e+07 8.898323586935e+06  6.509154975539e-03
1.900000000000e+03 4.554883463306e+06 1.000000000000e+00 5.145479370212e+01 3.003045026215e-05 9.708652017244e-03 2.277477384846e+07 -5.471200891628e+02 2.121305856019e+07 1.319667632317e+07 6.488517691842e-03 -1.755004150727e-06 -4.618678349010e-05 0.000000000000e+00 -1.906150291061e+07 8.900598092590e+06  6.511734642800e-03
2.000000000000e+03 4.557147803229e+06 1.000000000000e+00 5.096793195623e+01 3.004853342867e-05 9.590218287283e-03 2.278433878865e+07 -5.379134337842e+02 2.121502722529e+07 1.320094852211e+07 6.491474823188e-03 -1.731578424810e-06 -4.594035579691e-05 0.000000000000e+00 -1.906677151201e+07 8.903077192202e+06  6.514567180903e-03