 TITLE = "Time curves in points"
 VARIABLES = "TIME"  "PRESSURE1"  "SATURATION1"  "TEMPERATURE1"  "DISPLACEMENT_X1"  "DISPLACEMENT_Y1"  "STRESS_XX"  "STRESS_XY"  "STRESS_YY"  "STRESS_ZZ"  "STRAIN_XX"  "STRAIN_XY"  "STRAIN_YY"  "STRAIN_PLS"  p_(1st_Invariant)  q_(2nd_Invariant)   Effective_Strain
 ZONE T="POINT=POINT6"
0.000000000000e+00 1.000000000000e+05 1.000000000000e+00 2.500000000000e+01 0.000000000000e+00 0.000000000000e+00 -3.096833482140e+07 1.077886406635e+03 -1.276457505907e+07 -1.019441292181e+07 0.000000000000e+00 0.000000000000e+00 0.000000000000e+00 0.000000000000e+00 1.797577426743e+07 1.961553518206e+07  0.000000000000e+00
1.000000000000e-03 2.334135896320e+05 1.000000000000e+00 2.447870096528e+01 0.000000000000e+00 5.466344584506e-05 -3.075880312355e+07 1.660337218504e+04 -1.275659875022e+07 -9.958654969045e+06 -9.741180397686e-07 1.153321800682e-06 -8.460461059817e-06 0.000000000000e+00 1.782468561427e+07 1.955192661840e+07  8.263006298239e-06
2.000000000000e-03 2.334135767170e+05 1.000000000000e+00 2.447870184588e+01 0.000000000000e+00 5.278816493700e-05 -3.075998712229e+07 1.564639040768e+04 -1.276705873311e+07 -9.961607227681e+06 -9.084398148253e-07 1.082231725792e-06 -8.739319389174e-06 0.000000000000e+00 1.782955102769e+07 1.954725179232e+07  8.530855591351e-06
3.000000000000e-03 2.334099446350e+05 1.000000000000e+00 2.447870265160e+01 0.000000000000e+00 5.122332899800e-05 -3.076049385719e+07 1.476698643957e+04 -1.277500251077e+07 -9.963643473138e+06 -8.516294230681e-07 1.016904573875e-06 -8.958742013728e-06 0.000000000000e+00 1.783304661370e+07 1.954343793823e+07  8.743974358798e-06
4.000000000000e-03 2.333989359300e+05 1.000000000000e+00 2.447870339123e+01 0.000000000000e+00 4.963293375400e-05 -3.076072160089e+07 1.395854546121e+04 -1.278158082370e+07 -9.965224622701e+06 -8.013600621102e-07 9.568489583398e-07 -9.144350938921e-06 0.000000000000e+00 1.783584234910e+07 1.954015390104e+07  8.926370717943e-06
1.000000000000e-02 2.311936456360e+05 1.000000000000e+00 2.447870657472e+01 0.000000000000e+00 4.116434146700e-05 -3.076075730894e+07 1.073957626697e+04 -1.280798354005e+07 -9.971266547773e+06 -5.782720015010e-07 7.177255324819e-07 -9.900608900423e-06 0.000000000000e+00 1.784666913225e+07 1.952629851548e+07  9.704462890952e-06
2.000000000000e-02 2.212675572970e+05 1.000000000000e+00 2.447871069638e+01 0.000000000000e+00 3.350073065940e-05 -3.076018468121e+07 7.736114264527e+03 -1.284052938459e+07 -9.978985266022e+06 -2.703077220709e-07 4.946112123006e-07 -1.082275930560e-05 0.000000000000e+00 1.785989977727e+07 1.950847365775e+07  1.072444080553e-05
3.000000000000e-02 2.075009229160e+05 1.000000000000e+00 2.447871456597e+01 0.000000000000e+00 3.069363653001e-05 -3.075921229895e+07 5.995090140959e+03 -1.286750558930e+07 -9.985606923391e+06 1.175660679113e-08 3.652779916926e-07 -1.157878534995e-05 0.000000000000e+00 1.787077493722e+07 1.949309371099e+07  1.160193172098e-05
4.000000000000e-02 1.919972533250e+05 1.000000000000e+00 2.447871851270e+01 0.000000000000e+00 3.291876338700e-05 -3.075682726775e+07 4.953129667253e+03 -1.288879897104e+07 -9.990492625243e+06 2.818124057578e-07 2.878752136459e-07 -1.218821345997e-05 0.000000000000e+00 1.787870628801e+07 1.947957156320e+07  1.234161139198e-05
5.000000000000e-02 1.762362105500e+05 1.000000000000e+00 2.447872261597e+01 0.000000000000e+00 3.742749550700e-05 -3.075404793496e+07 4.313662779456e+03 -1.290780963988e+07 -9.994807812592e+06 5.453231537991e-07 2.403719591239e-07 -1.273404562968e-05 0.000000000000e+00 1.788555512915e+07 1.946689450111e+07  1.302193539381e-05
6.000000000000e-02 1.604597903140e+05 1.000000000000e+00 2.447872687006e+01 0.000000000000e+00 4.677630613400e-05 -3.074907925298e+07 3.916862746806e+03 -1.292099723065e+07 -9.996863859952e+06 8.062416724322e-07 2.108953852698e-07 -1.314750295608e-05 0.000000000000e+00 1.788898011452e+07 1.945566241912e+07  1.357351667685e-05
7.000000000000e-02 1.455698547290e+05 1.000000000000e+00 2.447873122071e+01 0.000000000000e+00 5.634363715700e-05 -3.074436603706e+07 3.671908166148e+03 -1.293424536753e+07 -9.999109053439e+06 1.064696878771e-06 1.926987592781e-07 -1.355618371071e-05 0.000000000000e+00 1.789257348601e+07 1.944455182898e+07  1.412261736232e-05
8.000000000000e-02 1.319055427570e+05 1.000000000000e+00 2.447873561305e+01 0.000000000000e+00 6.753861195100e-05 -3.073908084086e+07 3.526954537892e+03 -1.294587070827e+07 -1.000076025972e+07 1.322334685078e-06 1.819307754648e-07 -1.392665156237e-05 0.000000000000e+00 1.789523726962e+07 1.943386242541e+07  1.463609181401e-05
9.000000000000e-02 1.205674320160e+05 1.000000000000e+00 2.447873993944e+01 0.000000000000e+00 7.760223547499e-05 -3.073466139401e+07 3.449822349200e+03 -1.295926088917e+07 -1.000324649714e+07 1.578831529862e-06 1.762009557334e-07 -1.433165517712e-05 0.000000000000e+00 1.789905626011e+07 1.942285405427e+07  1.518583084703e-05
1.000000000000e-01 1.126213907650e+05 1.000000000000e+00 2.447874405795e+01 0.000000000000e+00 8.646834670000e-05 -3.073107331121e+07 3.420369179921e+03 -1.297437251114e+07 -1.000653235787e+07 1.834149432251e-06 1.740130060155e-07 -1.477089773716e-05 0.000000000000e+00 1.790399272674e+07 1.941153222184e+07  1.577106208784e-05
2.000000000000e-01 1.225914106110e+05 1.000000000000e+00 2.448021059699e+01 0.000000000000e+00 2.602023956147e-04 -3.064966623189e+07 4.212993868239e+03 -1.301486159455e+07 -9.994016556629e+06 4.392968332286e-06 2.328936971477e-07 -1.673965059583e-05 0.000000000000e+00 1.788618146102e+07 1.932314427498e+07  1.931873562691e-05
3.000000000000e-01 1.420620612730e+05 1.000000000000e+00 2.448611462932e+01 0.000000000000e+00 4.663654012572e-04 -3.055435287553e+07 5.190082182330e+03 -1.301434859279e+07 -9.966947660119e+06 6.927762555140e-06 3.054774004802e-07 -1.772601240078e-05 0.000000000000e+00 1.784521637615e+07 1.924551659229e+07  2.202922976279e-05
4.000000000000e-01 1.621984937820e+05 1.000000000000e+00 2.449981673137e+01 0.000000000000e+00 6.660330919235e-04 -3.046952483323e+07 6.094310501211e+03 -1.302083372136e+07 -9.948037983437e+06 9.376158992333e-06 3.726486470256e-07 -1.866924802447e-05 0.000000000000e+00 1.781279884601e+07 1.917068778806e+07  2.473692822554e-05
5.000000000000e-01 1.815513874540e+05 1.000000000000e+00 2.452393734028e+01 0.000000000000e+00 8.611610646280e-04 -3.039613928645e+07 6.871664515957e+03 -1.303000582845e+07 -9.937132799533e+06 1.169685818504e-05 4.303949452639e-07 -1.941497597588e-05 0.000000000000e+00 1.778775930481e+07 1.910130472774e+07  2.722880319859e-05
6.000000000000e-01 1.998797458080e+05 1.000000000000e+00 2.455991550361e+01 0.000000000000e+00 1.052347936292e-03 -3.033516816809e+07 7.527034418993e+03 -1.303970699079e+07 -9.934348270822e+06 1.385807437188e-05 4.790795666323e-07 -1.987873021484e-05 0.000000000000e+00 1.776974114323e+07 1.903903913717e+07  2.938332203274e-05
7.000000000000e-01 2.172260171510e+05 1.000000000000e+00 2.460807585663e+01 0.000000000000e+00 1.239772444644e-03 -3.028699645800e+07 8.079697707417e+03 -1.304871328696e+07 -9.939525602397e+06 1.583961020540e-05 5.201345537723e-07 -2.002094889985e-05 0.000000000000e+00 1.775841178245e+07 1.898480203546e+07  3.113948125270e-05
8.000000000000e-01 2.338742176340e+05 1.000000000000e+00 2.466791995127e+01 0.000000000000e+00 1.423629226377e-03 -3.025128138315e+07 8.549418718639e+03 -1.305610045321e+07 -9.952094147604e+06 1.763300180736e-05 5.550281146060e-07 -1.982849768146e-05 0.000000000000e+00 1.775315866132e+07 1.893893533620e+07  3.247540880605e-05
9.000000000000e-01 2.497064717590e+05 1.000000000000e+00 2.473844571409e+01 0.000000000000e+00 1.603745480575e-03 -3.022747669061e+07 8.954505449487e+03 -1.306219689381e+07 -9.971624756973e+06 1.924259873543e-05 5.851202717547e-07 -1.932951426992e-05 0.000000000000e+00 1.775376611380e+07 1.890103813672e+07  3.341982812715e-05
1.000000000000e+00 2.648014421000e+05 1.000000000000e+00 2.481840735633e+01 0.000000000000e+00 1.780147808158e-03 -3.021460841791e+07 9.307981691556e+03 -1.306696446985e+07 -9.997367206169e+06 2.067671126295e-05 6.113785068799e-07 -1.855044755284e-05 0.000000000000e+00 1.775964669798e+07 1.887063171141e+07  3.400483924307e-05
2.000000000000e+00 3.766350511870e+05 1.000000000000e+00 2.591890828956e+01 0.000000000000e+00 3.262752306623e-03 -3.053273976932e+07 1.090533770246e+04 -1.304972014235e+07 -1.047477603149e+07 2.659273172226e-05 7.300392391187e-07 -1.776161623952e-07 0.000000000000e+00 1.801907864772e+07 1.890249897921e+07  2.671192802441e-05
3.000000000000e+00 4.686151700600e+05 1.000000000000e+00 2.708342743637e+01 0.000000000000e+00 4.537430840424e-03 -3.101088480933e+07 1.167026822954e+04 -1.300658262147e+07 -1.101444733904e+07 2.887799308827e-05 7.868626497012e-07 2.146956889396e-05 0.000000000000e+00 1.834397158995e+07 1.907854592113e+07  2.601423205976e-05
4.000000000000e+00 5.483132884460e+05 1.000000000000e+00 2.823167826303e+01 0.000000000000e+00 5.653304186581e-03 -3.153509288527e+07 1.205955459470e+04 -1.295602880140e+07 -1.155963885281e+07 2.965737792211e-05 8.157810653989e-07 4.359725272204e-05 0.000000000000e+00 1.868358684649e+07 1.931516455432e+07  3.859140844827e-05
5.000000000000e+00 6.197397654110e+05 1.000000000000e+00 2.933713694020e+01 0.000000000000e+00 6.645802401430e-03 -3.206059116187e+07 1.228113072962e+04 -1.290554291510e+07 -1.208996558950e+07 2.983672072529e-05 8.322410068504e-07 6.517029300448e-05 0.000000000000e+00 1.901869988882e+07 1.957559488775e+07  5.652439329395e-05
6.000000000000e+00 6.851606366850e+05 1.000000000000e+00 3.039255406408e+01 0.000000000000e+00 7.542331120941e-03 -3.256997794478e+07 1.243835740879e+04 -1.285848023287e+07 -1.259875716269e+07 2.981461293566e-05 8.439207030170e-07 8.581630820587e-05 0.000000000000e+00 1.934240511345e+07 1.984264581556e+07  7.547785431716e-05
7.000000000000e+00 7.462730414350e+05 1.000000000000e+00 3.139551191406e+01 0.000000000000e+00 8.356344818985e-03 -3.305837071072e+07 1.254360794099e+04 -1.281372585105e+07 -1.308342359801e+07 2.967620636988e-05 8.517393139806e-07 1.054805099852e-04 0.000000000000e+00 1.965184005326e+07 2.011116404608e+07  9.422701421837e-05
8.000000000000e+00 8.036369444830e+05 1.000000000000e+00 3.234847821821e+01 0.000000000000e+00 9.107001059665e-03 -3.352254968798e+07 1.264572409379e+04 -1.277251898704e+07 -1.354427866828e+07 2.955274696727e-05 8.593250853317e-07 1.241285246871e-04 0.000000000000e+00 1.994644911443e+07 2.037512772375e+07  1.123171043592e-04
9.000000000000e+00 8.580655136630e+05 1.000000000000e+00 3.325456045260e+01 0.000000000000e+00 9.803154165371e-03 -3.396404430371e+07 1.273746331011e+04 -1.273399752756e+07 -1.398263973375e+07 2.943635795773e-05 8.661399985435e-07 1.418413041853e-04 0.000000000000e+00 2.022689385501e+07 2.063409188119e+07  1.296626929194e-04
1.000000000000e+01 9.100569319250e+05 1.000000000000e+00 3.411648238339e+01 0.000000000000e+00 1.045146454342e-02 -3.438430635776e+07 1.281679854156e+04 -1.269747410562e+07 -1.439970835112e+07 2.931774459539e-05 8.720334728802e-07 1.586890085026e-04 0.000000000000e+00 2.049382960483e+07 2.088781268668e+07  1.462587059749e-04
1.100000000000e+01 9.599017900680e+05 1.000000000000e+00 3.493739274946e+01 0.000000000000e+00 1.105912744920e-02 -3.478426830342e+07 1.289046882477e+04 -1.266255294414e+07 -1.479676212519e+07 2.920972679321e-05 8.775061224901e-07 1.747337918228e-04 0.000000000000e+00 2.074786112425e+07 2.113559248608e+07  1.621218365132e-04
1.200000000000e+01 1.007946846100e+06 1.000000000000e+00 3.572000571424e+01 0.000000000000e+00 1.163009324278e-02 -3.516559201385e+07 1.295326388964e+04 -1.262866027608e+07 -1.517508731619e+07 2.909835321451e-05 8.821708987377e-07 1.900447408736e-04 0.000000000000e+00 2.098977986870e+07 2.137777897272e+07  1.773021809609e-04
1.300000000000e+01 1.054427457860e+06 1.000000000000e+00 3.646655380801e+01 0.000000000000e+00 1.216753471662e-02 -3.552953173895e+07 1.300503237676e+04 -1.259562662420e+07 -1.553579748008e+07 2.897839808365e-05 8.860165577808e-07 2.046695111737e-04 0.000000000000e+00 2.122031861441e+07 2.161433590090e+07  1.918351293826e-04
1.400000000000e+01 1.100043684190e+06 1.000000000000e+00 3.717896992581e+01 0.000000000000e+00 1.267452910512e-02 -3.587684205453e+07 1.304580432964e+04 -1.256269418642e+07 -1.587957318616e+07 2.884711258800e-05 8.890453314230e-07 2.186615279458e-04 0.000000000000e+00 2.143970314237e+07 2.184539952104e+07  2.057659767739e-04
1.500000000000e+01 1.144328323690e+06 1.000000000000e+00 3.785899718853e+01 0.000000000000e+00 1.315294414835e-02 -3.620861521678e+07 1.307562700306e+04 -1.253023986898e+07 -1.620746926587e+07 2.870310666504e-05 8.912607300199e-07 2.320459712685e-04 0.000000000000e+00 2.164877478388e+07 2.207073107456e+07  2.191144538517e-04
1.600000000000e+01 1.187416062120e+06 1.000000000000e+00 3.850823173461e+01 0.000000000000e+00 1.360480244800e-02 -3.652559607448e+07 1.309602682947e+04 -1.249828253057e+07 -1.652027676427e+07 2.854809617664e-05 8.927761456964e-07 2.448515223499e-04 0.000000000000e+00 2.184805178977e+07 2.229015548951e+07  2.319043081339e-04
1.700000000000e+01 1.229427499770e+06 1.000000000000e+00 3.912814233171e+01 0.000000000000e+00 1.403188456995e-02 -3.682846408211e+07 1.310826853175e+04 -1.246682646562e+07 -1.681871761422e+07 2.838365889174e-05 8.936855292941e-07 2.571048363321e-04 0.000000000000e+00 2.203800272065e+07 2.250354781580e+07  2.441584506116e-04
1.800000000000e+01 1.270471825970e+06 1.000000000000e+00 3.972008145039e+01 0.000000000000e+00 1.443576165308e-02 -3.711783619262e+07 1.311321159909e+04 -1.243581597311e+07 -1.710343586005e+07 2.821080106079e-05 8.940527285822e-07 2.688319037560e-04 0.000000000000e+00 2.221902934193e+07 2.271085698444e+07  2.559001297553e-04
1.900000000000e+01 1.310633782880e+06 1.000000000000e+00 4.028529438307e+01 0.000000000000e+00 1.481781661506e-02 -3.739428860046e+07 1.311138040593e+04 -1.240518595878e+07 -1.737502263532e+07 2.803007756519e-05 8.939166970909e-07 2.800570987980e-04 0.000000000000e+00 2.239149906485e+07 2.291207725917e+07  2.671517151258e-04
2.000000000000e+01 1.349995946340e+06 1.000000000000e+00 4.082492863823e+01 0.000000000000e+00 1.517928750663e-02 -3.765833045585e+07 1.310151258381e+04 -1.237456191415e+07 -1.763392161998e+07 2.783905665235e-05 8.931836588761e-07 2.908108113148e-04 0.000000000000e+00 2.255560466333e+07 2.310744247325e+07  2.779432239373e-04
2.100000000000e+01 1.388472754850e+06 1.000000000000e+00 4.134131914436e+01 0.000000000000e+00 1.552472467759e-02 -3.791000906539e+07 1.309954973087e+04 -1.234474445615e+07 -1.788120883260e+07 2.767594762406e-05 8.930378469432e-07 3.011032705091e-04 0.000000000000e+00 2.271198745138e+07 2.329580499453e+07  2.882676044822e-04
2.200000000000e+01 1.426190233860e+06 1.000000000000e+00 4.183639356871e+01 0.000000000000e+00 1.585493815952e-02 -3.815076704935e+07 1.309823873157e+04 -1.231548848748e+07 -1.811792068938e+07 2.752566290027e-05 8.929404584237e-07 3.109820754546e-04 0.000000000000e+00 2.286139207540e+07 2.347813664340e+07  2.981776611739e-04
2.300000000000e+01 1.463228482370e+06 1.000000000000e+00 4.231146548328e+01 0.000000000000e+00 1.617049420580e-02 -3.838154395416e+07 1.309297823043e+04 -1.228632160277e+07 -1.834465784565e+07 2.737561509717e-05 8.925496783390e-07 3.204870826909e-04 0.000000000000e+00 2.300417446753e+07 2.365525207097e+07  3.077178145462e-04
2.400000000000e+01 1.499644120820e+06 1.000000000000e+00 4.276749054018e+01 0.000000000000e+00 1.647192686994e-02 -3.860295800317e+07 1.308379568032e+04 -1.225731144257e+07 -1.856196075515e+07 2.722291562973e-05 8.918675460455e-07 3.296358538515e-04 0.000000000000e+00 2.314074340030e+07 2.382734032011e+07  3.169063276822e-04
2.500000000000e+01 1.535482131400e+06 1.000000000000e+00 4.320524538876e+01 0.000000000000e+00 1.675975341730e-02 -3.881545096378e+07 1.307062432485e+04 -1.222845932386e+07 -1.877023433279e+07 2.706619569067e-05 8.908891024961e-07 3.384433797156e-04 0.000000000000e+00 2.327138154014e+07 2.399452728811e+07  3.257583560356e-04
2.600000000000e+01 1.570774235150e+06 1.000000000000e+00 4.362540764395e+01 0.000000000000e+00 1.703446567957e-02 -3.901938044565e+07 1.305364505973e+04 -1.219977456157e+07 -1.896982603520e+07 2.690507816803e-05 8.896277856583e-07 3.469222198330e-04 0.000000000000e+00 2.339632701414e+07 2.415688836726e+07  3.342862765879e-04
2.700000000000e+01 1.605546318150e+06 1.000000000000e+00 4.402858938007e+01 0.000000000000e+00 1.729653735687e-02 -3.921504868176e+07 1.303303529175e+04 -1.217124788101e+07 -1.916103823555e+07 2.673956826829e-05 8.880967743231e-07 3.550839496952e-04 0.000000000000e+00 2.351577826611e+07 2.431448832577e+07  3.425013729551e-04
2.800000000000e+01 1.639831833480e+06 1.000000000000e+00 4.441535216502e+01 0.000000000000e+00 1.754640641148e-02 -3.940273657831e+07 1.300922085510e+04 -1.214293233755e+07 -1.934416795460e+07 2.657026453256e-05 8.863277018863e-07 3.629376308744e-04 0.000000000000e+00 2.362994562348e+07 2.446734468969e+07  3.504122011735e-04
2.900000000000e+01 1.673654166930e+06 1.000000000000e+00 4.478621585322e+01 0.000000000000e+00 1.778449018933e-02 -3.958269735485e+07 1.298235024285e+04 -1.211481075546e+07 -1.951946824273e+07 2.639716067725e-05 8.843315992615e-07 3.704933003395e-04 0.000000000000e+00 2.373899211768e+07 2.461552274881e+07  3.580285891329e-04
3.000000000000e+01 1.707028523550e+06 1.000000000000e+00 4.514166471358e+01 0.000000000000e+00 1.801119242865e-02 -3.975515544366e+07 1.295256349702e+04 -1.208686447297e+07 -1.968717060587e+07 2.622051943820e-05 8.821188695712e-07 3.777602500343e-04 0.000000000000e+00 2.384306350750e+07 2.475907914903e+07  3.653595305554e-04
3.100000000000e+01 1.739862169900e+06 1.000000000000e+00 4.548316211200e+01 0.000000000000e+00 1.822961077494e-02 -3.991997711557e+07 1.293146905724e+04 -1.205963721884e+07 -1.984791286087e+07 2.606899823861e-05 8.805518540451e-07 3.847419746593e-04 0.000000000000e+00 2.394250906510e+07 2.489723421808e+07  3.723955799803e-04
3.200000000000e+01 1.772216944290e+06 1.000000000000e+00 4.581188528851e+01 0.000000000000e+00 1.843995953287e-02 -4.007813562079e+07 1.291301883680e+04 -1.203291727799e+07 -2.000233674702e+07 2.593028381597e-05 8.791812662411e-07 3.914701739479e-04 0.000000000000e+00 2.403779654860e+07 2.503082718834e+07  3.791736579362e-04
3.300000000000e+01 1.804125471630e+06 1.000000000000e+00 4.612855743917e+01 0.000000000000e+00 1.864235559840e-02 -4.023021737726e+07 1.289469803510e+04 -1.200650828414e+07 -2.015081240032e+07 2.579634284122e-05 8.778202924006e-07 3.979658894135e-04 0.000000000000e+00 2.412917935391e+07 2.516039493308e+07  3.857182230899e-04
3.400000000000e+01 1.835622427100e+06 1.000000000000e+00 4.643364730800e+01 0.000000000000e+00 1.883685343404e-02 -4.037659348330e+07 1.287544737296e+04 -1.198037745716e+07 -2.029360503533e+07 2.566324248872e-05 8.763902432124e-07 4.042401894305e-04 0.000000000000e+00 2.421685865860e+07 2.528618453854e+07  3.920419912973e-04
3.500000000000e+01 1.866724724140e+06 1.000000000000e+00 4.672750835819e+01 0.000000000000e+00 1.902357941856e-02 -4.051749147390e+07 1.285566098832e+04 -1.195461432086e+07 -2.043093317340e+07 2.553064796623e-05 8.749203974963e-07 4.102978653357e-04 0.000000000000e+00 2.430101298939e+07 2.540823437901e+07  3.981498190135e-04
3.600000000000e+01 1.897454081370e+06 1.000000000000e+00 4.701043929426e+01 0.000000000000e+00 1.920263210119e-02 -4.065311035722e+07 1.283613262505e+04 -1.192941909365e+07 -2.056302092566e+07 2.539949166953e-05 8.734697190824e-07 4.161398045729e-04 0.000000000000e+00 2.438185012551e+07 2.552647843284e+07  4.040421023551e-04
3.700000000000e+01 1.927826208290e+06 1.000000000000e+00 4.728270804192e+01 0.000000000000e+00 1.937414819780e-02 -4.078363559069e+07 1.281975670120e+04 -1.190533647976e+07 -2.069018100283e+07 2.527450014991e-05 8.722532218823e-07 4.217573902409e-04 0.000000000000e+00 2.445971769109e+07 2.564056898926e+07  4.097080324265e-04
3.800000000000e+01 1.957851141680e+06 1.000000000000e+00 4.754456181106e+01 0.000000000000e+00 1.953832863469e-02 -4.091055865758e+07 1.289882704981e+04 -1.189962055364e+07 -2.081812366463e+07 2.531237081826e-05 8.781270192071e-07 4.267218520778e-04 0.000000000000e+00 2.454276762528e+07 2.573792114405e+07  4.146483169173e-04
3.900000000000e+01 1.987546620950e+06 1.000000000000e+00 4.779623193571e+01 0.000000000000e+00 1.969528196019e-02 -4.103063775951e+07 1.284956007573e+04 -1.187032398856e+07 -2.093337292222e+07 2.513297659962e-05 8.744671868474e-07 4.320906969199e-04 0.000000000000e+00 2.461144489010e+07 2.584921468635e+07  4.200911872219e-04
4.000000000000e+01 2.016929925280e+06 1.000000000000e+00 4.803793683095e+01 0.000000000000e+00 1.984517445672e-02 -4.114577898210e+07 1.279094428778e+04 -1.183977455087e+07 -2.104327537205e+07 2.493839361138e-05 8.701128711709e-07 4.373074813135e-04 0.000000000000e+00 2.467627630167e+07 2.595821600313e+07  4.253895648458e-04
4.200000000000e+01 2.074208403470e+06 1.000000000000e+00 4.848775660010e+01 0.000000000000e+00 2.012587603518e-02 -4.135796274093e+07 1.269208360162e+04 -1.178057215174e+07 -2.124646496711e+07 2.460432467150e-05 8.627689344842e-07 4.470534696693e-04 0.000000000000e+00 2.479499995326e+07 2.616198071724e+07  4.352757309262e-04
4.400000000000e+01 2.129970192110e+06 1.000000000000e+00 4.890720119697e+01 0.000000000000e+00 2.038756491353e-02 -4.155477391182e+07 1.259569353063e+04 -1.172232880939e+07 -2.143470126420e+07 2.428582935885e-05 8.556085292109e-07 4.562084277054e-04 0.000000000000e+00 2.490393466180e+07 2.635453694096e+07  4.445657737474e-04
5.000000000000e+01 2.281485240722e+06 1.000000000000e+00 4.980573480116e+01 0.000000000000e+00 2.093498722974e-02 -4.197954934380e+07 1.230133104381e+04 -1.157833270378e+07 -2.183309805304e+07 2.330605118524e-05 8.337416016184e-07 4.763544494993e-04 0.000000000000e+00 2.513032670021e+07 2.678875317282e+07  4.651417824410e-04
6.500000000000e+01 2.612859593381e+06 1.000000000000e+00 5.137611536001e+01 0.000000000000e+00 2.186370413415e-02 -4.267583673765e+07 1.163591253634e+04 -1.120262019137e+07 -2.247783476979e+07 2.139131175018e-05 7.843105124925e-07 5.142568494398e-04 0.000000000000e+00 2.545209723294e+07 2.761932221669e+07  5.039036735896e-04
8.000000000000e+01 2.867909414203e+06 1.000000000000e+00 5.216638751426e+01 0.000000000000e+00 2.230445552304e-02 -4.300953198182e+07 1.111159413805e+04 -1.092545150050e+07 -2.277061837877e+07 1.987173672863e-05 7.453611457620e-07 5.354265062914e-04 0.000000000000e+00 2.556853395370e+07 2.810080571214e+07  5.257739454168e-04
1.000000000000e+02 3.168586946530e+06 1.000000000000e+00 5.286387895362e+01 0.000000000000e+00 2.267344130663e-02 -4.328283208906e+07 1.057255107951e+04 -1.062292264137e+07 -2.300503311330e+07 1.842742288482e-05 7.053179471276e-07 5.553701254841e-04 0.000000000000e+00 2.563692928124e+07 2.855850264672e+07  5.463908843079e-04
1.860000000000e+02 3.767070137304e+06 1.000000000000e+00 5.367399317868e+01 0.000000000000e+00 2.311209652039e-02 -4.349172225785e+07 9.526857754462e+03 -9.925291845788e+06 -2.314008273767e+07 1.568477409237e-05 6.276378715529e-07 5.862982553682e-04 0.000000000000e+00 2.551903228044e+07 2.928758887865e+07  5.786163517287e-04
2.720000000000e+02 4.057393745366e+06 1.000000000000e+00 5.333862578740e+01 0.000000000000e+00 2.277587582618e-02 -4.327561508234e+07 8.952661440443e+03 -9.686596375428e+06 -2.288536850634e+07 1.425079773316e-05 5.849832882257e-07 5.857032728177e-04 0.000000000000e+00 2.528252665470e+07 2.931034288257e+07  5.787103738220e-04
3.580000000000e+02 4.198760828878e+06 1.000000000000e+00 5.291604569850e+01 0.000000000000e+00 2.242404700686e-02 -4.303667389365e+07 8.596141984093e+03 -9.547493971651e+06 -2.262349327106e+07 1.339896171700e-05 5.584989857540e-07 5.811431390763e-04 0.000000000000e+00 2.506922037879e+07 2.923358784018e+07  5.745616601909e-04
4.440000000000e+02 4.270890553149e+06 1.000000000000e+00 5.250802911794e+01 0.000000000000e+00 2.209482778134e-02 -4.282083434064e+07 8.344206337167e+03 -9.468261205725e+06 -2.239178556149e+07 1.280957304482e-05 5.397837662681e-07 5.754797840266e-04 0.000000000000e+00 2.489362703595e+07 2.912694687287e+07  5.691838813206e-04
5.300000000000e+02 4.309855588322e+06 1.000000000000e+00 5.214927465920e+01 0.000000000000e+00 2.180949580682e-02 -4.263723410489e+07 8.160676216627e+03 -9.421390429056e+06 -2.219681132628e+07 1.238711020778e-05 5.261501001708e-07 5.699787984238e-04 0.000000000000e+00 2.475181195341e+07 2.901994945849e+07  5.638880309614e-04
6.160000000000e+02 4.332371405394e+06 1.000000000000e+00 5.184945747612e+01 0.000000000000e+00 2.157301155509e-02 -4.248705284377e+07 8.026860528602e+03 -9.394132967430e+06 -2.203845258401e+07 1.208337519354e-05 5.162095062033e-07 5.651093222855e-04 0.000000000000e+00 2.463987946507e+07 2.892374287393e+07  5.591662771844e-04
7.020000000000e+02 4.346181928998e+06 1.000000000000e+00 5.161929376212e+01 0.000000000000e+00 2.139160499503e-02 -4.237301225529e+07 7.930623398024e+03 -9.377630458299e+06 -2.191859575431e+07 1.186734337712e-05 5.090604622175e-07 5.612704475217e-04 0.000000000000e+00 2.455641282263e+07 2.884748309861e+07  5.554325678240e-04
7.880000000000e+02 4.355800657703e+06 1.000000000000e+00 5.141141553677e+01 0.000000000000e+00 2.122813163548e-02 -4.227422321694e+07 7.861205787082e+03 -9.376236264674e+06 -2.181569396166e+07 1.171458393125e-05 5.039037254046e-07 5.575001652719e-04 0.000000000000e+00 2.448871781442e+07 2.877124817754e+07  5.517368440062e-04
8.740000000000e+02 4.364186902747e+06 1.000000000000e+00 5.110955643582e+01 0.000000000000e+00 2.099704573931e-02 -4.212441626253e+07 7.742840682186e+03 -9.354963979063e+06 -2.165856842903e+07 1.144275102631e-05 4.951108890409e-07 5.524541875257e-04 0.000000000000e+00 2.437931622354e+07 2.867112635277e+07  5.468232854852e-04
9.370000000000e+02 4.369560866174e+06 1.000000000000e+00 5.085470718014e+01 0.000000000000e+00 2.080711076843e-02 -4.200079812427e+07 7.672250032679e+03 -9.350150364307e+06 -2.153075930101e+07 1.128708569222e-05 4.898670122204e-07 5.478857827472e-04 0.000000000000e+00 2.429390259653e+07 2.857844358796e+07  5.423310016674e-04
1.000000000000e+03 4.373750967670e+06 1.000000000000e+00 5.063409317228e+01 0.000000000000e+00 2.064808599401e-02 -4.189214761300e+07 7.621784551476e+03 -9.344702912823e+06 -2.141925495731e+07 1.118108620214e-05 4.861181479025e-07 5.439465267506e-04 0.000000000000e+00 2.421870182771e+07 2.849798805027e+07  5.384437171890e-04
1.100000000000e+03 4.377896344590e+06 1.000000000000e+00 5.039952478691e+01 0.000000000000e+00 2.048171186900e-02 -4.177599313417e+07 7.574502607520e+03 -9.338966336328e+06 -2.130053195294e+07 1.108568382452e-05 4.826057749229e-07 5.397498880009e-04 0.000000000000e+00 2.413849714115e+07 2.841200991049e+07  5.342939603861e-04
1.200000000000e+03 4.381157757110e+06 1.000000000000e+00 5.020666365626e+01 0.000000000000e+00 2.034344839500e-02 -4.168094530517e+07 7.531461142826e+03 -9.334257062814e+06 -2.120305366546e+07 1.099540965270e-05 4.794084089742e-07 5.363041817680e-04 0.000000000000e+00 2.407275201115e+07 2.834185032234e+07  5.308925312486e-04
1.300000000000e+03 4.384063158280e+06 1.000000000000e+00 5.002355940255e+01 0.000000000000e+00 2.021184910630e-02 -4.159090626934e+07 7.489564555683e+03 -9.329941760675e+06 -2.111061371600e+07 1.090623286085e-05 4.762960910721e-07 5.330309805819e-04 0.000000000000e+00 2.401048724867e+07 2.827540258228e+07  5.276630485006e-04
1.400000000000e+03 4.386802694110e+06 1.000000000000e+00 4.983346618981e+01 0.000000000000e+00 2.007587303840e-02 -4.149746209755e+07 7.447408708423e+03 -9.325766312116e+06 -2.101474937850e+07 1.081634099140e-05 4.731645138471e-07 5.296253932782e-04 0.000000000000e+00 2.394599259606e+07 2.820631301634e+07  5.243015480047e-04
1.500000000000e+03 4.389442600510e+06 1.000000000000e+00 4.962660281772e+01 0.000000000000e+00 1.992907992300e-02 -4.139571735219e+07 7.404186706420e+03 -9.321623944922e+06 -2.091053601051e+07 1.072464929384e-05 4.699537365555e-07 5.259084703916e-04 0.000000000000e+00 2.387595910254e+07 2.813088457812e+07  5.206296341893e-04
1.600000000000e+03 4.392003663130e+06 1.000000000000e+00 4.939698227315e+01 0.000000000000e+00 1.976752180740e-02 -4.128268494098e+07 7.359416403288e+03 -9.317472325733e+06 -2.079496902886e+07 1.063050810601e-05 4.666279426085e-07 5.217701855001e-04 0.000000000000e+00 2.379837543186e+07 2.804687662085e+07  5.165376125878e-04
1.700000000000e+03 4.394490967350e+06 1.000000000000e+00 4.914090603614e+01 0.000000000000e+00 1.958875601360e-02 -4.115652253540e+07 7.312787993416e+03 -9.313290044399e+06 -2.066619464960e+07 1.053349194076e-05 4.631641178751e-07 5.171424790057e-04 0.000000000000e+00 2.371200240980e+07 2.795294041939e+07  5.119576403110e-04
1.800000000000e+03 4.396904398280e+06 1.000000000000e+00 4.885614509573e+01 0.000000000000e+00 1.939130946880e-02 -4.101611878975e+07 7.264140254322e+03 -9.309066541250e+06 -2.052309603192e+07 1.043339669419e-05 4.595502858281e-07 5.119842604662e-04 0.000000000000e+00 2.361609378764e+07 2.784830262391e+07  5.068487322668e-04
1.900000000000e+03 4.399243705860e+06 1.000000000000e+00 4.854145211274e+01 0.000000000000e+00 1.917434646960e-02 -4.086085772613e+07 7.213355813732e+03 -9.304804655246e+06 -2.036505258857e+07 1.033005116128e-05 4.557777273843e-07 5.062723740504e-04 0.000000000000e+00 2.351023832332e+07 2.773257930838e+07  5.011878194432e-04
2.000000000000e+03 4.401508073670e+06 1.000000000000e+00 4.819625178811e+01 0.000000000000e+00 1.893748703041e-02 -4.069044927215e+07 7.160374715538e+03 -9.300493105027e+06 -2.019177250623e+07 1.022339067925e-05 4.518419886614e-07 4.999964000002e-04 0.000000000000e+00 2.339423829447e+07 2.760566401980e+07  4.949645155748e-04