 TITLE = "Time curves in points"
 VARIABLES = "TIME"  "PRESSURE1"  "SATURATION1"  "TEMPERATURE1"  "DISPLACEMENT_X1"  "DISPLACEMENT_Y1"  "STRESS_XX"  "STRESS_XY"  "STRESS_YY"  "STRESS_ZZ"  "STRAIN_XX"  "STRAIN_XY"  "STRAIN_YY"  "STRAIN_PLS"  p_(1st_Invariant)  q_(2nd_Invariant)   Effective_Strain
 ZONE T="POINT=POINT1"
0.000000000000e+00 -7.000000000000e+07 6.684759947500e-01 2.500000000000e+01 0.000000000000e+00 0.000000000000e+00 0.000000000000e+00 0.000000000000e+00 0.000000000000e+00 0.000000000000e+00 0.000000000000e+00 0.000000000000e+00 0.000000000000e+00 0.000000000000e+00 -0.000000000000e+00 0.000000000000e+00  0.000000000000e+00
1.000000000000e-03 -7.000000000000e+07 6.684759947500e-01 3.310906251120e+01 7.112439203081e-05 6.370836214890e-05 1.891221374172e+07 -1.334061450351e+02 3.016347825416e+07 1.470467830502e+07 -1.745157430964e-04 -3.889226947477e-07 1.477305501549e-04 0.000000000000e+00 -2.126012343364e+07 1.384320778495e+07  2.793954555079e-04
2.000000000000e-03 -7.015907471057e+07 6.678662381927e-01 3.680326491091e+01 7.108743464543e-05 6.350857312303e-05 1.883646663962e+07 -1.827112925274e+02 3.009518283739e+07 1.465555478248e+07 -2.004766313040e-04 -5.276152340228e-07 1.478941408014e-04 0.000000000000e+00 -2.119573475316e+07 1.383150080528e+07  3.028427163617e-04
3.000000000000e-03 -7.037130643829e+07 6.670521895367e-01 3.937002963826e+01 7.104815294791e-05 6.316171933123e-05 1.874409226466e+07 -1.891342976234e+02 3.001686449952e+07 1.459943185967e+07 -2.470591338149e-04 -5.422601732716e-07 1.482837342010e-04 0.000000000000e+00 -2.112012954128e+07 1.381938553538e+07  3.459219774729e-04
4.000000000000e-03 -7.061820310675e+07 6.661049303527e-01 4.139950482369e+01 7.100762779059e-05 6.274505231915e-05 1.864126292305e+07 -2.133247714988e+02 2.993209725684e+07 1.453864968847e+07 -3.053429591805e-04 -6.139336107000e-07 1.488021976098e-04 0.000000000000e+00 -2.103733662279e+07 1.380711055252e+07  4.010152750567e-04
1.000000000000e-02 -7.212935243526e+07 6.602938370899e-01 4.814735807512e+01 7.078354426947e-05 6.000452290340e-05 1.803926698854e+07 -2.228759570464e+02 2.945899452886e+07 1.419561437778e+07 -6.888985423652e-04 -6.413628682857e-07 1.522637352538e-04 0.000000000000e+00 -2.056462529839e+07 1.375053846986e+07  7.763124023593e-04
2.000000000000e-02 -7.524730940055e+07 6.482622408616e-01 5.436284697329e+01 7.039546253987e-05 5.818981297776e-05 1.689319115269e+07 -2.183158668309e+02 2.861911106242e+07 1.356824448700e+07 -1.485769886678e-03 -6.266784724875e-07 1.592808279880e-04 0.000000000000e+00 -1.969351556737e+07 1.369454367652e+07  1.571476494973e-03
3.000000000000e-02 -7.893055077024e+07 6.339986410985e-01 5.830141004820e+01 6.998535920007e-05 5.856335201863e-05 1.564209977440e+07 -2.225483288411e+02 2.776634435980e+07 1.290570820758e+07 -2.398858410911e-03 -6.391342651388e-07 1.668234614635e-04 0.000000000000e+00 -1.877138411393e+07 1.369897172636e+07  2.486471160509e-03
4.000000000000e-02 -8.274830792201e+07 6.191580337515e-01 6.102918923515e+01 6.957888771849e-05 6.123864904089e-05 1.443532490290e+07 -2.127191694823e+02 2.700589788333e+07 1.228632417061e+07 -3.310024013071e-03 -6.088205895635e-07 1.737108506102e-04 0.000000000000e+00 -1.790918231895e+07 1.377140805726e+07  3.400209203205e-03
5.000000000000e-02 -8.646459330675e+07 6.110473733131e-01 6.303909276829e+01 6.912785252925e-05 6.495495901771e-05 1.290955633295e+07 -2.221924749546e+02 2.591540945265e+07 1.146216688149e+07 -4.400444880204e-03 -6.376008802207e-07 1.842434879621e-04 0.000000000000e+00 -1.676237755570e+07 1.378664884430e+07  4.495399352614e-03
6.000000000000e-02 -8.999223956686e+07 6.035635923876e-01 6.459150071785e+01 6.868314112911e-05 7.095005987168e-05 1.145825968794e+07 -2.143591993107e+02 2.497365482062e+07 1.070581255229e+07 -5.470298028703e-03 -6.130132438488e-07 1.932763791670e-04 0.000000000000e+00 -1.571257568695e+07 1.390689407370e+07  5.569452109937e-03
7.000000000000e-02 -9.331717808832e+07 5.965377192733e-01 6.584443884672e+01 6.825053334208e-05 7.701485331117e-05 1.009780865808e+07 -2.329498439411e+02 2.416928913555e+07 1.001938100316e+07 -6.501535092494e-03 -6.692881177435e-07 2.009892434615e-04 0.000000000000e+00 -1.476215959893e+07 1.411085777346e+07  6.604323977390e-03
8.000000000000e-02 -9.644616749832e+07 5.900015872083e-01 6.688978167670e+01 6.783579557005e-05 8.378675676882e-05 8.824647347262e+06 -2.100791485277e+02 2.346631384243e+07 9.391227883769e+06 -7.485710126271e-03 -5.987656595290e-07 2.075653569465e-04 0.000000000000e+00 -1.389406302449e+07 1.436675774607e+07  7.591621344738e-03
9.000000000000e-02 -9.940042925395e+07 5.839014698215e-01 6.778635897997e+01 6.743956388394e-05 9.002794293948e-05 7.638979660588e+06 -2.285825345721e+02 2.282671563948e+07 8.810682898811e+06 -8.406719807260e-03 -6.549634320808e-07 2.134858705394e-04 0.000000000000e+00 -1.309212606629e+07 1.463709989622e+07  8.515470117267e-03
1.000000000000e-01 -1.021958467132e+08 5.772939128518e-01 6.856670098494e+01 6.707521280385e-05 9.558846084539e-05 6.613654867798e+06 -2.336745786953e+02 2.231058504449e+07 8.320103745264e+06 -9.217099890118e-03 -6.694287159908e-07 2.191877119608e-04 0.000000000000e+00 -1.241478121918e+07 1.491709006568e+07  9.328625301604e-03
2.000000000000e-01 -1.187516715383e+08 5.380454143739e-01 7.279261553079e+01 6.478941545324e-05 1.904441291512e-04 1.077851081736e+06 -2.101493120299e+02 1.964096426223e+07 5.709102803659e+06 -1.358215416403e-02 -6.065631463404e-07 2.543872457337e-04 0.000000000000e+00 -8.809306049209e+06 1.673520880404e+07  1.371111784279e-02
3.000000000000e-01 -1.341076682495e+08 5.086722595976e-01 7.558238944071e+01 6.279880910633e-05 3.002564903437e-04 -3.660289328693e+06 -2.176568662886e+02 1.693402727029e+07 3.353660778280e+06 -1.713829349529e-02 -6.264166111094e-07 2.916582896928e-04 0.000000000000e+00 -5.542466239958e+06 1.813487974351e+07  1.728596815440e-02
4.000000000000e-01 -1.471562405977e+08 4.912841607164e-01 7.759060160320e+01 6.098116442134e-05 4.058736593860e-04 -8.083123967380e+06 -2.518638982415e+02 1.434851149476e+07 1.132215107603e+06 -2.043085433329e-02 -7.257485355916e-07 3.246251559582e-04 0.000000000000e+00 -2.465867544996e+06 1.952909668094e+07  2.059508584917e-02
5.000000000000e-01 -1.578188187449e+08 4.765742241596e-01 7.913407279571e+01 5.944398633628e-05 5.083886784274e-04 -1.144314372026e+07 -2.447064018744e+02 1.246455850134e+07 -5.315603518547e+05 -2.295456339578e-02 -6.969686218640e-07 3.461368319133e-04 0.000000000000e+00 -1.632848097416e+05 2.073089461080e+07  2.312957441689e-02
6.000000000000e-01 -1.664470105045e+08 4.628553684482e-01 8.036202926716e+01 5.820877954618e-05 6.083638582301e-04 -1.377057739864e+07 -2.654997125393e+02 1.122337941790e+07 -1.663551873448e+06 -2.472179053803e-02 -7.529456101229e-07 3.615530487003e-04 0.000000000000e+00 1.403583284732e+06 2.164891386358e+07  2.490453549963e-02
7.000000000000e-01 -1.732705738904e+08 4.540722539412e-01 8.135405474006e+01 5.711327716001e-05 7.058112069231e-04 -1.583494628854e+07 -2.537394552759e+02 9.995803751137e+06 -2.705618409212e+06 -2.623981383767e-02 -6.957145312766e-07 3.759755552407e-04 0.000000000000e+00 2.848253648872e+06 2.237110886229e+07  2.642980737506e-02
8.000000000000e-01 -1.785574945229e+08 4.487369201661e-01 8.216210467788e+01 5.614979944913e-05 8.010132104780e-04 -1.763937731257e+07 -2.417167875936e+02 8.843051850586e+06 -3.640581269942e+06 -2.753727652378e-02 -6.500304376819e-07 3.902443386205e-04 0.000000000000e+00 4.145635577309e+06 2.294696539048e+07  2.773445792733e-02
9.000000000000e-01 -1.825455417321e+08 4.447347592060e-01 8.283348462567e+01 5.530186371009e-05 8.939046245792e-04 -1.906708176404e+07 -2.312664391562e+02 7.916541406233e+06 -4.384664961398e+06 -2.855755648669e-02 -5.939985323217e-07 4.004436632191e-04 0.000000000000e+00 5.178401773067e+06 2.339881365563e+07  2.875986928358e-02
1.000000000000e+00 -1.854867374019e+08 4.417945786223e-01 8.339527917161e+01 5.456024204921e-05 9.845122544521e-04 -2.021679569551e+07 -1.996701373874e+02 7.195173205549e+06 -4.977131543183e+06 -2.938861822090e-02 -4.656053235893e-07 4.070465537193e-04 0.000000000000e+00 5.999584677714e+06 2.378895127621e+07  2.959424106556e-02
2.000000000000e+00 -1.860998072911e+08 4.410419393713e-01 8.535753342327e+01 5.057545579005e-05 1.736075880866e-03 -2.352287065437e+07 -1.406141836690e+02 4.595780209696e+06 -6.837635124055e+06 -3.163028776655e-02 -1.977209411020e-07 4.239854997700e-04 0.000000000000e+00 8.588241856242e+06 2.449263764307e+07  3.184439748814e-02
3.000000000000e+00 -1.774891049769e+08 4.495795701855e-01 8.593561658345e+01 4.795071158773e-05 2.373765216093e-03 -2.403068886020e+07 2.364537944905e+02 3.698108167624e+06 -7.273368678410e+06 -3.183828872484e-02 1.073451802843e-06 4.225508422609e-04 0.000000000000e+00 9.201983123662e+06 2.418746854059e+07  3.205165326959e-02
4.000000000000e+00 -1.655179178190e+08 4.640228359022e-01 8.594181032048e+01 4.601102946412e-05 2.928909096942e-03 -2.348157979300e+07 5.469719139449e+02 3.428431265810e+06 -7.176456891136e+06 -3.126183161642e-02 2.235981885501e-06 4.103392808699e-04 0.000000000000e+00 9.076535139443e+06 2.347838774966e+07  3.146900803715e-02
5.000000000000e+00 -1.531383084912e+08 4.825992387004e-01 8.575846034028e+01 4.444168475195e-05 3.420660879398e-03 -2.267424855932e+07 8.184826261676e+02 3.222165541997e+06 -6.976150918021e+06 -3.044719670299e-02 3.522962005558e-06 3.972199292075e-04 0.000000000000e+00 8.809411311782e+06 2.259491309455e+07  3.064773794744e-02
6.000000000000e+00 -1.414940115436e+08 4.976938466234e-01 8.561855106046e+01 4.320345294016e-05 3.864342157653e-03 -2.116388538317e+07 1.023826889179e+03 3.589598560032e+06 -6.372369444859e+06 -2.915948562289e-02 4.650814649900e-06 3.781166239838e-04 0.000000000000e+00 7.982218755999e+06 2.157272263646e+07  2.935037180555e-02
7.000000000000e+00 -1.312343115127e+08 5.110276230506e-01 8.535781862233e+01 4.216618097975e-05 4.267694560351e-03 -1.961497623202e+07 1.415932376538e+03 4.166338769091e+06 -5.695125873063e+06 -2.792480925032e-02 5.693163384094e-06 3.600697011027e-04 0.000000000000e+00 7.047921111996e+06 2.069494713831e+07  2.810657568636e-02
8.000000000000e+00 -1.218124767845e+08 5.294013430437e-01 8.528219644329e+01 4.114481745269e-05 4.640807381817e-03 -1.861205577915e+07 1.474285922210e+03 4.354999032745e+06 -5.315826363083e+06 -2.705657281408e-02 5.971121463263e-06 3.466015069918e-04 0.000000000000e+00 6.524294369828e+06 1.997248357484e+07  2.723152990419e-02
9.000000000000e+00 -1.135309107159e+08 5.485280278307e-01 8.520333284130e+01 4.020367964850e-05 4.986304072448e-03 -1.777329156361e+07 1.373002935570e+03 4.336291537320e+06 -5.051184792620e+06 -2.626456804527e-02 6.332795435988e-06 3.361760473625e-04 0.000000000000e+00 6.162728272971e+06 1.921991660681e+07  2.643426163000e-02
1.000000000000e+01 -1.060027448602e+08 5.654957290928e-01 8.512020154099e+01 3.937708647098e-05 5.308113079299e-03 -1.674300986998e+07 1.355136241128e+03 4.465686197274e+06 -4.677749422777e+06 -2.533395432496e-02 6.888156290360e-06 3.256998565028e-04 0.000000000000e+00 5.651691031828e+06 1.842527780643e+07  2.549836719800e-02
1.100000000000e+01 -9.920712317928e+07 5.774470269866e-01 8.508991988987e+01 3.870945346464e-05 5.611515569382e-03 -1.534696297994e+07 1.243336591430e+03 4.943184845765e+06 -4.078204536139e+06 -2.418070056076e-02 6.935793397512e-06 3.151848079081e-04 0.000000000000e+00 4.827327556772e+06 1.760767575958e+07  2.433982651642e-02
1.200000000000e+01 -9.310164138531e+07 5.881956835387e-01 8.506072826050e+01 3.808755776177e-05 5.895653753669e-03 -1.400924752658e+07 1.401859705405e+03 5.428150456953e+06 -3.495488935063e+06 -2.308474228317e-02 7.227997712916e-06 3.038597471796e-04 0.000000000000e+00 4.025528668231e+06 1.685204604612e+07  2.323816554103e-02
1.300000000000e+01 -8.749469948918e+07 5.980313935091e-01 8.501131504997e+01 3.748981024783e-05 6.163162008744e-03 -1.275616610095e+07 1.647965678882e+03 6.026732037836e+06 -2.908874974376e+06 -2.211530114441e-02 7.743753903239e-06 2.900841487365e-04 0.000000000000e+00 3.212769679163e+06 1.627285306876e+07  2.226176479358e-02
1.400000000000e+01 -8.219117683119e+07 6.142796177226e-01 8.492254073212e+01 3.686479068225e-05 6.416352157365e-03 -1.195529069564e+07 1.772904371751e+03 6.255362013987e+06 -2.584181378818e+06 -2.143212077421e-02 7.668160150879e-06 2.792933702874e-04 0.000000000000e+00 2.761370020159e+06 1.577312759397e+07  2.157312752738e-02
1.500000000000e+01 -7.715797270225e+07 6.332700015334e-01 8.481756001037e+01 3.627884276698e-05 6.655383294122e-03 -1.126446309058e+07 1.541385124909e+03 6.366173731053e+06 -2.331832478537e+06 -2.080680885271e-02 7.403752874515e-06 2.699562914117e-04 0.000000000000e+00 2.410040612689e+06 1.526903026824e+07  2.094309586554e-02
1.600000000000e+01 -7.243873170815e+07 6.510621195969e-01 8.470075219002e+01 3.576446538765e-05 6.880986508669e-03 -1.046060991437e+07 1.468633355376e+03 6.565736767095e+06 -2.015260538829e+06 -2.010656505746e-02 7.484049364012e-06 2.596173700704e-04 0.000000000000e+00 1.970044562034e+06 1.474540496388e+07  2.023762686589e-02
1.700000000000e+01 -6.798215785607e+07 6.678476487847e-01 8.456897411302e+01 3.530007461436e-05 7.094531622980e-03 -9.563250497943e+06 1.304717646517e+03 6.832223875445e+06 -1.647289496567e+06 -1.934262292153e-02 7.293453840428e-06 2.498801473647e-04 0.000000000000e+00 1.459438706355e+06 1.420169313398e+07  1.946876982816e-02
1.800000000000e+01 -6.374879270820e+07 6.837835260982e-01 8.442126094456e+01 3.488151077011e-05 7.296643357619e-03 -8.593344112801e+06 1.177095984053e+03 7.153747167539e+06 -1.238525118122e+06 -1.852775843315e-02 7.316279305528e-06 2.387363785202e-04 0.000000000000e+00 8.927073544613e+05 1.364724310375e+07  1.864827708261e-02
1.900000000000e+01 -5.970229451246e+07 6.990164963757e-01 8.425635540426e+01 3.450734104404e-05 7.488076372707e-03 -7.544391982074e+06 9.700642724739e+02 7.515881651985e+06 -7.909396108891e+05 -1.765255432367e-02 7.022553465309e-06 2.276874054877e-04 0.000000000000e+00 2.731499803258e+05 1.306568494190e+07  1.776749638941e-02
2.000000000000e+01 -5.591167274559e+07 7.132931210343e-01 8.407728787583e+01 3.417305696279e-05 7.670995838546e-03 -6.458988476012e+06 8.156098199327e+02 7.912220326174e+06 -3.204778767102e+05 -1.675212592196e-02 6.624691323916e-06 2.165737615525e-04 0.000000000000e+00 -3.775846578171e+05 1.248980140965e+07  1.686145989183e-02
2.100000000000e+01 -5.230263645346e+07 7.252707748085e-01 8.398894200474e+01 3.389405099671e-05 7.844360832580e-03 -5.259330050676e+06 5.999787073429e+02 8.406986944268e+06 2.179716340372e+05 -1.578142431135e-02 6.303794642695e-06 2.052309008663e-04 0.000000000000e+00 -1.121876175876e+06 1.191278783205e+07  1.588503787089e-02
2.200000000000e+01 -4.892775349576e+07 7.360609168376e-01 8.389868228381e+01 3.363108752067e-05 8.010298437193e-03 -4.067534997894e+06 4.454528361956e+02 8.906716348852e+06 7.559340351562e+05 -1.482172568046e-02 6.021279265211e-06 1.939039766270e-04 0.000000000000e+00 -1.865038462038e+06 1.135852774432e+07  1.491962637657e-02
2.300000000000e+01 -4.578630731373e+07 7.458698453962e-01 8.379980671317e+01 3.338935303054e-05 8.169740771379e-03 -2.902549228919e+06 4.267474847753e+02 9.427855845284e+06 1.291519242181e+06 -1.389539914627e-02 5.659152961261e-06 1.824608602248e-04 0.000000000000e+00 -2.605608619515e+06 1.085884602630e+07  1.398752558385e-02
2.400000000000e+01 -4.273737162208e+07 7.561677636123e-01 8.368692938956e+01 3.317427800140e-05 8.321616621417e-03 -1.741728958115e+06 3.430311473415e+02 9.961636265765e+06 1.828977940557e+06 -1.297615262524e-02 5.355419012620e-06 1.707583805642e-04 0.000000000000e+00 -3.349628416069e+06 1.038890844748e+07  1.306237222819e-02
2.500000000000e+01 -3.972039199675e+07 7.706768458512e-01 8.355718390763e+01 3.296876699586e-05 8.466546884960e-03 -6.650246725667e+05 2.096071676172e+02 1.041328783582e+07 2.312229907508e+06 -1.209783815494e-02 5.141253411934e-06 1.598336944909e-04 0.000000000000e+00 -4.020164356922e+06 9.930261645337e+06  1.217854491711e-02
2.600000000000e+01 -3.674690137144e+07 7.856724807927e-01 8.341465035837e+01 3.278960758834e-05 8.605073421029e-03 4.622053314994e+05 3.639714146583e+01 1.089979812593e+07 2.822258913624e+06 -1.118113111532e-02 4.775750614457e-06 1.485853483818e-04 0.000000000000e+00 -4.728087457019e+06 9.480501990592e+06  1.125616237041e-02
2.700000000000e+01 -3.382536400471e+07 8.010888143274e-01 8.325927508362e+01 3.263531808890e-05 8.737143645761e-03 1.636708973979e+06 -5.391352473707e+01 1.141743327197e+07 3.356934670922e+06 -1.022795847633e-02 4.666062331124e-06 1.369831164722e-04 0.000000000000e+00 -5.470358972291e+06 9.044152308446e+06  1.029713658798e-02
2.800000000000e+01 -3.094423886445e+07 8.170103714323e-01 8.309101773899e+01 3.250550003860e-05 8.863417527574e-03 2.863383937787e+06 -2.462010085294e+02 1.196746684458e+07 3.918219535349e+06 -9.233958436759e-03 4.250790782639e-06 1.250024796126e-04 0.000000000000e+00 -6.249690105906e+06 8.625177862531e+06  9.297092875765e-03
2.900000000000e+01 -2.809010080804e+07 8.334582007690e-01 8.290988114144e+01 3.239750632183e-05 8.983801927081e-03 4.152045713587e+06 -3.962010345920e+02 1.255683290254e+07 4.511411228999e+06 -8.191590438060e-03 3.972715153357e-06 1.125869919669e-04 0.000000000000e+00 -7.073429948374e+06 8.230990284044e+06  8.248463105932e-03
3.000000000000e+01 -2.525050293831e+07 8.504808551471e-01 8.271590707982e+01 3.231895230922e-05 9.098408627163e-03 5.515708852360e+06 -5.444778001908e+02 1.319163456539e+07 5.142596197026e+06 -7.090952173452e-03 3.701752818953e-06 9.974292432980e-05 0.000000000000e+00 -7.949979871591e+06 7.869119043437e+06  7.141348947651e-03
3.100000000000e+01 -2.240930200359e+07 8.681657928440e-01 8.259379673141e+01 3.226573401408e-05 9.209127155275e-03 6.964494318069e+06 -7.257501275321e+02 1.387798467693e+07 5.816805985874e+06 -5.923194759197e-03 3.336674705343e-06 8.639181771291e-05 0.000000000000e+00 -8.886428326959e+06 7.553017360613e+06  5.966862547743e-03
3.200000000000e+01 -1.960626311165e+07 8.861326011886e-01 8.247041856742e+01 3.223022040119e-05 9.315874625643e-03 8.474529076939e+06 -8.933185576612e+02 1.460114518164e+07 6.522053540402e+06 -4.708089071578e-03 2.991997294015e-06 7.281282242576e-05 0.000000000000e+00 -9.865909266328e+06 7.301346182413e+06  4.744917335708e-03
3.300000000000e+01 -1.677025423042e+07 9.047373427703e-01 8.234022744185e+01 3.222257910527e-05 9.418705091712e-03 1.009842949049e+07 -1.053047167207e+03 1.539477946097e+07 7.285549794103e+06 -3.405223510231e-03 2.644703226108e-06 5.860891979737e-05 0.000000000000e+00 -1.092625291519e+07 7.131732876361e+06  3.434906056223e-03
3.400000000000e+01 -1.387183897453e+07 9.239741181844e-01 8.220176805925e+01 3.225054823598e-05 9.517499976550e-03 1.186879630967e+07 -1.168446018837e+03 1.628026219790e+07 8.124414605052e+06 -1.990881489422e-03 2.364950455650e-06 4.370512691704e-05 0.000000000000e+00 -1.209115770421e+07 7.071042489695e+06  2.013094073854e-03
3.500000000000e+01 -1.087324667103e+07 9.437517590390e-01 8.205443775994e+01 3.231239128439e-05 9.612639638562e-03 1.381749369483e+07 -1.293359481849e+03 1.727824817978e+07 9.055354187940e+06 -4.421073263874e-04 1.991954406643e-06 2.787146181372e-05 0.000000000000e+00 -1.338369868752e+07 7.150901688806e+06  4.566944137398e-04
3.600000000000e+01 -7.735474268510e+06 9.636979323476e-01 8.189801261950e+01 3.240851369820e-05 9.703802120558e-03 1.598155349750e+07 -1.329311373155e+03 1.841147605235e+07 1.009754079259e+07 1.266512495495e-03 1.691818616681e-06 1.100715766382e-05 0.000000000000e+00 -1.483019011414e+07 7.404311556112e+06  1.261048350696e-03
3.700000000000e+01 -4.373860178370e+06 9.829980795009e-01 8.173236980522e+01 3.251474825722e-05 9.787635952029e-03 1.841274142288e+07 -5.355340503214e+02 1.970508546758e+07 1.127601712808e+07 3.171840094442e-03 3.708761214943e-06 -7.432812013891e-06 0.000000000000e+00 -1.646461467285e+07 7.862956873299e+06  3.175569521722e-03
3.800000000000e+01 1.969319373483e+06 1.000000000000e+00 8.155815856454e+01 3.190567115565e-05 9.777922106758e-03 2.255570521835e+07 3.455564877456e+03 2.169730771951e+07 1.323058072001e+07 6.412590384822e-03 2.489488603284e-05 -4.372221964451e-05 0.000000000000e+00 -1.916119788596e+07 8.926934829638e+06  6.434707376980e-03
3.900000000000e+01 2.143157947788e+06 1.000000000000e+00 8.137922573310e+01 3.187106573893e-05 9.968896707762e-03 2.262542223857e+07 -5.404018893532e+02 2.167762885869e+07 1.324807459615e+07 6.469481122461e-03 -1.733612679519e-06 -4.372938455467e-05 0.000000000000e+00 -1.918370856447e+07 8.941206515758e+06  6.491456977987e-03
4.000000000000e+01 2.172544101843e+06 1.000000000000e+00 8.118933133057e+01 3.183637767567e-05 1.004385310198e-02 2.262177450832e+07 -5.471957986572e+02 2.167127259341e+07 1.324525621797e+07 6.467363389015e-03 -1.755110308672e-06 -4.391831563123e-05 0.000000000000e+00 -1.917943443990e+07 8.939247812186e+06  6.489434718978e-03
4.200000000000e+01 2.229827605392e+06 1.000000000000e+00 8.091450153903e+01 3.176890172464e-05 1.018414477934e-02 2.261440608595e+07 -5.195030901565e+02 2.165818961207e+07 1.323936136495e+07 6.463738616661e-03 -1.670688199402e-06 -4.428037726335e-05 0.000000000000e+00 -1.917065235432e+07 8.935392664552e+06  6.485992816400e-03
4.400000000000e+01 2.285593809494e+06 1.000000000000e+00 8.061916116606e+01 3.170425290127e-05 1.031503611001e-02 2.260774996573e+07 -5.458290770554e+02 2.164562317332e+07 1.323387418694e+07 6.460352862771e-03 -1.751015648143e-06 -4.462039806509e-05 0.000000000000e+00 -1.916241577533e+07 8.931762364680e+06  6.482778941625e-03
5.000000000000e+01 2.437116678573e+06 1.000000000000e+00 7.942409543210e+01 3.154142720246e-05 1.058874297429e-02 2.259568216263e+07 -5.484578032368e+02 2.161304735938e+07 1.322184774352e+07 6.452311770822e-03 -1.759388342211e-06 -4.537060787183e-05 0.000000000000e+00 -1.914352575517e+07 8.923188210261e+06  6.475117008480e-03
6.500000000000e+01 2.768502507756e+06 1.000000000000e+00 7.676123224804e+01 3.121002214290e-05 1.105307873820e-02 2.258084274407e+07 -5.474539864312e+02 2.154361843636e+07 1.319991417776e+07 6.442008415255e-03 -1.755782493497e-06 -4.674209137446e-05 0.000000000000e+00 -1.910812511940e+07 8.907722985808e+06  6.465506897346e-03
8.000000000000e+01 3.023556374630e+06 1.000000000000e+00 7.431444500797e+01 3.097566393642e-05 1.127341443764e-02 2.257864987179e+07 -5.314942205883e+02 2.149151034647e+07 1.318689638527e+07 6.437308491664e-03 -1.707898792744e-06 -4.751920514014e-05 0.000000000000e+00 -1.908568553451e+07 8.898132406255e+06  6.461199828610e-03
1.000000000000e+02 3.324236305531e+06 1.000000000000e+00 7.184336417688e+01 3.070564849414e-05 1.145791919821e-02 2.257660899447e+07 -5.410748964441e+02 2.142581880506e+07 1.316997691434e+07 6.435013279225e-03 -1.736963311900e-06 -4.830679001426e-05 0.000000000000e+00 -1.905746823796e+07 8.887293520296e+06  6.459302852175e-03
1.860000000000e+02 3.922717201764e+06 1.000000000000e+00 6.661921361739e+01 3.019617062984e-05 1.167725659273e-02 2.258711268852e+07 -5.471345840835e+02 2.130003069512e+07 1.314288914764e+07 6.437928170591e-03 -1.755437457597e-06 -4.960841081093e-05 0.000000000000e+00 -1.901001084376e+07 8.870989188635e+06  6.462875888817e-03
2.720000000000e+02 4.213038211969e+06 1.000000000000e+00 6.336129275053e+01 2.998605625213e-05 1.150915157698e-02 2.260675524328e+07 -5.392467729216e+02 2.123811519367e+07 1.313505532597e+07 6.443663317398e-03 -1.731092548906e-06 -4.965868611598e-05 0.000000000000e+00 -1.899330858764e+07 8.866957084397e+06  6.468636315117e-03
3.580000000000e+02 4.354403691727e+06 1.000000000000e+00 6.123180505089e+01 2.990266664541e-05 1.133325282190e-02 2.262619639906e+07 -5.358978793153e+02 2.121191309527e+07 1.313626712403e+07 6.449118839321e-03 -1.721997193048e-06 -4.947252412874e-05 0.000000000000e+00 -1.899145887279e+07 8.867779160662e+06  6.473997560822e-03
4.440000000000e+02 4.426532453839e+06 1.000000000000e+00 5.967385339351e+01 2.987486880170e-05 1.116868297025e-02 2.264372453133e+07 -5.467757029882e+02 2.120154763510e+07 1.314080743201e+07 6.453571336915e-03 -1.753978192394e-06 -4.920508003897e-05 0.000000000000e+00 -1.899535986615e+07 8.870198476133e+06  6.478314739501e-03
5.300000000000e+02 4.465496889446e+06 1.000000000000e+00 5.850929423872e+01 2.987019350199e-05 1.102604775731e-02 2.265846058847e+07 -5.520465561137e+02 2.119792659872e+07 1.314594106856e+07 6.457153483334e-03 -1.770309528891e-06 -4.893752793001e-05 0.000000000000e+00 -1.900077608525e+07 8.872870447559e+06  6.481761529083e-03
6.160000000000e+02 4.488012314786e+06 1.000000000000e+00 5.764205143038e+01 2.987404636939e-05 1.090778204545e-02 2.267021876940e+07 -5.312624645264e+02 2.119691173682e+07 1.315051086666e+07 6.459977812070e-03 -1.706637325159e-06 -4.870192407834e-05 0.000000000000e+00 -1.900588045763e+07 8.875247625350e+06  6.484466616201e-03
7.020000000000e+02 4.501822576458e+06 1.000000000000e+00 5.701255823051e+01 2.987972092430e-05 1.081711707391e-02 2.267905996471e+07 -5.420932233381e+02 2.119681593992e+07 1.315411482109e+07 6.462089069204e-03 -1.739864429823e-06 -4.851613134426e-05 0.000000000000e+00 -1.900999690857e+07 8.877124263750e+06  6.486483916325e-03
7.880000000000e+02 4.511441113274e+06 1.000000000000e+00 5.653877440105e+01 2.988585597913e-05 1.073539040463e-02 2.268594385739e+07 -5.397417678548e+02 2.119646287345e+07 1.315681653297e+07 6.463775365954e-03 -1.732528222443e-06 -4.834763951967e-05 0.000000000000e+00 -1.901307442127e+07 8.878590434142e+06  6.488084984188e-03
8.740000000000e+02 4.519827167133e+06 1.000000000000e+00 5.574293709857e+01 2.990162835727e-05 1.061986163523e-02 2.269784613996e+07 -5.385266019810e+02 2.119924151678e+07 1.316246002472e+07 6.466432457689e-03 -1.728826639215e-06 -4.809618145061e-05 0.000000000000e+00 -1.901984922715e+07 8.881420569780e+06  6.490614889813e-03
9.370000000000e+02 4.525201002276e+06 1.000000000000e+00 5.522755768205e+01 2.991404895234e-05 1.052490580654e-02 2.270618917873e+07 -5.395698743923e+02 2.120057389729e+07 1.316618184130e+07 6.468555440891e-03 -1.728141588631e-06 -4.789431013531e-05 0.000000000000e+00 -1.902431497244e+07 8.883413612746e+06  6.492635775758e-03
1.000000000000e+03 4.529391016052e+06 1.000000000000e+00 5.483601678884e+01 2.992447665139e-05 1.044540484732e-02 2.271299781949e+07 -5.382899567768e+02 2.120157568053e+07 1.316915993209e+07 6.470485943545e-03 -1.728108914285e-06 -4.772815310146e-05 0.000000000000e+00 -1.902791114404e+07 8.885070145967e+06  6.494482244571e-03
1.100000000000e+03 4.533536316160e+06 1.000000000000e+00 5.445290493107e+01 2.993538736520e-05 1.036225841366e-02 2.271996642340e+07 -5.519036502694e+02 2.120252584467e+07 1.317216495868e+07 6.472577739051e-03 -1.769571350770e-06 -4.755589199014e-05 0.000000000000e+00 -1.903155240892e+07 8.886783346815e+06  6.496486954726e-03
1.200000000000e+03 4.536797682875e+06 1.000000000000e+00 5.411538590813e+01 2.994477353100e-05 1.029311246710e-02 2.272589153814e+07 -5.380829125602e+02 2.120349885675e+07 1.317478244507e+07 6.474258823206e-03 -1.727287622235e-06 -4.741110983269e-05 0.000000000000e+00 -1.903472427999e+07 8.888240921030e+06  6.498094787698e-03
1.300000000000e+03 4.539703052078e+06 1.000000000000e+00 5.378897452190e+01 2.995392528006e-05 1.022734122612e-02 2.273156954488e+07 -5.466222483054e+02 2.120451783441e+07 1.317731965520e+07 6.475836632587e-03 -1.753294190990e-06 -4.727261760833e-05 0.000000000000e+00 -1.903780234483e+07 8.889642576676e+06  6.499602585027e-03
1.400000000000e+03 4.542442562524e+06 1.000000000000e+00 5.345626141554e+01 2.996355766575e-05 1.015934421338e-02 2.273740679967e+07 -5.362762496799e+02 2.120561142448e+07 1.317993807024e+07 6.477465604583e-03 -1.721952651901e-06 -4.712950236902e-05 0.000000000000e+00 -1.904098543146e+07 8.891092174196e+06  6.501159163908e-03
1.500000000000e+03 4.545082446453e+06 1.000000000000e+00 5.310717610982e+01 2.997413488443e-05 1.008599606154e-02 2.274364279834e+07 -5.559020961914e+02 2.120681202870e+07 1.318273717171e+07 6.479234718219e-03 -1.781809626720e-06 -4.697525694791e-05 0.000000000000e+00 -1.904439733292e+07 8.892652708292e+06  6.502850332646e-03
1.600000000000e+03 4.547643486991e+06 1.000000000000e+00 5.273557656600e+01 2.998595468877e-05 1.000519795431e-02 2.275042340808e+07 -5.409859748395e+02 2.120814272930e+07 1.318577854457e+07 6.481197611826e-03 -1.736417903193e-06 -4.680590233287e-05 0.000000000000e+00 -1.904811489398e+07 8.894363100459e+06  6.504727559544e-03
1.700000000000e+03 4.550130771774e+06 1.000000000000e+00 5.233767154459e+01 2.999920956641e-05 9.915817603847e-03 2.275783970231e+07 -5.376307000107e+02 2.120962121252e+07 1.318910154354e+07 6.483387315723e-03 -1.724728429107e-06 -4.661892795365e-05 0.000000000000e+00 -1.905218748612e+07 8.896248308635e+06  6.506822719297e-03
1.800000000000e+03 4.552544175198e+06 1.000000000000e+00 5.191117283657e+01 3.001402005038e-05 9.817102973287e-03 2.276594625905e+07 -5.362953257862e+02 2.121125753190e+07 1.319272961695e+07 6.485823751945e-03 -1.722097524693e-06 -4.641283671550e-05 0.000000000000e+00 -1.905664446930e+07 8.898323593896e+06  6.509154958083e-03
1.900000000000e+03 4.554883463307e+06 1.000000000000e+00 5.145479370212e+01 3.003045034218e-05 9.708635045062e-03 2.277477395371e+07 -5.379279419044e+02 2.121305835022e+07 1.319667629500e+07 6.488517770026e-03 -1.727017627216e-06 -4.618677905812e-05 0.000000000000e+00 -1.906150286631e+07 8.900598108476e+06  6.511734696295e-03
2.000000000000e+03 4.557147803229e+06 1.000000000000e+00 5.096793195623e+01 3.004853290682e-05 9.590219224549e-03 2.278433743062e+07 -5.412140020773e+02 2.121502738451e+07 1.320094816558e+07 6.491474893603e-03 -1.733482074469e-06 -4.594034977711e-05 0.000000000000e+00 -1.906677099357e+07 8.903076752187e+06  6.514567249793e-03