 TITLE = "Time curves in points"
 VARIABLES = "TIME"  "PRESSURE1"  "SATURATION1"  "TEMPERATURE1"  "DISPLACEMENT_X1"  "DISPLACEMENT_Y1"  "STRESS_XX"  "STRESS_XY"  "STRESS_YY"  "STRESS_ZZ"  "STRAIN_XX"  "STRAIN_XY"  "STRAIN_YY"  "STRAIN_PLS"  p_(1st_Invariant)  q_(2nd_Invariant)   Effective_Strain
 ZONE T="POINT=POINT9"
0.000000000000e+00 1.000000000000e+05 1.000000000000e+00 2.500000000000e+01 0.000000000000e+00 0.000000000000e+00 -6.854419775061e+07 7.586938602830e+05 -6.954707405871e+06 -1.965222756120e+07 0.000000000000e+00 0.000000000000e+00 0.000000000000e+00 0.000000000000e+00 3.171704423923e+07 5.633990941714e+07  0.000000000000e+00
1.000000000000e-03 1.375363589691e+05 1.000000000000e+00 2.500341806563e+01 0.000000000000e+00 -1.158445712021e-05 -7.011302665108e+07 8.006469421368e+05 -5.875150383502e+06 -1.980009594329e+07 -5.277853353999e-05 3.116514652000e-06 4.559008645105e-05 0.000000000000e+00 3.192942432596e+07 5.854761338336e+07  8.543620709525e-05
2.000000000000e-03 1.596543478277e+05 1.000000000000e+00 2.501822531954e+01 0.000000000000e+00 -1.097098613106e-05 -7.015633857272e+07 8.162780947654e+05 -5.776741828904e+06 -1.978832647495e+07 -5.482441373947e-05 4.277685990119e-06 4.880810965488e-05 0.000000000000e+00 3.190713562552e+07 5.866000120798e+07  9.010393831465e-05
3.000000000000e-03 1.750698885853e+05 1.000000000000e+00 2.505296841804e+01 0.000000000000e+00 -1.019191022876e-05 -7.020879527851e+07 8.320237221852e+05 -5.684524766087e+06 -1.978766998472e+07 -5.679718959144e-05 5.447361169876e-06 5.220893092259e-05 0.000000000000e+00 3.189366334311e+07 5.877381920105e+07  9.490013167898e-05
4.000000000000e-03 1.857698591436e+05 1.000000000000e+00 2.511280776572e+01 0.000000000000e+00 -9.415150231555e-06 -7.027289839194e+07 8.479461713179e+05 -5.597153807377e+06 -1.980025764992e+07 -5.871062052572e-05 6.630171676877e-06 5.592167981068e-05 0.000000000000e+00 3.189010328308e+07 5.889177207412e+07  9.994621197066e-05
1.000000000000e-02 2.016789261239e+05 1.000000000000e+00 2.596898026496e+01 0.000000000000e+00 -6.557024376775e-06 -7.060885190949e+07 8.680644865171e+05 -5.618000618203e+06 -2.019492002331e+07 -5.653000588024e-05 8.124675091677e-06 6.980625784869e-05 0.000000000000e+00 3.214059085033e+07 5.908630583667e+07  1.105112410679e-04
2.000000000000e-02 1.999775693425e+05 1.000000000000e+00 2.761199769072e+01 0.000000000000e+00 9.506514277053e-07 -7.125952922100e+07 8.914726166110e+05 -5.732456698690e+06 -2.098421259767e+07 -5.138143897443e-05 9.863564755796e-06 9.487161333540e-05 0.000000000000e+00 3.265873283912e+07 5.940870766765e+07  1.296425278526e-04
3.000000000000e-02 1.899417041039e+05 1.000000000000e+00 2.912015475881e+01 0.000000000000e+00 1.043572509097e-05 -7.186820483688e+07 9.133389284190e+05 -5.837340926405e+06 -2.171594672293e+07 -4.681069434048e-05 1.148791934725e-05 1.181546095298e-04 0.000000000000e+00 3.314049749541e+07 5.971791704641e+07  1.485885898789e-04
4.000000000000e-02 1.766791368651e+05 1.000000000000e+00 3.042921154463e+01 0.000000000000e+00 2.208749379875e-05 -7.239756811948e+07 9.335721495787e+05 -5.929552048753e+06 -2.235387727760e+07 -4.277819566312e-05 1.299095863340e-05 1.384241884449e-04 0.000000000000e+00 3.356033248194e+07 5.998898213184e+07  1.655870224603e-04
5.000000000000e-02 1.624755378777e+05 1.000000000000e+00 3.155419129749e+01 0.000000000000e+00 3.413599206660e-05 -7.285741225009e+07 9.525648665875e+05 -6.005432247686e+06 -2.290381405941e+07 -3.943189719013e-05 1.440184618262e-05 1.560320043802e-04 0.000000000000e+00 3.392221951906e+07 6.023100858047e+07  1.807643172266e-04
6.000000000000e-02 1.480496728640e+05 1.000000000000e+00 3.252596160028e+01 0.000000000000e+00 4.793394676294e-05 -7.325897021898e+07 9.707265546439e+05 -6.057844098017e+06 -2.337697777494e+07 -3.677225517208e-05 1.575100015252e-05 1.716599308019e-04 0.000000000000e+00 3.423126403065e+07 6.045581350745e+07  1.946174077236e-04
7.000000000000e-02 1.342905968549e+05 1.000000000000e+00 3.337380904241e+01 0.000000000000e+00 6.132199242852e-05 -7.361004161809e+07 9.880797739586e+05 -6.101407178808e+06 -2.378985357920e+07 -3.447666298083e-05 1.704009644447e-05 1.853772605307e-04 0.000000000000e+00 3.450043412537e+07 6.065560899861e+07  2.069194360332e-04
8.000000000000e-02 1.218339410025e+05 1.000000000000e+00 3.412173995213e+01 0.000000000000e+00 7.527110986228e-05 -7.391942521029e+07 1.004772115910e+06 -6.137329821585e+06 -2.415354653998e+07 -3.245945786213e-05 1.828009898942e-05 1.975515866280e-04 0.000000000000e+00 3.473676719062e+07 6.083459789456e+07  2.179338184929e-04
9.000000000000e-02 1.115908125434e+05 1.000000000000e+00 3.478854389704e+01 0.000000000000e+00 8.814507592061e-05 -7.419684099644e+07 1.020967447263e+06 -6.166700385364e+06 -2.447768940097e+07 -3.072388079654e-05 1.948318074709e-05 2.085002719531e-04 0.000000000000e+00 3.494707692759e+07 6.099852716597e+07  2.279496452143e-04
1.000000000000e-01 1.045672294376e+05 1.000000000000e+00 3.538879911632e+01 0.000000000000e+00 9.990396543165e-05 -7.444928402532e+07 1.036775880965e+06 -6.189686428907e+06 -2.476941385676e+07 -2.926485636877e-05 2.065752153637e-05 2.184819844077e-04 0.000000000000e+00 3.513612810366e+07 6.115193316914e+07  2.372021349186e-04
2.000000000000e-01 1.257459073664e+05 1.000000000000e+00 3.885749510603e+01 0.000000000000e+00 2.462770244337e-04 -7.551185795439e+07 1.051496086942e+06 -6.937868134119e+06 -2.652340640768e+07 -3.583593271077e-06 2.175102255181e-05 2.558406729628e-04 0.000000000000e+00 3.632437749873e+07 6.120656679803e+07  2.603909405933e-04
3.000000000000e-01 1.562400344316e+05 1.000000000000e+00 4.116519335709e+01 0.000000000000e+00 4.035684117470e-04 -7.612609954606e+07 1.060942742792e+06 -7.539924122381e+06 -2.769467585414e+07 1.710601276371e-05 2.245277412924e-05 2.769828871244e-04 0.000000000000e+00 3.712023317420e+07 6.108450652360e+07  2.716366025194e-04
4.000000000000e-01 1.873099579768e+05 1.000000000000e+00 4.284986299412e+01 0.000000000000e+00 5.503937616396e-04 -7.654013410757e+07 1.068189220135e+06 -8.038344954812e+06 -2.855745596273e+07 3.377370451240e-05 2.299108387473e-05 2.905162316675e-04 0.000000000000e+00 3.771197834171e+07 6.092090201604e+07  2.780544990242e-04
5.000000000000e-01 2.167971561645e+05 1.000000000000e+00 4.415870677105e+01 0.000000000000e+00 6.916216705184e-04 -7.680834401669e+07 1.073496072300e+06 -8.505655887858e+06 -2.923593493552e+07 4.901226973448e-05 2.338530717843e-05 2.983596160009e-04 0.000000000000e+00 3.818331161336e+07 6.068381227193e+07  2.800678468566e-04
6.000000000000e-01 2.441751622672e+05 1.000000000000e+00 4.522029184852e+01 0.000000000000e+00 8.267978220326e-04 -7.701567524112e+07 1.078168896761e+06 -8.922580974974e+06 -2.979464682356e+07 6.206355152580e-05 2.373243128120e-05 3.036259828922e-04 0.000000000000e+00 3.857763434655e+07 6.045292727965e+07  2.808668723168e-04
7.000000000000e-01 2.695236793827e+05 1.000000000000e+00 4.610823858705e+01 0.000000000000e+00 9.559596199719e-04 -7.719923155921e+07 1.082852136941e+06 -9.278296502697e+06 -3.026717433516e+07 7.279676728464e-05 2.408032912319e-05 3.079647137219e-04 0.000000000000e+00 3.891490079902e+07 6.026375286771e+07  2.818907330514e-04
8.000000000000e-01 2.931001250057e+05 1.000000000000e+00 4.686835872746e+01 0.000000000000e+00 1.080430243436e-03 -7.736115904474e+07 1.087070249959e+06 -9.602309736750e+06 -3.067900813817e+07 8.207900193385e-05 2.439367466164e-05 3.112266205687e-04 0.000000000000e+00 3.921415897322e+07 6.009077474405e+07  2.825578801026e-04
9.000000000000e-01 3.149678576752e+05 1.000000000000e+00 4.753046133627e+01 0.000000000000e+00 1.200732080947e-03 -7.750991903326e+07 1.091426252375e+06 -9.898069970973e+06 -3.104414143733e+07 9.011572490029e-05 2.471726341257e-05 3.138033344094e-04 0.000000000000e+00 3.948404348052e+07 5.993635886198e+07  2.831034986293e-04
1.000000000000e+00 3.353127068989e+05 1.000000000000e+00 4.811530493389e+01 0.000000000000e+00 1.317290726038e-03 -7.764851128746e+07 1.095866693970e+06 -1.017291693750e+07 -3.137293322468e+07 9.718027898888e-05 2.504712478821e-05 3.158069991827e-04 0.000000000000e+00 3.973145381655e+07 5.979561518777e+07  2.834959090541e-04
2.000000000000e+00 4.697379131332e+05 1.000000000000e+00 5.129669003549e+01 0.000000000000e+00 2.274887570441e-03 -7.819796995306e+07 1.069089214072e+06 -1.279534984893e+07 -3.343922369182e+07 1.535197459032e-04 2.305794056719e-05 2.951502798236e-04 0.000000000000e+00 4.147751449794e+07 5.793908577589e+07  2.587771434458e-04
3.000000000000e+00 5.733073282760e+05 1.000000000000e+00 5.334711567617e+01 0.000000000000e+00 3.086306380900e-03 -7.857648272556e+07 1.048543075682e+06 -1.494670752618e+07 -3.491729162004e+07 1.943603659729e-04 2.153165600109e-05 2.701423748596e-04 0.000000000000e+00 4.281349395726e+07 5.639279273299e+07  2.442104017929e-04
4.000000000000e+00 6.596594526311e+05 1.000000000000e+00 5.484331776306e+01 0.000000000000e+00 3.790988242677e-03 -7.885312595546e+07 1.031754356289e+06 -1.677713712733e+07 -3.607456782824e+07 2.270695908812e-04 2.028449398898e-05 2.451395345501e-04 0.000000000000e+00 4.390161030367e+07 5.505547819428e+07  2.392167192578e-04
5.000000000000e+00 7.354601095239e+05 1.000000000000e+00 5.604440420721e+01 0.000000000000e+00 4.414641792079e-03 -7.905842831619e+07 1.017144462173e+06 -1.837716050371e+07 -3.703792906204e+07 2.552260633095e-04 1.919918756894e-05 2.214920835399e-04 0.000000000000e+00 4.482450596064e+07 5.386265125867e+07  2.424342392013e-04
6.000000000000e+00 8.041390168034e+05 1.000000000000e+00 5.709454643067e+01 0.000000000000e+00 4.976309013924e-03 -7.922324186640e+07 1.003896607879e+06 -1.981379034272e+07 -3.788708239560e+07 2.806443981197e-04 1.821506124998e-05 1.996715276230e-04 0.000000000000e+00 4.564137153491e+07 5.277713399837e+07  2.521679337602e-04
7.000000000000e+00 8.678837899245e+05 1.000000000000e+00 5.796631024017e+01 0.000000000000e+00 5.483572267019e-03 -7.936308730797e+07 9.920132381655e+05 -2.107999054420e+07 -3.861526559866e+07 3.024969435464e-04 1.733229664270e-05 1.796880391104e-04 0.000000000000e+00 4.635278115028e+07 5.182033749047e+07  2.652137537012e-04
8.000000000000e+00 9.273815367560e+05 1.000000000000e+00 5.880767264491e+01 0.000000000000e+00 5.950483229743e-03 -7.950462182043e+07 9.814252406849e+05 -2.224022523747e+07 -3.930120153465e+07 3.227175678489e-04 1.654575968700e-05 1.620712281256e-04 0.000000000000e+00 4.701534953085e+07 5.095283212892e+07  2.809479765300e-04
9.000000000000e+00 9.837160278318e+05 1.000000000000e+00 5.957121469890e+01 0.000000000000e+00 6.381619667768e-03 -7.964415500902e+07 9.720151820746e+05 -2.328355024442e+07 -3.992419768887e+07 3.406747637151e-04 1.584672676166e-05 1.464590135956e-04 0.000000000000e+00 4.761730098077e+07 5.018352721462e+07  2.972675624623e-04
1.000000000000e+01 1.037379889223e+06 1.000000000000e+00 6.026073641101e+01 0.000000000000e+00 6.782723257669e-03 -7.975639338913e+07 9.629909013876e+05 -2.425333413392e+07 -4.049101747516e+07 3.575592159445e-04 1.517635162491e-05 1.314917754763e-04 0.000000000000e+00 4.816691499941e+07 4.945495830299e+07  3.143462242945e-04
1.100000000000e+01 1.088673728867e+06 1.000000000000e+00 6.090878588780e+01 0.000000000000e+00 7.157662924652e-03 -7.987460042627e+07 9.546733280604e+05 -2.514842777057e+07 -4.102261008360e+07 3.729135371646e-04 1.455847474918e-05 1.179903087144e-04 0.000000000000e+00 4.868187942682e+07 4.879492390718e+07  3.310919560158e-04
1.200000000000e+01 1.137991997935e+06 1.000000000000e+00 6.149982004481e+01 0.000000000000e+00 7.508865921918e-03 -7.998803594260e+07 9.470852790928e+05 -2.596851786353e+07 -4.151031295868e+07 3.868148962036e-04 1.399479111159e-05 1.056444977645e-04 0.000000000000e+00 4.915562225494e+07 4.819529394794e+07  3.471443805255e-04
1.300000000000e+01 1.185597008333e+06 1.000000000000e+00 6.203604871768e+01 0.000000000000e+00 7.839331524956e-03 -8.007937442642e+07 9.396698668047e+05 -2.674117191032e+07 -4.195797427711e+07 4.000497443464e-04 1.344393191304e-05 9.357333928246e-05 0.000000000000e+00 4.959284020462e+07 4.761855703406e+07  3.631858962493e-04
1.400000000000e+01 1.232205376244e+06 1.000000000000e+00 6.252137197228e+01 0.000000000000e+00 8.151003090215e-03 -8.014924306464e+07 9.324069606285e+05 -2.747029774481e+07 -4.236832041750e+07 4.126960515699e-04 1.290440173995e-05 8.173295064465e-05 0.000000000000e+00 4.999595374232e+07 4.706185701859e+07  3.791662049036e-04
1.500000000000e+01 1.277367068418e+06 1.000000000000e+00 6.295962029591e+01 0.000000000000e+00 8.443673628230e-03 -8.022494481175e+07 9.259262270212e+05 -2.812896678868e+07 -4.274280379090e+07 4.237936548318e-04 1.242297581484e-05 7.117748288406e-05 0.000000000000e+00 5.036557179711e+07 4.657043101519e+07  3.936568573219e-04
1.600000000000e+01 1.321228595387e+06 1.000000000000e+00 6.335431152615e+01 0.000000000000e+00 8.719570151934e-03 -8.029230232512e+07 9.197664186092e+05 -2.874164682809e+07 -4.308574256268e+07 4.340295301441e-04 1.196539004709e-05 6.115852151517e-05 0.000000000000e+00 5.070656390530e+07 4.611196740306e+07  4.074394496247e-04
1.700000000000e+01 1.363922199809e+06 1.000000000000e+00 6.370850785819e+01 0.000000000000e+00 8.980479102708e-03 -8.033982846063e+07 9.136988462379e+05 -2.932474816615e+07 -4.339968566904e+07 4.439250176328e-04 1.151465609950e-05 5.116121576632e-05 0.000000000000e+00 5.102142076527e+07 4.566303486474e+07  4.211566330749e-04
1.800000000000e+01 1.405587802916e+06 1.000000000000e+00 6.402490199352e+01 0.000000000000e+00 9.227507488004e-03 -8.036647289412e+07 9.076429103527e+05 -2.988329620562e+07 -4.368676816785e+07 4.535984314878e-04 1.106478657661e-05 4.107820997059e-05 0.000000000000e+00 5.131217908920e+07 4.521852827933e+07  4.349404939501e-04
1.900000000000e+01 1.446313785953e+06 1.000000000000e+00 6.430589182614e+01 0.000000000000e+00 9.461530837875e-03 -8.037193785206e+07 9.015394025698e+05 -3.041969484001e+07 -4.394846090385e+07 4.631154632444e-04 1.061138314131e-05 3.087484803006e-05 0.000000000000e+00 5.158003119864e+07 4.477611196781e+07  4.488522845496e-04
2.000000000000e+01 1.486183570755e+06 1.000000000000e+00 6.455355167662e+01 0.000000000000e+00 9.682558485263e-03 -8.037187224840e+07 8.957630347595e+05 -3.091910781129e+07 -4.418573396737e+07 4.719308994537e-04 1.018228153254e-05 2.113822288483e-05 0.000000000000e+00 5.182557134235e+07 4.436118929999e+07  4.620615265943e-04
2.100000000000e+01 1.525125187764e+06 1.000000000000e+00 6.481651432677e+01 0.000000000000e+00 9.893800216944e-03 -8.038174123718e+07 8.903705526106e+05 -3.139750958546e+07 -4.442489344486e+07 4.804474033204e-04 9.781697144336e-06 1.225208043678e-05 0.000000000000e+00 5.206804808917e+07 4.397055345464e+07  4.747424411176e-04
2.200000000000e+01 1.563296828247e+06 1.000000000000e+00 6.506310005153e+01 0.000000000000e+00 1.009595839093e-02 -8.038150103058e+07 8.849967125870e+05 -3.186000059418e+07 -4.465050874558e+07 4.888363221635e-04 9.382497599728e-06 3.453839853932e-06 0.000000000000e+00 5.229733679011e+07 4.358518227637e+07  4.873895877922e-04
2.300000000000e+01 1.600764538218e+06 1.000000000000e+00 6.528885293821e+01 0.000000000000e+00 1.028869530143e-02 -8.038305866917e+07 8.799480190095e+05 -3.229244432504e+07 -4.486035719255e+07 4.965728379035e-04 9.007451791108e-06 -4.813984976527e-06 0.000000000000e+00 5.251195339559e+07 4.322711991987e+07  4.992410785779e-04
2.400000000000e+01 1.637574350694e+06 1.000000000000e+00 6.549323240318e+01 0.000000000000e+00 1.047278032542e-02 -8.037753237939e+07 8.750178083589e+05 -3.270520106292e+07 -4.505469359234e+07 5.039963092303e-04 8.641207571353e-06 -1.292674039130e-05 0.000000000000e+00 5.271247567821e+07 4.288040354198e+07  5.108017435242e-04
2.500000000000e+01 1.673781468387e+06 1.000000000000e+00 6.567656819956e+01 0.000000000000e+00 1.064857499864e-02 -8.036331317823e+07 8.701568157588e+05 -3.309974796960e+07 -4.523359393064e+07 5.111693206960e-04 8.280105263913e-06 -2.093647007384e-05 0.000000000000e+00 5.289888502616e+07 4.254242015774e+07  5.221495684331e-04
2.600000000000e+01 1.709418522054e+06 1.000000000000e+00 6.583945686769e+01 0.000000000000e+00 1.081628940450e-02 -8.034224752740e+07 8.654530561039e+05 -3.347417602635e+07 -4.539724830541e+07 5.180303502185e-04 7.930683118122e-06 -2.876520683285e-05 0.000000000000e+00 5.307122395305e+07 4.221624570812e+07  5.331724094939e-04
2.700000000000e+01 1.744518245017e+06 1.000000000000e+00 6.598257449112e+01 0.000000000000e+00 1.097644905247e-02 -8.031054142764e+07 8.607674599981e+05 -3.383462048383e+07 -4.554659574107e+07 5.247551958197e-04 7.582610264550e-06 -3.660595335766e-05 0.000000000000e+00 5.323058588418e+07 4.189366918415e+07  5.441412165225e-04
2.800000000000e+01 1.779123728188e+06 1.000000000000e+00 6.610660116461e+01 0.000000000000e+00 1.112943141174e-02 -8.026635561917e+07 8.560316052945e+05 -3.418422383233e+07 -4.568226523376e+07 5.314355355770e-04 7.230803915141e-06 -4.455206800212e-05 0.000000000000e+00 5.337761489509e+07 4.157056575590e+07  5.551954799283e-04
2.900000000000e+01 1.813258571779e+06 1.000000000000e+00 6.621219502953e+01 0.000000000000e+00 1.127548543773e-02 -8.020997936072e+07 8.512789354287e+05 -3.452293445746e+07 -4.580455840397e+07 5.380718286412e-04 6.877748439392e-06 -5.259043061368e-05 0.000000000000e+00 5.351249074072e+07 4.124719479571e+07  5.663271012494e-04
3.000000000000e+01 1.846933373120e+06 1.000000000000e+00 6.629998114533e+01 0.000000000000e+00 1.141490111843e-02 -8.014132156265e+07 8.464758213759e+05 -3.485270212576e+07 -4.591425163978e+07 5.446962956144e-04 6.520945681186e-06 -6.076462381993e-05 0.000000000000e+00 5.363609177606e+07 4.092192793328e+07  5.775917482625e-04
3.100000000000e+01 1.880068624474e+06 1.000000000000e+00 6.640753112562e+01 0.000000000000e+00 1.154960218060e-02 -8.007736862183e+07 8.418126270337e+05 -3.517838234678e+07 -4.603093138957e+07 5.514055098366e-04 6.174536958621e-06 -6.852749846599e-05 0.000000000000e+00 5.376222745272e+07 4.060239259242e+07  5.887655469486e-04
3.200000000000e+01 1.912746249129e+06 1.000000000000e+00 6.650903867135e+01 0.000000000000e+00 1.167983109410e-02 -8.000370550523e+07 8.370285916091e+05 -3.550267823738e+07 -4.614216265101e+07 5.582730153069e-04 5.819151469942e-06 -7.644132754885e-05 0.000000000000e+00 5.388284879788e+07 4.027622029268e+07  6.002405802455e-04
3.300000000000e+01 1.944992531707e+06 1.000000000000e+00 6.660028914584e+01 0.000000000000e+00 1.180565817854e-02 -7.991822197713e+07 8.320907337665e+05 -3.582580945088e+07 -4.624590779469e+07 5.653015088300e-04 5.452339173061e-06 -8.458995299936e-05 0.000000000000e+00 5.399664640756e+07 3.994182196781e+07  6.120696595190e-04
3.400000000000e+01 1.976830069253e+06 1.000000000000e+00 6.668024522067e+01 0.000000000000e+00 1.192708302356e-02 -7.982131814041e+07 8.270153947824e+05 -3.614714270575e+07 -4.634173424625e+07 5.724600623949e-04 5.075313991384e-06 -9.296591997944e-05 0.000000000000e+00 5.410339836413e+07 3.960018662254e+07  6.242193028921e-04
3.500000000000e+01 2.008299353080e+06 1.000000000000e+00 6.674866227776e+01 0.000000000000e+00 1.204451289516e-02 -7.970645712042e+07 8.216923329518e+05 -3.647343504519e+07 -4.642962254618e+07 5.799907514205e-04 4.679886541114e-06 -1.018209271610e-04 0.000000000000e+00 5.420317157060e+07 3.924040428139e+07  6.370852949251e-04
3.600000000000e+01 2.039444665063e+06 1.000000000000e+00 6.680556849251e+01 0.000000000000e+00 1.215841051546e-02 -7.956491130325e+07 8.158596295494e+05 -3.681414910666e+07 -4.650980307937e+07 5.882263015766e-04 4.246600002645e-06 -1.114978867832e-04 0.000000000000e+00 5.429628782976e+07 3.884756952276e+07  6.512158252334e-04
3.700000000000e+01 2.070350556992e+06 1.000000000000e+00 6.685110766981e+01 0.000000000000e+00 1.227016541247e-02 -7.936923839317e+07 8.089170223904e+05 -3.719681500141e+07 -4.658235252225e+07 5.981888461152e-04 3.730863470833e-06 -1.230164978524e-04 0.000000000000e+00 5.438280197228e+07 3.837647440097e+07  6.682752496470e-04
3.800000000000e+01 2.103243222911e+06 1.000000000000e+00 6.688581947385e+01 0.000000000000e+00 1.242162092618e-02 -7.823348475204e+07 7.801143354527e+05 -3.851212392984e+07 -4.664888018422e+07 6.428450088019e-04 1.591235298319e-06 -1.693998020355e-04 0.000000000000e+00 5.446482962204e+07 3.636778810894e+07  7.421936483096e-04
3.900000000000e+01 2.133056539558e+06 1.000000000000e+00 6.690898290706e+01 0.000000000000e+00 1.251117961369e-02 -7.832517160268e+07 7.800322387332e+05 -3.858651880885e+07 -4.670732560418e+07 6.416103270910e-04 1.585136684870e-06 -1.699922105144e-04 0.000000000000e+00 5.453967200524e+07 3.638988125991e+07  7.413753834808e-04
4.000000000000e+01 2.162442327634e+06 1.000000000000e+00 6.692119997969e+01 0.000000000000e+00 1.259362909256e-02 -7.845727331167e+07 7.810115274985e+05 -3.859546229050e+07 -4.675442893897e+07 6.384532446206e-04 1.657883850294e-06 -1.685748445405e-04 0.000000000000e+00 5.460238818038e+07 3.649837619686e+07  7.373434925279e-04
4.200000000000e+01 2.219725185797e+06 1.000000000000e+00 6.697479430470e+01 0.000000000000e+00 1.274817147288e-02 -7.871316059791e+07 7.829679502979e+05 -3.861352942219e+07 -4.685621218816e+07 6.327293803871e-04 1.803218115389e-06 -1.654653887480e-04 0.000000000000e+00 5.472763406942e+07 3.670467023730e+07  7.296778956247e-04
4.400000000000e+01 2.275490822840e+06 1.000000000000e+00 6.700716833757e+01 0.000000000000e+00 1.289227215596e-02 -7.893940233525e+07 7.846368766878e+05 -3.862877133545e+07 -4.694082217029e+07 6.274687723365e-04 1.927195504360e-06 -1.628888604755e-04 0.000000000000e+00 5.483633194700e+07 3.688929535398e+07  7.228199337884e-04
5.000000000000e+01 2.427012687568e+06 1.000000000000e+00 6.679475867122e+01 0.000000000000e+00 1.319339002523e-02 -7.926855049272e+07 7.862624047853e+05 -3.864150437468e+07 -4.697154141022e+07 6.163842696851e-04 2.047949020168e-06 -1.622208015922e-04 0.000000000000e+00 5.496053209254e+07 3.719376587804e+07  7.115111306137e-04
6.500000000000e+01 2.758397042868e+06 1.000000000000e+00 6.601327623856e+01 0.000000000000e+00 1.370575062350e-02 -7.942491499180e+07 7.841593604324e+05 -3.861408539231e+07 -4.674150038363e+07 6.020320644457e-04 1.891722868242e-06 -1.697467632350e-04 0.000000000000e+00 5.492683358925e+07 3.743977639426e+07  7.024672948964e-04
8.000000000000e+01 3.013450390124e+06 1.000000000000e+00 6.501253148982e+01 0.000000000000e+00 1.394927770467e-02 -7.908581318237e+07 7.779700536254e+05 -3.854817011661e+07 -4.627341916655e+07 5.972414007333e-04 1.431945791149e-06 -1.846843553431e-04 0.000000000000e+00 5.463580082184e+07 3.730458821436e+07  7.078932803349e-04
1.000000000000e+02 3.314130012986e+06 1.000000000000e+00 6.391116451659e+01 0.000000000000e+00 1.415370359255e-02 -7.856810869612e+07 7.699541375515e+05 -3.846433426617e+07 -4.571097234318e+07 5.955795424973e-04 8.364777399450e-07 -2.024613343377e-04 0.000000000000e+00 5.424780510183e+07 3.704034875988e+07  7.185328881174e-04
1.860000000000e+02 3.912611203897e+06 1.000000000000e+00 6.127460325841e+01 0.000000000000e+00 1.440205311887e-02 -7.688522510343e+07 7.471670359053e+05 -3.823022471025e+07 -4.421967875322e+07 6.026957425986e-04 -8.562783823459e-07 -2.491567413165e-04 0.000000000000e+00 5.311170952230e+07 3.605877206010e+07  7.586100096619e-04
2.720000000000e+02 4.202932547735e+06 1.000000000000e+00 5.927316544670e+01 0.000000000000e+00 1.421736214826e-02 -7.527419495492e+07 7.285479519824e+05 -3.804293345077e+07 -4.298288374561e+07 6.165959049750e-04 -2.239410330899e-06 -2.881383091043e-04 0.000000000000e+00 5.210000405043e+07 3.504627950605e+07  8.005586434118e-04
3.580000000000e+02 4.344298233456e+06 1.000000000000e+00 5.786901889816e+01 0.000000000000e+00 1.402394398111e-02 -7.405399378286e+07 7.148728414052e+05 -3.790608218002e+07 -4.208616713905e+07 6.286110459792e-04 -3.255275688066e-06 -3.163618787200e-04 0.000000000000e+00 5.134874770064e+07 3.427209377114e+07  8.331488746820e-04
4.440000000000e+02 4.416427119135e+06 1.000000000000e+00 5.679914770245e+01 0.000000000000e+00 1.384245691206e-02 -7.309377755258e+07 7.043330230995e+05 -3.780096479729e+07 -4.139335719717e+07 6.385432795482e-04 -4.038233619344e-06 -3.381904594884e-04 0.000000000000e+00 5.076269984901e+07 3.366289556834e+07  8.591323959966e-04
5.300000000000e+02 4.455391631741e+06 1.000000000000e+00 5.597604559742e+01 0.000000000000e+00 1.368494577102e-02 -7.233908995265e+07 6.961619757762e+05 -3.771963179840e+07 -4.085533634144e+07 6.465909014757e-04 -4.645225706219e-06 -3.551531513138e-04 0.000000000000e+00 5.030468603083e+07 3.318489201659e+07  8.797255739120e-04
6.160000000000e+02 4.477907107390e+06 1.000000000000e+00 5.534879673767e+01 0.000000000000e+00 1.355428135529e-02 -7.175455259388e+07 6.898988901229e+05 -3.765739767547e+07 -4.044238006108e+07 6.529639129596e-04 -5.110483497605e-06 -3.681799743040e-04 0.000000000000e+00 4.995144344347e+07 3.281524045328e+07  8.957705916839e-04
7.020000000000e+02 4.491717402700e+06 1.000000000000e+00 5.488766029124e+01 0.000000000000e+00 1.345399219170e-02 -7.132112991116e+07 6.852813608560e+05 -3.761156564675e+07 -4.013763544565e+07 6.577433840305e-04 -5.453499957438e-06 -3.777967275245e-04 0.000000000000e+00 4.969011033452e+07 3.254184799506e+07  9.077109928756e-04
7.880000000000e+02 4.501335964160e+06 1.000000000000e+00 5.452634175001e+01 0.000000000000e+00 1.336342526750e-02 -7.097402652866e+07 6.816594534236e+05 -3.757573414009e+07 -3.989658041926e+07 6.616823229717e-04 -5.722555938128e-06 -3.854193154001e-04 0.000000000000e+00 4.948211369600e+07 3.232203486996e+07  9.173303309540e-04
8.740000000000e+02 4.509722042572e+06 1.000000000000e+00 5.394399363726e+01 0.000000000000e+00 1.323581382278e-02 -7.042668296029e+07 6.758259836760e+05 -3.751781404102e+07 -3.951172351864e+07 6.677175420595e-04 -6.155899405089e-06 -3.975626823151e-04 0.000000000000e+00 4.915207350665e+07 3.198002884919e+07  9.324570042024e-04
9.370000000000e+02 4.515095894190e+06 1.000000000000e+00 5.354017250226e+01 0.000000000000e+00 1.313087835698e-02 -7.002814479453e+07 6.716721919179e+05 -3.747675469490e+07 -3.923879136957e+07 6.723829083937e-04 -6.464466792836e-06 -4.061751007105e-04 0.000000000000e+00 4.891456361967e+07 3.172844871868e+07  9.435611010755e-04
1.000000000000e+03 4.519285919232e+06 1.000000000000e+00 5.322023010413e+01 0.000000000000e+00 1.304318852577e-02 -6.970078405603e+07 6.682749564914e+05 -3.744319061345e+07 -3.901871683142e+07 6.763678244066e-04 -6.716832853087e-06 -4.131026319593e-04 0.000000000000e+00 4.872089716697e+07 3.152065525374e+07  9.527181610476e-04
1.100000000000e+03 4.523431229204e+06 1.000000000000e+00 5.289815656035e+01 0.000000000000e+00 1.295152559998e-02 -6.936390479398e+07 6.647929602659e+05 -3.740880577508e+07 -3.879476775820e+07 6.805623742775e-04 -6.975495429845e-06 -4.201435892535e-04 0.000000000000e+00 4.852249277575e+07 3.130633387287e+07  9.621671747272e-04
1.200000000000e+03 4.526692601801e+06 1.000000000000e+00 5.262163524846e+01 0.000000000000e+00 1.287530519661e-02 -6.908027838904e+07 6.618511714765e+05 -3.737975167131e+07 -3.860433675141e+07 6.840239176371e-04 -7.194028311339e-06 -4.261375885090e-04 0.000000000000e+00 4.835478893725e+07 3.112743406819e+07  9.701162451553e-04
1.300000000000e+03 4.529597975110e+06 1.000000000000e+00 5.235621127183e+01 0.000000000000e+00 1.280274423275e-02 -6.880971256586e+07 6.590426878955e+05 -3.735200469180e+07 -3.842210004834e+07 6.873047135271e-04 -7.402658520217e-06 -4.318757782410e-04 0.000000000000e+00 4.819460576867e+07 3.095759605382e+07  9.777009323769e-04
1.400000000000e+03 4.532337488817e+06 1.000000000000e+00 5.208448046145e+01 0.000000000000e+00 1.272778100955e-02 -6.853190039409e+07 6.561612346262e+05 -3.732354771022e+07 -3.823526901035e+07 6.906840127820e-04 -7.616709334507e-06 -4.377582431932e-04 0.000000000000e+00 4.803023903822e+07 3.078361310476e+07  9.854964981250e-04
1.500000000000e+03 4.534977375631e+06 1.000000000000e+00 5.179637451914e+01 0.000000000000e+00 1.264687824164e-02 -6.823507955752e+07 6.530892452701e+05 -3.729321533942e+07 -3.803644143813e+07 6.943237626005e-04 -7.844914258103e-06 -4.440166363892e-04 0.000000000000e+00 4.785491211169e+07 3.059794310051e+07  9.938371045480e-04
1.600000000000e+03 4.537538419005e+06 1.000000000000e+00 5.148575254412e+01 0.000000000000e+00 1.255786795612e-02 -6.791210128345e+07 6.497537512940e+05 -3.726029696003e+07 -3.782111020728e+07 6.983220813489e-04 -8.092693810614e-06 -4.507919708715e-04 0.000000000000e+00 4.766450281692e+07 3.039612181964e+07  1.002926514125e-03
1.700000000000e+03 4.540025706284e+06 1.000000000000e+00 5.114882396046e+01 0.000000000000e+00 1.245940791176e-02 -6.755855996922e+07 6.461107540201e+05 -3.722435843619e+07 -3.758649669975e+07 7.027393998833e-04 -8.363316465244e-06 -4.581713274089e-04 0.000000000000e+00 4.745647170172e+07 3.017552201732e+07  1.012891163088e-03
1.800000000000e+03 4.542439113240e+06 1.000000000000e+00 5.078330097052e+01 0.000000000000e+00 1.235069041841e-02 -6.717178984409e+07 6.421329115699e+05 -3.718513222535e+07 -3.733092019557e+07 7.076123058041e-04 -8.658813332975e-06 -4.662071954471e-04 0.000000000000e+00 4.722928075500e+07 2.993469891875e+07  1.023808184237e-03
1.900000000000e+03 4.544778403850e+06 1.000000000000e+00 5.038789710237e+01 0.000000000000e+00 1.223125458455e-02 -6.675033505722e+07 6.378052008586e+05 -3.714246802366e+07 -3.705344858528e+07 7.129602523628e-04 -8.980300414381e-06 -4.749286134810e-04 0.000000000000e+00 4.698208388872e+07 2.967304798728e+07  1.035720363255e-03
2.000000000000e+03 4.547042747354e+06 1.000000000000e+00 4.996201034884e+01 0.000000000000e+00 1.210089198252e-02 -6.629342442340e+07 6.331207433705e+05 -3.709630091627e+07 -3.675362033778e+07 7.187947409977e-04 -9.328288684925e-06 -4.843503129706e-04 0.000000000000e+00 4.671444855915e+07 2.939042809947e+07  1.048651807815e-03