 TITLE = "Time curves in points"
 VARIABLES = "TIME"  "PRESSURE1"  "SATURATION1"  "TEMPERATURE1"  "DISPLACEMENT_X1"  "DISPLACEMENT_Y1"  "STRESS_XX"  "STRESS_XY"  "STRESS_YY"  "STRESS_ZZ"  "STRAIN_XX"  "STRAIN_XY"  "STRAIN_YY"  "STRAIN_PLS"  p_(1st_Invariant)  q_(2nd_Invariant)   Effective_Strain
 ZONE T="POINT=POINT2"
0.000000000000e+00 -7.000000000000e+07 6.684759947500e-01 2.500000000000e+01 0.000000000000e+00 0.000000000000e+00 0.000000000000e+00 0.000000000000e+00 0.000000000000e+00 0.000000000000e+00 0.000000000000e+00 0.000000000000e+00 0.000000000000e+00 0.000000000000e+00 -0.000000000000e+00 0.000000000000e+00  0.000000000000e+00
1.000000000000e-03 -6.999999537629e+07 6.684760111000e-01 3.309920063102e+01 0.000000000000e+00 1.358352082401e-04 2.983041006582e+07 7.245974555741e+05 1.711367678842e+07 1.407247205361e+07 1.421021961910e-04 2.079317335651e-05 -1.698019017333e-05 0.000000000000e+00 -2.033885296929e+07 1.453318772190e+07  1.555356920797e-04
2.000000000000e-03 -7.015897611663e+07 6.679155787534e-01 3.680474757739e+01 0.000000000000e+00 1.356223119234e-04 2.976144488545e+07 7.222980557999e+05 1.703961459297e+07 1.402396262346e+07 1.414128242108e-04 2.029022764709e-05 -3.787337140029e-05 0.000000000000e+00 -2.027500736729e+07 1.452132496755e+07  1.674002375701e-04
3.000000000000e-03 -7.037098644128e+07 6.671689084845e-01 3.938015885731e+01 0.000000000000e+00 1.352602182440e-04 2.968168531078e+07 7.196603191874e+05 1.694888844558e+07 1.396813686078e+07 1.403867864587e-04 1.861588574157e-05 -7.673907615827e-05 0.000000000000e+00 -2.019957020571e+07 1.450917066481e+07  1.934170145704e-04
4.000000000000e-03 -7.061767541777e+07 6.663004323391e-01 4.141326417306e+01 0.000000000000e+00 1.348101649458e-04 2.959499820947e+07 7.168243457231e+05 1.684754504364e+07 1.390745377059e+07 1.391651917907e-04 1.627783456373e-05 -1.259904337705e-04 0.000000000000e+00 -2.011666567456e+07 1.449696127274e+07  2.314496199641e-04
1.000000000000e-02 -7.212436584081e+07 6.610101988942e-01 4.814031443773e+01 0.000000000000e+00 1.318989356803e-04 2.910759536172e+07 7.025152348596e+05 1.625213120366e+07 1.356336898522e+07 1.316563068177e-04 -1.094924719320e-06 -4.532812595074e-04 0.000000000000e+00 -1.964103185020e+07 1.444085420884e+07  5.314867980508e-04
2.000000000000e-02 -7.521838996300e+07 6.501913288293e-01 5.432127419821e+01 0.000000000000e+00 1.297333079693e-04 2.823020486328e+07 6.833678790565e+05 1.510285436695e+07 1.292591307598e+07 1.174047687069e-04 -4.200109905294e-05 -1.141197551716e-03 0.000000000000e+00 -1.875299076874e+07 1.438905315679e+07  1.206395475510e-03
3.000000000000e-02 -7.885304633079e+07 6.375369856497e-01 5.823716280856e+01 0.000000000000e+00 1.298030975933e-04 2.732007782299e+07 6.730784381023e+05 1.382488562047e+07 1.223995653063e+07 1.024566217299e-04 -9.422323272185e-05 -1.939323024377e-03 0.000000000000e+00 -1.779497332470e+07 1.440070273456e+07  1.999200262728e-03
4.000000000000e-02 -8.260242327411e+07 6.245443995564e-01 6.095065630048e+01 0.000000000000e+00 1.321568338464e-04 2.648226190068e+07 6.747149546316e+05 1.256437093808e+07 1.158239753525e+07 8.876574626148e-05 -1.518930975617e-04 -2.748380513461e-03 0.000000000000e+00 -1.687634345800e+07 1.448118365913e+07  2.806180926282e-03
5.000000000000e-02 -8.623995779398e+07 6.178036143255e-01 6.295232042415e+01 0.000000000000e+00 1.354486141000e-04 2.534923572538e+07 6.612444718025e+05 1.102432055169e+07 1.074346399591e+07 6.913273179425e-05 -2.123809631790e-04 -3.705045675732e-03 0.000000000000e+00 -1.570567342432e+07 1.451265152308e+07  3.758137802611e-03
6.000000000000e-02 -8.968091226372e+07 6.112976906321e-01 6.450103477421e+01 0.000000000000e+00 1.411122272501e-04 2.437997658490e+07 6.628425193346e+05 9.574073664778e+06 9.982749363642e+06 5.325108101539e-05 -2.771811713474e-04 -4.624743394377e-03 0.000000000000e+00 -1.464559987111e+07 1.465090594468e+07  4.676307082718e-03
7.000000000000e-02 -9.292392938875e+07 6.047947063201e-01 6.575112486100e+01 0.000000000000e+00 1.468035782628e-04 2.357342689637e+07 6.812492096183e+05 8.225375187634e+06 9.303677800325e+06 4.107362416508e-05 -3.461525817599e-04 -5.500632392365e-03 0.000000000000e+00 -1.370082662811e+07 1.488515653186e+07  5.553741036065e-03
8.000000000000e-02 -9.597684695762e+07 5.987103585852e-01 6.679366742605e+01 0.000000000000e+00 1.532786649215e-04 2.286712034520e+07 7.117898234266e+05 6.948431889293e+06 8.677714902658e+06 3.152944712667e-05 -4.180030365987e-04 -6.343722169686e-03 0.000000000000e+00 -1.283108904572e+07 1.517850712728e+07  6.400624871116e-03
9.000000000000e-02 -9.886346754405e+07 5.929822425977e-01 6.768829038096e+01 0.000000000000e+00 1.591232577298e-04 2.222322139629e+07 7.443312253302e+05 5.754406909607e+06 8.097279285985e+06 2.298096199465e-05 -4.870421422614e-04 -7.138286642686e-03 0.000000000000e+00 -1.202496919729e+07 1.548511084737e+07  7.199398527434e-03
1.000000000000e-01 -1.016032165072e+08 5.873455843141e-01 6.846872345115e+01 0.000000000000e+00 1.644644128060e-04 2.164274717154e+07 7.774290168634e+05 4.656661403328e+06 7.567059100095e+06 1.449392611028e-05 -5.514711780647e-04 -7.875747015271e-03 0.000000000000e+00 -1.128882255832e+07 1.579159419470e+07  7.940662000013e-03
2.000000000000e-01 -1.181504402572e+08 5.520553179435e-01 7.270598302650e+01 0.000000000000e+00 2.574699690591e-04 1.845336263317e+07 9.918244893246e+05 -1.450112511174e+06 4.627160748938e+06 -4.151215337565e-05 -9.159031012265e-04 -1.209621268791e-02 0.000000000000e+00 -7.210136956980e+06 1.775032008936e+07  1.217926846269e-02
3.000000000000e-01 -1.336338813975e+08 5.238622770480e-01 7.551347421724e+01 0.000000000000e+00 3.658266480101e-04 1.536523458976e+07 1.104078210979e+06 -6.564678223209e+06 2.040700014851e+06 -1.032724827651e-04 -1.183414266841e-03 -1.559878317150e-02 0.000000000000e+00 -3.613752127134e+06 1.923318440116e+07  1.568193816311e-02
4.000000000000e-01 -1.468337436515e+08 5.053221643792e-01 7.753845443330e+01 0.000000000000e+00 4.700624207954e-04 1.266693662914e+07 1.207111500326e+06 -1.108637796603e+07 -2.387609176562e+05 -1.515505167458e-04 -1.421633507870e-03 -1.869023626648e-02 0.000000000000e+00 -4.472659151524e+05 2.070254197073e+07  1.877707404746e-02
5.000000000000e-01 -1.576243856302e+08 4.899377762349e-01 7.910019779374e+01 0.000000000000e+00 5.715059727638e-04 1.065885666349e+07 1.301388314679e+06 -1.453015310864e+07 -1.960868363641e+06 -1.851424811714e-04 -1.611054800436e-03 -2.107444727407e-02 0.000000000000e+00 1.944054936265e+06 2.193048405001e+07  2.116722284331e-02
6.000000000000e-01 -1.663707386255e+08 4.767885865080e-01 8.034131145665e+01 0.000000000000e+00 6.705473201967e-04 9.155289039526e+06 1.373460321414e+06 -1.707004960843e+07 -3.237664810276e+06 -2.140250535845e-04 -1.749890792033e-03 -2.285072168934e-02 0.000000000000e+00 3.717475126394e+06 2.284739504905e+07  2.294552276295e-02
7.000000000000e-01 -1.732967288043e+08 4.680998904366e-01 8.134433199461e+01 0.000000000000e+00 7.672067733467e-04 7.762848358278e+06 1.416690632436e+06 -1.924752040505e+07 -4.363823712085e+06 -2.407414356545e-04 -1.861343258142e-03 -2.434517325720e-02 0.000000000000e+00 5.282831919618e+06 2.356037666899e+07  2.443927825397e-02
8.000000000000e-01 -1.786683261392e+08 4.623781740773e-01 8.216160041108e+01 0.000000000000e+00 8.616806793033e-04 6.554706129875e+06 1.445947945619e+06 -2.107170437837e+07 -5.320241727266e+06 -2.642805775400e-04 -1.950467174326e-03 -2.558479416993e-02 0.000000000000e+00 6.612413325252e+06 2.413385705391e+07  2.567689504898e-02
9.000000000000e-01 -1.827329828006e+08 4.580426417477e-01 8.284030409014e+01 0.000000000000e+00 9.539939065607e-04 5.582314973214e+06 1.467917126502e+06 -2.248768190212e+07 -6.073137375890e+06 -2.831408314675e-04 -2.018645438294e-03 -2.654659873410e-02 0.000000000000e+00 7.659501434931e+06 2.455748613141e+07  2.663663708613e-02
1.000000000000e+00 -1.857446764972e+08 4.548262746498e-01 8.340750005276e+01 0.000000000000e+00 1.044056621156e-03 4.825403825366e+06 1.492150480572e+06 -2.362373790094e+07 -6.670456084036e+06 -2.966169432409e-04 -2.077573710916e-03 -2.732201219296e-02 0.000000000000e+00 8.489596719868e+06 2.492269350134e+07  2.741213413283e-02
2.000000000000e+00 -1.865346209102e+08 4.540266981427e-01 8.537368196158e+01 0.000000000000e+00 1.792326491703e-03 2.103002572758e+06 1.520769037423e+06 -2.677569547047e+07 -8.517082326482e+06 -3.385114759902e-04 -2.231601187973e-03 -2.938594552426e-02 0.000000000000e+00 1.106325840807e+07 2.543637934802e+07  2.947271681009e-02
3.000000000000e+00 -1.779756229599e+08 4.632179859253e-01 8.594055503270e+01 0.000000000000e+00 2.427622002984e-03 1.161731913001e+06 1.494514583358e+06 -2.714146534077e+07 -8.922306078726e+06 -3.476104082518e-04 -2.245762530768e-03 -2.953979539239e-02 0.000000000000e+00 1.163401316883e+07 2.498097280191e+07  2.962401648187e-02
4.000000000000e+00 -1.659453122592e+08 4.777255350771e-01 8.593358505497e+01 0.000000000000e+00 2.980898666652e-03 1.037248684807e+06 1.447845763558e+06 -2.628690765653e+07 -8.685643841495e+06 -3.395889227968e-04 -2.199184165675e-03 -2.885745833989e-02 0.000000000000e+00 1.131176760441e+07 2.411976565870e+07  2.894093609865e-02
5.000000000000e+00 -1.534804877826e+08 4.962754146721e-01 8.574019148796e+01 0.000000000000e+00 3.471151186680e-03 1.014683508449e+06 1.368888226712e+06 -2.512846957586e+07 -8.320040994952e+06 -3.325161527544e-04 -2.123223475976e-03 -2.793016189934e-02 0.000000000000e+00 1.081127568745e+07 2.306911285644e+07  2.800788307819e-02
6.000000000000e+00 -1.417531261418e+08 5.128625754617e-01 8.559242980945e+01 0.000000000000e+00 3.913596771175e-03 1.369180383853e+06 1.293241750559e+06 -2.346215137212e+07 -7.675910859358e+06 -3.198015381745e-04 -2.023817921066e-03 -2.670040464967e-02 0.000000000000e+00 9.922960615874e+06 2.188205825845e+07  2.677242177943e-02
7.000000000000e+00 -1.313745199588e+08 5.275460241650e-01 8.532214681570e+01 0.000000000000e+00 4.315814029363e-03 1.961571376793e+06 1.250713663080e+06 -2.176665733791e+07 -6.950922037209e+06 -3.019779490780e-04 -1.937278458899e-03 -2.549517237276e-02 0.000000000000e+00 8.918669332774e+06 2.087286632562e+07  2.556668082908e-02
8.000000000000e+00 -1.218730959906e+08 5.455279995570e-01 8.524103736831e+01 0.000000000000e+00 4.687948899368e-03 2.351018450789e+06 1.205836246310e+06 -2.045080043528e+07 -6.411619662489e+06 -2.851506711705e-04 -1.868805162576e-03 -2.451344732590e-02 0.000000000000e+00 8.170467215661e+06 2.003159522238e+07  2.458612785606e-02
9.000000000000e+00 -1.135456723911e+08 5.638272292629e-01 8.515896216798e+01 0.000000000000e+00 5.032582644921e-03 2.548706574217e+06 1.149249600996e+06 -1.929163674047e+07 -5.981014444091e+06 -2.746513462125e-04 -1.796370399923e-03 -2.362533463774e-02 0.000000000000e+00 7.574648203448e+06 1.916838608938e+07  2.369438709875e-02
1.000000000000e+01 -1.059793814307e+08 5.802612876493e-01 8.507174828328e+01 0.000000000000e+00 5.353511403600e-03 2.840297191308e+06 1.087620521326e+06 -1.799383750450e+07 -5.476433036837e+06 -2.650406835105e-04 -1.716191324643e-03 -2.265479208063e-02 0.000000000000e+00 6.876657783342e+06 1.826214794607e+07  2.271874440172e-02
1.100000000000e+01 -9.909822239385e+07 5.940697235376e-01 8.503712413052e+01 0.000000000000e+00 5.656286185248e-03 3.280462966323e+06 1.028404508855e+06 -1.652640193478e+07 -4.871479203096e+06 -2.578044476000e-04 -1.627178268585e-03 -2.159146297546e-02 0.000000000000e+00 6.039139390518e+06 1.733419997041e+07  2.164796731155e-02
1.200000000000e+01 -9.295714370288e+07 6.064074931299e-01 8.500709436574e+01 0.000000000000e+00 5.939787910735e-03 3.738497364113e+06 9.766688181276e+05 -1.510626477182e+07 -4.275934443385e+06 -2.495215631833e-04 -1.544053941191e-03 -2.056942314332e-02 0.000000000000e+00 5.214567283697e+06 1.646777951124e+07  2.061997144913e-02
1.300000000000e+01 -8.732663386456e+07 6.177177505005e-01 8.495625991997e+01 0.000000000000e+00 6.206680116980e-03 4.316068616369e+06 9.521820752807e+05 -1.376912112649e+07 -3.671326712173e+06 -2.361062453749e-04 -1.479520062374e-03 -1.962615536224e-02 0.000000000000e+00 4.374793074097e+06 1.578413647353e+07  1.967675789995e-02
1.400000000000e+01 -8.200086889634e+07 6.338216818148e-01 8.486705774908e+01 0.000000000000e+00 6.459278726106e-03 4.658456774721e+06 9.199575360404e+05 -1.276026402784e+07 -3.245769807537e+06 -2.249578150354e-04 -1.425216230530e-03 -1.886736688055e-02 0.000000000000e+00 3.782525686884e+06 1.519032856356e+07  1.891765052289e-02
1.500000000000e+01 -7.695663969346e+07 6.518493195536e-01 8.476324701420e+01 0.000000000000e+00 6.697729441670e-03 4.922468413715e+06 8.817604686143e+05 -1.181468430985e+07 -2.865071006727e+06 -2.156035256740e-04 -1.369249931142e-03 -1.813827748147e-02 0.000000000000e+00 3.252428967621e+06 1.458661439362e+07  1.818673842178e-02
1.600000000000e+01 -7.222795146695e+07 6.687652458732e-01 8.464730144316e+01 0.000000000000e+00 6.922845859851e-03 5.256262568467e+06 8.447859658807e+05 -1.078106174561e+07 -2.434370157017e+06 -2.050815884445e-04 -1.309744399196e-03 -1.735975836761e-02 0.000000000000e+00 2.653056444719e+06 1.396944600400e+07  1.740659051602e-02
1.700000000000e+01 -6.776362494508e+07 6.847516233467e-01 8.451638002229e+01 0.000000000000e+00 7.135945169824e-03 5.640421112167e+06 8.070237346952e+05 -9.674488459967e+06 -1.964452265691e+06 -1.946741062825e-04 -1.246268269158e-03 -1.653757158584e-02 0.000000000000e+00 1.999506537831e+06 1.333665880690e+07  1.658219794816e-02
1.800000000000e+01 -6.352441181017e+07 6.999404065213e-01 8.436963525027e+01 0.000000000000e+00 7.337654222135e-03 6.067197560852e+06 7.685516086252e+05 -8.507481488633e+06 -1.461657720731e+06 -1.831250648847e-04 -1.180412469487e-03 -1.567911709656e-02 0.000000000000e+00 1.300647216171e+06 1.269434112638e+07  1.572186786535e-02
1.900000000000e+01 -5.947137322034e+07 7.144609247882e-01 8.420550107586e+01 0.000000000000e+00 7.528747121536e-03 6.526555104889e+06 7.278586469217e+05 -7.273498630783e+06 -9.270396433052e+05 -1.718731355654e-04 -1.109765670976e-03 -1.477938522483e-02 0.000000000000e+00 5.579943897331e+05 1.203024872388e+07  1.481939027935e-02
2.000000000000e+01 -5.570661916701e+07 7.279403840183e-01 8.402769552271e+01 0.000000000000e+00 7.711352501283e-03 6.998906677204e+06 6.867909620114e+05 -6.028220004177e+06 -3.844437478696e+05 -1.608035467649e-04 -1.038541557509e-03 -1.387739391292e-02 0.000000000000e+00 -1.954143083859e+05 1.137765780942e+07  1.391445619253e-02
2.100000000000e+01 -5.208363472868e+07 7.403246089116e-01 8.393963600303e+01 0.000000000000e+00 7.884403750171e-03 7.526789812398e+06 6.454460130123e+05 -4.706385304110e+06 1.999553159953e+05 -1.500500136605e-04 -9.631584315047e-04 -1.293026466128e-02 0.000000000000e+00 -1.006786608094e+06 1.072158707430e+07  1.296368370953e-02
2.200000000000e+01 -4.869859103963e+07 7.518073448756e-01 8.385004954402e+01 0.000000000000e+00 8.050108628343e-03 8.048003680106e+06 6.049080330102e+05 -3.409660832812e+06 7.745807924578e+05 -1.393763089851e-04 -8.895497622041e-04 -1.200271222604e-02 0.000000000000e+00 -1.804307879917e+06 1.009663599775e+07  1.203268586588e-02
2.300000000000e+01 -4.556372566460e+07 7.623569474486e-01 8.375183754585e+01 0.000000000000e+00 8.209288550382e-03 8.580833883061e+06 5.700418986025e+05 -2.156284118257e+06 1.338962916135e+06 -1.281694759055e-04 -8.207614217940e-04 -1.111199361078e-02 0.000000000000e+00 -2.587837560313e+06 9.536688012728e+06  1.113954931574e-02
2.400000000000e+01 -4.249966813182e+07 7.735265781505e-01 8.363904537339e+01 0.000000000000e+00 8.360991932054e-03 9.135232540096e+06 5.364762230096e+05 -8.967515733870e+05 1.911573829699e+06 -1.162177531836e-04 -7.524110180078e-04 -1.021698701063e-02 0.000000000000e+00 -3.383351598803e+06 9.012088615138e+06  1.024262182680e-02
2.500000000000e+01 -3.946992246748e+07 7.878662754900e-01 8.350995262076e+01 0.000000000000e+00 8.505740421193e-03 9.646215822270e+06 5.002357337124e+05 3.169877773988e+05 2.454865308708e+06 -1.048565667516e-04 -6.839755751900e-04 -9.339066391116e-03 0.000000000000e+00 -4.139356302792e+06 8.509463943066e+06  9.362337383432e-03
2.600000000000e+01 -3.648795378572e+07 8.025711787031e-01 8.336809681710e+01 0.000000000000e+00 8.644020966026e-03 1.019074861059e+07 4.636469204144e+05 1.581888567883e+06 3.024696003366e+06 -9.309467106918e-05 -6.128044585239e-04 -8.427970869654e-03 0.000000000000e+00 -4.932444393946e+06 8.026091368191e+06  8.448748329474e-03
2.700000000000e+01 -3.356096605392e+07 8.175875760967e-01 8.321341883346e+01 0.000000000000e+00 8.776053037432e-03 1.076463884819e+07 4.264011419330e+05 2.893663564042e+06 3.618453026334e+06 -8.093873855702e-05 -5.390220225674e-04 -7.486387446511e-03 0.000000000000e+00 -5.758918479521e+06 7.570880103787e+06  7.504548190588e-03
2.800000000000e+01 -3.067654675071e+07 8.329529107597e-01 8.304585324656e+01 0.000000000000e+00 8.902168359345e-03 1.137027912445e+07 3.883569173851e+05 4.256877761270e+06 4.238318314155e+06 -6.831959491949e-05 -4.624178891487e-04 -6.511440457731e-03 0.000000000000e+00 -6.621825066626e+06 7.154390783920e+06  6.526879525457e-03
2.900000000000e+01 -2.782237962269e+07 8.487208743021e-01 8.286538415682e+01 0.000000000000e+00 9.022476751936e-03 1.201138244113e+07 3.494286892185e+05 5.681599502274e+06 4.888647503955e+06 -5.529391893177e-05 -3.823259002246e-04 -5.496670402598e-03 0.000000000000e+00 -7.527209815787e+06 6.788257521745e+06  5.509176868334e-03
3.000000000000e+01 -2.498527270894e+07 8.648790606948e-01 8.267204394571e+01 0.000000000000e+00 9.137016680023e-03 1.269527963058e+07 3.095490713565e+05 7.177425220713e+06 5.574758169502e+06 -4.172947419331e-05 -2.983656670710e-04 -4.436369241492e-03 0.000000000000e+00 -8.482487673600e+06 6.491995402369e+06  4.445790396989e-03
3.100000000000e+01 -2.214934943915e+07 8.814778676295e-01 8.255052594415e+01 0.000000000000e+00 9.247683375571e-03 1.342686245666e+07 2.686298172950e+05 8.755292926457e+06 6.301543897363e+06 -2.760444476870e-05 -2.098996355421e-04 -3.323081236888e-03 0.000000000000e+00 -9.494566426826e+06 6.286794994953e+06  3.329275096904e-03
3.200000000000e+01 -1.935151182058e+07 8.982243904119e-01 8.242766297742e+01 0.000000000000e+00 9.354433592788e-03 1.419052887108e+07 2.271251654764e+05 1.038811408731e+07 7.055726393214e+06 -1.317509651316e-05 -1.184754497586e-04 -2.175746938522e-03 0.000000000000e+00 -1.054478978387e+07 6.195889257181e+06  2.178874008367e-03
3.300000000000e+01 -1.652325329260e+07 9.153678531470e-01 8.229794208306e+01 0.000000000000e+00 9.457246653895e-03 1.501787880125e+07 1.846745248106e+05 1.212789210760e+07 7.863562571048e+06 1.956040402257e-06 -2.150949426318e-05 -9.610635078341e-04 0.000000000000e+00 -1.166977782663e+07 6.242010825373e+06  9.627641176661e-04
3.400000000000e+01 -1.363663608733e+07 9.328905707185e-01 8.215991165291e+01 0.000000000000e+00 9.555991146394e-03 1.592764326840e+07 1.413807076723e+05 1.400290689644e+07 8.739855158941e+06 1.803389766671e-05 8.222926134905e-05 3.383925998883e-04 0.000000000000e+00 -1.289013510793e+07 6.449362473404e+06  3.591896294058e-04
3.500000000000e+01 -1.065694982479e+07 9.506820818212e-01 8.201296658974e+01 0.000000000000e+00 9.651295823266e-03 1.693497348669e+07 9.721965840994e+04 1.604179569749e+07 9.698500806543e+06 3.508013203104e-05 1.941463258842e-04 1.740409299109e-03 0.000000000000e+00 -1.422508999691e+07 6.835876076224e+06  1.755642259587e-03
3.600000000000e+01 -7.548471276708e+06 9.684051340386e-01 8.185688129035e+01 0.000000000000e+00 9.742634717199e-03 1.805911559037e+07 5.254600542224e+04 1.827159214988e+07 1.075421482036e+07 5.365305824017e-05 3.148616834419e-04 3.260831283939e-03 0.000000000000e+00 -1.569497418687e+07 7.413981722341e+06  3.279993808117e-03
3.700000000000e+01 -4.219398421637e+06 9.854151069978e-01 8.169151075588e+01 0.000000000000e+00 9.826439281904e-03 1.932345011938e+07 5.664333586300e+03 2.075547601673e+07 1.193497426438e+07 7.381081991540e-05 4.479254471312e-04 4.941500774876e-03 0.000000000000e+00 -1.733796680016e+07 8.198832761494e+06  4.965989663702e-03
3.800000000000e+01 2.090572734685e+06 1.000000000000e+00 8.151767899883e+01 0.000000000000e+00 9.816278716260e-03 2.124508051425e+07 -1.017469647764e+05 2.510537210564e+07 1.392484669070e+07 1.073577798471e-04 6.835715855454e-04 7.906976510756e-03 0.000000000000e+00 -2.009176643686e+07 9.837528592726e+06  7.942590139793e-03
3.900000000000e+01 2.140131956349e+06 1.000000000000e+00 8.133875720498e+01 0.000000000000e+00 1.000708909575e-02 2.118973885900e+07 -1.021295068262e+05 2.503152847019e+07 1.388442405677e+07 1.076949672072e-04 6.784759272640e-04 7.857479475698e-03 0.000000000000e+00 -2.003523046199e+07 9.809370295711e+06  7.892170783387e-03
4.000000000000e+01 2.169517864080e+06 1.000000000000e+00 8.114888553295e+01 0.000000000000e+00 1.008202109581e-02 2.118116702644e+07 -1.025910307390e+05 2.503539390190e+07 1.388335072373e+07 1.074661768978e-04 6.788348129643e-04 7.859622233038e-03 0.000000000000e+00 -2.003330388403e+07 9.811839892723e+06  7.894492838800e-03
4.200000000000e+01 2.226800933249e+06 1.000000000000e+00 8.087411831808e+01 0.000000000000e+00 1.022227450080e-02 2.116397561252e+07 -1.034923555599e+05 2.504220117496e+07 1.388076977157e+07 1.070367162005e-04 6.795317879042e-04 7.863962545145e-03 0.000000000000e+00 -2.002898218635e+07 9.816504872231e+06  7.899172196833e-03
4.400000000000e+01 2.282566755688e+06 1.000000000000e+00 8.057884030626e+01 0.000000000000e+00 1.035313555928e-02 2.114759925678e+07 -1.043692010132e+05 2.504873815623e+07 1.387836735836e+07 1.066350633299e-04 6.801703725364e-04 7.867924419973e-03 0.000000000000e+00 -2.002490159046e+07 9.820976490360e+06  7.903448886617e-03
5.000000000000e+01 2.434088948783e+06 1.000000000000e+00 7.938388861324e+01 0.000000000000e+00 1.062673729678e-02 2.110732070778e+07 -1.067364502934e+05 2.506569688562e+07 1.387328893991e+07 1.057290296581e-04 6.814148567956e-04 7.875283875072e-03 0.000000000000e+00 -2.001543551110e+07 9.832047325603e+06  7.911485779516e-03
6.500000000000e+01 2.765473785960e+06 1.000000000000e+00 7.672160526678e+01 0.000000000000e+00 1.109081931460e-02 2.102617163380e+07 -1.119260003156e+05 2.510106817036e+07 1.386376927171e+07 1.041714751949e-04 6.835588102374e-04 7.889564614224e-03 0.000000000000e+00 -1.999700302529e+07 9.855375195674e+06  7.926914396845e-03
8.000000000000e+01 3.020527303102e+06 1.000000000000e+00 7.427524819115e+01 0.000000000000e+00 1.131101853647e-02 2.096956442783e+07 -1.159035102162e+05 2.512563425255e+07 1.385778521376e+07 1.033062979915e-04 6.844460050755e-04 7.895770674845e-03 0.000000000000e+00 -1.998432796471e+07 9.871558734082e+06  7.933699194218e-03
1.000000000000e+02 3.321207026676e+06 1.000000000000e+00 7.180475266376e+01 0.000000000000e+00 1.149526086417e-02 2.090116008088e+07 -1.205930370016e+05 2.514846849767e+07 1.384777130108e+07 1.024792855391e-04 6.851692756774e-04 7.901726526653e-03 0.000000000000e+00 -1.996579995987e+07 9.888956852944e+06  7.940175793142e-03
1.860000000000e+02 3.919688121244e+06 1.000000000000e+00 6.658180883606e+01 0.000000000000e+00 1.171410589493e-02 2.077497350033e+07 -1.299434256432e+05 2.519549233193e+07 1.383169608331e+07 1.012619904767e-04 6.860702926352e-04 7.912173844431e-03 0.000000000000e+00 -1.993405397186e+07 9.924395824772e+06  7.951328430020e-03
2.720000000000e+02 4.210009356002e+06 1.000000000000e+00 6.332445349263e+01 0.000000000000e+00 1.154573994973e-02 2.072199301914e+07 -1.344259543847e+05 2.520889468746e+07 1.382412828804e+07 1.013044519128e-04 6.848050880931e-04 7.905463990775e-03 0.000000000000e+00 -1.991833866488e+07 9.935646743477e+06  7.944346343832e-03
3.580000000000e+02 4.351374974385e+06 1.000000000000e+00 6.119532452329e+01 0.000000000000e+00 1.136970412875e-02 2.070349961934e+07 -1.365997198150e+05 2.521649695352e+07 1.382360210253e+07 1.015844403235e-04 6.836448808387e-04 7.898943375254e-03 0.000000000000e+00 -1.991453289180e+07 9.940074063270e+06  7.937463516222e-03
4.440000000000e+02 4.423503819664e+06 1.000000000000e+00 5.963761477377e+01 0.000000000000e+00 1.120503850363e-02 2.069973090377e+07 -1.376980565539e+05 2.522098862403e+07 1.382576820592e+07 1.019269495608e-04 6.825868044198e-04 7.892598383132e-03 0.000000000000e+00 -1.991549591124e+07 9.941276262393e+06  7.930750538245e-03
5.300000000000e+02 4.462468307096e+06 1.000000000000e+00 5.847322533476e+01 0.000000000000e+00 1.106235166522e-02 2.070157490993e+07 -1.382834887706e+05 2.522367741784e+07 1.382855422883e+07 1.022540543858e-04 6.816805428094e-04 7.886994370438e-03 0.000000000000e+00 -1.991793551887e+07 9.941111376675e+06  7.924816971199e-03
6.160000000000e+02 4.484983766297e+06 1.000000000000e+00 5.760610204718e+01 0.000000000000e+00 1.094410276382e-02 2.070497514046e+07 -1.386162878172e+05 2.522517149996e+07 1.383106568802e+07 1.025358857980e-04 6.809342843742e-04 7.882296130010e-03 0.000000000000e+00 -1.992040410948e+07 9.940415997175e+06  7.919842307277e-03
7.020000000000e+02 4.498794050609e+06 1.000000000000e+00 5.697669359629e+01 0.000000000000e+00 1.085342248620e-02 2.070822566007e+07 -1.388175544445e+05 2.522601578821e+07 1.383304288429e+07 1.027561987958e-04 6.803613414413e-04 7.878653032420e-03 0.000000000000e+00 -1.992242811086e+07 9.939668488235e+06  7.915985514716e-03
7.880000000000e+02 4.508412604012e+06 1.000000000000e+00 5.650296308085e+01 0.000000000000e+00 1.077164957721e-02 2.071081619841e+07 -1.389534041529e+05 2.522577482048e+07 1.383428829583e+07 1.029495379952e-04 6.798465506707e-04 7.875286426147e-03 0.000000000000e+00 -1.992362643824e+07 9.938644296039e+06  7.912430208188e-03
8.740000000000e+02 4.516798674396e+06 1.000000000000e+00 5.570721299604e+01 0.000000000000e+00 1.065612258271e-02 2.071775847787e+07 -1.390676346588e+05 2.522722012840e+07 1.383775227429e+07 1.032449420702e-04 6.791284417254e-04 7.870699621311e-03 0.000000000000e+00 -1.992757696018e+07 9.937448027049e+06  7.907566530962e-03
9.370000000000e+02 4.522172520628e+06 1.000000000000e+00 5.519188171238e+01 0.000000000000e+00 1.056115112914e-02 2.072243421398e+07 -1.391373998241e+05 2.522710340275e+07 1.383970726660e+07 1.034810254745e-04 6.785510583772e-04 7.866992257392e-03 0.000000000000e+00 -1.992974829444e+07 9.936118980526e+06  7.903637497430e-03
1.000000000000e+03 4.526362541987e+06 1.000000000000e+00 5.480037704128e+01 0.000000000000e+00 1.048164229837e-02 2.072622244546e+07 -1.391924903597e+05 2.522685771100e+07 1.384121265770e+07 1.036798571830e-04 6.780823894593e-04 7.864058474203e-03 0.000000000000e+00 -1.993143093806e+07 9.934994669017e+06  7.900519471508e-03
1.100000000000e+03 4.530507848734e+06 1.000000000000e+00 5.441729925187e+01 0.000000000000e+00 1.039847882118e-02 2.073007266961e+07 -1.392469818882e+05 2.522644816120e+07 1.384267392909e+07 1.038883750635e-04 6.775987859680e-04 7.861065741255e-03 0.000000000000e+00 -1.993306491997e+07 9.933788503681e+06  7.897334637770e-03
1.200000000000e+03 4.533769219407e+06 1.000000000000e+00 5.407980824842e+01 0.000000000000e+00 1.032936393970e-02 2.073345935333e+07 -1.392889791979e+05 2.522622557013e+07 1.384400414245e+07 1.040618178820e-04 6.771920361598e-04 7.858519848131e-03 0.000000000000e+00 -1.993456302197e+07 9.932797051401e+06  7.894628450134e-03
1.300000000000e+03 4.536674591374e+06 1.000000000000e+00 5.375342288870e+01 0.000000000000e+00 1.026354163464e-02 2.073677994904e+07 -1.393249522227e+05 2.522608575838e+07 1.384532815140e+07 1.042265428409e-04 6.768057080156e-04 7.856096006798e-03 0.000000000000e+00 -1.993606461961e+07 9.931870088044e+06  7.892052446129e-03
1.400000000000e+03 4.539414104015e+06 1.000000000000e+00 5.342073486203e+01 0.000000000000e+00 1.019554367855e-02 2.074023559398e+07 -1.393596779050e+05 2.522588202052e+07 1.384667947228e+07 1.043969795163e-04 6.764068793045e-04 7.853592451089e-03 0.000000000000e+00 -1.993759902893e+07 9.930884079969e+06  7.889391648663e-03
1.500000000000e+03 4.542053989886e+06 1.000000000000e+00 5.307167410396e+01 0.000000000000e+00 1.012215089880e-02 2.074397938063e+07 -1.393916077361e+05 2.522560220325e+07 1.384811077794e+07 1.045812155549e-04 6.759780151037e-04 7.850904464436e-03 0.000000000000e+00 -1.993923078728e+07 9.929799548952e+06  7.886534082787e-03
1.600000000000e+03 4.544615032333e+06 1.000000000000e+00 5.270009877828e+01 0.000000000000e+00 1.004137395202e-02 2.074809968361e+07 -1.394214671710e+05 2.522522150631e+07 1.384964780531e+07 1.047840224926e-04 6.755093715101e-04 7.847976620405e-03 0.000000000000e+00 -1.994098966508e+07 9.928584119413e+06  7.883420127081e-03
1.700000000000e+03 4.547102318795e+06 1.000000000000e+00 5.230221775521e+01 0.000000000000e+00 9.951988636674e-03 2.075265326282e+07 -1.394493214544e+05 2.522472490351e+07 1.385130703083e+07 1.050084273020e-04 6.749944855209e-04 7.844770615011e-03 0.000000000000e+00 -1.994289506572e+07 9.927218023171e+06  7.880008782582e-03
1.800000000000e+03 4.549515724596e+06 1.000000000000e+00 5.187574288737e+01 0.000000000000e+00 9.853306777917e-03 2.075767300434e+07 -1.394752175966e+05 2.522406518898e+07 1.385308556706e+07 1.052569378523e-04 6.744264415149e-04 7.841237571687e-03 0.000000000000e+00 -1.994494125346e+07 9.925670869174e+06  7.876248732606e-03
1.900000000000e+03 4.551855014388e+06 1.000000000000e+00 5.141938747194e+01 0.000000000000e+00 9.744801011351e-03 2.076318748918e+07 -1.394989618184e+05 2.522332136098e+07 1.385501914069e+07 1.055291853091e-04 6.738095140233e-04 7.837419938394e-03 0.000000000000e+00 -1.994717599695e+07 9.923977005702e+06  7.872183238609e-03
2.000000000000e+03 4.554119356722e+06 1.000000000000e+00 5.093254934562e+01 0.000000000000e+00 9.626355414133e-03 2.076919860574e+07 -1.395215334065e+05 2.522243387000e+07 1.385708966334e+07 1.058265906379e-04 6.731383027669e-04 7.833274352795e-03 0.000000000000e+00 -1.994957404636e+07 9.922106652219e+06  7.867767355426e-03