 TITLE = "Time curves in points"
 VARIABLES = "TIME"  "PRESSURE1"  "SATURATION1"  "TEMPERATURE1"  "DISPLACEMENT_X1"  "DISPLACEMENT_Y1"  "STRESS_XX"  "STRESS_XY"  "STRESS_YY"  "STRESS_ZZ"  "STRAIN_XX"  "STRAIN_XY"  "STRAIN_YY"  "STRAIN_PLS"  p_(1st_Invariant)  q_(2nd_Invariant)   Effective_Strain
 ZONE T="POINT=POINT10"
0.000000000000e+00 1.000000000000e+05 1.000000000000e+00 2.500000000000e+01 0.000000000000e+00 0.000000000000e+00 -3.864302542005e+07 -1.960132696367e+04 -1.523974570659e+07 -1.317212244625e+07 0.000000000000e+00 0.000000000000e+00 0.000000000000e+00 0.000000000000e+00 2.235163119096e+07 2.450263017377e+07  0.000000000000e+00
1.000000000000e-03 1.740556493452e+05 1.000000000000e+00 2.500000447452e+01 0.000000000000e+00 1.983582035934e-05 -3.921941717015e+07 -1.256447691247e+04 -1.481623311621e+07 -1.321798688193e+07 -1.970530025007e-05 5.227374323743e-07 1.743400382510e-05 0.000000000000e+00 2.241787905610e+07 2.524029622672e+07  3.219635678959e-05
2.000000000000e-03 1.919940503962e+05 1.000000000000e+00 2.500004424458e+01 0.000000000000e+00 2.065744026189e-05 -3.919324926903e+07 -1.262079654277e+04 -1.481737568680e+07 -1.321048720183e+07 -1.901190918387e-05 5.185536884092e-07 1.711300594215e-05 0.000000000000e+00 2.240703738589e+07 2.521775350669e+07  3.131238208458e-05
3.000000000000e-03 2.044247639721e+05 1.000000000000e+00 2.500022317481e+01 0.000000000000e+00 2.160970382241e-05 -3.916817397102e+07 -1.271248050559e+04 -1.482201518883e+07 -1.320439750185e+07 -1.830672982854e-05 5.117428797431e-07 1.671449272452e-05 0.000000000000e+00 2.239819555390e+07 2.519395555102e+07  3.035265999722e-05
4.000000000000e-03 2.130107233903e+05 1.000000000000e+00 2.500077028311e+01 0.000000000000e+00 2.256788874162e-05 -3.914354242817e+07 -1.285360850534e+04 -1.482997870403e+07 -1.319953437231e+07 -1.757247447687e-05 5.012590854756e-07 1.623807449140e-05 0.000000000000e+00 2.239101850150e+07 2.516843534053e+07  2.930126027997e-05
1.000000000000e-02 2.252844771433e+05 1.000000000000e+00 2.508185242243e+01 0.000000000000e+00 2.768312751833e-05 -3.907727934582e+07 -1.500471924948e+04 -1.492589182047e+07 -1.323389541673e+07 -1.383500691086e-05 3.414622873394e-07 1.395185467360e-05 0.000000000000e+00 2.241235552768e+07 2.504030965249e+07  2.407146568796e-05
2.000000000000e-02 2.219294927555e+05 1.000000000000e+00 2.544179078192e+01 0.000000000000e+00 4.305842468640e-05 -3.903840375195e+07 -1.859935060345e+04 -1.514240075416e+07 -1.340458680961e+07 -6.051090260434e-06 7.443252961647e-08 1.225006030043e-05 0.000000000000e+00 2.252846377191e+07 2.481061872692e+07  1.615000036787e-05
3.000000000000e-02 2.111384217562e+05 1.000000000000e+00 2.593979075627e+01 0.000000000000e+00 6.181290485840e-05 -3.905753932306e+07 -2.137869523136e+04 -1.536973654213e+07 -1.364369673335e+07 2.119385694464e-06 -1.320330713146e-07 1.268738534367e-05 0.000000000000e+00 2.269032419951e+07 2.459631427141e+07  1.177388541557e-05
4.000000000000e-02 1.974241964817e+05 1.000000000000e+00 2.649896841115e+01 0.000000000000e+00 8.270951572611e-05 -3.911403662915e+07 -2.342804995613e+04 -1.558794619212e+07 -1.391356304761e+07 1.004452028364e-05 -2.842708508683e-07 1.460606144504e-05 0.000000000000e+00 2.287184862296e+07 2.440643001487e+07  1.295225725369e-05
5.000000000000e-02 1.829113713786e+05 1.000000000000e+00 2.707130627529e+01 0.000000000000e+00 1.034989055324e-04 -3.919359381745e+07 -2.492017130116e+04 -1.579049090799e+07 -1.419151546616e+07 1.741348597856e-05 -3.951141507851e-07 1.740691897293e-05 0.000000000000e+00 2.305853339720e+07 2.424221108138e+07  1.742364853201e-05
6.000000000000e-02 1.682270725788e+05 1.000000000000e+00 2.763110811857e+01 0.000000000000e+00 1.255212216511e-04 -3.928280236205e+07 -2.601225561414e+04 -1.597105146296e+07 -1.446259590168e+07 2.416872764139e-05 -4.762404140351e-07 2.076908596482e-05 0.000000000000e+00 2.323881657556e+07 2.410145095966e+07  2.267598642550e-05
7.000000000000e-02 1.542556228615e+05 1.000000000000e+00 2.816623668210e+01 0.000000000000e+00 1.463557894062e-04 -3.937570832670e+07 -2.685083548083e+04 -1.613772280629e+07 -1.472301786616e+07 3.039075049210e-05 -5.385349184179e-07 2.425125189350e-05 0.000000000000e+00 2.341214966638e+07 2.397670571474e+07  2.784918756506e-05
8.000000000000e-02 1.416079441769e+05 1.000000000000e+00 2.867201626895e+01 0.000000000000e+00 1.670415882129e-04 -3.946709294401e+07 -2.752688452677e+04 -1.629062161090e+07 -1.496941860192e+07 3.614849203488e-05 -5.887557046877e-07 2.772418076485e-05 0.000000000000e+00 2.357571105227e+07 2.386456573450e+07  3.277493322290e-05
9.000000000000e-02 1.312089199408e+05 1.000000000000e+00 2.914763495597e+01 0.000000000000e+00 1.860174248472e-04 -3.955683542954e+07 -2.806928499528e+04 -1.643332378073e+07 -1.520237954246e+07 4.146803464920e-05 -6.290483109195e-07 3.107664939118e-05 0.000000000000e+00 2.373084625091e+07 2.376295713453e+07  3.738790668983e-05
1.000000000000e-01 1.240701125961e+05 1.000000000000e+00 2.959416633005e+01 0.000000000000e+00 2.033414696952e-04 -3.964414625643e+07 -2.850853127674e+04 -1.656696256731e+07 -1.542224122724e+07 4.639135222808e-05 -6.616780346851e-07 3.427921418126e-05 0.000000000000e+00 2.387778335033e+07 2.367036494891e+07  4.169264252497e-05
2.000000000000e-01 1.432624336946e+05 1.000000000000e+00 3.250759920630e+01 0.000000000000e+00 3.799910946796e-04 -4.028287483492e+07 -3.160874486926e+04 -1.736247132024e+07 -1.686135046868e+07 7.611977685172e-05 -8.919796158438e-07 5.818437518292e-05 0.000000000000e+00 2.483556554128e+07 2.317509242375e+07  6.894234671889e-05
3.000000000000e-01 1.717948314734e+05 1.000000000000e+00 3.457268545528e+01 0.000000000000e+00 5.560071027897e-04 -4.070581884602e+07 -3.439118786568e+04 -1.791127492387e+07 -1.787053203865e+07 9.789431475291e-05 -1.098675381293e-06 7.528412821871e-05 0.000000000000e+00 2.549587526951e+07 2.281502041090e+07  8.879600183360e-05
4.000000000000e-01 2.008799525264e+05 1.000000000000e+00 3.613564746535e+01 0.000000000000e+00 7.155898099439e-04 -4.102074546072e+07 -3.680853445325e+04 -1.833010567566e+07 -1.863494330842e+07 1.145894590840e-04 -1.278249699226e-06 8.811997602924e-05 0.000000000000e+00 2.599526481493e+07 2.253985722059e+07  1.039382301550e-04
5.000000000000e-01 2.285057154166e+05 1.000000000000e+00 3.737741631547e+01 0.000000000000e+00 8.652513229278e-04 -4.125720075851e+07 -3.920395679361e+04 -1.867755630793e+07 -1.924310219050e+07 1.283955922148e-04 -1.456195358796e-06 9.780342530803e-05 0.000000000000e+00 2.639261975231e+07 2.230235349827e+07  1.161885145093e-04
6.000000000000e-01 2.541974450547e+05 1.000000000000e+00 3.839981986304e+01 0.000000000000e+00 1.006681935412e-03 -4.145074636508e+07 -4.144701442611e+04 -1.896719610803e+07 -1.974486174986e+07 1.398435390327e-04 -1.622822497210e-06 1.056821592235e-04 0.000000000000e+00 2.672093474099e+07 2.210509590650e+07  1.263086207964e-04
7.000000000000e-01 2.780400045055e+05 1.000000000000e+00 3.926450008438e+01 0.000000000000e+00 1.141057190682e-03 -4.161878443761e+07 -4.346698886925e+04 -1.920870093537e+07 -2.016967193726e+07 1.493807890135e-04 -1.772877741558e-06 1.124906440254e-04 0.000000000000e+00 2.699905243675e+07 2.194551288044e+07  1.348119180371e-04
8.000000000000e-01 3.003027005535e+05 1.000000000000e+00 4.001102928040e+01 0.000000000000e+00 1.269821212832e-03 -4.176801730186e+07 -4.536247939778e+04 -1.941702490954e+07 -2.053775120650e+07 1.575093697705e-04 -1.913685609392e-06 1.184244121282e-04 0.000000000000e+00 2.724093113930e+07 2.181237531037e+07  1.420970619383e-04
9.000000000000e-01 3.210277039390e+05 1.000000000000e+00 4.066608925883e+01 0.000000000000e+00 1.393715218378e-03 -4.190246077544e+07 -4.716314788230e+04 -1.960075836975e+07 -2.086214852230e+07 1.645647981956e-04 -2.047449553955e-06 1.236490696214e-04 0.000000000000e+00 2.745512255583e+07 2.169867647108e+07  1.484417636082e-04
1.000000000000e+00 3.403771986573e+05 1.000000000000e+00 4.124850062972e+01 0.000000000000e+00 1.513291000447e-03 -4.202548466766e+07 -4.889258802591e+04 -1.976548896572e+07 -2.115209482013e+07 1.707647732613e-04 -2.175922250338e-06 1.282999385478e-04 0.000000000000e+00 2.764768948450e+07 2.160026424704e+07  1.540343338861e-04
2.000000000000e+00 4.704530123069e+05 1.000000000000e+00 4.452435316778e+01 0.000000000000e+00 2.474323645450e-03 -4.284044584069e+07 -6.451623490492e+04 -2.085237497257e+07 -2.286959015855e+07 2.042874708326e-04 -3.336536018493e-06 1.517225708633e-04 0.000000000000e+00 2.885413699060e+07 2.105236884952e+07  1.838246077012e-04
3.000000000000e+00 5.717561879422e+05 1.000000000000e+00 4.671041876856e+01 0.000000000000e+00 3.282084379199e-03 -4.345321928393e+07 -7.796069544726e+04 -2.165332675101e+07 -2.406009599717e+07 2.257461026612e-04 -4.335267373067e-06 1.661917216697e-04 0.000000000000e+00 2.972221401070e+07 2.070214422091e+07  2.027812648801e-04
4.000000000000e+00 6.567912669109e+05 1.000000000000e+00 4.835209967221e+01 0.000000000000e+00 3.980650133898e-03 -4.394614686171e+07 -8.968083094684e+04 -2.229739003212e+07 -2.497731312248e+07 2.415054287121e-04 -5.205906010179e-06 1.763374358828e-04 0.000000000000e+00 3.040695000544e+07 2.044157001520e+07  2.165978294269e-04
5.000000000000e+00 7.317200884834e+05 1.000000000000e+00 4.969152725563e+01 0.000000000000e+00 4.597555564626e-03 -4.435904650606e+07 -1.000250097580e+05 -2.284408583884e+07 -2.573550862430e+07 2.543307034183e-04 -5.974330721866e-06 1.841931388439e-04 0.000000000000e+00 3.097954698973e+07 2.022560322321e+07  2.277549701196e-04
6.000000000000e+00 7.997471659688e+05 1.000000000000e+00 5.085993147088e+01 0.000000000000e+00 5.152667390256e-03 -4.471916429419e+07 -1.093247719178e+05 -2.333037755281e+07 -2.639969524585e+07 2.656246886600e-04 -6.665170196591e-06 1.908006639827e-04 0.000000000000e+00 3.148307903095e+07 2.003216871704e+07  2.375147892589e-04
7.000000000000e+00 8.629641263324e+05 1.000000000000e+00 5.185897481082e+01 0.000000000000e+00 5.653726127508e-03 -4.503687822983e+07 -1.175575209651e+05 -2.374948149586e+07 -2.697184076220e+07 2.750750045147e-04 -7.276745840103e-06 1.964850652767e-04 0.000000000000e+00 3.191940016263e+07 1.987417113092e+07  2.457302623967e-04
8.000000000000e+00 9.220342046367e+05 1.000000000000e+00 5.279544710174e+01 0.000000000000e+00 6.115336586853e-03 -4.533052798439e+07 -1.251119520584e+05 -2.413946693939e+07 -2.750578539784e+07 2.840002429550e-04 -7.837932149894e-06 2.018321209838e-04 0.000000000000e+00 3.232526010720e+07 1.972572602538e+07  2.534882072305e-04
9.000000000000e+00 9.779873130336e+05 1.000000000000e+00 5.365098589801e+01 0.000000000000e+00 6.541955188184e-03 -4.560317669028e+07 -1.319344318242e+05 -2.448942954548e+07 -2.799305723685e+07 2.919719593279e-04 -8.344744932500e-06 2.069321782065e-04 0.000000000000e+00 3.269522115754e+07 1.959957235279e+07  2.604977201361e-04
1.000000000000e+01 1.031317419010e+06 1.000000000000e+00 5.443079723345e+01 0.000000000000e+00 6.938563070296e-03 -4.584953261018e+07 -1.382604080494e+05 -2.481170533994e+07 -2.843761439963e+07 2.993337197778e-04 -8.814674594937e-06 2.114740576012e-04 0.000000000000e+00 3.303295078325e+07 1.948110602834e+07  2.669339468870e-04
1.100000000000e+01 1.082320970988e+06 1.000000000000e+00 5.515968595864e+01 0.000000000000e+00 7.309597828408e-03 -4.608261853342e+07 -1.441113180674e+05 -2.510921633430e+07 -2.885283597430e+07 3.060987582590e-04 -9.249313624846e-06 2.158461648697e-04 0.000000000000e+00 3.334822361401e+07 1.937638128344e+07  2.728963595629e-04
1.200000000000e+01 1.131384670317e+06 1.000000000000e+00 5.583133115128e+01 0.000000000000e+00 7.657300002959e-03 -4.630040908600e+07 -1.494976231520e+05 -2.537984883999e+07 -2.923536680988e+07 3.122176830567e-04 -9.649439145422e-06 2.200023885515e-04 0.000000000000e+00 3.363854157862e+07 1.928580598451e+07  2.783372623072e-04
1.300000000000e+01 1.178764923901e+06 1.000000000000e+00 5.644833607324e+01 0.000000000000e+00 7.984179207320e-03 -4.649896209599e+07 -1.545632881913e+05 -2.563157343359e+07 -2.958733387314e+07 3.179159193206e-04 -1.002574569120e-05 2.237256802814e-04 0.000000000000e+00 3.390595646757e+07 1.919951116892e+07  2.833713167958e-04
1.400000000000e+01 1.225175125999e+06 1.000000000000e+00 5.701464568576e+01 0.000000000000e+00 8.292174978937e-03 -4.667920535976e+07 -1.593407383799e+05 -2.586551464393e+07 -2.991073402940e+07 3.232331753275e-04 -1.038064199092e-05 2.270484411299e-04 0.000000000000e+00 3.415181801103e+07 1.911684451829e+07  2.880353534841e-04
1.500000000000e+01 1.270162624619e+06 1.000000000000e+00 5.753406333436e+01 0.000000000000e+00 8.581715754306e-03 -4.685024163029e+07 -1.637012690311e+05 -2.607385282946e+07 -3.020728311412e+07 3.278950798543e-04 -1.070456712501e-05 2.303248459569e-04 0.000000000000e+00 3.437712585796e+07 1.905114739754e+07  2.922089963917e-04
1.600000000000e+01 1.313869667188e+06 1.000000000000e+00 5.801007034821e+01 0.000000000000e+00 8.854603569402e-03 -4.700868414451e+07 -1.677720278826e+05 -2.626448432940e+07 -3.047955179819e+07 3.321229090204e-04 -1.100696635397e-05 2.333570842250e-04 0.000000000000e+00 3.458424009070e+07 1.899302135757e+07  2.960090906135e-04
1.700000000000e+01 1.356427998351e+06 1.000000000000e+00 5.844572204304e+01 0.000000000000e+00 9.112321560136e-03 -4.715169477733e+07 -1.716398003889e+05 -2.644282596117e+07 -3.072938264924e+07 3.360905171263e-04 -1.129428659730e-05 2.360123980839e-04 0.000000000000e+00 3.477463446258e+07 1.893542860412e+07  2.995327053271e-04
1.800000000000e+01 1.397969984871e+06 1.000000000000e+00 5.884370166558e+01 0.000000000000e+00 9.355929915027e-03 -4.727959757638e+07 -1.753341716721e+05 -2.661066033297e+07 -3.095834647057e+07 3.398442122393e-04 -1.156872560691e-05 2.382829204949e-04 0.000000000000e+00 3.494953479331e+07 1.887690429616e+07  3.028122745580e-04
1.900000000000e+01 1.438583998883e+06 1.000000000000e+00 5.920638226482e+01 0.000000000000e+00 9.586297718535e-03 -4.739293841662e+07 -1.788690811942e+05 -2.676876615972e+07 -3.116767083429e+07 3.434093145402e-04 -1.183131888569e-05 2.401853232966e-04 0.000000000000e+00 3.510979180354e+07 1.881698855590e+07  3.058709040166e-04
2.000000000000e+01 1.478353757371e+06 1.000000000000e+00 5.953584652466e+01 0.000000000000e+00 9.803790242758e-03 -4.749664239698e+07 -1.821767234785e+05 -2.691278987452e+07 -3.135825601570e+07 3.466363305790e-04 -1.207702945539e-05 2.419147491993e-04 0.000000000000e+00 3.525589609573e+07 1.876304611493e+07  3.086431831476e-04
2.100000000000e+01 1.517204192537e+06 1.000000000000e+00 5.986576413745e+01 0.000000000000e+00 1.001191626375e-02 -4.759818189184e+07 -1.853509605438e+05 -2.705374940052e+07 -3.154726575666e+07 3.498852254343e-04 -1.231282992309e-05 2.436994714693e-04 0.000000000000e+00 3.539973234968e+07 1.870966908156e+07  3.114435361354e-04
2.200000000000e+01 1.555286536014e+06 1.000000000000e+00 6.017842232777e+01 0.000000000000e+00 1.021092627526e-02 -4.769192124551e+07 -1.884066554660e+05 -2.718896725177e+07 -3.172615707663e+07 3.530480127537e-04 -1.253982440303e-05 2.453216288787e-04 0.000000000000e+00 3.553568185797e+07 1.865577419835e+07  3.141449170878e-04
2.300000000000e+01 1.592669794476e+06 1.000000000000e+00 6.047016849764e+01 0.000000000000e+00 1.040072853766e-02 -4.778092041354e+07 -1.912810206187e+05 -2.731342662669e+07 -3.189307795288e+07 3.559422476309e-04 -1.275334867152e-05 2.468987703570e-04 0.000000000000e+00 3.566247499770e+07 1.860825860757e+07  3.166387956350e-04
2.400000000000e+01 1.629401302440e+06 1.000000000000e+00 6.074054184199e+01 0.000000000000e+00 1.058187016281e-02 -4.786265478183e+07 -1.940267746847e+05 -2.743011228771e+07 -3.204800688876e+07 3.586609029983e-04 -1.295731897356e-05 2.483192348514e-04 0.000000000000e+00 3.578025798610e+07 1.856263329430e+07  3.189692165054e-04
2.500000000000e+01 1.665534658888e+06 1.000000000000e+00 6.098989539144e+01 0.000000000000e+00 1.075468449730e-02 -4.793684100812e+07 -1.966518493941e+05 -2.753939128053e+07 -3.219109302205e+07 3.612200424009e-04 -1.315232452340e-05 2.495749286401e-04 0.000000000000e+00 3.588910843690e+07 1.851830035157e+07  3.211464598175e-04
2.600000000000e+01 1.701103973755e+06 1.000000000000e+00 6.121883417622e+01 0.000000000000e+00 1.091942807227e-02 -4.800403156732e+07 -1.991505570041e+05 -2.764088416724e+07 -3.232260015623e+07 3.636089437576e-04 -1.333794280300e-05 2.506897435464e-04 0.000000000000e+00 3.598917196360e+07 1.847595049525e+07  3.231678832940e-04
2.700000000000e+01 1.736139339791e+06 1.000000000000e+00 6.142803472053e+01 0.000000000000e+00 1.107651711005e-02 -4.806335875155e+07 -2.015528031722e+05 -2.773643997176e+07 -3.244305947464e+07 3.658795658841e-04 -1.351639537549e-05 2.516147312051e-04 0.000000000000e+00 3.608095273265e+07 1.843330389431e+07  3.250618708791e-04
2.800000000000e+01 1.770681594199e+06 1.000000000000e+00 6.161817548849e+01 0.000000000000e+00 1.122627771085e-02 -4.811446167091e+07 -2.038748703639e+05 -2.782704893854e+07 -3.255289722026e+07 3.680611451454e-04 -1.368889179544e-05 2.523289429910e-04 0.000000000000e+00 3.616480260990e+07 1.838918751990e+07  3.268464159233e-04
2.900000000000e+01 1.804755349151e+06 1.000000000000e+00 6.178991237560e+01 0.000000000000e+00 1.136896723666e-02 -4.815750198349e+07 -2.061185426625e+05 -2.791285554278e+07 -3.265243476042e+07 3.701596135982e-04 -1.385556459477e-05 2.528389491818e-04 0.000000000000e+00 3.624093076223e+07 1.834354572299e+07  3.285282880385e-04
3.000000000000e+01 1.838370950549e+06 1.000000000000e+00 6.194386924086e+01 0.000000000000e+00 1.150485232454e-02 -4.819264586445e+07 -2.082936198249e+05 -2.799441437325e+07 -3.274210663962e+07 3.721849392472e-04 -1.401714175540e-05 2.531402909919e-04 0.000000000000e+00 3.630972229244e+07 1.829601892432e+07  3.301152418339e-04
3.100000000000e+01 1.871447001257e+06 1.000000000000e+00 6.210580140263e+01 0.000000000000e+00 1.163623513862e-02 -4.822693728129e+07 -2.104351213540e+05 -2.807805207978e+07 -3.283480590595e+07 3.743543736568e-04 -1.417622472614e-05 2.534768632132e-04 0.000000000000e+00 3.637993175567e+07 1.824537869906e+07  3.318198923184e-04
3.200000000000e+01 1.904061231697e+06 1.000000000000e+00 6.226094204290e+01 0.000000000000e+00 1.176301817628e-02 -4.825614473826e+07 -2.125477705801e+05 -2.816121338381e+07 -3.292344717020e+07 3.765619150701e-04 -1.433316438293e-05 2.536804045927e-04 0.000000000000e+00 3.644693509742e+07 1.819131400997e+07  3.335304534673e-04
3.300000000000e+01 1.936240664812e+06 1.000000000000e+00 6.240572497300e+01 0.000000000000e+00 1.188521438585e-02 -4.827926084701e+07 -2.146351896367e+05 -2.824321508077e+07 -3.300628590036e+07 3.787801838654e-04 -1.448822979856e-05 2.537114943974e-04 0.000000000000e+00 3.650958727605e+07 1.813381022962e+07  3.352205095008e-04
3.400000000000e+01 1.968010593866e+06 1.000000000000e+00 6.253918901855e+01 0.000000000000e+00 1.200282329149e-02 -4.829627670884e+07 -2.166957166488e+05 -2.832377520703e+07 -3.308289998747e+07 3.809938322330e-04 -1.464129751946e-05 2.535649272288e-04 0.000000000000e+00 3.656765063445e+07 1.807316599801e+07  3.368796550023e-04
3.500000000000e+01 1.999407455002e+06 1.000000000000e+00 6.266110742446e+01 0.000000000000e+00 1.211609073913e-02 -4.830516362097e+07 -2.187639945919e+05 -2.840496514855e+07 -3.315322326107e+07 3.832757542304e-04 -1.479494102381e-05 2.531613081347e-04 0.000000000000e+00 3.662111734353e+07 1.800600312572e+07  3.385513716406e-04
3.600000000000e+01 2.030469901429e+06 1.000000000000e+00 6.277151349027e+01 0.000000000000e+00 1.222529673706e-02 -4.830361675873e+07 -2.208836125173e+05 -2.848955989667e+07 -3.321740855651e+07 3.857172343726e-04 -1.495239835541e-05 2.524032427495e-04 0.000000000000e+00 3.667019507063e+07 1.792813177141e+07  3.402934377155e-04
3.700000000000e+01 2.061269396574e+06 1.000000000000e+00 6.287055186444e+01 0.000000000000e+00 1.233122224213e-02 -4.828370609493e+07 -2.231885244432e+05 -2.858594892526e+07 -3.327564436565e+07 3.886198176536e-04 -1.512362038420e-05 2.509861231700e-04 0.000000000000e+00 3.671509979528e+07 1.782604381815e+07  3.422972202015e-04
3.800000000000e+01 2.093583371613e+06 1.000000000000e+00 6.295867248218e+01 0.000000000000e+00 1.245642384187e-02 -4.799312276438e+07 -2.299289511154e+05 -2.896138682016e+07 -3.333257082019e+07 4.015273239566e-04 -1.562433779413e-05 2.391556982423e-04 0.000000000000e+00 3.676236013491e+07 1.727083104336e+07  3.508909405439e-04
3.900000000000e+01 2.123384718586e+06 1.000000000000e+00 6.303542968280e+01 0.000000000000e+00 1.254636917806e-02 -4.804798473466e+07 -2.307482133752e+05 -2.896507509236e+07 -3.337763098186e+07 4.011632567798e-04 -1.568519727629e-05 2.406923684228e-04 0.000000000000e+00 3.679689693630e+07 1.730847823401e+07  3.507790139809e-04
4.000000000000e+01 2.152770412537e+06 1.000000000000e+00 6.310126011054e+01 0.000000000000e+00 1.263039878598e-02 -4.811365536860e+07 -2.312181997808e+05 -2.894596342333e+07 -3.341526978931e+07 4.001220746529e-04 -1.572011055213e-05 2.428002432634e-04 0.000000000000e+00 3.682496286041e+07 1.737438378296e+07  3.502017437418e-04
4.200000000000e+01 2.210053104714e+06 1.000000000000e+00 6.324270891614e+01 0.000000000000e+00 1.278819962872e-02 -4.823797823131e+07 -2.321192655031e+05 -2.891333255418e+07 -3.349332430004e+07 3.984035358652e-04 -1.578704686293e-05 2.469114145159e-04 0.000000000000e+00 3.688154502851e+07 1.749494713642e+07  3.493822204484e-04
4.400000000000e+01 2.265818595915e+06 1.000000000000e+00 6.336221829407e+01 0.000000000000e+00 1.293513581917e-02 -4.834772140879e+07 -2.329603402997e+05 -2.887858205931e+07 -3.355867743685e+07 3.967547629257e-04 -1.584952670496e-05 2.506295494067e-04 0.000000000000e+00 3.692832696832e+07 1.760670503640e+07  3.486325687215e-04
5.000000000000e+01 2.417340202335e+06 1.000000000000e+00 6.341051342750e+01 0.000000000000e+00 1.323898287084e-02 -4.850995676180e+07 -2.347108640452e+05 -2.875282351066e+07 -3.358958997780e+07 3.918770584782e-04 -1.597956561177e-05 2.564487613065e-04 0.000000000000e+00 3.695079008342e+07 1.784217621632e+07  3.458370273082e-04
6.500000000000e+01 2.748724178568e+06 1.000000000000e+00 6.313073733148e+01 0.000000000000e+00 1.375021401276e-02 -4.854875447339e+07 -2.379711435391e+05 -2.840018978189e+07 -3.340344667370e+07 3.835221064665e-04 -1.622175780274e-05 2.626326913654e-04 0.000000000000e+00 3.678413030966e+07 1.817577190371e+07  3.407772439315e-04
8.000000000000e+01 3.003777392184e+06 1.000000000000e+00 6.251553785946e+01 0.000000000000e+00 1.398555392450e-02 -4.834980578118e+07 -2.396590133006e+05 -2.808381685225e+07 -3.303808588714e+07 3.773410858198e-04 -1.634714241360e-05 2.608131423945e-04 0.000000000000e+00 3.649056950686e+07 1.830366730613e+07  3.358511026354e-04
1.000000000000e+02 3.304456935822e+06 1.000000000000e+00 6.178031670149e+01 0.000000000000e+00 1.417960552361e-02 -4.804930386521e+07 -2.412065219651e+05 -2.773896459991e+07 -3.259148978078e+07 3.719147301763e-04 -1.646210020011e-05 2.570340849591e-04 0.000000000000e+00 3.612658608196e+07 1.837593509850e+07  3.310669527878e-04
1.860000000000e+02 3.902938202522e+06 1.000000000000e+00 5.983575743522e+01 0.000000000000e+00 1.439873937131e-02 -4.708362114438e+07 -2.438282340982e+05 -2.693568610181e+07 -3.138840777689e+07 3.630970425199e-04 -1.665685595857e-05 2.421842404583e-04 0.000000000000e+00 3.513590500770e+07 1.833660891076e+07  3.215410389189e-04
2.720000000000e+02 4.193259632165e+06 1.000000000000e+00 5.817021896826e+01 0.000000000000e+00 1.418635176061e-02 -4.624575063732e+07 -2.431547795214e+05 -2.651330662588e+07 -3.043137435129e+07 3.586709912595e-04 -1.660682790429e-05 2.223256651849e-04 0.000000000000e+00 3.439681053816e+07 1.809930722656e+07  3.148954983099e-04
3.580000000000e+02 4.334625370859e+06 1.000000000000e+00 5.696011998447e+01 0.000000000000e+00 1.397242802898e-02 -4.561484966123e+07 -2.423059883293e+05 -2.623596388014e+07 -2.973766764197e+07 3.563382068826e-04 -1.654377484430e-05 2.068607179661e-04 0.000000000000e+00 3.386282706112e+07 1.789190215400e+07  3.112506810684e-04
4.440000000000e+02 4.406754288317e+06 1.000000000000e+00 5.602081320516e+01 0.000000000000e+00 1.377481063603e-02 -4.512463047115e+07 -2.414145519956e+05 -2.604188058982e+07 -2.920516774133e+07 3.547677804904e-04 -1.647755385952e-05 1.942909581542e-04 0.000000000000e+00 3.345722626743e+07 1.771915218285e+07  3.090234810567e-04
5.300000000000e+02 4.445718820727e+06 1.000000000000e+00 5.528906129963e+01 0.000000000000e+00 1.360462451329e-02 -4.474251395739e+07 -2.406001766948e+05 -2.590163565307e+07 -2.879342946909e+07 3.536675437469e-04 -1.641705740860e-05 1.842069199791e-04 0.000000000000e+00 3.314585969318e+07 1.757927463574e+07  3.076905446383e-04
6.160000000000e+02 4.468234309314e+06 1.000000000000e+00 5.472602773133e+01 0.000000000000e+00 1.346414264207e-02 -4.444844478105e+07 -2.399027065646e+05 -2.580020391156e+07 -2.847847909274e+07 3.528919563179e-04 -1.636524534178e-05 1.762762278276e-04 0.000000000000e+00 3.290904259512e+07 1.746876025095e+07  3.069251410456e-04
7.020000000000e+02 4.482044613276e+06 1.000000000000e+00 5.430995063481e+01 0.000000000000e+00 1.335657065065e-02 -4.423118681095e+07 -2.393581998260e+05 -2.572790442159e+07 -2.824651945450e+07 3.523458943585e-04 -1.632479626977e-05 1.703459937492e-04 0.000000000000e+00 3.273520356235e+07 1.738631970038e+07  3.065031358070e-04
7.880000000000e+02 4.491663181074e+06 1.000000000000e+00 5.397872581268e+01 0.000000000000e+00 1.326013440603e-02 -4.406007768782e+07 -2.388378795286e+05 -2.567862632281e+07 -2.806483154611e+07 3.519529680489e-04 -1.628614390483e-05 1.654279151068e-04 0.000000000000e+00 3.260117851891e+07 1.731707091257e+07  3.062844373208e-04
8.740000000000e+02 4.500049265801e+06 1.000000000000e+00 5.345336087711e+01 0.000000000000e+00 1.312333122550e-02 -4.378555150282e+07 -2.381530607520e+05 -2.558706197586e+07 -2.777180099191e+07 3.512656629069e-04 -1.623527165285e-05 1.579448845516e-04 0.000000000000e+00 3.238147149020e+07 1.721537993103e+07  3.060135455426e-04
9.370000000000e+02 4.505423121656e+06 1.000000000000e+00 5.307936059738e+01 0.000000000000e+00 1.301175955427e-02 -4.358721149396e+07 -2.375720676604e+05 -2.553006709181e+07 -2.756465377645e+07 3.509385380905e-04 -1.619211216604e-05 1.523677979563e-04 0.000000000000e+00 3.222731078741e+07 1.713565005584e+07  3.060859758196e-04
1.000000000000e+03 4.509613149595e+06 1.000000000000e+00 5.277859554472e+01 0.000000000000e+00 1.291871811466e-02 -4.342290958419e+07 -2.370995893059e+05 -2.548402949539e+07 -2.739651183212e+07 3.507959082354e-04 -1.615701377400e-05 1.478324936053e-04 0.000000000000e+00 3.210115030390e+07 1.706815352825e+07  3.063271597844e-04
1.100000000000e+03 4.513758462105e+06 1.000000000000e+00 5.247289760991e+01 0.000000000000e+00 1.282160091603e-02 -4.325324369872e+07 -2.366108111320e+05 -2.543761748551e+07 -2.722488891519e+07 3.507232184952e-04 -1.612070453822e-05 1.431818027719e-04 0.000000000000e+00 3.197191669981e+07 1.699757249808e+07  3.067087434081e-04
1.200000000000e+03 4.517019836215e+06 1.000000000000e+00 5.221269628220e+01 0.000000000000e+00 1.274074794070e-02 -4.311085100100e+07 -2.362007679601e+05 -2.539782957794e+07 -2.707935783790e+07 3.506066501117e-04 -1.609024418831e-05 1.392541993254e-04 0.000000000000e+00 3.186267947228e+07 1.693992596025e+07  3.070341913646e-04
1.300000000000e+03 4.519925210579e+06 1.000000000000e+00 5.196357675456e+01 0.000000000000e+00 1.266375448770e-02 -4.297519517719e+07 -2.358093752915e+05 -2.535975200894e+07 -2.694023921945e+07 3.504780320248e-04 -1.606116930435e-05 1.355012460600e-04 0.000000000000e+00 3.175839546853e+07 1.688572217543e+07  3.073745468285e-04
1.400000000000e+03 4.522664725124e+06 1.000000000000e+00 5.170814257527e+01 0.000000000000e+00 1.258424315084e-02 -4.283590450134e+07 -2.354053091766e+05 -2.532093224177e+07 -2.679759718909e+07 3.503535531429e-04 -1.603115296439e-05 1.316449905700e-04 0.000000000000e+00 3.165147797740e+07 1.683024937456e+07  3.077770607736e-04
1.500000000000e+03 4.525304612681e+06 1.000000000000e+00 5.143632875317e+01 0.000000000000e+00 1.249849421643e-02 -4.268699930558e+07 -2.349702856888e+05 -2.527998027756e+07 -2.664569817123e+07 3.502423540365e-04 -1.599883693387e-05 1.275241000058e-04 0.000000000000e+00 3.153755925145e+07 1.677086916502e+07  3.082785266778e-04
1.600000000000e+03 4.527865656785e+06 1.000000000000e+00 5.114199614484e+01 0.000000000000e+00 1.240422965735e-02 -4.252485033614e+07 -2.344932771848e+05 -2.523606500673e+07 -2.648105539462e+07 3.501497269130e-04 -1.596340201642e-05 1.230399355056e-04 0.000000000000e+00 3.141399024583e+07 1.670606742983e+07  3.089105821781e-04
1.700000000000e+03 4.530352944705e+06 1.000000000000e+00 5.082135521810e+01 0.000000000000e+00 1.230003752679e-02 -4.234721827638e+07 -2.339671570949e+05 -2.518867506943e+07 -2.630151734264e+07 3.500789329164e-04 -1.592431880975e-05 1.181315769603e-04 0.000000000000e+00 3.127913689615e+07 1.663500804250e+07  3.097026059459e-04
1.800000000000e+03 4.532766352570e+06 1.000000000000e+00 5.047211883707e+01 0.000000000000e+00 1.218506788965e-02 -4.215274649608e+07 -2.333878301922e+05 -2.513750703378e+07 -2.610578551343e+07 3.500321310998e-04 -1.588128309698e-05 1.127620646284e-04 0.000000000000e+00 3.113201301443e+07 1.655729013498e+07  3.106832401190e-04
1.900000000000e+03 4.535105643823e+06 1.000000000000e+00 5.009300096792e+01 0.000000000000e+00 1.205883630724e-02 -4.194068549845e+07 -2.327526033072e+05 -2.508237221232e+07 -2.589312834939e+07 3.500099877760e-04 -1.583409481409e-05 1.069112347609e-04 0.000000000000e+00 3.097206202005e+07 1.647284409969e+07  3.118800400234e-04
2.000000000000e+03 4.537369988248e+06 1.000000000000e+00 4.968339990058e+01 0.000000000000e+00 1.192112498667e-02 -4.171067431455e+07 -2.320606532394e+05 -2.502321117506e+07 -2.566320913877e+07 3.500134039263e-04 -1.578269280905e-05 1.005687883218e-04 0.000000000000e+00 3.079903154279e+07 1.638177760309e+07  3.133214329729e-04