 TITLE = "Profiles along polylines"
 VARIABLES = "DIST" "PRESSURE1" "SATURATION1" "VELOCITY_X1" "VELOCITY_Y1" "TEMPERATURE1" "DISPLACEMENT_X1" "DISPLACEMENT_Y1" "STRESS_XX" "STRESS_XY" "STRESS_YY" "STRESS_ZZ" "STRAIN_XX" "STRAIN_XY" "STRAIN_YY" "STRAIN_PLS"  p_(1st_Invariant)  q_(2nd_Invariant)   Effective_Strain
 ZONE T="TIME=0.000000000000e+00"
0.000000000000e+00 1.000000000000e+05 1.000000000000e+00 0.000000000000e+00 0.000000000000e+00 2.500000000000e+01 0.000000000000e+00 0.000000000000e+00 -3.096833482140e+07 1.077886406635e+03 -1.276457505907e+07 -1.019441292181e+07 0.000000000000e+00 0.000000000000e+00 0.000000000000e+00 0.000000000000e+00 1.797577426743e+07 1.961553518206e+07  0.000000000000e+00
2.928677190000e+00 1.000000000000e+05 1.000000000000e+00 0.000000000000e+00 0.000000000000e+00 2.500000000000e+01 0.000000000000e+00 0.000000000000e+00 -3.124521844470e+07 -4.424462380100e+03 -1.287258575701e+07 -1.029766313748e+07 0.000000000000e+00 0.000000000000e+00 0.000000000000e+00 0.000000000000e+00 1.813848911306e+07 1.978615739825e+07  0.000000000000e+00
5.000000000000e+00 1.000000000000e+05 1.000000000000e+00 0.000000000000e+00 0.000000000000e+00 2.500000000000e+01 0.000000000000e+00 0.000000000000e+00 -3.142298898784e+07 -1.384629659344e+03 -1.297921547231e+07 -1.037389995124e+07 0.000000000000e+00 0.000000000000e+00 0.000000000000e+00 0.000000000000e+00 1.825870147046e+07 1.987491649329e+07  0.000000000000e+00
6.565046960000e+00 1.000000000000e+05 1.000000000000e+00 0.000000000000e+00 0.000000000000e+00 2.500000000000e+01 0.000000000000e+00 0.000000000000e+00 -3.156600360094e+07 -3.725143533728e+03 -1.307760749187e+07 -1.043926445151e+07 0.000000000000e+00 0.000000000000e+00 0.000000000000e+00 0.000000000000e+00 1.836095851477e+07 1.993891716008e+07  0.000000000000e+00
7.950196795000e+00 1.000000000000e+05 1.000000000000e+00 0.000000000000e+00 0.000000000000e+00 2.500000000000e+01 0.000000000000e+00 0.000000000000e+00 -3.172171541269e+07 -1.054749547737e+04 -1.317482636852e+07 -1.050871502870e+07 0.000000000000e+00 0.000000000000e+00 0.000000000000e+00 0.000000000000e+00 1.846841893664e+07 2.001358658115e+07  0.000000000000e+00
9.176169591000e+00 1.000000000000e+05 1.000000000000e+00 0.000000000000e+00 0.000000000000e+00 2.500000000000e+01 0.000000000000e+00 0.000000000000e+00 -3.187999868153e+07 -3.807959427004e+03 -1.328199360566e+07 -1.058302149448e+07 0.000000000000e+00 0.000000000000e+00 0.000000000000e+00 0.000000000000e+00 1.858167126056e+07 2.008396832760e+07  0.000000000000e+00
1.026151647400e+01 1.000000000000e+05 1.000000000000e+00 0.000000000000e+00 0.000000000000e+00 2.500000000000e+01 0.000000000000e+00 0.000000000000e+00 -3.207620799022e+07 -1.170448835464e+04 -1.339894141158e+07 -1.067199211314e+07 0.000000000000e+00 0.000000000000e+00 0.000000000000e+00 0.000000000000e+00 1.871571383831e+07 2.017941796247e+07  0.000000000000e+00
1.122191314800e+01 1.000000000000e+05 1.000000000000e+00 0.000000000000e+00 0.000000000000e+00 2.500000000000e+01 0.000000000000e+00 0.000000000000e+00 -3.230584229320e+07 -2.331602220942e+03 -1.354638047761e+07 -1.078088341866e+07 0.000000000000e+00 0.000000000000e+00 0.000000000000e+00 0.000000000000e+00 1.887770206316e+07 2.028409806674e+07  0.000000000000e+00
1.207197121800e+01 1.000000000000e+05 1.000000000000e+00 0.000000000000e+00 0.000000000000e+00 2.500000000000e+01 0.000000000000e+00 0.000000000000e+00 -3.262633317467e+07 -2.960537234866e+04 -1.370638049441e+07 -1.092108631395e+07 0.000000000000e+00 0.000000000000e+00 0.000000000000e+00 0.000000000000e+00 1.908459999434e+07 2.045538404978e+07  0.000000000000e+00
1.282449932700e+01 1.000000000000e+05 1.000000000000e+00 0.000000000000e+00 0.000000000000e+00 2.500000000000e+01 0.000000000000e+00 0.000000000000e+00 -3.304132034641e+07 -1.955830627644e+04 -1.390762275569e+07 -1.110261097844e+07 0.000000000000e+00 0.000000000000e+00 0.000000000000e+00 0.000000000000e+00 1.935051802685e+07 2.067940688777e+07  0.000000000000e+00
1.349045755400e+01 1.000000000000e+05 1.000000000000e+00 0.000000000000e+00 0.000000000000e+00 2.500000000000e+01 0.000000000000e+00 0.000000000000e+00 -3.359153361348e+07 -6.296757267984e+03 -1.417550052995e+07 -1.134513739607e+07 0.000000000000e+00 0.000000000000e+00 0.000000000000e+00 0.000000000000e+00 1.970405717983e+07 2.097493359617e+07  0.000000000000e+00
1.408000000000e+01 1.000000000000e+05 1.000000000000e+00 0.000000000000e+00 0.000000000000e+00 2.500000000000e+01 0.000000000000e+00 0.000000000000e+00 -3.444049899891e+07 -5.858766693045e+04 -1.446208944789e+07 -1.168309508854e+07 0.000000000000e+00 0.000000000000e+00 0.000000000000e+00 0.000000000000e+00 2.019522784511e+07 2.150325191297e+07  0.000000000000e+00
1.465000000000e+01 1.000000000000e+05 1.000000000000e+00 0.000000000000e+00 0.000000000000e+00 2.500000000000e+01 0.000000000000e+00 0.000000000000e+00 -3.583452980825e+07 -4.128069141583e+04 -1.483252039436e+07 -1.220989351998e+07 0.000000000000e+00 0.000000000000e+00 0.000000000000e+00 0.000000000000e+00 2.095898124086e+07 2.242873419822e+07  0.000000000000e+00
1.522000000000e+01 1.000000000000e+05 1.000000000000e+00 0.000000000000e+00 0.000000000000e+00 2.500000000000e+01 0.000000000000e+00 0.000000000000e+00 -3.864302542005e+07 -1.960132696367e+04 -1.523974570659e+07 -1.317212244625e+07 0.000000000000e+00 0.000000000000e+00 0.000000000000e+00 0.000000000000e+00 2.235163119096e+07 2.450263017377e+07  0.000000000000e+00
1.567618708200e+01 1.000000000000e+05 1.000000000000e+00 0.000000000000e+00 0.000000000000e+00 2.500000000000e+01 0.000000000000e+00 0.000000000000e+00 -4.414320770328e+07 -1.039458447777e+05 -1.493821914647e+07 -1.472954125001e+07 0.000000000000e+00 0.000000000000e+00 0.000000000000e+00 0.000000000000e+00 2.460365603325e+07 2.931043760953e+07  0.000000000000e+00
1.601230646800e+01 1.000000000000e+05 1.000000000000e+00 0.000000000000e+00 0.000000000000e+00 2.500000000000e+01 0.000000000000e+00 0.000000000000e+00 -5.392247428685e+07 1.681961164950e+05 -1.289459479228e+07 -1.704877640293e+07 0.000000000000e+00 0.000000000000e+00 0.000000000000e+00 0.000000000000e+00 2.795528182735e+07 3.911766516493e+07  0.000000000000e+00
1.626000000000e+01 1.000000000000e+05 1.000000000000e+00 0.000000000000e+00 0.000000000000e+00 2.500000000000e+01 0.000000000000e+00 0.000000000000e+00 -6.854419775061e+07 7.586938602830e+05 -6.954707405871e+06 -1.965222756120e+07 0.000000000000e+00 0.000000000000e+00 0.000000000000e+00 0.000000000000e+00 3.171704423923e+07 5.633990941714e+07  0.000000000000e+00
1.636000000000e+01 1.000000000000e+05 1.000000000000e+00 0.000000000000e+00 0.000000000000e+00 2.500000000000e+01 0.000000000000e+00 0.000000000000e+00 -5.392170068764e+07 8.391404681268e+05 -2.357515820812e+05 -1.424861648653e+07 0.000000000000e+00 0.000000000000e+00 0.000000000000e+00 0.000000000000e+00 2.280202291875e+07 4.825308313763e+07  0.000000000000e+00
1.655254661500e+01 -7.000000000000e+07 6.817856140032e-01 0.000000000000e+00 0.000000000000e+00 2.500000000000e+01 0.000000000000e+00 0.000000000000e+00 0.000000000000e+00 0.000000000000e+00 0.000000000000e+00 0.000000000000e+00 0.000000000000e+00 0.000000000000e+00 0.000000000000e+00 0.000000000000e+00 -0.000000000000e+00 0.000000000000e+00  0.000000000000e+00
1.671286624100e+01 -7.000000000000e+07 6.684759947500e-01 0.000000000000e+00 0.000000000000e+00 2.500000000000e+01 0.000000000000e+00 0.000000000000e+00 0.000000000000e+00 0.000000000000e+00 0.000000000000e+00 0.000000000000e+00 0.000000000000e+00 0.000000000000e+00 0.000000000000e+00 0.000000000000e+00 -0.000000000000e+00 0.000000000000e+00  0.000000000000e+00
1.684635003100e+01 -7.000000000000e+07 6.684759947500e-01 0.000000000000e+00 0.000000000000e+00 2.500000000000e+01 0.000000000000e+00 0.000000000000e+00 0.000000000000e+00 0.000000000000e+00 0.000000000000e+00 0.000000000000e+00 0.000000000000e+00 0.000000000000e+00 0.000000000000e+00 0.000000000000e+00 -0.000000000000e+00 0.000000000000e+00  0.000000000000e+00
1.695745861500e+01 -7.000000000000e+07 6.684759947500e-01 0.000000000000e+00 0.000000000000e+00 2.500000000000e+01 0.000000000000e+00 0.000000000000e+00 0.000000000000e+00 0.000000000000e+00 0.000000000000e+00 0.000000000000e+00 0.000000000000e+00 0.000000000000e+00 0.000000000000e+00 0.000000000000e+00 -0.000000000000e+00 0.000000000000e+00  0.000000000000e+00
1.705000000000e+01 -7.000000000000e+07 6.684759947500e-01 0.000000000000e+00 0.000000000000e+00 2.500000000000e+01 0.000000000000e+00 0.000000000000e+00 0.000000000000e+00 0.000000000000e+00 0.000000000000e+00 0.000000000000e+00 0.000000000000e+00 0.000000000000e+00 0.000000000000e+00 0.000000000000e+00 -0.000000000000e+00 0.000000000000e+00  0.000000000000e+00
1.716700339000e+01 -7.000000000000e+07 0.000000000000e+00 0.000000000000e+00 0.000000000000e+00 2.500000000000e+01 0.000000000000e+00 0.000000000000e+00 0.000000000000e+00 0.000000000000e+00 0.000000000000e+00 0.000000000000e+00 0.000000000000e+00 0.000000000000e+00 0.000000000000e+00 0.000000000000e+00 -0.000000000000e+00 0.000000000000e+00  0.000000000000e+00
1.731435117100e+01 -7.000000000000e+07 0.000000000000e+00 0.000000000000e+00 0.000000000000e+00 2.500000000000e+01 0.000000000000e+00 0.000000000000e+00 0.000000000000e+00 0.000000000000e+00 0.000000000000e+00 0.000000000000e+00 0.000000000000e+00 0.000000000000e+00 0.000000000000e+00 0.000000000000e+00 -0.000000000000e+00 0.000000000000e+00  0.000000000000e+00
1.750000000000e+01 -7.000000000000e+07 0.000000000000e+00 0.000000000000e+00 0.000000000000e+00 2.500000000000e+01 0.000000000000e+00 0.000000000000e+00 0.000000000000e+00 0.000000000000e+00 0.000000000000e+00 0.000000000000e+00 0.000000000000e+00 0.000000000000e+00 0.000000000000e+00 0.000000000000e+00 -0.000000000000e+00 0.000000000000e+00  0.000000000000e+00
1.768564882900e+01 -7.000000000000e+07 0.000000000000e+00 0.000000000000e+00 0.000000000000e+00 2.500000000000e+01 0.000000000000e+00 0.000000000000e+00 0.000000000000e+00 0.000000000000e+00 0.000000000000e+00 0.000000000000e+00 0.000000000000e+00 0.000000000000e+00 0.000000000000e+00 0.000000000000e+00 -0.000000000000e+00 0.000000000000e+00  0.000000000000e+00
1.783299661000e+01 -7.000000000000e+07 0.000000000000e+00 0.000000000000e+00 0.000000000000e+00 2.500000000000e+01 0.000000000000e+00 0.000000000000e+00 0.000000000000e+00 0.000000000000e+00 0.000000000000e+00 0.000000000000e+00 0.000000000000e+00 0.000000000000e+00 0.000000000000e+00 0.000000000000e+00 -0.000000000000e+00 0.000000000000e+00  0.000000000000e+00
1.795000000000e+01 -7.000000000000e+07 6.684759947500e-01 0.000000000000e+00 0.000000000000e+00 2.500000000000e+01 0.000000000000e+00 0.000000000000e+00 0.000000000000e+00 0.000000000000e+00 0.000000000000e+00 0.000000000000e+00 0.000000000000e+00 0.000000000000e+00 0.000000000000e+00 0.000000000000e+00 -0.000000000000e+00 0.000000000000e+00  0.000000000000e+00
1.804254138500e+01 -7.000000000000e+07 6.684759947500e-01 0.000000000000e+00 0.000000000000e+00 2.500000000000e+01 0.000000000000e+00 0.000000000000e+00 0.000000000000e+00 0.000000000000e+00 0.000000000000e+00 0.000000000000e+00 0.000000000000e+00 0.000000000000e+00 0.000000000000e+00 0.000000000000e+00 -0.000000000000e+00 0.000000000000e+00  0.000000000000e+00
1.815364996900e+01 -7.000000000000e+07 6.684759947500e-01 0.000000000000e+00 0.000000000000e+00 2.500000000000e+01 0.000000000000e+00 0.000000000000e+00 0.000000000000e+00 0.000000000000e+00 0.000000000000e+00 0.000000000000e+00 0.000000000000e+00 0.000000000000e+00 0.000000000000e+00 0.000000000000e+00 -0.000000000000e+00 0.000000000000e+00  0.000000000000e+00
1.828713375900e+01 -7.000000000000e+07 6.684759947500e-01 0.000000000000e+00 0.000000000000e+00 2.500000000000e+01 0.000000000000e+00 0.000000000000e+00 0.000000000000e+00 0.000000000000e+00 0.000000000000e+00 0.000000000000e+00 0.000000000000e+00 0.000000000000e+00 0.000000000000e+00 0.000000000000e+00 -0.000000000000e+00 0.000000000000e+00  0.000000000000e+00
1.844745338500e+01 -7.000000000000e+07 6.817856140032e-01 0.000000000000e+00 0.000000000000e+00 2.500000000000e+01 0.000000000000e+00 0.000000000000e+00 0.000000000000e+00 0.000000000000e+00 0.000000000000e+00 0.000000000000e+00 0.000000000000e+00 0.000000000000e+00 0.000000000000e+00 0.000000000000e+00 -0.000000000000e+00 0.000000000000e+00  0.000000000000e+00
1.864000000000e+01 1.000000000000e+05 1.000000000000e+00 0.000000000000e+00 0.000000000000e+00 2.500000000000e+01 0.000000000000e+00 0.000000000000e+00 -5.404633198096e+07 -8.415612414852e+05 -2.382112667997e+05 -1.427991550205e+07 0.000000000000e+00 0.000000000000e+00 0.000000000000e+00 0.000000000000e+00 2.285481958327e+07 4.836372888919e+07  0.000000000000e+00
1.874000000000e+01 1.000000000000e+05 1.000000000000e+00 0.000000000000e+00 0.000000000000e+00 2.500000000000e+01 0.000000000000e+00 0.000000000000e+00 -6.872350638628e+07 -7.606752532009e+05 -6.978838611723e+06 -1.970204748514e+07 0.000000000000e+00 0.000000000000e+00 0.000000000000e+00 0.000000000000e+00 3.180146416105e+07 5.648388812957e+07  0.000000000000e+00
1.898769353200e+01 1.000000000000e+05 1.000000000000e+00 0.000000000000e+00 0.000000000000e+00 2.500000000000e+01 0.000000000000e+00 0.000000000000e+00 -5.410823344914e+07 -1.689429644963e+05 -1.294849661910e+07 -1.710726334129e+07 0.000000000000e+00 0.000000000000e+00 0.000000000000e+00 0.000000000000e+00 2.805466446984e+07 3.924705285650e+07  0.000000000000e+00
1.932381291800e+01 1.000000000000e+05 1.000000000000e+00 0.000000000000e+00 0.000000000000e+00 2.500000000000e+01 0.000000000000e+00 0.000000000000e+00 -4.435291322718e+07 1.034886541649e+05 -1.501905415465e+07 -1.480037701947e+07 0.000000000000e+00 0.000000000000e+00 0.000000000000e+00 0.000000000000e+00 2.472411480044e+07 2.944435228948e+07  0.000000000000e+00
1.978000000000e+01 1.000000000000e+05 1.000000000000e+00 0.000000000000e+00 0.000000000000e+00 2.500000000000e+01 0.000000000000e+00 0.000000000000e+00 -3.890012706693e+07 1.925492428938e+04 -1.535593636223e+07 -1.326342792049e+07 0.000000000000e+00 0.000000000000e+00 0.000000000000e+00 0.000000000000e+00 2.250649711655e+07 2.465714982673e+07  0.000000000000e+00
2.035000000000e+01 1.000000000000e+05 1.000000000000e+00 0.000000000000e+00 0.000000000000e+00 2.500000000000e+01 0.000000000000e+00 0.000000000000e+00 -3.614940070427e+07 4.059355993847e+04 -1.498630020040e+07 -1.232483181220e+07 0.000000000000e+00 0.000000000000e+00 0.000000000000e+00 0.000000000000e+00 2.115351090562e+07 2.261172491026e+07  0.000000000000e+00
2.092000000000e+01 1.000000000000e+05 1.000000000000e+00 0.000000000000e+00 0.000000000000e+00 2.500000000000e+01 0.000000000000e+00 0.000000000000e+00 -3.481576311450e+07 5.774537368953e+04 -1.465290486237e+07 -1.182218183856e+07 0.000000000000e+00 0.000000000000e+00 0.000000000000e+00 0.000000000000e+00 2.043028327181e+07 2.171725849175e+07  0.000000000000e+00
2.150954244600e+01 1.000000000000e+05 1.000000000000e+00 0.000000000000e+00 0.000000000000e+00 2.500000000000e+01 0.000000000000e+00 0.000000000000e+00 -3.403179267181e+07 5.986462189137e+03 -1.440509312998e+07 -1.150993858750e+07 0.000000000000e+00 0.000000000000e+00 0.000000000000e+00 0.000000000000e+00 1.998227479643e+07 2.122290485715e+07  0.000000000000e+00
2.217550067300e+01 1.000000000000e+05 1.000000000000e+00 0.000000000000e+00 0.000000000000e+00 2.500000000000e+01 0.000000000000e+00 0.000000000000e+00 -3.355155140696e+07 1.889946157116e+04 -1.417836602305e+07 -1.129494718119e+07 0.000000000000e+00 0.000000000000e+00 0.000000000000e+00 0.000000000000e+00 1.967495487040e+07 2.096417170958e+07  0.000000000000e+00
2.292802878200e+01 1.000000000000e+05 1.000000000000e+00 0.000000000000e+00 0.000000000000e+00 2.500000000000e+01 0.000000000000e+00 0.000000000000e+00 -3.321759145870e+07 2.864292075604e+04 -1.402428689527e+07 -1.114519129296e+07 0.000000000000e+00 0.000000000000e+00 0.000000000000e+00 0.000000000000e+00 1.946235654897e+07 2.078302075168e+07  0.000000000000e+00
2.377808685200e+01 1.000000000000e+05 1.000000000000e+00 0.000000000000e+00 0.000000000000e+00 2.500000000000e+01 0.000000000000e+00 0.000000000000e+00 -3.299313065045e+07 1.872346538785e+03 -1.391989787893e+07 -1.104259197139e+07 0.000000000000e+00 0.000000000000e+00 0.000000000000e+00 0.000000000000e+00 1.931854016692e+07 2.066268698617e+07  0.000000000000e+00
2.473848352600e+01 1.000000000000e+05 1.000000000000e+00 0.000000000000e+00 0.000000000000e+00 2.500000000000e+01 0.000000000000e+00 0.000000000000e+00 -3.286709085011e+07 1.069416908263e+04 -1.383215902212e+07 -1.097422766907e+07 0.000000000000e+00 0.000000000000e+00 0.000000000000e+00 0.000000000000e+00 1.922449251376e+07 2.061303647901e+07  0.000000000000e+00
2.582383040900e+01 1.000000000000e+05 1.000000000000e+00 0.000000000000e+00 0.000000000000e+00 2.500000000000e+01 0.000000000000e+00 0.000000000000e+00 -3.279377311835e+07 3.173655274308e+03 -1.378603917776e+07 -1.093341988051e+07 0.000000000000e+00 0.000000000000e+00 0.000000000000e+00 0.000000000000e+00 1.917107739221e+07 2.058283861043e+07  0.000000000000e+00
2.704980320500e+01 1.000000000000e+05 1.000000000000e+00 0.000000000000e+00 0.000000000000e+00 2.500000000000e+01 0.000000000000e+00 0.000000000000e+00 -3.276876853058e+07 8.943984099586e+03 -1.375518114003e+07 -1.091133240684e+07 0.000000000000e+00 0.000000000000e+00 0.000000000000e+00 0.000000000000e+00 1.914509402582e+07 2.058339105866e+07  0.000000000000e+00
2.843495304000e+01 1.000000000000e+05 1.000000000000e+00 0.000000000000e+00 0.000000000000e+00 2.500000000000e+01 0.000000000000e+00 0.000000000000e+00 -3.277696111088e+07 2.472560785650e+03 -1.375204227306e+07 -1.090641989152e+07 0.000000000000e+00 0.000000000000e+00 0.000000000000e+00 0.000000000000e+00 1.914514109182e+07 2.059569995695e+07  0.000000000000e+00
3.000000000000e+01 1.000000000000e+05 1.000000000000e+00 0.000000000000e+00 0.000000000000e+00 2.500000000000e+01 0.000000000000e+00 0.000000000000e+00 -3.282110316024e+07 8.160466158841e+01 -1.375753423613e+07 -1.091425260571e+07 0.000000000000e+00 0.000000000000e+00 0.000000000000e+00 0.000000000000e+00 1.916429666736e+07 2.063266841458e+07  0.000000000000e+00
3.207132281000e+01 1.000000000000e+05 1.000000000000e+00 0.000000000000e+00 0.000000000000e+00 2.500000000000e+01 0.000000000000e+00 0.000000000000e+00 -3.290227901017e+07 2.278971091962e+03 -1.378468425085e+07 -1.093766710134e+07 0.000000000000e+00 0.000000000000e+00 0.000000000000e+00 0.000000000000e+00 1.920821012079e+07 2.068854929060e+07  0.000000000000e+00
3.500000000000e+01 1.000000000000e+05 1.000000000000e+00 0.000000000000e+00 0.000000000000e+00 2.500000000000e+01 0.000000000000e+00 0.000000000000e+00 -3.303830144401e+07 -1.582026722528e+03 -1.384677053614e+07 -1.098488163638e+07 0.000000000000e+00 0.000000000000e+00 0.000000000000e+00 0.000000000000e+00 1.928998453884e+07 2.077087632830e+07  0.000000000000e+00
 TITLE = "Profiles along polylines"
 VARIABLES = "DIST" "PRESSURE1" "SATURATION1" "VELOCITY_X1" "VELOCITY_Y1" "TEMPERATURE1" "DISPLACEMENT_X1" "DISPLACEMENT_Y1" "STRESS_XX" "STRESS_XY" "STRESS_YY" "STRESS_ZZ" "STRAIN_XX" "STRAIN_XY" "STRAIN_YY" "STRAIN_PLS"  p_(1st_Invariant)  q_(2nd_Invariant)   Effective_Strain
 ZONE T="TIME=1.000000000000e-03"
0.000000000000e+00 2.334135896320e+05 1.000000000000e+00 -1.865376704389e-05 -2.977637586887e-03 2.447870096528e+01 0.000000000000e+00 5.466344584500e-05 -3.071573594685e+07 1.328379665003e+04 -1.215272103508e+07 -9.764571501491e+06 -6.583294557191e-06 9.067247609381e-07 6.760468136444e-06 0.000000000000e+00 1.754434282781e+07 1.986505891234e+07  1.166260258749e-05
2.928677190000e+00 2.343154897181e+05 1.000000000000e+00 -4.171916973666e-05 -3.050181620321e-03 2.506534753914e+01 0.000000000000e+00 1.649321994342e-05 -3.128884423011e+07 -1.729236353405e+04 -1.223453907247e+07 -1.013742468928e+07 -7.572100105865e-06 -9.559012285789e-07 1.774716306426e-05 0.000000000000e+00 1.788693599729e+07 2.018475633398e+07  2.257040171633e-05
5.000000000000e+00 2.342026657869e+05 1.000000000000e+00 -8.148800181382e-05 -3.167469276001e-03 2.499813937129e+01 0.000000000000e+00 -2.009825891610e-05 -3.147790429938e+07 3.983856199951e+03 -1.230316460639e+07 -1.018687660714e+07 -8.986292923682e-06 3.988018066905e-07 1.816387938188e-05 0.000000000000e+00 1.798931517097e+07 2.031572386857e+07  2.396628974432e-05
6.565046960000e+00 2.333162555124e+05 1.000000000000e+00 -1.269630564780e-04 -3.344799147723e-03 2.499766710388e+01 0.000000000000e+00 -5.149502681876e-05 -3.171139487080e+07 1.534412308765e+03 -1.231045026353e+07 -1.025211017105e+07 -1.235169186925e-05 3.907098625852e-07 2.154296663545e-05 0.000000000000e+00 1.809131843513e+07 2.050773426713e+07  2.971891236081e-05
7.950196795000e+00 2.316874451051e+05 1.000000000000e+00 -1.569128191050e-04 -3.606745212935e-03 2.500053834216e+01 0.000000000000e+00 -8.476573346410e-05 -3.199061308654e+07 9.319371869920e+03 -1.229046653453e+07 -1.032421139352e+07 -1.684062005003e-05 1.475824431513e-06 2.599465881254e-05 0.000000000000e+00 1.820176367153e+07 2.075325777894e+07  3.746503858399e-05
9.176169591000e+00 2.291884807622e+05 1.000000000000e+00 -1.725290934852e-04 -3.877648086108e-03 2.499993355520e+01 0.000000000000e+00 -1.205275759529e-04 -3.231119850354e+07 5.020588969090e+03 -1.223570853406e+07 -1.039847938876e+07 -2.287041445867e-05 6.558350237099e-07 3.200759587549e-05 0.000000000000e+00 1.831512880879e+07 2.105431213182e+07  4.775834370529e-05
1.026151647400e+01 2.257922828547e+05 1.000000000000e+00 -2.114384196819e-04 -4.270388949918e-03 2.500000647750e+01 0.000000000000e+00 -1.603211005010e-04 -3.273763402235e+07 1.744057304965e+04 -1.213018325168e+07 -1.048979388480e+07 -3.133461538890e-05 2.165061704319e-06 4.035794031539e-05 0.000000000000e+00 1.845253705294e+07 2.147470745282e+07  6.236412816910e-05
1.122191314800e+01 2.214870716865e+05 1.000000000000e+00 -3.288216845295e-04 -4.679323804238e-03 2.500000066190e+01 0.000000000000e+00 -2.047921698572e-04 -3.327709333236e+07 5.646061955239e+03 -1.197004498936e+07 -1.059935834102e+07 -4.281739862393e-05 5.926264816591e-07 5.180724382260e-05 0.000000000000e+00 1.861549888758e+07 2.202440630964e+07  8.207694661849e-05
1.207197121800e+01 2.163825623022e+05 1.000000000000e+00 -3.835034952335e-04 -5.317636946557e-03 2.500000105668e+01 0.000000000000e+00 -2.563461032511e-04 -3.402625156034e+07 3.976635361683e+04 -1.171846772380e+07 -1.074468825221e+07 -5.854889661862e-05 5.153328214580e-06 6.728483204347e-05 0.000000000000e+00 1.882980251212e+07 2.281037203122e+07  1.094273501861e-04
1.282449932700e+01 2.105056869450e+05 1.000000000000e+00 -3.574856782901e-04 -5.933384292393e-03 2.499999991692e+01 0.000000000000e+00 -3.154089692094e-04 -3.502059953407e+07 4.516219235706e+04 -1.134297206553e+07 -1.092699951615e+07 -8.003879556997e-05 4.807808469917e-06 8.873574274921e-05 0.000000000000e+00 1.909685703858e+07 2.388845825149e+07  1.464646301264e-04
1.349045755400e+01 2.036250527878e+05 1.000000000000e+00 -5.393115972500e-04 -6.623956404688e-03 2.500000003766e+01 0.000000000000e+00 -3.847655966949e-04 -3.637686320868e+07 2.146460298559e+04 -1.081382752762e+07 -1.117223438445e+07 -1.098772111106e-04 2.062272475979e-06 1.184400282266e-04 0.000000000000e+00 1.945430837358e+07 2.538575710166e+07  1.978071300445e-04
1.408000000000e+01 1.960039119575e+05 1.000000000000e+00 -6.844165326306e-04 -7.729354459494e-03 2.500000003922e+01 0.000000000000e+00 -4.686931843295e-04 -3.837792198474e+07 1.385107738637e+05 -9.980258067438e+06 -1.151977257874e+07 -1.523134041233e-04 1.464159845900e-05 1.604017580529e-04 0.000000000000e+00 1.995931754364e+07 2.766109833152e+07  2.720341229971e-04
1.465000000000e+01 1.865279769542e+05 1.000000000000e+00 -7.700012132973e-04 -9.092213407497e-03 2.499999995812e+01 0.000000000000e+00 -5.803480657648e-04 -4.158407759808e+07 1.821039393386e+05 -8.552755929627e+06 -1.205082846580e+07 -2.194627627778e-04 1.659428685604e-05 2.273402638204e-04 0.000000000000e+00 2.072922066450e+07 3.143021236017e+07  3.880287789036e-04
1.522000000000e+01 1.740556493452e+05 1.000000000000e+00 -1.072126815700e-03 -1.088016023731e-02 2.500000447452e+01 0.000000000000e+00 -7.462809036888e-04 -4.769442545378e+07 1.334123855357e+05 -5.614839661351e+06 -1.300007133056e+07 -3.425853284070e-04 1.136673292852e-05 3.511060402404e-04 0.000000000000e+00 2.210311214856e+07 3.891682276654e+07  6.010919602581e-04
1.567618708200e+01 1.608514853684e+05 1.000000000000e+00 -1.515778892800e-03 -1.360546273094e-02 2.500008180388e+01 0.000000000000e+00 -9.540498891237e-04 -5.880026316486e+07 3.052287385726e+05 4.696515833925e+05 -1.450432701743e+07 -5.527700172114e-04 3.039582619173e-05 5.639272413277e-04 0.000000000000e+00 2.427831286630e+07 5.338460347365e+07  9.685362229074e-04
1.601230646800e+01 1.487274502835e+05 1.000000000000e+00 -1.287594278505e-03 -1.590546896158e-02 2.500080995938e+01 0.000000000000e+00 -1.187875289912e-03 -7.608042865453e+07 6.807006743419e+05 8.930351091935e+06 -1.714890987376e+07 -8.192904904542e-04 3.807176715435e-05 8.143600903306e-04 0.000000000000e+00 2.809966247879e+07 7.544091910852e+07  1.416320980798e-03
1.626000000000e+01 1.375363589691e+05 1.000000000000e+00 -1.685707504291e-03 -1.821868912144e-02 2.500341806563e+01 0.000000000000e+00 -1.438850157365e-03 -1.002643397969e+08 1.577728820970e+06 2.515295375874e+07 -1.953705864437e+07 -1.182454407203e-03 6.084259707957e-05 1.188292569203e-03 0.000000000000e+00 3.154948156085e+07 1.101329288249e+08  2.055831925400e-03
1.636000000000e+01 1.321562803133e+05 1.000000000000e+00 -2.221589525574e-03 -2.082631007889e-02 2.500658919670e+01 0.000000000000e+00 -1.571980708334e-03 -7.162122175459e+07 1.794588485487e+06 4.135493689416e+07 -5.933619816351e+06 -9.473882279066e-04 3.404691490305e-03 3.032282451221e-02 0.000000000000e+00 1.206663489226e+07 9.832091424051e+07  3.136677366681e-02
1.655254661500e+01 -6.993840078841e+07 6.819894981184e-01 -7.782662983701e-04 -4.209881966832e-03 2.504815405914e+01 0.000000000000e+00 -5.580856337113e-03 -1.043348067928e+07 -4.724098594673e+05 -1.166911093198e+07 -7.736313430986e+06 -1.148635894382e-02 -4.023680191046e-03 -1.674850670770e-02 0.000000000000e+00 9.946301680747e+06 3.578226929808e+06  1.639022775150e-02
1.671286624100e+01 -6.999994537896e+07 6.684871907380e-01 -3.562881979814e-07 -3.361959701309e-06 2.524653827580e+01 0.000000000000e+00 -4.033884528183e-03 -5.910992031746e+06 -3.716742804758e+04 -6.796803124164e+06 -4.448534578267e+06 -6.228131111027e-03 -3.165679991434e-04 -1.000051273489e-02 0.000000000000e+00 5.718776578059e+06 2.055005689114e+06  8.764474513666e-03
1.684635003100e+01 -6.999999993738e+07 6.684760005844e-01 3.944945923937e-10 -1.874136396977e-07 2.598966082925e+01 0.000000000000e+00 -2.611670878727e-03 -5.408430401498e+06 -9.011605264225e+03 -7.011875231667e+06 -4.349959060680e+06 -4.507685520833e-03 -7.675499751863e-05 -1.133623605941e-02 0.000000000000e+00 5.590088231282e+06 2.321387716246e+06  9.886706407727e-03
1.695745861500e+01 -6.999999998899e+07 6.684759948411e-01 1.988127178712e-10 -1.844061247759e-07 2.807494333416e+01 0.000000000000e+00 -1.243975374139e-03 -5.020637821015e+06 -5.274147118674e+03 -7.433047064088e+06 -4.367874854480e+06 -2.779905377987e-03 -4.492175779313e-05 -1.305357250149e-02 0.000000000000e+00 5.607186579861e+06 2.796539416928e+06  1.190974334133e-02
1.705000000000e+01 -6.999999537629e+07 6.684760111000e-01 6.369829107143e-10 -1.838934405766e-07 3.309920063102e+01 0.000000000000e+00 1.043232330835e-04 2.085347759181e+07 -5.996762561792e+05 1.473228511734e+07 1.045585007897e+07 2.634157728938e-05 -4.246185504824e-04 -5.263442412702e-03 0.000000000000e+00 -1.534720426270e+07 9.111125658121e+06  5.327670224956e-03
1.716700339000e+01 -7.000000000000e+07 0.000000000000e+00 0.000000000000e+00 0.000000000000e+00 2.500000000000e+01 0.000000000000e+00 9.605764877150e-05 3.640950172388e+07 -4.544534051908e+05 3.607974338994e+07 2.174677353415e+07 9.530773323328e-05 -5.907894267480e-06 9.316430406267e-05 0.000000000000e+00 -3.141200621599e+07 1.452200968869e+07  9.480813557446e-05
1.731435117100e+01 -7.000000000000e+07 0.000000000000e+00 0.000000000000e+00 0.000000000000e+00 2.500000000000e+01 0.000000000000e+00 8.154702569268e-05 3.763232105180e+07 6.831299204878e+03 3.754545278740e+07 2.255333215176e+07 9.801342785029e-05 8.880688966342e-08 9.744878413164e-05 0.000000000000e+00 -3.257703533032e+07 1.503574762851e+07  9.773245036887e-05
1.750000000000e+01 -7.000000000000e+07 0.000000000000e+00 0.000000000000e+00 0.000000000000e+00 2.500000000000e+01 0.000000000000e+00 6.346462829876e-05 3.769005159005e+07 -2.521956599102e-01 3.755285213237e+07 2.257287111673e+07 9.826167307662e-05 -3.278543578834e-12 9.736987660167e-05 0.000000000000e+00 -3.260525827971e+07 1.504904981026e+07  9.781882376668e-05
1.768564882900e+01 -7.000000000000e+07 0.000000000000e+00 0.000000000000e+00 0.000000000000e+00 2.500000000000e+01 0.000000000000e+00 4.538222768347e-05 3.763206617409e+07 -6.833608164324e+03 3.754535470710e+07 2.255322626436e+07 9.801245941326e-05 -8.883690613622e-08 9.744883487784e-05 0.000000000000e+00 -3.257688238185e+07 1.503567636215e+07  9.773198719937e-05
1.783299661000e+01 -7.000000000000e+07 0.000000000000e+00 0.000000000000e+00 0.000000000000e+00 2.500000000000e+01 0.000000000000e+00 3.087159528592e-05 3.640905886891e+07 4.544489678857e+05 3.607957141860e+07 2.174658908625e+07 9.530605358726e-05 5.907836582514e-06 9.316438516025e-05 0.000000000000e+00 -3.141173979125e+07 1.452188189996e+07  9.480730049640e-05