 TITLE = "Time curves in points"
 VARIABLES = "TIME"  "PRESSURE1"  "SATURATION1"  "TEMPERATURE1"  "DISPLACEMENT_X1"  "DISPLACEMENT_Y1"  "STRESS_XX"  "STRESS_XY"  "STRESS_YY"  "STRESS_ZZ"  "STRAIN_XX"  "STRAIN_XY"  "STRAIN_YY"  "STRAIN_PLS"  p_(1st_Invariant)  q_(2nd_Invariant)   Effective_Strain
 ZONE T="POINT=POINT15"
0.000000000000e+00 1.000000000000e+05 1.000000000000e+00 2.500000000000e+01 0.000000000000e+00 0.000000000000e+00 -3.444049899891e+07 -5.858766693045e+04 -1.446208944789e+07 -1.168309508854e+07 0.000000000000e+00 0.000000000000e+00 0.000000000000e+00 0.000000000000e+00 2.019522784511e+07 2.150325191297e+07  0.000000000000e+00
1.000000000000e-03 1.960039119575e+05 1.000000000000e+00 2.500000003922e+01 0.000000000000e+00 3.386573365868e-05 -3.471807533866e+07 -4.890922041801e+04 -1.426405271934e+07 -1.170695698048e+07 -9.423679489800e-06 7.189703123530e-07 8.241948761386e-06 0.000000000000e+00 2.022969501283e+07 2.184527066317e+07  1.536084935609e-05
2.000000000000e-03 2.110301634482e+05 1.000000000000e+00 2.499999991814e+01 0.000000000000e+00 3.439187749784e-05 -3.470338423431e+07 -4.906785565311e+04 -1.426514232869e+07 -1.170287650205e+07 -9.029570527179e-06 7.071859806028e-07 8.049916929382e-06 0.000000000000e+00 2.022380102168e+07 2.183259879432e+07  1.484998098182e-05
3.000000000000e-03 2.214048532335e+05 1.000000000000e+00 2.499999996345e+01 0.000000000000e+00 3.498381668453e-05 -3.468997878803e+07 -4.924531938855e+04 -1.426828746048e+07 -1.169979839632e+07 -8.645983592672e-06 6.940029602553e-07 7.818768107029e-06 0.000000000000e+00 2.021935488161e+07 2.181977953375e+07  1.431544718446e-05
4.000000000000e-03 2.285516429807e+05 1.000000000000e+00 2.500000020706e+01 0.000000000000e+00 3.551342748794e-05 -3.467737585245e+07 -4.944646325828e+04 -1.427345637177e+07 -1.169756812068e+07 -8.260713366485e-06 6.790608442190e-07 7.543941164250e-06 0.000000000000e+00 2.021613344830e+07 2.180643670527e+07  1.374234842066e-05
1.000000000000e-02 2.383748876322e+05 1.000000000000e+00 2.500562013607e+01 0.000000000000e+00 3.817512465745e-05 -3.463200766737e+07 -5.148134685213e+04 -1.432743885921e+07 -1.170192467202e+07 -6.413794585069e-06 5.278980629610e-07 5.700692109046e-06 0.000000000000e+00 2.022045706620e+07 2.173675973301e+07  1.053725527718e-05
2.000000000000e-02 2.339019572337e+05 1.000000000000e+00 2.506208476331e+01 0.000000000000e+00 5.013353724838e-05 -3.455063132918e+07 -5.621012142573e+04 -1.445642825807e+07 -1.173466120779e+07 -2.175316409419e-06 1.766176660653e-07 2.125585765704e-06 0.000000000000e+00 2.024724026501e+07 2.158439787191e+07  3.737314453470e-06
3.000000000000e-02 2.226011893648e+05 1.000000000000e+00 2.517761121051e+01 0.000000000000e+00 6.693194538745e-05 -3.447991917823e+07 -6.106202759660e+04 -1.460155737589e+07 -1.179526307945e+07 2.702061573346e-06 -1.838096494851e-07 -1.013997663146e-06 0.000000000000e+00 2.029224654452e+07 2.142009044531e+07  3.342240280081e-06
4.000000000000e-02 2.085792893110e+05 1.000000000000e+00 2.534734615133e+01 0.000000000000e+00 8.729489810167e-05 -3.442825158908e+07 -6.549029067098e+04 -1.474884469726e+07 -1.188069895476e+07 7.794475967577e-06 -5.127663350105e-07 -3.311337088281e-06 0.000000000000e+00 2.035259841370e+07 2.125938827060e+07  9.915529951519e-06
5.000000000000e-02 1.938518400507e+05 1.000000000000e+00 2.555910063164e+01 0.000000000000e+00 1.086507352906e-04 -3.439841774559e+07 -6.928705790590e+04 -1.489313140241e+07 -1.198630743278e+07 1.282519076661e-05 -7.948119010332e-07 -4.747956952938e-06 0.000000000000e+00 2.042595219359e+07 2.110968159129e+07  1.580560802292e-05
6.000000000000e-02 1.789834898879e+05 1.000000000000e+00 2.579984334792e+01 0.000000000000e+00 1.321261985529e-04 -3.438573026461e+07 -7.246083250971e+04 -1.502673983799e+07 -1.210403140435e+07 1.766904471853e-05 -1.030578014459e-06 -5.337951330584e-06 0.000000000000e+00 2.050550050232e+07 2.097401180579e+07  2.093302748219e-05
7.000000000000e-02 1.648571695325e+05 1.000000000000e+00 2.605851251381e+01 0.000000000000e+00 1.548601344162e-04 -3.438829175339e+07 -7.512852244086e+04 -1.515474075667e+07 -1.223107141441e+07 2.229253265169e-05 -1.228749266487e-06 -5.373642222126e-06 0.000000000000e+00 2.059136797482e+07 2.085010318063e+07  2.549812957322e-05
8.000000000000e-02 1.520598724209e+05 1.000000000000e+00 2.632667934489e+01 0.000000000000e+00 1.777388795349e-04 -3.440143094700e+07 -7.740076730000e+04 -1.527499337952e+07 -1.236248937933e+07 2.668574415730e-05 -1.397544598880e-06 -4.958929516697e-06 0.000000000000e+00 2.067963790195e+07 2.073709459242e+07  2.957891208740e-05
9.000000000000e-02 1.415311319150e+05 1.000000000000e+00 2.659830396968e+01 0.000000000000e+00 1.990267190558e-04 -3.442393045717e+07 -7.932626938068e+04 -1.539036676267e+07 -1.249668348175e+07 3.083440044096e-05 -1.540581896302e-06 -4.259874229477e-06 0.000000000000e+00 2.077032690053e+07 2.063361172585e+07  3.327728391203e-05
1.000000000000e-01 1.342880976520e+05 1.000000000000e+00 2.686923310750e+01 0.000000000000e+00 2.187073358933e-04 -3.445356345124e+07 -8.096619184589e+04 -1.550101431722e+07 -1.263157342004e+07 3.474394408334e-05 -1.662404708004e-06 -3.359442833416e-06 0.000000000000e+00 2.086205039617e+07 2.053863909571e+07  3.665294761424e-05
2.000000000000e-01 1.519776802304e+05 1.000000000000e+00 2.902104310329e+01 0.000000000000e+00 4.177639676275e-04 -3.482964130573e+07 -8.966860308968e+04 -1.615876602733e+07 -1.368484099988e+07 5.989670531076e-05 -2.308869543257e-06 1.133114661356e-05 0.000000000000e+00 2.155774944431e+07 2.002339520945e+07  5.525671431437e-05
3.000000000000e-01 1.790572852396e+05 1.000000000000e+00 3.070768399391e+01 0.000000000000e+00 6.118043930374e-04 -3.514619971321e+07 -9.584559435343e+04 -1.659615001096e+07 -1.449594053357e+07 7.826537571267e-05 -2.767731751421e-06 2.521200990157e-05 0.000000000000e+00 2.207943008591e+07 1.968506472252e+07  6.936042148407e-05
4.000000000000e-01 2.066914115448e+05 1.000000000000e+00 3.205934977555e+01 0.000000000000e+00 7.858388779677e-04 -3.541977455218e+07 -1.005649461013e+05 -1.692318680813e+07 -1.514601724941e+07 9.224973113936e-05 -3.118312166976e-06 3.721063545208e-05 0.000000000000e+00 2.249632620324e+07 1.944695355108e+07  8.056764103761e-05
5.000000000000e-01 2.329672035767e+05 1.000000000000e+00 3.317184845531e+01 0.000000000000e+00 9.471039134551e-04 -3.565146497190e+07 -1.047583068563e+05 -1.718321865932e+07 -1.568087872332e+07 1.035103702954e-04 -3.429818965920e-06 4.741859286751e-05 0.000000000000e+00 2.283852078485e+07 1.926425846060e+07  8.994384123460e-05
6.000000000000e-01 2.574499089701e+05 1.000000000000e+00 3.410964206560e+01 0.000000000000e+00 1.098366839859e-03 -3.585480664769e+07 -1.084697456083e+05 -1.739259163043e+07 -1.613154992046e+07 1.126968953738e-04 -3.705525844639e-06 5.638109840567e-05 0.000000000000e+00 2.312631606620e+07 1.912486679143e+07  9.780918413729e-05
7.000000000000e-01 2.802222965386e+05 1.000000000000e+00 3.491618489167e+01 0.000000000000e+00 1.241424486937e-03 -3.603799605064e+07 -1.117184592696e+05 -1.756251102190e+07 -1.651880347364e+07 1.202764209540e-04 -3.946858859481e-06 6.445351012633e-05 0.000000000000e+00 2.337310351539e+07 1.901981384551e+07  1.044756812553e-04
8.000000000000e-01 3.015584664199e+05 1.000000000000e+00 3.562141889441e+01 0.000000000000e+00 1.377923021926e-03 -3.620518591733e+07 -1.146919635781e+05 -1.770424503312e+07 -1.685760411012e+07 1.266505352603e-04 -4.167747750965e-06 7.177312763621e-05 0.000000000000e+00 2.358901168686e+07 1.893950186409e+07  1.102440259783e-04
9.000000000000e-01 3.214760045040e+05 1.000000000000e+00 3.624655662569e+01 0.000000000000e+00 1.508770384212e-03 -3.635940509348e+07 -1.174707677225e+05 -1.782503689963e+07 -1.715837524574e+07 1.320938937546e-04 -4.374173201698e-06 7.845807191716e-05 0.000000000000e+00 2.378093907962e+07 1.887762677891e+07  1.153171009599e-04
1.000000000000e+00 3.401226122245e+05 1.000000000000e+00 3.680707518524e+01 0.000000000000e+00 1.634660758303e-03 -3.650325341609e+07 -1.201023367278e+05 -1.792955398661e+07 -1.742866274350e+07 1.367902059746e-04 -4.569661184943e-06 8.461525860331e-05 0.000000000000e+00 2.395382338207e+07 1.883029154433e+07  1.198307522974e-04
2.000000000000e+00 4.671720763694e+05 1.000000000000e+00 4.007010834523e+01 0.000000000000e+00 2.632892802038e-03 -3.753870440062e+07 -1.424472144170e+05 -1.848280402465e+07 -1.904658095209e+07 1.584247028683e-04 -6.229566384713e-06 1.241600763666e-04 0.000000000000e+00 2.502269645912e+07 1.878198019981e+07  1.447774510337e-04
3.000000000000e+00 5.669204485162e+05 1.000000000000e+00 4.231089734745e+01 0.000000000000e+00 3.466748588126e-03 -3.836147851096e+07 -1.613575826073e+05 -1.882587606725e+07 -2.018092375272e+07 1.699972542217e-04 -7.634336593138e-06 1.535501330933e-04 0.000000000000e+00 2.578942611031e+07 1.889662279354e+07  1.629369758229e-04
4.000000000000e+00 6.510622430743e+05 1.000000000000e+00 4.402956206316e+01 0.000000000000e+00 4.185523431339e-03 -3.904879562233e+07 -1.777170791067e+05 -1.907106563815e+07 -2.106289017175e+07 1.772270856494e-04 -8.849613475947e-06 1.772018445956e-04 0.000000000000e+00 2.639425047741e+07 1.906252023385e+07  1.778761201019e-04
5.000000000000e+00 7.254035437310e+05 1.000000000000e+00 4.544864994937e+01 0.000000000000e+00 4.819136960644e-03 -3.964013341066e+07 -1.920976114282e+05 -1.926582247218e+07 -2.179616849027e+07 1.824991624852e-04 -9.917881591263e-06 1.972040711624e-04 0.000000000000e+00 2.690070812437e+07 1.923725149577e+07  1.910521009850e-04
6.000000000000e+00 7.929929650988e+05 1.000000000000e+00 4.668777858518e+01 0.000000000000e+00 5.388749185656e-03 -4.016221006529e+07 -2.050164946765e+05 -1.943578177890e+07 -2.243818015644e+07 1.869538914852e-04 -1.087757006113e-05 2.147374445135e-04 0.000000000000e+00 2.734539066687e+07 1.940351324267e+07  2.031573068082e-04
7.000000000000e+00 8.558563136304e+05 1.000000000000e+00 4.776451332755e+01 0.000000000000e+00 5.902598005832e-03 -4.062791394473e+07 -2.164031358210e+05 -1.957493859023e+07 -2.299728038100e+07 1.904228985894e-04 -1.172343483187e-05 2.303353427189e-04 0.000000000000e+00 2.773337763865e+07 1.957115755866e+07  2.141645245536e-04
8.000000000000e+00 9.146399701799e+05 1.000000000000e+00 4.876058458216e+01 0.000000000000e+00 6.375974627411e-03 -4.105310521071e+07 -2.269019238289e+05 -1.970794264512e+07 -2.351397817039e+07 1.938217123161e-04 -1.250334479817e-05 2.445868242863e-04 0.000000000000e+00 2.809167534208e+07 1.972348543749e+07  2.246159713375e-04
9.000000000000e+00 9.703372484239e+05 1.000000000000e+00 4.967363714009e+01 0.000000000000e+00 6.813560207230e-03 -4.144516224499e+07 -2.363853285915e+05 -1.982573743857e+07 -2.398709323304e+07 1.968324390843e-04 -1.320782629482e-05 2.577844342851e-04 0.000000000000e+00 2.841933097220e+07 1.987254202129e+07  2.344756377613e-04
1.000000000000e+01 1.023443027822e+06 1.000000000000e+00 5.051032884249e+01 0.000000000000e+00 7.220166568381e-03 -4.180474781979e+07 -2.451593555057e+05 -1.993277224633e+07 -2.442050778110e+07 1.995746580908e-04 -1.385961115131e-05 2.699071103532e-04 0.000000000000e+00 2.871934261574e+07 2.001368914139e+07  2.436996913622e-04
1.100000000000e+01 1.074252378356e+06 1.000000000000e+00 5.129075261320e+01 0.000000000000e+00 7.600621129070e-03 -4.214057658145e+07 -2.532842482721e+05 -2.003123176844e+07 -2.482447749454e+07 2.021056077286e-04 -1.446317461395e-05 2.812546317455e-04 0.000000000000e+00 2.899876194814e+07 2.014982056622e+07  2.524584253654e-04
1.200000000000e+01 1.123145537297e+06 1.000000000000e+00 5.201381134970e+01 0.000000000000e+00 7.957181286365e-03 -4.245400168190e+07 -2.607574971006e+05 -2.011858623512e+07 -2.519831520099e+07 2.043495045229e-04 -1.501833024121e-05 2.918954377942e-04 0.000000000000e+00 2.925696770600e+07 2.028350453334e+07  2.607482104403e-04
1.300000000000e+01 1.170375194811e+06 1.000000000000e+00 5.268259098611e+01 0.000000000000e+00 8.292219331457e-03 -4.274465409180e+07 -2.677672137751e+05 -2.019798388091e+07 -2.554394115109e+07 2.063913788728e-04 -1.553905205131e-05 3.017839176683e-04 0.000000000000e+00 2.949552637460e+07 2.041110381737e+07  2.685325339004e-04
1.400000000000e+01 1.216652637515e+06 1.000000000000e+00 5.330105528491e+01 0.000000000000e+00 8.607733893257e-03 -4.301397665630e+07 -2.743597848753e+05 -2.026944568270e+07 -2.586318221858e+07 2.082454946984e-04 -1.602878590448e-05 3.109871475374e-04 0.000000000000e+00 2.971553485253e+07 2.053296090724e+07  2.758410512316e-04
1.500000000000e+01 1.261522918597e+06 1.000000000000e+00 5.387297891050e+01 0.000000000000e+00 8.904455820947e-03 -4.326710993669e+07 -2.803683445159e+05 -2.032948954742e+07 -2.615785671073e+07 2.097884539926e-04 -1.647513604920e-05 3.197019994136e-04 0.000000000000e+00 2.991815206495e+07 2.065553772375e+07  2.827809505357e-04
1.600000000000e+01 1.305126560981e+06 1.000000000000e+00 5.440179052023e+01 0.000000000000e+00 9.184053442737e-03 -4.350346158592e+07 -2.859643787438e+05 -2.038171887588e+07 -2.643006730686e+07 2.111203577344e-04 -1.689084144899e-05 3.278727322127e-04 0.000000000000e+00 3.010508258955e+07 2.077485199292e+07  2.893227039777e-04
1.700000000000e+01 1.347593761466e+06 1.000000000000e+00 5.489050806219e+01 0.000000000000e+00 9.447924711872e-03 -4.372256610388e+07 -2.912639490299e+05 -2.042859008380e+07 -2.668146704131e+07 2.123198943465e-04 -1.728452381310e-05 3.354695060547e-04 0.000000000000e+00 3.027754107633e+07 2.088798523624e+07  2.954470193389e-04
1.800000000000e+01 1.389052735390e+06 1.000000000000e+00 5.534178435914e+01 0.000000000000e+00 9.697140963821e-03 -4.392523880893e+07 -2.963089026448e+05 -2.047088454981e+07 -2.691346297984e+07 2.134090430190e-04 -1.765929179592e-05 3.425155607489e-04 0.000000000000e+00 3.043652877953e+07 2.099453335030e+07  3.011643450329e-04
1.900000000000e+01 1.429591500330e+06 1.000000000000e+00 5.575796323472e+01 0.000000000000e+00 9.932600080010e-03 -4.411232463013e+07 -3.011182413294e+05 -2.050890724601e+07 -2.712722003644e+07 2.143996889051e-04 -1.801655695535e-05 3.490428369920e-04 0.000000000000e+00 3.058281730419e+07 2.109456313403e+07  3.064918301782e-04
2.000000000000e+01 1.469293608682e+06 1.000000000000e+00 5.614111083334e+01 0.000000000000e+00 1.015483515302e-02 -4.428648892268e+07 -3.056054647168e+05 -2.054059092180e+07 -2.732364053213e+07 2.152263478789e-04 -1.834989354984e-05 3.551616331597e-04 0.000000000000e+00 3.071690679221e+07 2.119169681274e+07  3.114998893389e-04
2.100000000000e+01 1.508082098440e+06 1.000000000000e+00 5.651572149916e+01 0.000000000000e+00 1.036758317744e-02 -4.445268563256e+07 -3.099385988460e+05 -2.057371116721e+07 -2.751502453525e+07 2.161618759137e-04 -1.867178351373e-05 3.610400013030e-04 0.000000000000e+00 3.084714044501e+07 2.128201104040e+07  3.163521165989e-04
2.200000000000e+01 1.546103877700e+06 1.000000000000e+00 5.687205991380e+01 0.000000000000e+00 1.057094477778e-02 -4.460953783903e+07 -3.141036970772e+05 -2.060512032231e+07 -2.769668296690e+07 2.170832499920e-04 -1.898119081090e-05 3.666206887181e-04 0.000000000000e+00 3.097044704275e+07 2.136748637275e+07  3.209821070025e-04
2.300000000000e+01 1.583429864235e+06 1.000000000000e+00 5.720737052371e+01 0.000000000000e+00 1.076492055462e-02 -4.475841927742e+07 -3.180157500054e+05 -2.063193654438e+07 -2.786721060614e+07 2.178872517378e-04 -1.927180045699e-05 3.719585413560e-04 0.000000000000e+00 3.108585547598e+07 2.145176093351e+07  3.254184897937e-04
2.400000000000e+01 1.620108796691e+06 1.000000000000e+00 5.752132531308e+01 0.000000000000e+00 1.094997218077e-02 -4.489837239020e+07 -3.217429719193e+05 -2.065537102014e+07 -2.802657080633e+07 2.186080864127e-04 -1.954867979917e-05 3.770072111202e-04 0.000000000000e+00 3.119343807222e+07 2.153295731712e+07  3.296263950908e-04
2.500000000000e+01 1.656192917748e+06 1.000000000000e+00 5.781431139797e+01 0.000000000000e+00 1.112643078966e-02 -4.502945300313e+07 -3.252954020684e+05 -2.067552496272e+07 -2.817494671576e+07 2.192504831401e-04 -1.981257461025e-05 3.817697413175e-04 0.000000000000e+00 3.129330822720e+07 2.161092805052e+07  3.336065404765e-04
2.600000000000e+01 1.691716213409e+06 1.000000000000e+00 5.808694277237e+01 0.000000000000e+00 1.129457607446e-02 -4.515208549358e+07 -3.286666094897e+05 -2.069220157370e+07 -2.831262165690e+07 2.198092027372e-04 -2.006300716154e-05 3.862639650092e-04 0.000000000000e+00 3.138563624139e+07 2.168608305303e+07  3.373709158284e-04
2.700000000000e+01 1.726707846541e+06 1.000000000000e+00 5.833989622005e+01 0.000000000000e+00 1.145479026754e-02 -4.526607805937e+07 -3.318964894484e+05 -2.070624312369e+07 -2.844002766210e+07 2.203074162007e-04 -2.030294110133e-05 3.904746447738e-04 0.000000000000e+00 3.147078294839e+07 2.175745641158e+07  3.409075740055e-04
2.800000000000e+01 1.761207355485e+06 1.000000000000e+00 5.857384815821e+01 0.000000000000e+00 1.160738754057e-02 -4.537145873750e+07 -3.350063119142e+05 -2.071809207867e+07 -2.855754260554e+07 2.207581174836e-04 -2.053395648451e-05 3.943993814883e-04 0.000000000000e+00 3.154903114057e+07 2.182460335545e+07  3.442137180095e-04
2.900000000000e+01 1.795239383678e+06 1.000000000000e+00 5.878945157670e+01 0.000000000000e+00 1.175263427458e-02 -4.546846377227e+07 -3.379995305350e+05 -2.072782605506e+07 -2.866548915422e+07 2.211645165720e-04 -2.075630986777e-05 3.980472770303e-04 0.000000000000e+00 3.162059299385e+07 2.188756574222e+07  3.472951450028e-04
3.000000000000e+01 1.828814801809e+06 1.000000000000e+00 5.898732735168e+01 0.000000000000e+00 1.189079816411e-02 -4.555733355404e+07 -3.408891320744e+05 -2.073567233872e+07 -2.876422487698e+07 2.215309658086e-04 -2.097096598212e-05 4.014231704831e-04 0.000000000000e+00 3.168574358991e+07 2.194627819005e+07  3.501545547332e-04
3.100000000000e+01 1.861850495525e+06 1.000000000000e+00 5.918598549435e+01 0.000000000000e+00 1.202440566026e-02 -4.564224822768e+07 -3.437563719603e+05 -2.074671052230e+07 -2.886293373927e+07 2.220433213868e-04 -2.118396094508e-05 4.046795099778e-04 0.000000000000e+00 3.175063082975e+07 2.199903727790e+07  3.529286620263e-04
3.200000000000e+01 1.894421488072e+06 1.000000000000e+00 5.937697639130e+01 0.000000000000e+00 1.215323919971e-02 -4.572201956984e+07 -3.465809236463e+05 -2.075825039860e+07 -2.895755480614e+07 2.225948825904e-04 -2.139378478460e-05 4.077653827704e-04 0.000000000000e+00 3.181260825819e+07 2.204752086784e+07  3.555667078360e-04
3.300000000000e+01 1.926555659600e+06 1.000000000000e+00 5.955745626517e+01 0.000000000000e+00 1.227727645075e-02 -4.579606949036e+07 -3.493636263203e+05 -2.076951588543e+07 -2.904669588377e+07 2.231554112835e-04 -2.160049984039e-05 4.106579047146e-04 0.000000000000e+00 3.187076041985e+07 2.209201145141e+07  3.580467336066e-04
3.400000000000e+01 1.958279953357e+06 1.000000000000e+00 5.972658109677e+01 0.000000000000e+00 1.239651069099e-02 -4.586435836185e+07 -3.521020046865e+05 -2.078027497466e+07 -2.912998186113e+07 2.237124466444e-04 -2.180392223331e-05 4.133517605595e-04 0.000000000000e+00 3.192487173254e+07 2.213269138925e+07  3.603626453116e-04
3.500000000000e+01 1.989627564578e+06 1.000000000000e+00 5.988415469201e+01 0.000000000000e+00 1.251112506789e-02 -4.592600784993e+07 -3.548411418590e+05 -2.079143719213e+07 -2.920735392189e+07 2.242964279153e-04 -2.200740099469e-05 4.158109833103e-04 0.000000000000e+00 3.197493298798e+07 2.216803057486e+07  3.624854759411e-04
3.600000000000e+01 2.020634135390e+06 1.000000000000e+00 6.003022103161e+01 0.000000000000e+00 1.262132323337e-02 -4.598006854194e+07 -3.576370802507e+05 -2.080429879226e+07 -2.927893168770e+07 2.249470620848e-04 -2.221509927522e-05 4.179918694641e-04 0.000000000000e+00 3.202109967397e+07 2.219610532405e+07  3.643801209929e-04
3.700000000000e+01 2.051361737692e+06 1.000000000000e+00 6.016492785138e+01 0.000000000000e+00 1.272764666297e-02 -4.602315620035e+07 -3.606621089009e+05 -2.082274835900e+07 -2.934491822799e+07 2.257975919833e-04 -2.243981568923e-05 4.197575284814e-04 0.000000000000e+00 3.206360759578e+07 2.221071835229e+07  3.659389731893e-04
3.800000000000e+01 2.083287020103e+06 1.000000000000e+00 6.028866548787e+01 0.000000000000e+00 1.284495330097e-02 -4.594620617897e+07 -3.693740524256e+05 -2.097090627647e+07 -2.940996626144e+07 2.310718054484e-04 -2.308698863678e-05 4.166705899324e-04 0.000000000000e+00 3.210902623896e+07 2.201419079144e+07  3.637674551521e-04
3.900000000000e+01 2.113075158540e+06 1.000000000000e+00 6.040116681718e+01 0.000000000000e+00 1.293747765741e-02 -4.601544359055e+07 -3.704886736411e+05 -2.094671238368e+07 -2.946323362117e+07 2.304786320940e-04 -2.316978906993e-05 4.195477221687e-04 0.000000000000e+00 3.214179653180e+07 2.208813758927e+07  3.661344333737e-04
4.000000000000e+01 2.142460697470e+06 1.000000000000e+00 6.050277272890e+01 0.000000000000e+00 1.302447806363e-02 -4.608678911645e+07 -3.711248213055e+05 -2.091159366607e+07 -2.951004300588e+07 2.295672897070e-04 -2.321704575358e-05 4.225907659689e-04 0.000000000000e+00 3.216947526280e+07 2.217361845106e+07  3.686301301135e-04
4.200000000000e+01 2.199743116275e+06 1.000000000000e+00 6.070353137102e+01 0.000000000000e+00 1.318796453826e-02 -4.621896836525e+07 -3.723757120257e+05 -2.084822423030e+07 -2.960158488404e+07 2.280579016545e-04 -2.330996906422e-05 4.283446147720e-04 0.000000000000e+00 3.222292582653e+07 2.233008504778e+07  3.734062204284e-04
4.400000000000e+01 2.255508367281e+06 1.000000000000e+00 6.088145664395e+01 0.000000000000e+00 1.334010654008e-02 -4.633774617759e+07 -3.735290852840e+05 -2.078479669674e+07 -2.968108483582e+07 2.265990096909e-04 -2.339564822055e-05 4.336533499416e-04 0.000000000000e+00 3.226787590338e+07 2.247641742742e+07  3.778610704076e-04
5.000000000000e+01 2.407029548280e+06 1.000000000000e+00 6.110376251631e+01 0.000000000000e+00 1.365315838607e-02 -4.654409023504e+07 -3.756956636248e+05 -2.059985331698e+07 -2.976715717528e+07 2.221317744515e-04 -2.355659404015e-05 4.437196480844e-04 0.000000000000e+00 3.230370024243e+07 2.279753556387e+07  3.864326045994e-04
6.500000000000e+01 2.738412900207e+06 1.000000000000e+00 6.116215475679e+01 0.000000000000e+00 1.417655233451e-02 -4.669807429931e+07 -3.795047316445e+05 -2.013756300930e+07 -2.969870696066e+07 2.138699298066e-04 -2.383955337876e-05 4.583479943982e-04 0.000000000000e+00 3.217811475642e+07 2.331007149934e+07  3.993762015585e-04
8.000000000000e+01 2.993465893724e+06 1.000000000000e+00 6.080672396128e+01 0.000000000000e+00 1.441344630403e-02 -4.661160273827e+07 -3.810236651946e+05 -1.976543261985e+07 -2.943949378575e+07 2.074538127202e-04 -2.395238844248e-05 4.625420623665e-04 0.000000000000e+00 3.193884304796e+07 2.355903976764e+07  4.034194841914e-04
1.000000000000e+02 3.294145306883e+06 1.000000000000e+00 6.031955409286e+01 0.000000000000e+00 1.460669725256e-02 -4.643033824698e+07 -3.823035608026e+05 -1.936972131626e+07 -2.909854203123e+07 2.015225715145e-04 -2.404746640193e-05 4.645759884749e-04 0.000000000000e+00 3.163286719816e+07 2.375073722345e+07  4.056531646086e-04
1.860000000000e+02 3.892626698402e+06 1.000000000000e+00 5.884437027137e+01 0.000000000000e+00 1.481565051426e-02 -4.573160477561e+07 -3.839792399543e+05 -1.848144168569e+07 -2.811114146017e+07 1.908006506686e-04 -2.417194542463e-05 4.608943535423e-04 0.000000000000e+00 3.077472930716e+07 2.394439259999e+07  4.032894738451e-04
2.720000000000e+02 4.182948269365e+06 1.000000000000e+00 5.740652461788e+01 0.000000000000e+00 1.458305830378e-02 -4.506232960701e+07 -3.815666470135e+05 -1.808535192205e+07 -2.729071922645e+07 1.851866168213e-04 -2.399272423474e-05 4.451334332253e-04 0.000000000000e+00 3.014613358517e+07 2.376131105789e+07  3.895279891616e-04
3.580000000000e+02 4.324314095300e+06 1.000000000000e+00 5.632819007730e+01 0.000000000000e+00 1.435275743512e-02 -4.454437568147e+07 -3.793686354913e+05 -1.783925555168e+07 -2.668549623296e+07 1.819451942977e-04 -2.382944337881e-05 4.317944443668e-04 0.000000000000e+00 2.968970915537e+07 2.357140761457e+07  3.777447537059e-04
4.440000000000e+02 4.396443065099e+06 1.000000000000e+00 5.547754095058e+01 0.000000000000e+00 1.414151883278e-02 -4.413710484644e+07 -3.773552423859e+05 -1.767732310321e+07 -2.621795617824e+07 1.797066232808e-04 -2.367987703383e-05 4.204433047059e-04 0.000000000000e+00 2.934412804263e+07 2.339885396861e+07  3.676857436484e-04
5.300000000000e+02 4.435407630124e+06 1.000000000000e+00 5.480783314931e+01 0.000000000000e+00 1.396025248950e-02 -4.381717234757e+07 -3.756283409427e+05 -1.756619422690e+07 -2.585490361761e+07 1.781050209867e-04 -2.355159292662e-05 4.110861392880e-04 0.000000000000e+00 2.907942339736e+07 2.325194866549e+07  3.593893981996e-04
6.160000000000e+02 4.457923140021e+06 1.000000000000e+00 5.428842769212e+01 0.000000000000e+00 1.381096914907e-02 -4.356951610921e+07 -3.742059888212e+05 -1.748957420083e+07 -2.557629551886e+07 1.769553804582e-04 -2.344593248331e-05 4.035837251601e-04 0.000000000000e+00 2.887846194297e+07 2.313173793260e+07  3.527404903110e-04
7.020000000000e+02 4.471733458232e+06 1.000000000000e+00 5.390298112949e+01 0.000000000000e+00 1.369678157531e-02 -4.338599255081e+07 -3.731161668382e+05 -1.743659192229e+07 -2.537076521704e+07 1.761379871309e-04 -2.336497427886e-05 3.979176557240e-04 0.000000000000e+00 2.873111656338e+07 2.304024965991e+07  3.477246071153e-04
7.880000000000e+02 4.481352036468e+06 1.000000000000e+00 5.359220289655e+01 0.000000000000e+00 1.359476491167e-02 -4.324017049212e+07 -3.721313485771e+05 -1.740565695574e+07 -2.520918445725e+07 1.755526639472e-04 -2.329181635090e-05 3.930650976892e-04 0.000000000000e+00 2.861833730171e+07 2.295936060697e+07  3.434280273408e-04
8.740000000000e+02 4.489738131595e+06 1.000000000000e+00 5.310537577069e+01 0.000000000000e+00 1.344961435834e-02 -4.300815583004e+07 -3.707591466325e+05 -1.733839416637e+07 -2.494942297407e+07 1.745220677352e-04 -2.318988134930e-05 3.859151462051e-04 0.000000000000e+00 2.843199099016e+07 2.284520770110e+07  3.371217208991e-04
9.370000000000e+02 4.495111994429e+06 1.000000000000e+00 5.275159323252e+01 0.000000000000e+00 1.333169403742e-02 -4.283784980096e+07 -3.696630609938e+05 -1.730186705779e+07 -2.476376520037e+07 1.739518600775e-04 -2.310845784471e-05 3.803760072149e-04 0.000000000000e+00 2.830116068637e+07 2.275147003351e+07  3.322349243790e-04
1.000000000000e+03 4.499302027140e+06 1.000000000000e+00 5.246388243437e+01 0.000000000000e+00 1.323345895295e-02 -4.269545226667e+07 -3.687814272966e+05 -1.727246093706e+07 -2.461166510997e+07 1.735914794221e-04 -2.304296505577e-05 3.758188026272e-04 0.000000000000e+00 2.819319277124e+07 2.267191833980e+07  3.282190837064e-04
1.100000000000e+03 4.503447343828e+06 1.000000000000e+00 5.216936964690e+01 0.000000000000e+00 1.313099305936e-02 -4.254758971513e+07 -3.678777735395e+05 -1.724323161825e+07 -2.445557804385e+07 1.732859974520e-04 -2.297583649096e-05 3.711069434411e-04 0.000000000000e+00 2.808213312574e+07 2.258828645901e+07  3.240747301394e-04
1.200000000000e+03 4.506708720430e+06 1.000000000000e+00 5.192025738058e+01 0.000000000000e+00 1.304563995034e-02 -4.242409645260e+07 -3.671136442764e+05 -1.721786902241e+07 -2.432385061417e+07 1.729801569575e-04 -2.291907260284e-05 3.671562496128e-04 0.000000000000e+00 2.798860536306e+07 2.251972923487e+07  3.206102810450e-04
1.300000000000e+03 4.509614096533e+06 1.000000000000e+00 5.168219822456e+01 0.000000000000e+00 1.296435086831e-02 -4.230661869675e+07 -3.663826416572e+05 -1.719356780480e+07 -2.419811443687e+07 1.726734155899e-04 -2.286476955113e-05 3.633886653959e-04 0.000000000000e+00 2.789943364614e+07 2.245498099078e+07  3.173141371086e-04
1.400000000000e+03 4.512353612459e+06 1.000000000000e+00 5.143780994797e+01 0.000000000000e+00 1.288042143508e-02 -4.218587988442e+07 -3.656298137545e+05 -1.716896517060e+07 -2.406909412276e+07 1.723658169520e-04 -2.280884519264e-05 3.595102944279e-04 0.000000000000e+00 2.780797972593e+07 2.238836571362e+07  3.139284493455e-04
1.500000000000e+03 4.514993501238e+06 1.000000000000e+00 5.117703367254e+01 0.000000000000e+00 1.278994202507e-02 -4.205653107687e+07 -3.648229114995e+05 -1.714330836593e+07 -2.393143864224e+07 1.720572833846e-04 -2.274890388227e-05 3.553503436106e-04 0.000000000000e+00 2.771042602835e+07 2.231664097482e+07  3.103054923490e-04
1.600000000000e+03 4.517554546543e+06 1.000000000000e+00 5.089373351051e+01 0.000000000000e+00 1.269051839128e-02 -4.191532325413e+07 -3.639427393492e+05 -1.711616012174e+07 -2.378189459352e+07 1.717476521341e-04 -2.268351966539e-05 3.508042137282e-04 0.000000000000e+00 2.760445932313e+07 2.223787837238e+07  3.063571094486e-04
1.700000000000e+03 4.520041835520e+06 1.000000000000e+00 5.058412186792e+01 0.000000000000e+00 1.258066682756e-02 -4.176025270147e+07 -3.629767011743e+05 -1.708725126714e+07 -2.361845448024e+07 1.714367827395e-04 -2.261175682955e-05 3.458073384054e-04 0.000000000000e+00 2.748865281628e+07 2.215094772693e+07  3.020315593906e-04
1.800000000000e+03 4.522455244882e+06 1.000000000000e+00 5.024591284061e+01 0.000000000000e+00 1.245949390815e-02 -4.159010765829e+07 -3.619176089560e+05 -1.705642315435e+07 -2.343990713071e+07 1.711246970751e-04 -2.253308140761e-05 3.403206238982e-04 0.000000000000e+00 2.736214598112e+07 2.205522872632e+07  2.973007645461e-04
1.900000000000e+03 4.524794537194e+06 1.000000000000e+00 4.987782121186e+01 0.000000000000e+00 1.232649118361e-02 -4.140421595334e+07 -3.607608577337e+05 -1.702358299113e+07 -2.324557324154e+07 1.708111302327e-04 -2.244715131681e-05 3.343222855056e-04 0.000000000000e+00 2.722445739534e+07 2.195046265831e+07  2.921531946678e-04
2.000000000000e+03 4.527058883136e+06 1.000000000000e+00 4.947924582705e+01 0.000000000000e+00 1.218142901613e-02 -4.120225503524e+07 -3.595049831921e+05 -1.698869631079e+07 -2.303513531100e+07 1.704962697707e-04 -2.235385777944e-05 3.278018104979e-04 0.000000000000e+00 2.707536221901e+07 2.183661549734e+07  2.865887365727e-04