 TITLE = "Time curves in points"
 VARIABLES = "TIME"  "PRESSURE1"  "SATURATION1"  "TEMPERATURE1"  "DISPLACEMENT_X1"  "DISPLACEMENT_Y1"  "STRESS_XX"  "STRESS_XY"  "STRESS_YY"  "STRESS_ZZ"  "STRAIN_XX"  "STRAIN_XY"  "STRAIN_YY"  "STRAIN_PLS"  p_(1st_Invariant)  q_(2nd_Invariant)   Effective_Strain
 ZONE T="POINT=POINT8"
0.000000000000e+00 1.000000000000e+05 1.000000000000e+00 2.500000000000e+01 0.000000000000e+00 0.000000000000e+00 -1.862400571852e+07 -6.140100975330e+03 -1.726483383688e+07 -7.763601866620e+06 0.000000000000e+00 0.000000000000e+00 0.000000000000e+00 0.000000000000e+00 1.455081380734e+07 1.024864271960e+07  0.000000000000e+00
1.000000000000e-03 1.897522717761e+05 1.000000000000e+00 2.500000402545e+01 -1.291330160564e-06 6.276143811405e-05 -1.870411285210e+07 -4.878806382474e+03 -1.727614921785e+07 -7.791030765415e+06 -1.956620148914e-06 9.369616975505e-08 5.985020905069e-07 0.000000000000e+00 1.459043094512e+07 1.027380298732e+07  2.320333020412e-06
2.000000000000e-03 2.084844070581e+05 1.000000000000e+00 2.500004129614e+01 -7.243645444925e-07 6.217512370913e-05 -1.870054068666e+07 -5.132683789117e+03 -1.726554143568e+07 -7.786794948017e+06 -1.981270078806e-06 7.483670526156e-08 8.351750679528e-07 0.000000000000e+00 1.458429235678e+07 1.027170535846e+07  2.508875742113e-06
3.000000000000e-03 2.212358636005e+05 1.000000000000e+00 2.500021259078e+01 -1.366489508375e-07 6.169834302201e-05 -1.870083901581e+07 -5.238632569144e+03 -1.725650330234e+07 -7.784251066004e+06 -2.086837921968e-06 6.696622445960e-08 1.076390117206e-06 0.000000000000e+00 1.458053112805e+07 1.027087448096e+07  2.788048302676e-06
4.000000000000e-03 2.299404161370e+05 1.000000000000e+00 2.500074197247e+01 5.240519777104e-07 6.118469126394e-05 -1.870463991866e+07 -5.283747061496e+03 -1.724841906646e+07 -7.783195307978e+06 -2.267228183387e-06 6.361486217059e-08 1.337447865826e-06 0.000000000000e+00 1.457875143103e+07 1.027105544384e+07  3.158089687869e-06
1.000000000000e-02 2.422636896225e+05 1.000000000000e+00 2.508100420461e+01 7.862243009716e-06 5.838908634635e-05 -1.879373999654e+07 -5.337678437508e+03 -1.721388955283e+07 -7.829365683866e+06 -3.861759971679e-06 5.960853138109e-08 4.334872333639e-06 0.000000000000e+00 1.461233174441e+07 1.026603357400e+07  7.103182682378e-06
2.000000000000e-02 2.389194442018e+05 1.000000000000e+00 2.543889432663e+01 2.406509211444e-05 5.657146708556e-05 -1.900152345260e+07 -5.372489894359e+03 -1.722087328814e+07 -8.023295177411e+06 -4.376335722058e-06 5.702253744358e-08 1.127857192526e-05 0.000000000000e+00 1.474856397272e+07 1.020509253646e+07  1.399024913806e-05
3.000000000000e-02 2.281317474452e+05 1.000000000000e+00 2.593499907333e+01 4.095939624234e-05 5.692599211774e-05 -1.921938036350e+07 -5.396226972955e+03 -1.728321881789e+07 -8.285060407648e+06 -2.745455289513e-06 5.525921160506e-08 1.868558937199e-05 0.000000000000e+00 1.492921986301e+07 1.010631248080e+07  2.019896992041e-05
4.000000000000e-02 2.144253653967e+05 1.000000000000e+00 2.649268611841e+01 5.716013412379e-05 5.961093319216e-05 -1.942794086612e+07 -5.414678948447e+03 -1.737693146210e+07 -8.574347847463e+06 2.529738063533e-07 5.388849342560e-08 2.594979606588e-05 0.000000000000e+00 1.512640672523e+07 9.987311329761e+06  2.582440715354e-05
5.000000000000e-02 1.999260184664e+05 1.000000000000e+00 2.706394563609e+01 7.217779520496e-05 6.329551453814e-05 -1.962202390795e+07 -5.427535322889e+03 -1.748774827328e+07 -8.868496209143e+06 3.969685686494e-06 5.293344846708e-08 3.275925365592e-05 0.000000000000e+00 1.532608946346e+07 9.861165583938e+06  3.096597439213e-05
6.000000000000e-02 1.852654330480e+05 1.000000000000e+00 2.762301486876e+01 8.587730563191e-05 6.929524761575e-05 -1.979782219168e+07 -5.438109583116e+03 -1.759992869151e+07 -9.152733237302e+06 7.997410479486e-06 5.214793199306e-08 3.914992773881e-05 0.000000000000e+00 1.551682804017e+07 9.734062439819e+06  3.582716193313e-05
7.000000000000e-02 1.713197479364e+05 1.000000000000e+00 2.815767675716e+01 9.835843093016e-05 7.531247666719e-05 -1.995935090936e+07 -5.448502415323e+03 -1.771387676177e+07 -9.424232517678e+06 1.208203137979e-05 5.137589302916e-08 4.500182982894e-05 0.000000000000e+00 1.569915339627e+07 9.611171975489e+06  4.034147454569e-05
8.000000000000e-02 1.587386335393e+05 1.000000000000e+00 2.866318602226e+01 1.097604249240e-04 8.211435053297e-05 -2.010721087500e+07 -5.456409498335e+03 -1.782322762112e+07 -9.679708727329e+06 1.607920615722e-05 5.078850971965e-08 5.042934284003e-05 0.000000000000e+00 1.587004907448e+07 9.493852198967e+06  4.461842028181e-05
9.000000000000e-02 1.484204296669e+05 1.000000000000e+00 2.913867303407e+01 1.202429801843e-04 8.830361152632e-05 -2.024507652166e+07 -5.468787588033e+03 -1.793025596218e+07 -9.920723013106e+06 1.991044132443e-05 4.986899448495e-08 5.540596364396e-05 0.000000000000e+00 1.603201849898e+07 9.383588521996e+06  4.861169358953e-05
1.000000000000e-01 1.413689395457e+05 1.000000000000e+00 2.958516568313e+01 1.298889214051e-04 9.384255813142e-05 -2.037393941553e+07 -5.475102122188e+03 -1.803465305796e+07 -1.014790038048e+07 2.356212176877e-05 4.939991480485e-08 5.996637373172e-05 0.000000000000e+00 1.618549761799e+07 9.280225823365e+06  5.232792640584e-05
2.000000000000e-01 1.609113465756e+05 1.000000000000e+00 3.249981870886e+01 1.876682883050e-04 1.886706078167e-04 -2.114716822882e+07 -5.512592610554e+03 -1.861653541411e+07 -1.157814034172e+07 4.796539297866e-05 4.661490709770e-08 9.147679906367e-05 0.000000000000e+00 1.711394799488e+07 8.588061034771e+06  7.925256837392e-05
3.000000000000e-01 1.897684167318e+05 1.000000000000e+00 3.456723702577e+01 2.283897294498e-04 2.983407820387e-04 -2.169971007616e+07 -5.529501661170e+03 -1.892264486333e+07 -1.256097903642e+07 6.394784730876e-05 4.535880619479e-08 1.166124567529e-04 0.000000000000e+00 1.772777799197e+07 8.114785017446e+06  1.011468380074e-04
4.000000000000e-01 2.191248737762e+05 1.000000000000e+00 3.613366903686e+01 2.589516901910e-04 4.037693898464e-04 -2.213633905525e+07 -5.535260877304e+03 -1.910689480117e+07 -1.329636130074e+07 7.504439790318e-05 4.493097871053e-08 1.370830860219e-04 0.000000000000e+00 1.817986505238e+07 7.780913268478e+06  1.188954268805e-04
5.000000000000e-01 2.469765835129e+05 1.000000000000e+00 3.737981490638e+01 2.833533121580e-04 5.061891526356e-04 -2.250370172982e+07 -5.533361290772e+03 -1.920989587622e+07 -1.387412433990e+07 8.285926858804e-05 4.507209085288e-08 1.547171018321e-04 0.000000000000e+00 1.852924064865e+07 7.542857698713e+06  1.341018276866e-04
6.000000000000e-01 2.728380511316e+05 1.000000000000e+00 3.840699932436e+01 3.033274143126e-04 6.060515190228e-04 -2.282116643957e+07 -5.531854182790e+03 -1.926020384761e+07 -1.434427980957e+07 8.853063967053e-05 4.518404744583e-08 1.703114374821e-04 0.000000000000e+00 1.880855003225e+07 7.372399686519e+06  1.475326591606e-04
7.000000000000e-01 2.968189504268e+05 1.000000000000e+00 3.927684797067e+01 3.198609450287e-04 7.035408006441e-04 -2.310058537857e+07 -5.531850678840e+03 -1.927670227741e+07 -1.473770016441e+07 9.276497797347e-05 4.518430773926e-08 1.843113946982e-04 0.000000000000e+00 1.903832927347e+07 7.251298327420e+06  1.596195320424e-04
8.000000000000e-01 3.191955069579e+05 1.000000000000e+00 4.002870654053e+01 3.334518547987e-04 7.988235290730e-04 -2.334743617516e+07 -5.536654304962e+03 -1.927287900917e+07 -1.507388738673e+07 9.608318807157e-05 4.482746694167e-08 1.969403557758e-04 0.000000000000e+00 1.923140085702e+07 7.165379969904e+06  1.705720714206e-04
9.000000000000e-01 3.400202934397e+05 1.000000000000e+00 4.068907690810e+01 3.450504082849e-04 8.918649710183e-04 -2.357331049520e+07 -5.546601159855e+03 -1.925124548011e+07 -1.536637107795e+07 9.855725042986e-05 4.408855772106e-08 2.086075668150e-04 0.000000000000e+00 1.939697568442e+07 7.110785269660e+06  1.807508400313e-04
1.000000000000e+00 3.594526905246e+05 1.000000000000e+00 4.127662943239e+01 3.549025657879e-04 9.827220271170e-04 -2.378036070840e+07 -5.557877180793e+03 -1.921736700197e+07 -1.562401497410e+07 1.004364443680e-04 4.325091045135e-08 2.194355407173e-04 0.000000000000e+00 1.954058089482e+07 7.080227801372e+06  1.902632808019e-04
2.000000000000e+00 4.898300370408e+05 1.000000000000e+00 4.458659385047e+01 3.933096908204e-04 1.735943496954e-03 -2.516970853209e+07 -5.637097369651e+03 -1.859573903019e+07 -1.701246413660e+07 1.004030655239e-04 3.736598213617e-08 2.940955485618e-04 0.000000000000e+00 2.025930389963e+07 7.492151266143e+06  2.589302547147e-04
3.000000000000e+00 5.912502393109e+05 1.000000000000e+00 4.679648586261e+01 4.096314970778e-04 2.378634266002e-03 -2.624069872861e+07 -5.565718347638e+03 -1.792011472102e+07 -1.790390417517e+07 9.373405965711e-05 4.266842377147e-08 3.523007957637e-04 0.000000000000e+00 2.068823920827e+07 8.328706691283e+06  3.160369381733e-04
4.000000000000e+00 6.763376842059e+05 1.000000000000e+00 4.845563679296e+01 4.169052295603e-04 2.938978430634e-03 -2.712076691272e+07 -5.453121190277e+03 -1.727518858867e+07 -1.855444768356e+07 8.520885741616e-05 5.103278403257e-08 4.004182395627e-04 0.000000000000e+00 2.098346772832e+07 9.272376176633e+06  3.653438696461e-04
5.000000000000e+00 7.512946355432e+05 1.000000000000e+00 4.980826726303e+01 4.203875894355e-04 3.436310979164e-03 -2.787205028284e+07 -5.311763847038e+03 -1.668719563336e+07 -1.907618405578e+07 7.668282606528e-05 6.153361524462e-08 4.416367574420e-04 0.000000000000e+00 2.121180999066e+07 1.020234461254e+07  4.087264831663e-04
6.000000000000e+00 8.193404637507e+05 1.000000000000e+00 5.098668253450e+01 4.231341779097e-04 3.885062455725e-03 -2.854160699334e+07 -5.178878369996e+03 -1.615375980050e+07 -1.952888904257e+07 6.862833347039e-05 7.140510782486e-08 4.782648450292e-04 0.000000000000e+00 2.140808527880e+07 1.109232845842e+07  4.479113820501e-04
7.000000000000e+00 8.825714157559e+05 1.000000000000e+00 5.199331978804e+01 4.241921711421e-04 4.292290310891e-03 -2.912532148354e+07 -5.080453535742e+03 -1.566671566516e+07 -1.990960469564e+07 6.108837666295e-05 7.871666694084e-08 5.104959228848e-04 0.000000000000e+00 2.156721394811e+07 1.191775500421e+07  4.828587043972e-04
8.000000000000e+00 9.416537060918e+05 1.000000000000e+00 5.293566927960e+01 4.255223606654e-04 4.667718627188e-03 -2.966095933200e+07 -5.008935773124e+03 -1.523211441249e+07 -2.026927775945e+07 5.455254180460e-05 8.402941502108e-08 5.399975403539e-04 0.000000000000e+00 2.172078383465e+07 1.268401382828e+07  5.148932959302e-04
9.000000000000e+00 9.976178889083e+05 1.000000000000e+00 5.379586488110e+01 4.267415886176e-04 5.015839666550e-03 -3.015167810721e+07 -4.945583649771e+03 -1.483149339613e+07 -2.059693746533e+07 4.849606208647e-05 8.873557275584e-08 5.670479671797e-04 0.000000000000e+00 2.186003632289e+07 1.340226884492e+07  5.444223501292e-04
1.000000000000e+01 1.050959049152e+06 1.000000000000e+00 5.457935807192e+01 4.278365216997e-04 5.340013409209e-03 -3.060352882062e+07 -4.887374381762e+03 -1.445728086621e+07 -2.089402563535e+07 4.274773904612e-05 9.305968980795e-08 5.919819931775e-04 0.000000000000e+00 2.198494510739e+07 1.407848716397e+07  5.718078205621e-04
1.100000000000e+01 1.101971525748e+06 1.000000000000e+00 5.531115847719e+01 4.286830972233e-04 5.643854915594e-03 -3.102041448447e+07 -4.882456261037e+03 -1.411241021019e+07 -2.117137919203e+07 3.756511792272e-05 9.342503591899e-08 6.150931782208e-04 0.000000000000e+00 2.210140129556e+07 1.470906677611e+07  5.971973998517e-04
1.200000000000e+01 1.151043677121e+06 1.000000000000e+00 5.598519287632e+01 4.291985777216e-04 5.929339308334e-03 -3.140545269792e+07 -4.851338078086e+03 -1.378960656500e+07 -2.142558525026e+07 3.270563787177e-05 9.573667236677e-08 6.365249672050e-04 0.000000000000e+00 2.220688150439e+07 1.530072058673e+07  6.208186249193e-04
1.300000000000e+01 1.198431142852e+06 1.000000000000e+00 5.660414097440e+01 4.294678245578e-04 6.198059784237e-03 -3.176225214244e+07 -4.826904216547e+03 -1.348371645051e+07 -2.165711485056e+07 2.805275794369e-05 9.755175922394e-08 6.564862708970e-04 0.000000000000e+00 2.230102781450e+07 1.585911800714e+07  6.429190922680e-04
1.400000000000e+01 1.244848089696e+06 1.000000000000e+00 5.717202786384e+01 4.294454051420e-04 6.451554737090e-03 -3.209228603199e+07 -4.816019523225e+03 -1.319282341905e+07 -2.186724319407e+07 2.359912337649e-05 9.836033644213e-08 6.750956362531e-04 0.000000000000e+00 2.238411754837e+07 1.638576952256e+07  6.636108803550e-04
1.500000000000e+01 1.289842830218e+06 1.000000000000e+00 5.769272757371e+01 4.291099946892e-04 6.690759028615e-03 -3.239754316419e+07 -4.814319895171e+03 -1.291687742981e+07 -2.205790754454e+07 1.934282005541e-05 9.848659452618e-08 6.924268774426e-04 0.000000000000e+00 2.245744271285e+07 1.688139468211e+07  6.829609548865e-04
1.600000000000e+01 1.333555268483e+06 1.000000000000e+00 5.816975980579e+01 4.286188639109e-04 6.916686105587e-03 -3.268146801377e+07 -4.814541915568e+03 -1.265284204349e+07 -2.223046214810e+07 1.520621091723e-05 9.847010158234e-08 7.086430770666e-04 0.000000000000e+00 2.252159073512e+07 1.735079721236e+07  7.011636702789e-04
1.700000000000e+01 1.376119091317e+06 1.000000000000e+00 5.860621954810e+01 4.281662682407e-04 7.130223162121e-03 -3.294796056967e+07 -4.819084889210e+03 -1.239774501188e+07 -2.238626851672e+07 1.109500967541e-05 9.813262354040e-08 7.239052033608e-04 0.000000000000e+00 2.257732469942e+07 1.779931795942e+07  7.184219765203e-04
1.800000000000e+01 1.417665494257e+06 1.000000000000e+00 5.900482333236e+01 4.277809660980e-04 7.332159546812e-03 -3.319846665776e+07 -4.831349050855e+03 -1.215038702730e+07 -2.252635134867e+07 6.993574447295e-06 9.722157153247e-08 7.382958622605e-04 0.000000000000e+00 2.262506834458e+07 1.822877501302e+07  7.348240548552e-04
1.900000000000e+01 1.458284177490e+06 1.000000000000e+00 5.936796184715e+01 4.274848164030e-04 7.523183916941e-03 -3.343434066594e+07 -4.846296603827e+03 -1.191001732537e+07 -2.265172842640e+07 2.889402744938e-06 9.611118188311e-08 7.518807426478e-04 0.000000000000e+00 2.266536213924e+07 1.864062392029e+07  7.504402316262e-04
2.000000000000e+01 1.498058933073e+06 1.000000000000e+00 5.969774740413e+01 4.269138290324e-04 7.703917971184e-03 -3.365209075525e+07 -4.896267389228e+03 -1.168060886945e+07 -2.276328335704e+07 -1.054988862662e-06 9.239906639616e-08 7.645450970058e-04 0.000000000000e+00 2.269866099392e+07 1.902811026418e+07  7.650731537129e-04
2.100000000000e+01 1.536914098402e+06 1.000000000000e+00 6.002784237796e+01 4.267345118483e-04 7.876633940810e-03 -3.386249714896e+07 -4.918290796232e+03 -1.146529758790e+07 -2.287703877952e+07 -4.644882079848e-06 9.076304187587e-08 7.767675745841e-04 0.000000000000e+00 2.273494450546e+07 1.939771669458e+07  7.791004160928e-04
2.200000000000e+01 1.575000746812e+06 1.000000000000e+00 6.034057872358e+01 4.267218795753e-04 8.041738554669e-03 -3.406387615265e+07 -4.943789409276e+03 -1.125690173293e+07 -2.298409084252e+07 -8.148454162656e-06 8.886885919265e-08 7.884842115371e-04 0.000000000000e+00 2.276828957603e+07 1.975407345029e+07  7.925898689091e-04
2.300000000000e+01 1.612388172488e+06 1.000000000000e+00 6.063232558030e+01 4.264177145913e-04 8.199513887489e-03 -3.425124563612e+07 -4.980379643475e+03 -1.105828811422e+07 -2.308252940019e+07 -1.145160283524e-05 8.615072750929e-08 7.995175780885e-04 0.000000000000e+00 2.279735438351e+07 2.009024674188e+07  8.053044622438e-04
2.400000000000e+01 1.649122696109e+06 1.000000000000e+00 6.090262542673e+01 4.259898202058e-04 8.350227981621e-03 -3.442706243700e+07 -5.011565785608e+03 -1.086633642735e+07 -2.317199461572e+07 -1.465894743406e-05 8.383404266512e-08 8.099702058917e-04 0.000000000000e+00 2.282179782669e+07 2.041094970729e+07  8.173982817011e-04
2.500000000000e+01 1.685258508133e+06 1.000000000000e+00 6.115184454688e+01 4.255052086175e-04 8.494138563079e-03 -3.459259927303e+07 -5.038822962197e+03 -1.067989590798e+07 -2.325265110304e+07 -1.781164610028e-05 8.180922383277e-08 8.198909518547e-04 0.000000000000e+00 2.284171542802e+07 2.071818201793e+07  8.289403206646e-04
2.600000000000e+01 1.720830930678e+06 1.000000000000e+00 6.138059466342e+01 4.250370219814e-04 8.631492241364e-03 -3.474921362151e+07 -5.067107742103e+03 -1.049799744908e+07 -2.332482941704e+07 -2.094784166682e-05 7.970806875402e-08 8.293280891340e-04 0.000000000000e+00 2.285734682921e+07 2.101387413926e+07  8.399979428893e-04
2.700000000000e+01 1.755869154182e+06 1.000000000000e+00 6.158955581002e+01 4.246044142225e-04 8.762525437557e-03 -3.489745657093e+07 -5.094539206822e+03 -1.032016086458e+07 -2.338878882047e+07 -2.407837337478e-05 7.767030280348e-08 8.383090829714e-04 0.000000000000e+00 2.286880208533e+07 2.129885079063e+07  8.506039171424e-04
2.800000000000e+01 1.790413798117e+06 1.000000000000e+00 6.177940892914e+01 4.242565881463e-04 8.887457880471e-03 -3.503822654983e+07 -5.124612906894e+03 -1.014558383642e+07 -2.344479646552e+07 -2.722668863227e-05 7.543625651242e-08 8.468736565475e-04 0.000000000000e+00 2.287620228393e+07 2.157452776425e+07  8.608100052611e-04
2.900000000000e+01 1.824490651884e+06 1.000000000000e+00 6.195081186402e+01 4.240156776497e-04 9.006497267382e-03 -3.517216918641e+07 -5.156852402004e+03 -9.973975763228e+06 -2.349318909782e+07 -3.040426021989e-05 7.304132258997e-08 8.550451113230e-04 0.000000000000e+00 2.287977801582e+07 2.184166679133e+07  8.706455027773e-04
3.000000000000e+01 1.858108449564e+06 1.000000000000e+00 6.210439119759e+01 4.238665562704e-04 9.119845635800e-03 -3.529926706946e+07 -5.183232328332e+03 -9.805185707006e+06 -2.353413551298e+07 -3.360417188442e-05 7.108167091986e-08 8.628353231172e-04 0.000000000000e+00 2.287952942982e+07 2.210034761070e+07  8.801186947512e-04
3.100000000000e+01 1.891186849834e+06 1.000000000000e+00 6.226590502672e+01 4.242346758806e-04 9.229053335772e-03 -3.542662647693e+07 -5.217832476195e+03 -9.643616654049e+06 -2.358015608416e+07 -3.662532866082e-05 6.851137422151e-08 8.705457948707e-04 0.000000000000e+00 2.288346640504e+07 2.235318490658e+07  8.894242157708e-04
3.200000000000e+01 1.923803508599e+06 1.000000000000e+00 6.242060102855e+01 4.248656426346e-04 9.334225413102e-03 -3.555153248429e+07 -5.251448747680e+03 -9.484440228017e+06 -2.362377671392e+07 -3.964449982851e-05 6.601416548258e-08 8.780782569432e-04 0.000000000000e+00 2.288658314208e+07 2.260183242729e+07  8.985566749313e-04
3.300000000000e+01 1.955985196901e+06 1.000000000000e+00 6.256492306584e+01 4.256950395706e-04 9.435421792980e-03 -3.567340234501e+07 -5.286046708507e+03 -9.326479681587e+06 -2.366322112976e+07 -4.270601635260e-05 6.344403124976e-08 8.854104412561e-04 0.000000000000e+00 2.288770105212e+07 2.284674057345e+07  9.075173927681e-04
3.400000000000e+01 1.987757367210e+06 1.000000000000e+00 6.269791394810e+01 4.266828731766e-04 9.532669440272e-03 -3.579190410061e+07 -5.318358609139e+03 -9.169680228195e+06 -2.369803776683e+07 -4.581432075537e-05 6.104371863139e-08 8.925276103303e-04 0.000000000000e+00 2.288654069854e+07 2.308763466980e+07  9.162941910707e-04
3.500000000000e+01 2.019156671974e+06 1.000000000000e+00 6.281934767946e+01 4.280018357120e-04 9.626030011212e-03 -3.590926726690e+07 -5.352937750053e+03 -9.011790816931e+06 -2.372814093931e+07 -4.905540623989e-05 5.847498244919e-08 8.995101920122e-04 0.000000000000e+00 2.288306634105e+07 2.332836482518e+07  9.250139818183e-04
3.600000000000e+01 2.050221244270e+06 1.000000000000e+00 6.292925655316e+01 4.298493961525e-04 9.715554924575e-03 -3.602802316292e+07 -5.384131391006e+03 -8.850372438171e+06 -2.375356960392e+07 -5.252184626351e-05 5.615774054978e-08 9.064502250516e-04 0.000000000000e+00 2.287732173500e+07 2.357320903889e+07  9.338195776797e-04
3.700000000000e+01 2.081022622880e+06 1.000000000000e+00 6.302778449203e+01 4.329554051808e-04 9.801308625764e-03 -3.615740304539e+07 -5.347609174429e+03 -8.676923658011e+06 -2.377459308071e+07 -5.654651276027e-05 5.887081949557e-08 9.136734803099e-04 0.000000000000e+00 2.286963992804e+07 2.383747599433e+07  9.432188485380e-04
3.800000000000e+01 2.113330364229e+06 1.000000000000e+00 6.311537564157e+01 4.600428910354e-04 9.883304456284e-03 -3.658101335993e+07 -3.275791672258e+03 -8.226550515295e+06 -2.379698095375e+07 -7.144906058745e-05 2.127772625139e-07 9.312331751808e-04 0.000000000000e+00 2.286818160966e+07 2.459517652095e+07  9.689355325269e-04
3.900000000000e+01 2.143157947788e+06 1.000000000000e+00 6.319159883550e+01 4.556705940479e-04 9.961885952893e-03 -3.660634362598e+07 -5.746526978966e+03 -8.143633765162e+06 -2.380614222039e+07 -7.204962342267e-05 2.923692544422e-08 9.346532158036e-04 0.000000000000e+00 2.285203987051e+07 2.469094346000e+07  9.726814467446e-04
4.000000000000e+01 2.172544101843e+06 1.000000000000e+00 6.325687785189e+01 4.499276079989e-04 1.003682908246e-02 -3.661071879844e+07 -5.745889671653e+03 -8.081223365656e+06 -2.381133834738e+07 -7.201913082557e-05 2.928426827318e-08 9.371643153594e-04 0.000000000000e+00 2.283442683716e+07 2.475068650573e+07  9.751704831431e-04
4.200000000000e+01 2.229827605392e+06 1.000000000000e+00 6.339719070174e+01 4.397237879510e-04 1.017717448171e-02 -3.662190510068e+07 -5.745461132910e+03 -7.966874819333e+06 -2.382910407830e+07 -7.177475204628e-05 2.931610257979e-08 9.420714170854e-04 0.000000000000e+00 2.280596133277e+07 2.486339712860e+07  9.799321991190e-04
4.400000000000e+01 2.285593809495e+06 1.000000000000e+00 6.351556358873e+01 4.301300877064e-04 1.030801373876e-02 -3.662786503779e+07 -5.744750356046e+03 -7.854751398982e+06 -2.383829475668e+07 -7.165475308480e-05 2.936890314682e-08 9.465773693239e-04 0.000000000000e+00 2.277363706448e+07 2.496937156525e+07  9.843626821543e-04
5.000000000000e+01 2.437116678573e+06 1.000000000000e+00 6.356115187483e+01 4.069518216467e-04 1.058171335818e-02 -3.658681751411e+07 -5.743098441240e+03 -7.554090846081e+06 -2.375056655986e+07 -7.338860665857e-05 2.949161681816e-08 9.544862854072e-04 0.000000000000e+00 2.263049164002e+07 2.519915256301e+07  9.932161787787e-04
6.500000000000e+01 2.768502507756e+06 1.000000000000e+00 6.327264371380e+01 3.688449520984e-04 1.104605116786e-02 -3.637046177603e+07 -5.740566313536e+03 -6.849466282333e+06 -2.337105359574e+07 -7.944873219724e-05 2.967971773331e-08 9.665618591074e-04 0.000000000000e+00 2.219699388470e+07 2.562651783852e+07  1.008635734776e-03
8.000000000000e+01 3.023556374630e+06 1.000000000000e+00 6.265086950878e+01 3.465658176918e-04 1.126641772424e-02 -3.611479105472e+07 -5.739407356391e+03 -6.318205141311e+06 -2.291563033773e+07 -8.686811213144e-05 2.976581169266e-08 9.693786947624e-04 0.000000000000e+00 2.178287551125e+07 2.586048236715e+07  1.015602886259e-03
1.000000000000e+02 3.324236305531e+06 1.000000000000e+00 6.190767060370e+01 3.281589398722e-04 1.145090340420e-02 -3.581629348866e+07 -5.737889664837e+03 -5.764018308677e+06 -2.239807678699e+07 -9.500447727696e-05 2.987855449380e-08 9.707393595185e-04 0.000000000000e+00 2.132612952811e+07 2.607565801612e+07  1.021560249287e-03
1.860000000000e+02 3.922717201764e+06 1.000000000000e+00 5.994700809414e+01 3.032275598002e-04 1.167022977652e-02 -3.505784372856e+07 -5.734677657206e+03 -4.556277655290e+06 -2.111891475131e+07 -1.143452189415e-04 3.011716077498e-08 9.680865653189e-04 0.000000000000e+00 2.024434537839e+07 2.644768816786e+07  1.030030339375e-03
2.720000000000e+02 4.213038211969e+06 1.000000000000e+00 5.827378534171e+01 3.038332869900e-04 1.150214121670e-02 -3.456713473263e+07 -5.735848087120e+03 -4.086445944049e+06 -2.024363252814e+07 -1.286293673818e-04 3.003021455281e-08 9.530269748758e-04 0.000000000000e+00 1.963240440161e+07 2.641297011073e+07  1.023422292397e-03
3.580000000000e+02 4.354403691727e+06 1.000000000000e+00 5.705890390728e+01 3.085741946554e-04 1.132624779564e-02 -3.422396036815e+07 -5.734079115426e+03 -3.811241532431e+06 -1.963205004764e+07 -1.385988116913e-04 3.016162387862e-08 9.405329323172e-04 0.000000000000e+00 1.922241731607e+07 2.634535531299e+07  1.016940793203e-03
4.440000000000e+02 4.426532453840e+06 1.000000000000e+00 5.611635431592e+01 3.139759015773e-04 1.116165896740e-02 -3.397033417451e+07 -5.733933517436e+03 -3.642635367060e+06 -1.917490927850e+07 -1.461579244955e-04 3.017243972932e-08 9.298159327486e-04 0.000000000000e+00 1.892929294002e+07 2.626714338234e+07  1.010851016377e-03
5.300000000000e+02 4.465496889446e+06 1.000000000000e+00 5.538231376722e+01 3.190688991919e-04 1.101901236455e-02 -3.377934544128e+07 -5.733474251440e+03 -3.534519306448e+06 -1.882785886066e+07 -1.519545013523e-04 3.020655663185e-08 9.209412280519e-04 0.000000000000e+00 1.871390786947e+07 2.619334735056e+07  1.005566548682e-03
6.160000000000e+02 4.488012314786e+06 1.000000000000e+00 5.481765606841e+01 3.235056666170e-04 1.090078674043e-02 -3.363631377618e+07 -5.731265401373e+03 -3.465073921941e+06 -1.856620108033e+07 -1.563606142035e-04 3.037064263685e-08 9.138019104928e-04 0.000000000000e+00 1.855586292615e+07 2.612906666479e+07  1.001181903575e-03
7.020000000000e+02 4.501822576458e+06 1.000000000000e+00 5.440041979532e+01 3.269896754735e-04 1.081010095458e-02 -3.353223802741e+07 -5.732927186209e+03 -3.419381299226e+06 -1.837503835527e+07 -1.595952733232e-04 3.024719576331e-08 9.083987352624e-04 0.000000000000e+00 1.844221922730e+07 2.607869549469e+07  9.978151435405e-04
7.880000000000e+02 4.511441113274e+06 1.000000000000e+00 5.406843927210e+01 3.302537488111e-04 1.072837907499e-02 -3.345478040427e+07 -5.732561386378e+03 -3.400224726571e+06 -1.822972759026e+07 -1.621155328780e-04 3.027436946503e-08 9.037130081182e-04 0.000000000000e+00 1.836157757370e+07 2.602876200025e+07  9.947283878888e-04
8.740000000000e+02 4.519827167133e+06 1.000000000000e+00 5.354181640403e+01 3.346464839991e-04 1.061285245130e-02 -3.332317568000e+07 -5.732725469674e+03 -3.341977410337e+06 -1.798820083892e+07 -1.661983510264e-04 3.026218042022e-08 8.969054862428e-04 0.000000000000e+00 1.821778464309e+07 2.596676492140e+07  9.905178235266e-04
9.370000000000e+02 4.525201002277e+06 1.000000000000e+00 5.316712255178e+01 3.386773553483e-04 1.051789655433e-02 -3.323386976284e+07 -5.731692491787e+03 -3.318273127465e+06 -1.782302256899e+07 -1.690164669864e-04 3.033891592040e-08 8.916507381520e-04 0.000000000000e+00 1.812505515310e+07 2.591162950065e+07  9.870720669076e-04
1.000000000000e+03 4.529391016052e+06 1.000000000000e+00 5.286584965629e+01 3.423279017936e-04 1.043839511503e-02 -3.316094649212e+07 -5.731389313184e+03 -3.299524813556e+06 -1.768999072752e+07 -1.712490710431e-04 3.036143775943e-08 8.874059214140e-04 0.000000000000e+00 1.805015401107e+07 2.586639405918e+07  9.842677258447e-04
1.100000000000e+03 4.533536316160e+06 1.000000000000e+00 5.255967195153e+01 3.463050890614e-04 1.035522193994e-02 -3.308651174948e+07 -5.729969019603e+03 -3.281695530806e+06 -1.755507707875e+07 -1.734954304138e-04 3.046694528258e-08 8.830570735331e-04 0.000000000000e+00 1.797442811968e+07 2.581939339497e+07  9.813749687702e-04
1.200000000000e+03 4.536797682874e+06 1.000000000000e+00 5.229905566997e+01 3.494888250403e-04 1.028610308179e-02 -3.302340144969e+07 -5.730819860793e+03 -3.265625900052e+06 -1.744003514611e+07 -1.754243196334e-04 3.040373993709e-08 8.793809594633e-04 0.000000000000e+00 1.790968749862e+07 2.578061854904e+07  9.789532026971e-04
1.300000000000e+03 4.539703052077e+06 1.000000000000e+00 5.204954421879e+01 3.524783178005e-04 1.022031477973e-02 -3.296312527183e+07 -5.730451145227e+03 -3.250153640401e+06 -1.732990932084e+07 -1.772758779661e-04 3.043113023629e-08 8.758652555974e-04 0.000000000000e+00 1.784772941102e+07 2.574391035944e+07  9.766455179928e-04
1.400000000000e+03 4.542442562524e+06 1.000000000000e+00 5.179372965818e+01 3.555784755935e-04 1.015233875864e-02 -3.290141869788e+07 -5.732126072343e+03 -3.234790602933e+06 -1.721718103915e+07 -1.791709699679e-04 3.030670707911e-08 8.722488322403e-04 0.000000000000e+00 1.778446344665e+07 2.570614297122e+07  9.742699491954e-04
1.500000000000e+03 4.545082446453e+06 1.000000000000e+00 5.152154209752e+01 3.589656349322e-04 1.007895262622e-02 -3.283583604345e+07 -5.731879960245e+03 -3.219302948421e+06 -1.709752198895e+07 -1.811795218110e-04 3.032498969207e-08 8.683796089719e-04 0.000000000000e+00 1.771755366027e+07 2.566552865918e+07  9.717210347958e-04
1.600000000000e+03 4.547643486991e+06 1.000000000000e+00 5.122683981314e+01 3.627476011556e-04 9.998183358162e-03 -3.276489772227e+07 -5.731312058621e+03 -3.203579734752e+06 -1.696830541203e+07 -1.833441427380e-04 3.036717666986e-08 8.641641411942e-04 0.000000000000e+00 1.764559428968e+07 2.562100427221e+07  9.689345561084e-04
1.700000000000e+03 4.550130771773e+06 1.000000000000e+00 5.090583175429e+01 3.669900209360e-04 9.908810193869e-03 -3.268768773306e+07 -5.731066817837e+03 -3.187554225216e+06 -1.682790962140e+07 -1.856910439336e-04 3.038539455666e-08 8.595446736108e-04 0.000000000000e+00 1.756771719323e+07 2.557195662378e+07  9.658716065037e-04
1.800000000000e+03 4.552544175197e+06 1.000000000000e+00 5.055622983281e+01 3.717342873755e-04 9.810097445902e-03 -3.260366297707e+07 -5.732057435960e+03 -3.171189437706e+06 -1.667535976332e+07 -1.882362620113e-04 3.031180578185e-08 8.544863709895e-04 0.000000000000e+00 1.748340405936e+07 2.551807354833e+07  9.625098294116e-04
1.900000000000e+03 4.554883463306e+06 1.000000000000e+00 5.017674738919e+01 3.770021284182e-04 9.701626030568e-03 -3.251251384815e+07 -5.731940183760e+03 -3.154476072156e+06 -1.651010983600e+07 -1.909885773806e-04 3.032051594528e-08 8.489692986954e-04 0.000000000000e+00 1.739236658544e+07 2.545922687936e+07  9.588372897279e-04
2.000000000000e+03 4.557147803229e+06 1.000000000000e+00 4.976678229369e+01 3.828041818981e-04 9.583205457372e-03 -3.241409381301e+07 -5.730252330440e+03 -3.137395249545e+06 -1.633189947098e+07 -1.939522182049e-04 3.044589933472e-08 8.429844871200e-04 0.000000000000e+00 1.729446284451e+07 2.539544439752e+07  9.548502617907e-04