 TITLE = "Profiles along polylines"
 VARIABLES = "DIST" "PRESSURE1" "SATURATION1" "VELOCITY_X1" "VELOCITY_Y1" "TEMPERATURE1" "DISPLACEMENT_X1" "DISPLACEMENT_Y1" "STRESS_XX" "STRESS_XY" "STRESS_YY" "STRESS_ZZ" "STRAIN_XX" "STRAIN_XY" "STRAIN_YY" "STRAIN_PLS"  p_(1st_Invariant)  q_(2nd_Invariant)   Effective_Strain
 ZONE T="TIME=0.000000000000e+00"
0.000000000000e+00 -7.000000000000e+07 0.000000000000e+00 0.000000000000e+00 0.000000000000e+00 2.500000000000e+01 0.000000000000e+00 0.000000000000e+00 0.000000000000e+00 0.000000000000e+00 0.000000000000e+00 0.000000000000e+00 0.000000000000e+00 0.000000000000e+00 0.000000000000e+00 0.000000000000e+00 -0.000000000000e+00 0.000000000000e+00  0.000000000000e+00
1.856488293236e-01 -7.000000000000e+07 0.000000000000e+00 0.000000000000e+00 0.000000000000e+00 2.500000000000e+01 0.000000000000e+00 0.000000000000e+00 0.000000000000e+00 0.000000000000e+00 0.000000000000e+00 0.000000000000e+00 0.000000000000e+00 0.000000000000e+00 0.000000000000e+00 0.000000000000e+00 -0.000000000000e+00 0.000000000000e+00  0.000000000000e+00
3.329966101904e-01 -7.000000000000e+07 0.000000000000e+00 0.000000000000e+00 0.000000000000e+00 2.500000000000e+01 0.000000000000e+00 0.000000000000e+00 0.000000000000e+00 0.000000000000e+00 0.000000000000e+00 0.000000000000e+00 0.000000000000e+00 0.000000000000e+00 0.000000000000e+00 0.000000000000e+00 -0.000000000000e+00 0.000000000000e+00  0.000000000000e+00
4.500000000000e-01 -7.000000000000e+07 6.684759947500e-01 0.000000000000e+00 0.000000000000e+00 2.500000000000e+01 0.000000000000e+00 0.000000000000e+00 0.000000000000e+00 0.000000000000e+00 0.000000000000e+00 0.000000000000e+00 0.000000000000e+00 0.000000000000e+00 0.000000000000e+00 0.000000000000e+00 -0.000000000000e+00 0.000000000000e+00  0.000000000000e+00
5.425413849766e-01 -7.000000000000e+07 6.684759947500e-01 0.000000000000e+00 0.000000000000e+00 2.500000000000e+01 0.000000000000e+00 0.000000000000e+00 0.000000000000e+00 0.000000000000e+00 0.000000000000e+00 0.000000000000e+00 0.000000000000e+00 0.000000000000e+00 0.000000000000e+00 0.000000000000e+00 -0.000000000000e+00 0.000000000000e+00  0.000000000000e+00
6.536499690359e-01 -7.000000000000e+07 6.684759947500e-01 0.000000000000e+00 0.000000000000e+00 2.500000000000e+01 0.000000000000e+00 0.000000000000e+00 0.000000000000e+00 0.000000000000e+00 0.000000000000e+00 0.000000000000e+00 0.000000000000e+00 0.000000000000e+00 0.000000000000e+00 0.000000000000e+00 -0.000000000000e+00 0.000000000000e+00  0.000000000000e+00
7.871337589362e-01 -7.000000000000e+07 6.684759947500e-01 0.000000000000e+00 0.000000000000e+00 2.500000000000e+01 0.000000000000e+00 0.000000000000e+00 0.000000000000e+00 0.000000000000e+00 0.000000000000e+00 0.000000000000e+00 0.000000000000e+00 0.000000000000e+00 0.000000000000e+00 0.000000000000e+00 -0.000000000000e+00 0.000000000000e+00  0.000000000000e+00
9.474533848814e-01 -7.000000000000e+07 6.504857124747e-01 0.000000000000e+00 0.000000000000e+00 2.500000000000e+01 0.000000000000e+00 0.000000000000e+00 0.000000000000e+00 0.000000000000e+00 0.000000000000e+00 0.000000000000e+00 0.000000000000e+00 0.000000000000e+00 0.000000000000e+00 0.000000000000e+00 -0.000000000000e+00 0.000000000000e+00  0.000000000000e+00
1.140000000000e+00 1.000000000000e+05 9.737398629779e-01 0.000000000000e+00 0.000000000000e+00 2.500000000000e+01 0.000000000000e+00 0.000000000000e+00 3.304572143556e+04 5.605493944878e+02 -4.446166165700e+06 1.775888667205e+05 0.000000000000e+00 0.000000000000e+00 0.000000000000e+00 0.000000000000e+00 1.411843859181e+06 4.553204604223e+06  0.000000000000e+00
1.240000000000e+00 1.000000000000e+05 1.000000000000e+00 0.000000000000e+00 0.000000000000e+00 2.500000000000e+01 0.000000000000e+00 0.000000000000e+00 -1.262331305483e+06 1.487475914788e+03 -1.327249178965e+07 -1.357396928539e+06 0.000000000000e+00 0.000000000000e+00 0.000000000000e+00 0.000000000000e+00 5.297406674556e+06 1.196291125004e+07  0.000000000000e+00
1.487693532361e+00 1.000000000000e+05 1.000000000000e+00 0.000000000000e+00 0.000000000000e+00 2.500000000000e+01 0.000000000000e+00 0.000000000000e+00 -6.266898055332e+06 1.626371943122e+02 -1.670623109008e+07 -3.888888743625e+06 0.000000000000e+00 0.000000000000e+00 0.000000000000e+00 0.000000000000e+00 8.954005963013e+06 1.180929437947e+07  0.000000000000e+00
1.823812918126e+00 1.000000000000e+05 1.000000000000e+00 0.000000000000e+00 0.000000000000e+00 2.500000000000e+01 0.000000000000e+00 0.000000000000e+00 -1.222332787539e+07 -2.874861964183e+03 -1.817378474036e+07 -6.116083784726e+06 0.000000000000e+00 0.000000000000e+00 0.000000000000e+00 0.000000000000e+00 1.217106546683e+07 1.044257078524e+07  0.000000000000e+00
2.280000000000e+00 1.000000000000e+05 1.000000000000e+00 0.000000000000e+00 0.000000000000e+00 2.500000000000e+01 0.000000000000e+00 0.000000000000e+00 -1.862400571852e+07 -6.140100975330e+03 -1.726483383688e+07 -7.763601866620e+06 0.000000000000e+00 0.000000000000e+00 0.000000000000e+00 0.000000000000e+00 1.455081380734e+07 1.024864271960e+07  0.000000000000e+00
2.850000000000e+00 1.000000000000e+05 1.000000000000e+00 0.000000000000e+00 0.000000000000e+00 2.500000000000e+01 0.000000000000e+00 0.000000000000e+00 -2.290522887646e+07 -8.679469202581e+03 -1.624244662485e+07 -8.741252650395e+06 0.000000000000e+00 0.000000000000e+00 0.000000000000e+00 0.000000000000e+00 1.596297605057e+07 1.227353357649e+07  0.000000000000e+00
3.420000000000e+00 1.000000000000e+05 1.000000000000e+00 0.000000000000e+00 0.000000000000e+00 2.500000000000e+01 0.000000000000e+00 0.000000000000e+00 -2.538927640774e+07 -1.052437051289e+04 -1.550903669435e+07 -9.266443930625e+06 0.000000000000e+00 0.000000000000e+00 0.000000000000e+00 0.000000000000e+00 1.672158567757e+07 1.408075802056e+07  0.000000000000e+00
3.972609728322e+00 1.000000000000e+05 1.000000000000e+00 0.000000000000e+00 0.000000000000e+00 2.500000000000e+01 0.000000000000e+00 0.000000000000e+00 -2.694644531562e+07 -1.204288093443e+04 -1.504926595748e+07 -9.595663381930e+06 0.000000000000e+00 0.000000000000e+00 0.000000000000e+00 0.000000000000e+00 1.719712488501e+07 1.536774481875e+07  0.000000000000e+00
4.633649783484e+00 1.000000000000e+05 1.000000000000e+00 0.000000000000e+00 0.000000000000e+00 2.500000000000e+01 0.000000000000e+00 0.000000000000e+00 -2.832397357321e+07 -1.368094842372e+04 -1.460189164019e+07 -9.874709564020e+06 0.000000000000e+00 0.000000000000e+00 0.000000000000e+00 0.000000000000e+00 1.760019159247e+07 1.659846752638e+07  0.000000000000e+00
5.424552109452e+00 1.000000000000e+05 1.000000000000e+00 0.000000000000e+00 0.000000000000e+00 2.500000000000e+01 0.000000000000e+00 0.000000000000e+00 -2.920962299827e+07 -1.515730601599e+04 -1.426998862307e+07 -1.004083348640e+07 0.000000000000e+00 0.000000000000e+00 0.000000000000e+00 0.000000000000e+00 1.784014836925e+07 1.744308313127e+07  0.000000000000e+00
6.370375975935e+00 1.000000000000e+05 1.000000000000e+00 0.000000000000e+00 0.000000000000e+00 2.500000000000e+01 0.000000000000e+00 0.000000000000e+00 -2.991523946550e+07 -1.651999425732e+04 -1.402854325573e+07 -1.018008481637e+07 0.000000000000e+00 0.000000000000e+00 0.000000000000e+00 0.000000000000e+00 1.804128917920e+07 1.812009540962e+07  0.000000000000e+00
7.501825115922e+00 1.000000000000e+05 1.000000000000e+00 0.000000000000e+00 0.000000000000e+00 2.500000000000e+01 0.000000000000e+00 0.000000000000e+00 -3.049326599438e+07 -1.759502775661e+04 -1.382997626749e+07 -1.029392267856e+07 0.000000000000e+00 0.000000000000e+00 0.000000000000e+00 0.000000000000e+00 1.820572164681e+07 1.868400689636e+07  0.000000000000e+00
8.855503976798e+00 1.000000000000e+05 1.000000000000e+00 0.000000000000e+00 0.000000000000e+00 2.500000000000e+01 0.000000000000e+00 0.000000000000e+00 -3.085225541536e+07 -1.786850061417e+04 -1.369136799394e+07 -1.036003702279e+07 0.000000000000e+00 0.000000000000e+00 0.000000000000e+00 0.000000000000e+00 1.830122014403e+07 1.904634812082e+07  0.000000000000e+00
1.047459878112e+01 1.000000000000e+05 1.000000000000e+00 0.000000000000e+00 0.000000000000e+00 2.500000000000e+01 0.000000000000e+00 0.000000000000e+00 -3.113220835338e+07 -1.688267742772e+04 -1.359250579186e+07 -1.041436424357e+07 0.000000000000e+00 0.000000000000e+00 0.000000000000e+00 0.000000000000e+00 1.837969279627e+07 1.932579266621e+07  0.000000000000e+00
1.241154661369e+01 1.000000000000e+05 1.000000000000e+00 0.000000000000e+00 0.000000000000e+00 2.500000000000e+01 0.000000000000e+00 0.000000000000e+00 -3.130685851467e+07 -1.409868786187e+04 -1.352808692198e+07 -1.044743363099e+07 0.000000000000e+00 0.000000000000e+00 0.000000000000e+00 0.000000000000e+00 1.842745968921e+07 1.950246065449e+07  0.000000000000e+00
1.472871140527e+01 1.000000000000e+05 1.000000000000e+00 0.000000000000e+00 0.000000000000e+00 2.500000000000e+01 0.000000000000e+00 0.000000000000e+00 -3.142400077938e+07 -8.843686767664e+03 -1.348940852721e+07 -1.047097279198e+07 0.000000000000e+00 0.000000000000e+00 0.000000000000e+00 0.000000000000e+00 1.846146069952e+07 1.961874619650e+07  0.000000000000e+00
1.750000000000e+01 1.000000000000e+05 1.000000000000e+00 0.000000000000e+00 0.000000000000e+00 2.500000000000e+01 0.000000000000e+00 0.000000000000e+00 -3.145630060804e+07 -9.319594333115e+02 -1.347899521696e+07 -1.047753874750e+07 0.000000000000e+00 0.000000000000e+00 0.000000000000e+00 0.000000000000e+00 1.847094485750e+07 1.965070869555e+07  0.000000000000e+00
 TITLE = "Profiles along polylines"
 VARIABLES = "DIST" "PRESSURE1" "SATURATION1" "VELOCITY_X1" "VELOCITY_Y1" "TEMPERATURE1" "DISPLACEMENT_X1" "DISPLACEMENT_Y1" "STRESS_XX" "STRESS_XY" "STRESS_YY" "STRESS_ZZ" "STRAIN_XX" "STRAIN_XY" "STRAIN_YY" "STRAIN_PLS"  p_(1st_Invariant)  q_(2nd_Invariant)   Effective_Strain
 ZONE T="TIME=1.000000000000e-03"
0.000000000000e+00 -7.000000000000e+07 0.000000000000e+00 0.000000000000e+00 0.000000000000e+00 2.500000000000e+01 0.000000000000e+00 6.353227438674e-05 2.718322983127e+06 -1.106050100736e-01 1.584792329214e+06 1.290934593702e+06 9.278024531261e-06 -1.437865130957e-12 1.910075280826e-06 0.000000000000e+00 -1.864683302015e+06 1.305504064786e+06  8.485776421109e-06
1.856488293236e-01 -7.000000000000e+07 0.000000000000e+00 0.000000000000e+00 0.000000000000e+00 2.500000000000e+01 1.707282885035e-06 6.353218210652e-05 2.705677978872e+06 -2.956432619507e+01 1.640030153908e+06 1.303712439834e+06 9.112776003745e-06 -3.843362405359e-10 2.186065141481e-06 0.000000000000e+00 -1.883140190871e+06 1.267718870559e+06  8.240172678801e-06
3.329966101904e-01 -7.000000000000e+07 0.000000000000e+00 0.000000000000e+00 0.000000000000e+00 2.500000000000e+01 3.026805328935e-06 6.353197368055e-05 2.691724727284e+06 -5.817922497110e+01 1.746392720897e+06 1.331435234454e+06 8.841881703391e-06 -7.563299246243e-10 2.697223661879e-06 0.000000000000e+00 -1.923184227545e+06 1.207524294262e+06  7.848907994692e-06
4.500000000000e-01 -7.000000000000e+07 6.684759947500e-01 -2.131518459023e-14 -1.849270749377e-07 3.310906251120e+01 4.071226332263e-06 6.353171617213e-05 2.717293892484e+06 -8.547997275970e+01 1.702315725791e+06 1.387488618115e+06 1.878269342222e-03 -2.508204928125e-07 9.536842722786e-06 0.000000000000e+00 -1.935699412130e+06 1.203677468879e+06  1.873519175969e-03
5.425413849766e-01 -6.999999999989e+07 6.684759947436e-01 -3.761932360920e-12 -1.848676933318e-07 2.807634570670e+01 5.145582017886e-04 6.345932248569e-05 2.634620222923e+06 -7.495572397543e+01 1.327775163477e+06 1.375758521148e+06 5.361082957084e-03 -6.384241474248e-07 -2.043455295143e-04 0.000000000000e+00 -1.779384635849e+06 1.283526242411e+06  5.466121305511e-03
6.536499690359e-01 -6.999999993365e+07 6.684759878566e-01 -3.299515754770e-09 -1.848325880393e-07 2.599809537035e+01 1.097942072205e-03 6.336378134583e-05 2.572621882085e+06 -6.932901076494e+01 1.304165113764e+06 1.353258633372e+06 5.192871879378e-03 -5.904994607739e-07 -2.090733484858e-04 0.000000000000e+00 -1.743348543073e+06 1.244636394277e+06  5.300502068562e-03
7.871337589362e-01 -6.999993003809e+07 6.684774325879e-01 -3.816477680429e-06 -1.848056506542e-07 2.525080984488e+01 1.814972009799e-03 6.323096927007e-05 2.670616457449e+06 -7.202936417456e+01 1.233586820754e+06 1.365468240995e+06 5.558202183635e-03 -6.134993163133e-07 -5.616401177488e-04 0.000000000000e+00 -1.756557173066e+06 1.375837705507e+06  5.859245821270e-03
9.474533848814e-01 -6.991580129891e+07 6.507528602308e-01 -2.437363284039e-03 -1.580322805186e-07 2.505445512082e+01 2.734518284570e-03 6.304679982434e-05 -9.639188536739e+06 -7.882688287031e+01 -5.866131824366e+06 -5.683717199838e+06 -1.684506720762e-02 -6.713961632487e-07 -7.768446154989e-04 0.000000000000e+00 7.063012520314e+06 3.867491796006e+06  1.647039096015e-02
1.140000000000e+00 1.349371324694e+05 9.738732786163e-01 -2.019618020084e-02 -7.176476130584e-04 2.500485102010e+01 -1.117395388700e-04 6.277174914271e-05 1.590150418508e+06 4.709232200273e+02 -5.897509073721e+06 1.801232439532e+05 6.215913484026e-04 -7.062860149140e-07 -3.370009390518e-04 0.000000000000e+00 1.375745137086e+06 6.891691999212e+06  8.422729972928e-04
1.240000000000e+00 1.413412552946e+05 1.000000000000e+00 -1.912507446065e-02 -1.252585888065e-03 2.500280428798e+01 -1.020087282502e-04 6.275943888794e-05 1.087566996252e+06 2.471971583790e+03 -1.546475449281e+07 -1.311051471516e+06 8.556053423217e-05 7.313396398298e-08 -8.314830309253e-05 0.000000000000e+00 5.229412989357e+06 1.549290261878e+07  1.461111720714e-04
1.487693532361e+00 1.556961197234e+05 1.000000000000e+00 -1.668949622423e-02 -1.060120106664e-03 2.500075208135e+01 -8.463700899751e-05 6.274844799668e-05 -4.693377507231e+06 1.756552024167e+03 -1.824697929511e+07 -3.879359369314e+06 5.809110074076e-05 1.184051016464e-07 -5.758173866126e-05 0.000000000000e+00 8.939905390553e+06 1.397839883174e+07  1.001761511201e-04
1.823812918126e+00 1.717928622387e+05 1.000000000000e+00 -1.407500256654e-02 -8.343706375937e-04 2.500007432559e+01 -6.927587448879e-05 6.275019859335e-05 -1.118233831571e+07 -1.297446487015e+03 -1.914854599159e+07 -6.096255326929e+06 3.792884092703e-05 1.171794354467e-07 -3.694190347800e-05 0.000000000000e+00 1.214237987808e+07 1.139497710834e+07  6.484216205730e-05
2.280000000000e+00 1.897522717761e+05 1.000000000000e+00 -1.080450907902e-02 -6.178745246235e-04 2.500000402545e+01 -5.596125029455e-05 6.276089765715e-05 -1.798545406563e+07 -4.874453458691e+03 -1.786865120171e+07 -7.753183724631e+06 2.333067326229e-05 9.401952980748e-08 -2.281446168184e-05 0.000000000000e+00 1.453576299732e+07 1.017437526539e+07  3.996402440788e-05
2.850000000000e+00 2.074446307919e+05 1.000000000000e+00 -8.741383585309e-03 -5.169176379832e-04 2.499999994532e+01 -4.549101378500e-05 6.277676331086e-05 -2.249144828586e+07 -7.641124699381e+03 -1.662470512741e+07 -8.731796052441e+06 1.501774829830e-05 7.713416309488e-08 -1.454941801906e-05 0.000000000000e+00 1.594931648857e+07 1.195920291780e+07  2.560733635853e-05
3.420000000000e+00 2.215970185909e+05 1.000000000000e+00 -7.354823483911e-03 -4.556995872021e-04 2.500000000096e+01 -3.853225734543e-05 6.279275701079e-05 -2.509303095435e+07 -9.601336384129e+03 -1.576960365331e+07 -9.255740382288e+06 1.060584218753e-05 6.856824956541e-08 -1.007576169958e-05 0.000000000000e+00 1.670612499665e+07 1.378725928401e+07  1.791314895972e-05
3.972609728322e+00 2.330505661732e+05 1.000000000000e+00 -6.170055220174e-03 -4.143423897757e-04 2.500000000020e+01 -3.363015987542e-05 6.280808241911e-05 -2.671849796322e+07 -1.118340933306e+04 -1.523556373720e+07 -9.583168510175e+06 8.002520709575e-06 6.384646181630e-08 -7.383727054952e-06 0.000000000000e+00 1.717907673687e+07 1.512328694626e+07  1.332893171685e-05
4.633649783484e+00 2.447525257874e+05 1.000000000000e+00 -5.063055921838e-03 -3.843603950768e-04 2.499999999998e+01 -2.917013043793e-05 6.282624307096e-05 -2.815123505567e+07 -1.287189340288e+04 -1.472620998440e+07 -9.860183512019e+06 5.876463005625e-06 6.010123011934e-08 -5.157077573573e-06 0.000000000000e+00 1.757920951736e+07 1.640842881693e+07  9.562660644828e-06
5.424552109452e+00 2.565441707821e+05 1.000000000000e+00 -4.298457931970e-03 -3.623238966003e-04 2.500000000001e+01 -2.523795511284e-05 6.284810488124e-05 -2.907003059920e+07 -1.436783035866e+04 -1.434875239568e+07 -1.002258489846e+07 4.507055842237e-06 5.864676311619e-08 -3.603316248796e-06 0.000000000000e+00 1.781378929778e+07 1.729505974966e+07  7.039041570620e-06
6.370375975935e+00 2.680807782276e+05 1.000000000000e+00 -3.547741570992e-03 -3.462440019069e-04 2.499999999998e+01 -2.160959357511e-05 6.287446324801e-05 -2.979964025599e+07 -1.573703292906e+04 -1.407157399268e+07 -1.015831427460e+07 3.485064801818e-06 5.816284152758e-08 -2.406904638423e-06 0.000000000000e+00 1.800984284109e+07 1.800651052032e+07  5.131981488318e-06
7.501825115922e+00 2.794199820965e+05 1.000000000000e+00 -2.776495605589e-03 -3.349118681415e-04 2.499999999999e+01 -1.817863120430e-05 6.290623126669e-05 -3.039488791947e+07 -1.682059774240e+04 -1.384325351704e+07 -1.026839243095e+07 2.705776442659e-06 5.752908676998e-08 -1.441421323127e-06 0.000000000000e+00 1.816884462249e+07 1.859857187287e+07  3.648152167324e-06
8.855503976798e+00 2.902924433088e+05 1.000000000000e+00 -2.217119764407e-03 -3.264088149119e-04 2.499999999998e+01 -1.492284858170e-05 6.294411342882e-05 -3.076242809062e+07 -1.711027949422e+04 -1.368268206711e+07 -1.033048304731e+07 2.238724401071e-06 5.632499748204e-08 -7.750989496864e-07 0.000000000000e+00 1.825853106835e+07 1.897921359434e+07  2.712455672207e-06
1.047459878112e+01 3.001110515483e+05 1.000000000000e+00 -1.628522891811e-03 -3.210050958718e-04 2.499999999996e+01 -1.162417564764e-05 6.298750757295e-05 -3.104753680761e+07 -1.617919421908e+04 -1.356610457383e+07 -1.038104241442e+07 1.907275188725e-06 5.225875264186e-08 -2.570512702225e-07 0.000000000000e+00 1.833156126528e+07 1.927239807348e+07  2.049935228893e-06
1.241154661369e+01 3.083650975032e+05 1.000000000000e+00 -1.171255185209e-03 -3.171848420128e-04 2.500000000001e+01 -8.174803706142e-06 6.303324800751e-05 -3.122398958821e+07 -1.351222782562e+04 -1.348929586443e+07 -1.041093563580e+07 1.722348875550e-06 4.356560269336e-08 8.517088748881e-08 0.000000000000e+00 1.837474036281e+07 1.945738900111e+07  1.683074458276e-06
1.472871140527e+01 3.143751555563e+05 1.000000000000e+00 -6.076283789138e-04 -3.149048949760e-04 2.499999999966e+01 -4.363124564520e-06 6.307263751278e-05 -3.134178102136e+07 -8.474920470487e+03 -1.344165381599e+07 -1.043198045112e+07 1.605589780345e-06 2.739406779025e-08 3.254594705229e-07 0.000000000000e+00 1.840513842949e+07 1.957923490033e+07  1.470897452157e-06
1.750000000000e+01 3.166832744713e+05 1.000000000000e+00 -2.790489179235e-04 -3.137548235771e-04 2.500000000003e+01 0.000000000000e+00 6.308970581384e-05 -3.137370325127e+07 -9.113861940657e+02 -1.342825045004e+07 -1.043753611044e+07 1.582089589367e-06 1.528297772546e-09 3.989933949622e-07 0.000000000000e+00 1.841316327058e+07 1.961258203341e+07  1.425119962913e-06
 TITLE = "Profiles along polylines"
 VARIABLES = "DIST" "PRESSURE1" "SATURATION1" "VELOCITY_X1" "VELOCITY_Y1" "TEMPERATURE1" "DISPLACEMENT_X1" "DISPLACEMENT_Y1" "STRESS_XX" "STRESS_XY" "STRESS_YY" "STRESS_ZZ" "STRAIN_XX" "STRAIN_XY" "STRAIN_YY" "STRAIN_PLS"  p_(1st_Invariant)  q_(2nd_Invariant)   Effective_Strain
 ZONE T="TIME=9.000000000000e-01"
0.000000000000e+00 -7.000000000000e+07 0.000000000000e+00 0.000000000000e+00 0.000000000000e+00 2.500000000000e+01 0.000000000000e+00 8.938431210454e-04 -1.354396116352e+07 -1.805822890627e+00 -9.714798139902e+06 -6.977627791025e+06 -4.268116692119e-05 -2.347569757813e-11 -1.779160726770e-05 0.000000000000e+00 1.007879569815e+07 5.712763120368e+06  3.713296028241e-05
1.856488293236e-01 -7.000000000000e+07 0.000000000000e+00 0.000000000000e+00 0.000000000000e+00 2.500000000000e+01 -7.881770994630e-06 8.938425115635e-04 -1.356769839060e+07 -2.300629072424e+02 -9.912169397663e+06 -7.043960336478e+06 -4.240429735178e-05 -2.990817794152e-09 -1.864335889770e-05 0.000000000000e+00 1.017460937491e+07 5.663420960568e+06  3.681223651705e-05
3.329966101904e-01 -7.000000000000e+07 0.000000000000e+00 0.000000000000e+00 0.000000000000e+00 2.500000000000e+01 -1.325518651841e-05 8.938411767007e-04 -8.821626946858e+06 -4.250300422522e+02 -1.162667245467e+07 -6.134489820457e+06 -1.746639132160e-05 -5.525390549278e-09 -3.569918712236e-05 0.000000000000e+00 8.860929740660e+06 4.756735088712e+06  3.091877918748e-05
4.500000000000e-01 -1.825455417321e+08 4.447347592060e-01 -3.515172207292e-03 -1.464769593741e-07 8.283348462567e+01 -3.641570603977e-05 8.938396684127e-04 -9.102307103218e+07 -4.034115034550e+02 -5.552953898924e+07 -4.616047890682e+07 -3.692703894481e-02 -7.664286173448e-07 2.863668493710e-04 0.000000000000e+00 6.423769630941e+07 4.098915879166e+07  3.707105195116e-02
5.425413849766e-01 -1.226642315127e+08 5.272211560514e-01 -5.012050668619e-03 -2.127082507562e-07 7.355501941886e+01 -6.573295608075e-03 8.936705169475e-04 -3.034555902785e+07 -3.348627112093e+01 -2.188735177125e+07 -1.871607752713e+07 -4.952618304725e-02 -2.852142966136e-07 -1.350542659168e-02 0.000000000000e+00 2.364966277541e+07 1.041256669389e+07  4.434373828836e-02
6.536499690359e-01 -7.854812253515e+07 6.273424054583e-01 -4.818317047137e-03 -2.543543314639e-07 6.573361624658e+01 -9.763747569583e-03 8.935194937108e-04 -1.174029976153e+07 7.090058911552e+01 -1.266453982915e+07 -8.909967715960e+06 -1.205346454736e-02 6.038851438862e-07 -1.598950269023e-02 0.000000000000e+00 1.110493576888e+07 3.388348489606e+06  1.442987529963e-02
7.871337589362e-01 -5.089559797900e+07 7.335714557578e-01 -4.050383162515e-03 -2.075721953260e-07 5.931954520063e+01 -9.741894136492e-03 8.932926170501e-04 2.262684641654e+06 2.555090645126e+01 -2.930515229643e+06 -6.941051125581e+05 1.259200683971e-02 2.176260170924e-07 -9.524144031750e-03 0.000000000000e+00 4.539785668489e+05 4.511843346658e+06  1.921447482293e-02
9.474533848814e-01 -2.984247135388e+07 8.166774406110e-01 -4.852515173949e-03 -1.408305575301e-07 5.367778754723e+01 -6.058100297953e-03 8.928449458061e-04 1.261715004691e+07 -2.275771619125e+02 -2.607095425244e+06 -1.680410764856e+06 6.088866591762e-02 -1.938354375911e-06 -3.946448869159e-03 0.000000000000e+00 -2.776547952270e+06 1.478270340860e+07  6.295473067158e-02
1.140000000000e+00 3.221762364192e+05 9.953957013209e-01 -8.315130152206e-03 -2.782604270399e-04 4.850921061954e+01 2.368212446715e-04 8.919495941851e-04 -6.518633221844e+06 6.011080806008e+01 -7.905311395383e+06 -7.788663030653e+06 -1.675848349801e-03 -2.598756070654e-06 5.774662759488e-04 0.000000000000e+00 7.404202549293e+06 1.332189726523e+06  2.027239787890e-03
1.240000000000e+00 3.242066392019e+05 1.000000000000e+00 -6.195659568349e-03 -5.131552921041e-04 4.754491137781e+01 2.503579585868e-04 8.919241788390e-04 -8.355360001275e+06 2.446162367426e+03 -1.578032928967e+07 -1.210147910692e+07 1.356105579246e-04 7.121670791025e-08 3.059176594819e-04 0.000000000000e+00 1.207905613262e+07 6.430301387049e+06  2.654998842516e-04
1.487693532361e+00 3.288737998542e+05 1.000000000000e+00 -5.441365883172e-03 -4.678346311736e-04 4.548073206582e+01 2.833997340520e-04 8.918926004953e-04 -1.268148477573e+07 1.772062754279e+03 -1.927692580462e+07 -1.382000121655e+07 1.306138136656e-04 1.195573273118e-07 2.733869453116e-04 0.000000000000e+00 1.525947059897e+07 6.106312588331e+06  2.368381758404e-04
1.823812918126e+00 3.341395924271e+05 1.000000000000e+00 -4.608994579181e-03 -4.155749781712e-04 4.320611496752e+01 3.238662137731e-04 8.918752912465e-04 -1.808028354887e+07 -1.676607073087e+03 -2.049497614074e+07 -1.498425110305e+07 1.118450039514e-04 8.901322048143e-08 2.431733912381e-04 0.000000000000e+00 1.785317026422e+07 4.784572317663e+06  2.108195863322e-04
2.280000000000e+00 3.400202934397e+05 1.000000000000e+00 -3.538235720053e-03 -3.661248476382e-04 4.068907690810e+01 3.687103057884e-04 8.918652113623e-04 -2.393738159680e+07 -5.544442561209e+03 -1.904470990933e+07 -1.541363173719e+07 8.679000542816e-05 4.424891076328e-08 2.180342839303e-04 0.000000000000e+00 1.946524108111e+07 7.408692902522e+06  1.901269659971e-04
2.850000000000e+00 3.458142124492e+05 1.000000000000e+00 -2.862576151826e-03 -3.433419752950e-04 3.823030640400e+01 4.102927951317e-04 8.918580906680e-04 -2.772037738533e+07 -8.436866681022e+03 -1.742728852657e+07 -1.521667557205e+07 6.166733533209e-05 1.802190160149e-08 1.965072950261e-04 0.000000000000e+00 2.012144716132e+07 1.155805939612e+07  1.740686558868e-04
3.420000000000e+00 3.504485616522e+05 1.000000000000e+00 -2.408345892577e-03 -3.295973454164e-04 3.628894648100e+01 4.389885612017e-04 8.918529007625e-04 -2.979876458657e+07 -1.042780618948e+04 -1.620619878721e+07 -1.480521053627e+07 4.194462728154e-05 7.173349739203e-09 1.798310247605e-04 0.000000000000e+00 2.027005797002e+07 1.434447504413e+07  1.629589030134e-04
3.972609728322e+00 3.541988347917e+05 1.000000000000e+00 -2.020220842614e-03 -3.203488140399e-04 3.474112344303e+01 4.570521779588e-04 8.918489516917e-04 -3.100738294834e+07 -1.201262772664e+04 -1.535497549543e+07 -1.436867005606e+07 2.644827868131e-05 2.247381150574e-09 1.659281793440e-04 0.000000000000e+00 2.024367616661e+07 1.616815218295e+07  1.544122968951e-04
4.633649783484e+00 3.580301911513e+05 1.000000000000e+00 -1.657640409160e-03 -3.136610608574e-04 3.319533788731e+01 4.684936181917e-04 8.918452861821e-04 -3.199713815841e+07 -1.368592681044e+04 -1.451207897098e+07 -1.384751375537e+07 1.112947108532e-05 -3.698230134340e-10 1.508971976781e-04 0.000000000000e+00 2.011891029492e+07 1.782665043569e+07  1.456517195083e-04
5.424552109452e+00 3.618906970247e+05 1.000000000000e+00 -1.407245040909e-03 -3.087556241191e-04 3.168500316570e+01 4.711148083144e-04 8.918423197049e-04 -3.252441097617e+07 -1.516103566302e+04 -1.382066184031e+07 -1.328227368052e+07 -2.724346254858e-06 -2.770594936665e-10 1.370856305700e-04 0.000000000000e+00 1.987578216567e+07 1.897868963331e+07  1.384679056524e-04
6.370375975935e+00 3.656674933688e+05 1.000000000000e+00 -1.161416025962e-03 -3.051804873803e-04 3.026718839136e+01 4.617032908093e-04 8.918406581456e-04 -3.286295101964e+07 -1.649305546812e+04 -1.324786480366e+07 -1.271485102229e+07 -1.533797007656e-05 2.001167198040e-09 1.231450872969e-04 0.000000000000e+00 1.960855561519e+07 1.988697157161e+07  1.314867351769e-04
7.501825115922e+00 3.693795180321e+05 1.000000000000e+00 -9.089023493106e-04 -3.026633816513e-04 2.895768555555e+01 4.369612485045e-04 8.918407361528e-04 -3.305619159042e+07 -1.754587974369e+04 -1.275373719479e+07 -1.214568339671e+07 -2.641469546442e-05 3.650995245236e-09 1.087542779457e-04 0.000000000000e+00 1.931853739397e+07 2.061323099340e+07  1.240884373354e-04
8.855503976798e+00 3.729386548895e+05 1.000000000000e+00 -7.257720745936e-04 -3.007762032506e-04 2.779623283947e+01 3.946121527396e-04 8.918432651424e-04 -3.308555603577e+07 -1.777731101951e+04 -1.238277548669e+07 -1.164559858298e+07 -3.520173652253e-05 6.774084175103e-09 9.635429393348e-05 0.000000000000e+00 1.903797670181e+07 2.108106050493e+07  1.179624975115e-04
1.047459878112e+01 3.761527329390e+05 1.000000000000e+00 -5.330852722073e-04 -2.995773716530e-04 2.684457941189e+01 3.314316297824e-04 8.918488485246e-04 -3.305280576319e+07 -1.677355168621e+04 -1.210297530531e+07 -1.120696918956e+07 -4.189686294191e-05 8.106483655512e-09 8.476503035152e-05 0.000000000000e+00 1.878758341935e+07 2.141191825698e+07  1.117669295942e-04
1.241154661369e+01 3.788546175728e+05 1.000000000000e+00 -3.833975232918e-04 -2.987301023611e-04 2.612776105972e+01 2.457423926148e-04 8.918572483914e-04 -3.299153321361e+07 -1.395813316895e+04 -1.191852261899e+07 -1.088364553522e+07 -4.637147523221e-05 1.044120575975e-08 7.598597341108e-05 0.000000000000e+00 1.859790045594e+07 2.160905611864e+07  1.069942235895e-04
1.472871140527e+01 3.808219314875e+05 1.000000000000e+00 -1.988984535369e-04 -2.982245709674e-04 2.565559885442e+01 1.356195460822e-04 8.918650934758e-04 -3.291858248135e+07 -8.773109065423e+03 -1.182072486021e+07 -1.065984334998e+07 -4.849784249031e-05 5.242915023610e-09 6.899487121434e-05 0.000000000000e+00 1.846638356385e+07 2.170160330029e+07  1.022664923587e-04
1.750000000000e+01 3.815774611815e+05 1.000000000000e+00 -9.134233618293e-05 -2.979695961118e-04 2.547503917203e+01 0.000000000000e+00 8.918706015433e-04 -3.288760034201e+07 -8.369403486701e+02 -1.178149879436e+07 -1.056992459446e+07 -4.973108723160e-05 7.058560573367e-09 6.648134144100e-05 0.000000000000e+00 1.841300791027e+07 2.173722716398e+07  1.009907883769e-04
 TITLE = "Profiles along polylines"
 VARIABLES = "DIST" "PRESSURE1" "SATURATION1" "VELOCITY_X1" "VELOCITY_Y1" "TEMPERATURE1" "DISPLACEMENT_X1" "DISPLACEMENT_Y1" "STRESS_XX" "STRESS_XY" "STRESS_YY" "STRESS_ZZ" "STRAIN_XX" "STRAIN_XY" "STRAIN_YY" "STRAIN_PLS"  p_(1st_Invariant)  q_(2nd_Invariant)   Effective_Strain
 ZONE T="TIME=1.000000000000e+00"
0.000000000000e+00 -7.000000000000e+07 0.000000000000e+00 0.000000000000e+00 0.000000000000e+00 2.500000000000e+01 0.000000000000e+00 9.844984271088e-04 -1.424750076381e+07 -2.357000512792e+00 -1.021731052174e+07 -7.339443385663e+06 -4.490237295794e-05 -3.064100666629e-11 -1.870613638448e-05 0.000000000000e+00 1.060141822374e+07 6.010233330743e+06  3.906651664986e-05
1.856488293236e-01 -7.000000000000e+07 0.000000000000e+00 0.000000000000e+00 0.000000000000e+00 2.500000000000e+01 -8.291852312204e-06 9.844977192761e-04 -1.426971859414e+07 -2.758334316422e+02 -1.042184659974e+07 -7.407469558164e+06 -4.460461873384e-05 -3.585834611348e-09 -1.959345077025e-05 0.000000000000e+00 1.069967825068e+07 5.957476400386e+06  3.872359697606e-05