 TITLE = "Time curves in points"
 VARIABLES = "TIME"  "PRESSURE1"  "SATURATION1"  "TEMPERATURE1"  "DISPLACEMENT_X1"  "DISPLACEMENT_Y1"  "STRESS_XX"  "STRESS_XY"  "STRESS_YY"  "STRESS_ZZ"  "STRAIN_XX"  "STRAIN_XY"  "STRAIN_YY"  "STRAIN_PLS"  p_(1st_Invariant)  q_(2nd_Invariant)   Effective_Strain
 ZONE T="POINT=POINT1"
0.000000000000e+00 -7.000000000000e+07 6.684759947500e-01 2.500000000000e+01 0.000000000000e+00 0.000000000000e+00 0.000000000000e+00 0.000000000000e+00 0.000000000000e+00 0.000000000000e+00 0.000000000000e+00 0.000000000000e+00 0.000000000000e+00 0.000000000000e+00 -0.000000000000e+00 0.000000000000e+00  0.000000000000e+00
1.000000000000e-03 -7.000000000000e+07 6.684759947500e-01 3.310906251120e+01 4.071223973293e-06 6.353349176684e-05 2.717293492572e+06 -8.618021826209e+01 1.702313507092e+06 1.387487833616e+06 1.878269373810e-03 -2.532262548515e-07 9.536831979991e-06 0.000000000000e+00 -1.935698277760e+06 1.203678260740e+06  1.873519213858e-03
2.000000000000e-03 -7.015907471057e+07 6.678662381927e-01 3.680326491091e+01 3.643600904137e-06 6.328542701279e-05 2.394788833386e+06 -1.266522116943e+02 1.514504619478e+06 1.222318746064e+06 1.707983178691e-03 -3.678813100706e-07 7.677743980368e-06 0.000000000000e+00 -1.710537399643e+06 1.057109049197e+06  1.704157397333e-03
3.000000000000e-03 -7.037130643829e+07 6.670521895367e-01 3.937002963826e+01 3.209005393862e-06 6.296028279028e-05 2.033142650724e+06 -1.518852437506e+02 1.297951629089e+06 1.036966268950e+06 1.511107868421e-03 -4.410548435221e-07 6.141155917080e-06 0.000000000000e+00 -1.456020182921e+06 8.947029447025e+05  1.508046862123e-03
4.000000000000e-03 -7.061820310675e+07 6.661049303527e-01 4.139950482369e+01 2.770011073129e-06 6.250683124320e-05 1.645947343059e+06 -1.589542921781e+02 1.062492666929e+06 8.379134244488e+05 1.299754072873e-03 -4.612784315164e-07 4.775122789682e-06 0.000000000000e+00 -1.182117811479e+06 7.224175248683e+05  1.297373348264e-03
1.000000000000e-02 -7.212935243526e+07 6.602938370899e-01 4.814735807512e+01 1.985223395935e-06 5.976668191777e-05 1.911854736066e+05 -1.693561071805e+02 -3.364225371666e+04 3.197994292054e+04 5.469873950870e-04 -4.913687224738e-07 9.507195710877e-06 0.000000000000e+00 -6.317438760350e+04 2.002502843379e+05  5.422969714719e-04
2.000000000000e-02 -7.524730940055e+07 6.482622408616e-01 5.436284697329e+01 8.452990330260e-07 5.792172680393e-05 -2.560485778824e+06 -1.457882769280e+02 -2.099151673691e+06 -1.483659166852e+06 -8.941456369882e-04 -4.177752876393e-07 2.185246818569e-05 0.000000000000e+00 2.047765539789e+06 9.357392431410e+05  9.052699946453e-04
3.000000000000e-02 -7.893055077024e+07 6.339986410985e-01 5.830141004820e+01 -3.845953149643e-07 5.834454721621e-05 -5.749052789274e+06 -1.721140243327e+02 -4.418376808821e+06 -3.219669461712e+06 -2.557433819342e-03 -4.969173198022e-07 3.614352405711e-05 0.000000000000e+00 4.462366353269e+06 2.191503828933e+06  2.575695926580e-03
4.000000000000e-02 -8.274830792201e+07 6.191580337515e-01 6.102918923515e+01 -1.642302979359e-06 6.101567522613e-05 -9.052039826414e+06 -1.576552539641e+02 -6.735858958233e+06 -4.998223847736e+06 -4.258681061059e-03 -4.519066483349e-07 5.000398173388e-05 0.000000000000e+00 6.928707544128e+06 3.522605124726e+06  4.283902006426e-03
5.000000000000e-02 -8.646459330675e+07 6.110473733131e-01 6.303909276829e+01 -2.897227870160e-06 6.472568686641e-05 -1.229750987903e+07 -1.624442210482e+02 -8.905837663056e+06 -6.718893376360e+06 -5.908839304828e-03 -4.657212395051e-07 6.151702945843e-05 0.000000000000e+00 9.307413639482e+06 4.868630607056e+06  5.939836796366e-03
6.000000000000e-02 -8.999223956686e+07 6.035635923876e-01 6.459150071785e+01 -4.151545753402e-06 7.073352529433e-05 -1.540950255704e+07 -1.580916995602e+02 -1.089007068819e+07 -8.344660430891e+06 -7.465076738235e-03 -4.517657366304e-07 7.079620871474e-05 0.000000000000e+00 1.154807789204e+07 6.197433832337e+06  7.500725468514e-03
7.000000000000e-02 -9.331717808832e+07 5.965377192733e-01 6.584443884672e+01 -5.376742395262e-06 7.680212886001e-05 -1.836347551878e+07 -1.759459709587e+02 -1.270897104401e+07 -9.873022115272e+06 -8.909014759506e-03 -5.054579251513e-07 7.836944873467e-05 0.000000000000e+00 1.364848955935e+07 7.486782565445e+06  8.948456911531e-03
8.000000000000e-02 -9.644616749833e+07 5.900015872083e-01 6.688978167670e+01 -6.570999230617e-06 8.360836418308e-05 -2.115902547451e+07 -1.682519789401e+02 -1.438325007245e+07 -1.130947786622e+07 -1.023663499292e-02 -4.813086400158e-07 8.441897985414e-05 0.000000000000e+00 1.561725113773e+07 8.728482002405e+06  1.027910450967e-02
9.000000000000e-02 -9.940042925395e+07 5.839014698215e-01 6.778635897997e+01 -7.735836209235e-06 8.985534106638e-05 -2.380869917535e+07 -1.883471626181e+02 -1.593836337264e+07 -1.266518510547e+07 -1.145297886803e-02 -5.416698290581e-07 8.919333456333e-05 0.000000000000e+00 1.747074921782e+07 9.920528908651e+06  1.149783504224e-02
1.000000000000e-01 -1.021958467132e+08 5.772939128518e-01 6.856670098494e+01 -8.870938628750e-06 9.542375518814e-05 -2.632169499360e+07 -1.964149160662e+02 -1.739104287356e+07 -1.394770219792e+07 -1.256301968237e-02 -5.644300098718e-07 9.288824093205e-05 0.000000000000e+00 1.922014668836e+07 1.106184524022e+07  1.260972043781e-02
2.000000000000e-01 -1.187516715383e+08 5.380454143739e-01 7.279261553079e+01 -1.421063359414e-05 1.902716836518e-04 -3.993455298715e+07 -1.492460052596e+02 -2.511713356562e+07 -2.062369097743e+07 -1.863324303291e-02 -4.241945794688e-07 1.385773774904e-04 0.000000000000e+00 2.855845917673e+07 1.750223323320e+07  1.870291678071e-02
3.000000000000e-01 -1.341076682495e+08 5.086722595976e-01 7.558238944071e+01 -1.898855886235e-05 3.001336563088e-04 -5.231815302722e+07 -1.720944877707e+02 -3.251995493275e+07 -2.681674212220e+07 -2.402152210468e-02 -4.860723121164e-07 1.973168801786e-04 0.000000000000e+00 3.721828336072e+07 2.318207542989e+07  2.412078586375e-02
4.000000000000e-01 -1.471562405977e+08 4.912841607164e-01 7.759060160320e+01 -2.319533580610e-05 4.057529039248e-04 -6.270919728125e+07 -2.032301855050e+02 -3.871094190508e+07 -3.200053885214e+07 -2.807032944669e-02 -5.607510305023e-07 2.328184482628e-04 0.000000000000e+00 4.447355934616e+07 2.796397211589e+07  2.818745982105e-02
5.000000000000e-01 -1.578188187449e+08 4.765742241596e-01 7.913407279571e+01 -2.681824678507e-05 5.083004824939e-04 -7.114888968601e+07 -2.232740496054e+02 -4.375215622287e+07 -3.621434932715e+07 -3.103655734962e-02 -5.814761823713e-07 2.571938783062e-04 0.000000000000e+00 5.037179841201e+07 3.184196639367e+07  3.116595024022e-02
6.000000000000e-01 -1.664470105045e+08 4.628553684482e-01 8.036202926715e+01 -2.987425607127e-05 6.082284700095e-04 -7.795994529868e+07 -2.533808121691e+02 -4.781234226011e+07 -3.961605112695e+07 -3.320562846765e-02 -6.104062622315e-07 2.727835235492e-04 0.000000000000e+00 5.512944622858e+07 3.497364277530e+07  3.334285713965e-02
7.000000000000e-01 -1.732705738903e+08 4.540722539412e-01 8.135405474006e+01 -3.248025643541e-05 7.057585275740e-04 -8.339368759806e+07 -3.211666209013e+02 -5.100508174937e+07 -4.232129828481e+07 -3.479000821873e-02 -7.309724397363e-07 2.799853045954e-04 0.000000000000e+00 5.890668921075e+07 3.749247290190e+07  3.493084247883e-02
8.000000000000e-01 -1.785574945229e+08 4.487369201661e-01 8.216210467788e+01 -3.464463958123e-05 8.009447642733e-04 -8.765939417237e+07 -3.599644080669e+02 -5.350935930010e+07 -4.445124475596e+07 -3.592441002260e-02 -7.479586351638e-07 2.813549290580e-04 0.000000000000e+00 6.187333274281e+07 3.946655861385e+07  3.606591060239e-02
9.000000000000e-01 -1.825455417321e+08 4.447347592060e-01 8.283348462567e+01 -3.641570454962e-05 8.938467450491e-04 -9.102306945863e+07 -4.073324118821e+02 -5.552953401003e+07 -4.616047694053e+07 -3.692703894644e-02 -7.791676686852e-07 2.863668797585e-04 0.000000000000e+00 6.423769346973e+07 4.098916013688e+07  3.707105196895e-02
1.000000000000e+00 -1.854867374019e+08 4.417945786223e-01 8.339527917161e+01 -3.788959887317e-05 9.844868415662e-04 -9.361668036744e+07 -4.587029086340e+02 -5.710606660563e+07 -4.749608141814e+07 -3.767022824629e-02 -8.004826480052e-07 2.892152017421e-04 0.000000000000e+00 6.607294279707e+07 4.214550024186e+07  3.781566535372e-02
2.000000000000e+00 -1.860998072911e+08 4.410419393713e-01 8.535753342327e+01 -4.237257249501e-05 1.735930244735e-03 -9.751728301571e+07 -6.019292222295e+02 -6.006431897081e+07 -4.970152503177e+07 -3.993973778262e-02 -7.314579340386e-07 3.052406888540e-04 0.000000000000e+00 6.909437567277e+07 4.356867411182e+07  4.009322961175e-02
3.000000000000e+00 -1.774891049769e+08 4.495795701855e-01 8.593561658345e+01 -4.397435718436e-05 2.373599529918e-03 -9.447657702413e+07 -7.306064301608e+02 -5.879489946113e+07 -4.847282898251e+07 -3.986145928268e-02 1.139406971651e-08 2.923658990178e-04 0.000000000000e+00 6.724810182259e+07 4.180952098359e+07  4.000844342565e-02
4.000000000000e+00 -1.655179178190e+08 4.640228359022e-01 8.594181032048e+01 -4.428027828617e-05 2.928488186536e-03 -8.873501613202e+07 -9.685524911593e+02 -5.594001604730e+07 -4.593244984159e+07 -3.895262863864e-02 5.801889136407e-07 2.765583771137e-04 0.000000000000e+00 6.353582734030e+07 3.877965380578e+07  3.909164155118e-02
5.000000000000e+00 -1.531383084912e+08 4.825992387004e-01 8.575846034028e+01 -4.425684256427e-05 3.420228960005e-03 -8.229296736783e+07 -1.312327656108e+03 -5.256571006923e+07 -4.300421764935e+07 -3.735856717425e-02 8.666109320917e-07 2.508914084405e-04 0.000000000000e+00 5.928763169547e+07 3.548758817225e+07  3.748464263669e-02
6.000000000000e+00 -1.414940115436e+08 4.976938466234e-01 8.561855106046e+01 -4.419177860362e-05 3.863887490502e-03 -7.601667238628e+07 -1.512163876563e+03 -4.920497658147e+07 -4.011846473037e+07 -3.543394477042e-02 1.397425521199e-06 2.196286409253e-04 0.000000000000e+00 5.511337123270e+07 3.232733407023e+07  3.554426808536e-02
7.000000000000e+00 -1.312343115127e+08 5.110276230506e-01 8.535781862233e+01 -4.416113531571e-05 4.267293611234e-03 -7.044571482805e+07 -1.445151661602e+03 -4.615403502408e+07 -3.753492264190e+07 -3.347155055763e-02 2.535327012335e-06 1.778635452611e-04 0.000000000000e+00 5.137822416468e+07 2.955922073403e+07  3.356083610555e-02
8.000000000000e+00 -1.218124767845e+08 5.294013430437e-01 8.528219644329e+01 -4.409142913542e-05 4.639937768004e-03 -6.531522683922e+07 -1.724360374375e+03 -4.339731405506e+07 -3.518096375698e+07 -3.169877753219e-02 2.358895662554e-06 1.440759626478e-04 0.000000000000e+00 4.796450155042e+07 2.698126333574e+07  3.177106078650e-02
9.000000000000e+00 -1.135309107159e+08 5.485280278307e-01 8.520333284130e+01 -4.411135838762e-05 4.985845128660e-03 -6.090339216546e+07 -2.057911878845e+03 -4.104797138646e+07 -3.318191710450e+07 -3.026322430123e-02 2.007845085404e-06 1.203021646057e-04 0.000000000000e+00 4.504442688547e+07 2.474462314567e+07  3.032355456082e-02
1.000000000000e+01 -1.060027448602e+08 5.654957290928e-01 8.512020154099e+01 -4.417453133680e-05 5.307658792451e-03 -5.681004391502e+07 -2.032411863308e+03 -3.889556710447e+07 -3.133344824616e+07 -2.869859798723e-02 2.518294676056e-06 9.789560924890e-05 0.000000000000e+00 4.234635308855e+07 2.266242564998e+07  2.874767113599e-02
1.100000000000e+01 -9.920712317928e+07 5.774470269866e-01 8.508991988987e+01 -4.424187584856e-05 5.611256680815e-03 -5.305280070444e+07 -1.845924253773e+03 -3.692709476038e+07 -2.963891014479e+07 -2.707846205479e-02 3.059290581203e-06 7.429009016801e-05 0.000000000000e+00 3.987293520320e+07 2.075290725138e+07  2.711568394371e-02
1.200000000000e+01 -9.310164138531e+07 5.881956835387e-01 8.506072826050e+01 -4.436782442975e-05 5.895132062133e-03 -4.965588632600e+07 -1.625322777419e+03 -3.513289910724e+07 -2.810538697569e+07 -2.547783541269e-02 3.762611484160e-06 5.050572202988e-05 0.000000000000e+00 3.763139080297e+07 1.903584937181e+07  2.550312661399e-02
1.300000000000e+01 -8.749469948919e+07 5.980313935091e-01 8.501131504997e+01 -4.452171384404e-05 6.162551952190e-03 -4.652220264937e+07 -1.481633690623e+03 -3.348911994300e+07 -2.669688174321e+07 -2.389614618501e-02 4.304434223426e-06 2.648193134137e-05 0.000000000000e+00 3.556940144519e+07 1.745048862922e+07  2.390939931230e-02
1.400000000000e+01 -8.219117683119e+07 6.142796177226e-01 8.492254073212e+01 -4.467649489742e-05 6.415111954761e-03 -4.351538625532e+07 -1.383926661514e+03 -3.191457649098e+07 -2.534607937534e+07 -2.227600022411e-02 4.736134590925e-06 1.957831364497e-06 0.000000000000e+00 3.359201404055e+07 1.593498769277e+07  2.227698071468e-02
1.500000000000e+01 -7.715797270225e+07 6.332700015334e-01 8.481756001037e+01 -4.485568377188e-05 6.655579074145e-03 -4.063034619406e+07 -1.929836336172e+03 -3.033267416404e+07 -2.402874388555e+07 -2.062812946025e-02 3.233065926091e-06 -2.430448309195e-05 0.000000000000e+00 3.166392141455e+07 1.451541952114e+07  2.061598872408e-02
1.600000000000e+01 -7.243873170815e+07 6.510621195969e-01 8.470075219002e+01 -4.503226913934e-05 6.881392616595e-03 -3.790822686564e+07 -1.590580203008e+03 -2.881788983684e+07 -2.277893421417e+07 -1.901142399476e-02 4.094848363235e-06 -5.203418380876e-05 0.000000000000e+00 2.983501697221e+07 1.319088176779e+07  1.898546170725e-02
1.700000000000e+01 -6.798215785607e+07 6.678476487847e-01 8.456897411302e+01 -4.520273309007e-05 7.094768035978e-03 -3.532097528738e+07 -1.303882141381e+03 -2.738108139383e+07 -2.159012005454e+07 -1.743168317366e-02 4.696161749472e-06 -8.022446915933e-05 0.000000000000e+00 2.809739224525e+07 1.193971406483e+07  1.739171161401e-02
1.800000000000e+01 -6.374879270820e+07 6.837835260982e-01 8.442126094455e+01 -4.534471547736e-05 7.296813945380e-03 -3.286475570110e+07 -1.099730886188e+03 -2.604797463719e+07 -2.047352148241e+07 -1.596187752555e-02 5.094686891227e-06 -1.050140960271e-04 0.000000000000e+00 2.646208394023e+07 1.074908658368e+07  1.590963286281e-02
1.900000000000e+01 -5.970229451246e+07 6.990164963757e-01 8.425635540426e+01 -4.546980203134e-05 7.488063924443e-03 -3.050079312786e+07 -8.949518269541e+02 -2.478799589128e+07 -1.940688349906e+07 -1.452998899232e-02 5.520449325116e-06 -1.280555102045e-04 0.000000000000e+00 2.489855750606e+07 9.609038934817e+06  1.446638948055e-02
2.000000000000e+01 -5.591167274559e+07 7.132931210343e-01 8.407728787583e+01 -4.559407858835e-05 7.670921840976e-03 -2.826047641827e+07 -5.550731159804e+02 -2.360077430033e+07 -1.839900040724e+07 -1.311513540477e-02 5.797540493977e-06 -1.503129468232e-04 0.000000000000e+00 2.342008370861e+07 8.544588533902e+06  1.304063253263e-02
2.100000000000e+01 -5.230263645346e+07 7.252707748085e-01 8.398894200474e+01 -4.570429538710e-05 7.844184488966e-03 -2.610064329663e+07 -4.506283346151e+02 -2.246617996939e+07 -1.743085399051e+07 -1.169964482111e-02 6.004913976424e-06 -1.722158606898e-04 0.000000000000e+00 2.199922575218e+07 7.540858015550e+06  1.161449917204e-02
2.200000000000e+01 -4.892775349576e+07 7.360609168376e-01 8.389868228381e+01 -4.582997284566e-05 8.010105278488e-03 -2.408161666032e+07 -3.149742962677e+02 -2.141862567556e+07 -1.653271191535e+07 -1.032686327092e-02 6.195945275683e-06 -1.932625989629e-04 0.000000000000e+00 2.067765141708e+07 6.631351208500e+06  1.023160662765e-02
2.300000000000e+01 -4.578630731373e+07 7.458698453962e-01 8.379980671317e+01 -4.595893660503e-05 8.169392581388e-03 -2.218721245386e+07 -1.701202474239e+02 -2.044359016730e+07 -1.569495604163e+07 -8.980823383770e-03 6.242039524401e-06 -2.136139145675e-04 0.000000000000e+00 1.944191955426e+07 5.819756791886e+06  8.875951081721e-03
2.400000000000e+01 -4.273737162208e+07 7.561677636123e-01 8.368692938956e+01 -4.606938564918e-05 8.321036030116e-03 -2.031607897241e+07 -1.071944711562e+02 -1.948364047888e+07 -1.486825151108e+07 -7.606202839063e-03 6.399695798326e-06 -2.340132622452e-04 0.000000000000e+00 1.822265698746e+07 5.082990915145e+06  7.491945966472e-03
2.500000000000e+01 -3.972039199675e+07 7.706768458512e-01 8.355718390763e+01 -4.616296463818e-05 8.466398019922e-03 -1.842565832285e+07 -1.841288051635e+02 -1.850441623898e+07 -1.402856385906e+07 -6.175972199707e-03 6.051181874243e-06 -2.546788056538e-04 0.000000000000e+00 1.698621280696e+07 4.436997704703e+06  6.052661772513e-03
2.600000000000e+01 -3.674690137144e+07 7.856724807927e-01 8.341465035836e+01 -4.624961905427e-05 8.604809744823e-03 -1.653164019463e+07 1.718782587530e+00 -1.750986036440e+07 -1.318199665501e+07 -4.704085190900e-03 6.368391271285e-06 -2.757444829267e-04 0.000000000000e+00 1.574116573801e+07 3.931121394089e+06  4.572466362230e-03
2.700000000000e+01 -3.382536400471e+07 8.010888143274e-01 8.325927508362e+01 -4.632231368675e-05 8.736980168453e-03 -1.463643467811e+07 1.790586992724e+02 -1.651374909617e+07 -1.233153345985e+07 -3.203897649170e-03 6.639105676192e-06 -2.967322151423e-04 0.000000000000e+00 1.449390574471e+07 3.628209397981e+06  3.066340284526e-03
2.800000000000e+01 -3.094423886445e+07 8.170103714323e-01 8.309101773899e+01 -4.638005192125e-05 8.863095536052e-03 -1.273291025886e+07 3.971261469858e+02 -1.551280910004e+07 -1.147352027386e+07 -1.673557974125e-03 7.025618429359e-06 -3.176416010820e-04 0.000000000000e+00 1.323974654425e+07 3.579787414716e+06  1.539561276154e-03
2.900000000000e+01 -2.809010080804e+07 8.334582007690e-01 8.290988114144e+01 -4.642456007491e-05 8.983379864983e-03 -1.081146886851e+07 6.402275697417e+02 -1.450040428959e+07 -1.060242875497e+07 -1.097544627510e-04 7.478483570483e-06 -3.384793692943e-04 0.000000000000e+00 1.197143397102e+07 3.797772902492e+06  2.993868523365e-04
3.000000000000e+01 -2.525050293831e+07 8.504808551470e-01 8.271590707982e+01 -4.644735166114e-05 9.097895136775e-03 -8.859695129521e+06 8.877584501722e+02 -1.347047941262e+07 -9.711903440434e+06 1.492407107938e-03 7.945216142901e-06 -3.591980710977e-04 0.000000000000e+00 1.068069266086e+07 4.249263982026e+06  1.700753175493e-03
3.100000000000e+01 -2.240930200359e+07 8.681657928440e-01 8.259379673141e+01 -4.645144737072e-05 9.208595309907e-03 -6.868111993773e+06 1.080721298124e+03 -1.241690102594e+07 -8.796567393653e+06 3.135868595734e-03 8.223346036862e-06 -3.798183744040e-04 0.000000000000e+00 9.360526804454e+06 4.879283890572e+06  3.342034893576e-03
3.200000000000e+01 -1.960626311165e+07 8.861326011886e-01 8.247041856742e+01 -4.644571089124e-05 9.315273062027e-03 -4.875609025622e+06 1.309991040787e+03 -1.136542637099e+07 -7.876240220106e+06 4.786576927996e-03 8.593176059738e-06 -3.999144042679e-04 0.000000000000e+00 8.039091872238e+06 5.625653163564e+06  4.998569075949e-03
3.300000000000e+01 -1.677025423042e+07 9.047373427703e-01 8.234022744185e+01 -4.641737997705e-05 9.418004976617e-03 -2.820427755859e+06 1.563779945745e+03 -1.027529479000e+07 -6.917981277414e+06 6.484327376452e-03 9.003047216603e-06 -4.199012414298e-04 0.000000000000e+00 6.671234607759e+06 6.466705345579e+06  6.704165783850e-03
3.400000000000e+01 -1.387183897453e+07 9.239741181844e-01 8.220176805925e+01 -4.635783590787e-05 9.516616448497e-03 -6.750419221198e+05 1.901244288317e+03 -9.129090389112e+06 -5.906920168546e+06 8.242208158030e-03 9.598950967497e-06 -4.397287869523e-04 0.000000000000e+00 5.237017493259e+06 7.390057106896e+06  8.470653418780e-03
3.500000000000e+01 -1.087324667103e+07 9.437517590390e-01 8.205443775994e+01 -4.626869663008e-05 9.611722743542e-03 1.585164598902e+06 2.137784522577e+03 -7.911751471931e+06 -4.829767734497e+06 1.007160763353e-02 9.836159354739e-06 -4.595010318935e-04 0.000000000000e+00 3.718784869175e+06 8.391704918462e+06  1.030905552767e-02
3.600000000000e+01 -7.735474268509e+06 9.636979323476e-01 8.189801261950e+01 -4.614984589477e-05 9.702836285990e-03 3.986006263391e+06 2.446021057392e+03 -6.609867610788e+06 -3.673421754619e+06 1.198423773788e-02 1.012574063792e-05 -4.791623216734e-04 0.000000000000e+00 2.099094367338e+06 9.475287090240e+06  1.223087296387e-02
3.700000000000e+01 -4.373860178370e+06 9.829980795009e-01 8.173236980522e+01 -4.602636307420e-05 9.786467819657e-03 6.567957901810e+06 3.600924122943e+03 -5.208241700296e+06 -2.419639698214e+06 1.400664059422e-02 1.286501086778e-05 -4.991344326106e-04 0.000000000000e+00 3.533078322332e+05 1.065908454358e+07  1.426277704547e-02
3.800000000000e+01 1.969319373483e+06 1.000000000000e+00 8.155815856454e+01 -4.662542513326e-05 9.776777785254e-03 1.076778520311e+07 7.727553331055e+03 -3.176347824738e+06 -4.345880968010e+05 1.727723558763e-02 3.422967435682e-05 -5.356713927941e-04 0.000000000000e+00 -2.385616427189e+06 1.279549956322e+07  1.755130334916e-02
3.900000000000e+01 2.143157947788e+06 1.000000000000e+00 8.137922573310e+01 -4.666003062004e-05 9.967752707180e-03 1.083750248277e+07 3.730642222937e+03 -3.196027034966e+06 -4.170942494899e+05 1.733412628479e-02 7.600514772252e-06 -5.356785644897e-04 0.000000000000e+00 -2.408127066106e+06 1.287106151923e+07  1.760808276815e-02
4.000000000000e+01 2.172544101843e+06 1.000000000000e+00 8.118933133057e+01 -4.669471900571e-05 1.004270787098e-02 1.083385404423e+07 3.725243788903e+03 -3.202383373103e+06 -4.199128654992e+05 1.733200845606e-02 7.581070699064e-06 -5.358674909167e-04 0.000000000000e+00 -2.403852601875e+06 1.287255716407e+07  1.760606439243e-02
4.200000000000e+01 2.229827605392e+06 1.000000000000e+00 8.091450153903e+01 -4.676219485757e-05 1.018304564310e-02 1.082648594520e+07 3.729840456916e+03 -3.215465919898e+06 -4.258074829225e+05 1.732838389275e-02 7.594886793806e-06 -5.362295498163e-04 0.000000000000e+00 -2.395070847458e+06 1.287580671724e+07  1.760263034337e-02
4.400000000000e+01 2.285593809494e+06 1.000000000000e+00 8.061916116606e+01 -4.682684292968e-05 1.031387476779e-02 1.081983000188e+07 3.735153956674e+03 -3.228032441144e+06 -4.312946301958e+05 1.732499819123e-02 7.611205783499e-06 -5.365695612259e-04 0.000000000000e+00 -2.386834310179e+06 1.287928706870e+07  1.759942356128e-02
5.000000000000e+01 2.437116678573e+06 1.000000000000e+00 7.942409543210e+01 -4.698966938857e-05 1.058759859754e-02 1.080776215340e+07 3.722721931427e+03 -3.260608015102e+06 -4.433210192919e+05 1.731695700678e-02 7.573561085359e-06 -5.373197813534e-04 0.000000000000e+00 -2.367944373001e+06 1.289269368529e+07  1.759177728802e-02
6.500000000000e+01 2.768502507756e+06 1.000000000000e+00 7.676123224804e+01 -4.732107416834e-05 1.105193764048e-02 1.079292287573e+07 3.723086464458e+03 -3.330037096892e+06 -4.652545888523e+05 1.730665369032e-02 7.574045284611e-06 -5.386912642734e-04 0.000000000000e+00 -2.332543729995e+06 1.293080856325e+07  1.758219455842e-02
8.000000000000e+01 3.023556374630e+06 1.000000000000e+00 7.431444500797e+01 -4.755543286288e-05 1.127229173577e-02 1.079072945399e+07 3.729066444955e+03 -3.382145365872e+06 -4.782726037305e+05 1.730195366687e-02 7.592755023605e-06 -5.394683776096e-04 0.000000000000e+00 -2.310103828131e+06 1.296713824425e+07  1.757790250983e-02
1.000000000000e+02 3.324236305531e+06 1.000000000000e+00 7.184336417688e+01 -4.782544921286e-05 1.145673930577e-02 1.078868846705e+07 3.748447784907e+03 -3.447836484333e+06 -4.951919876659e+05 1.729965829026e-02 7.651831406664e-06 -5.402559761930e-04 0.000000000000e+00 -2.281886665018e+06 1.301389247375e+07  1.757601982556e-02
1.860000000000e+02 3.922717201764e+06 1.000000000000e+00 6.661921361739e+01 -4.833492386078e-05 1.167610497593e-02 1.079919224649e+07 3.728690924085e+03 -3.573624454498e+06 -5.222796838261e+05 1.730257325324e-02 7.591612441971e-06 -5.415575914187e-04 0.000000000000e+00 -2.234429369387e+06 1.311610412656e+07  1.757961429050e-02
2.720000000000e+02 4.213038211969e+06 1.000000000000e+00 6.336129275053e+01 -4.854503984130e-05 1.150800748283e-02 1.081883512968e+07 3.733043039439e+03 -3.635540081056e+06 -5.301134370224e+05 1.730830857415e-02 7.604188427885e-06 -5.416078498804e-04 0.000000000000e+00 -2.217727203868e+06 1.317898620072e+07  1.758537386649e-02
3.580000000000e+02 4.354403691727e+06 1.000000000000e+00 6.123180505089e+01 -4.862842965616e-05 1.133211058577e-02 1.083827582850e+07 3.734337723897e+03 -3.661742752053e+06 -5.289019494545e+05 1.731376405351e-02 7.609621738824e-06 -5.414216891906e-04 0.000000000000e+00 -2.215877042329e+06 1.321510583836e+07  1.759073006572e-02
4.440000000000e+02 4.426532453839e+06 1.000000000000e+00 5.967385339351e+01 -4.865622796111e-05 1.116754325577e-02 1.085580420589e+07 3.723232190023e+03 -3.672108019905e+06 -5.243615157921e+05 1.731821641703e-02 7.574909490456e-06 -5.411542515445e-04 0.000000000000e+00 -2.219778223397e+06 1.323776409977e+07  1.759504095966e-02
5.300000000000e+02 4.465496889446e+06 1.000000000000e+00 5.850929423872e+01 -4.866090268276e-05 1.102488445879e-02 1.087054087965e+07 3.729268305795e+03 -3.675728343826e+06 -5.192274753548e+05 1.732179869331e-02 7.593504671669e-06 -5.408866942369e-04 0.000000000000e+00 -2.225195020158e+06 1.325300631329e+07  1.759848208810e-02
6.160000000000e+02 4.488012314786e+06 1.000000000000e+00 5.764205143038e+01 -4.865704993052e-05 1.090664975630e-02 1.088229928498e+07 3.736257596429e+03 -3.676746303512e+06 -5.146585363745e+05 1.732462310920e-02 7.610864793905e-06 -5.406511110614e-04 0.000000000000e+00 -2.230298148366e+06 1.326377281988e+07  1.760118234689e-02
7.020000000000e+02 4.501822576458e+06 1.000000000000e+00 5.701255823050e+01 -4.865137568426e-05 1.081597029811e-02 1.089114064900e+07 3.731408260840e+03 -3.676838591020e+06 -5.110534820222e+05 1.732673426832e-02 7.598696111255e-06 -5.404653001206e-04 0.000000000000e+00 -2.234416191985e+06 1.327136633953e+07  1.760319559065e-02
7.880000000000e+02 4.511441113274e+06 1.000000000000e+00 5.653877440105e+01 -4.864524056827e-05 1.073427020276e-02 1.089802371325e+07 3.720051960040e+03 -3.677192651631e+06 -5.083523163739e+05 1.732842057676e-02 7.565204207298e-06 -5.402968110940e-04 0.000000000000e+00 -2.237492915083e+06 1.327749935635e+07  1.760479316564e-02
8.740000000000e+02 4.519827167133e+06 1.000000000000e+00 5.574293709857e+01 -4.862946769302e-05 1.061871867929e-02 1.090992610673e+07 3.732596685981e+03 -3.674414157740e+06 -5.027088336517e+05 1.733107772428e-02 7.603349331887e-06 -5.400453442676e-04 0.000000000000e+00 -2.244267705111e+06 1.328553754066e+07  1.760731794817e-02
9.370000000000e+02 4.525201002277e+06 1.000000000000e+00 5.522755768205e+01 -4.861704863564e-05 1.052380874574e-02 1.091826705717e+07 3.709476546255e+03 -3.673082824894e+06 -4.989879604742e+05 1.733320064035e-02 7.533032970559e-06 -5.398434804630e-04 0.000000000000e+00 -2.248732090602e+06 1.329165460521e+07  1.760933448553e-02
1.000000000000e+03 4.529391016052e+06 1.000000000000e+00 5.483601678884e+01 -4.860662070940e-05 1.044428240434e-02 1.092507512466e+07 3.722724207803e+03 -3.672079628929e+06 -4.960096224649e+05 1.733513103633e-02 7.571888849882e-06 -5.396773322459e-04 0.000000000000e+00 -2.252328624421e+06 1.329672154215e+07  1.761117738659e-02
1.100000000000e+03 4.533536316160e+06 1.000000000000e+00 5.445290493107e+01 -4.859571121915e-05 1.036108787900e-02 1.093204631340e+07 3.732984217058e+03 -3.671133431285e+06 -4.930050037181e+05 1.733722300883e-02 7.606395864839e-06 -5.395050820853e-04 0.000000000000e+00 -2.255969292799e+06 1.330197805154e+07  1.761317861392e-02
1.200000000000e+03 4.536797682874e+06 1.000000000000e+00 5.411538590813e+01 -4.858632143365e-05 1.029197300632e-02 1.093797136018e+07 3.731282139300e+03 -3.670156295001e+06 -4.903863030769e+05 1.733890401940e-02 7.599490649284e-06 -5.393602825538e-04 0.000000000000e+00 -2.259142920699e+06 1.330631002956e+07  1.761478332357e-02
1.300000000000e+03 4.539703052077e+06 1.000000000000e+00 5.378897452190e+01 -4.857717200630e-05 1.022618585561e-02 1.094364898404e+07 3.731209025815e+03 -3.669138191874e+06 -4.878494744675e+05 1.734048172177e-02 7.598810298475e-06 -5.392217960980e-04 0.000000000000e+00 -2.262220439232e+06 1.331039795593e+07  1.761628807137e-02
1.400000000000e+03 4.542442562524e+06 1.000000000000e+00 5.345626141554e+01 -4.856753979208e-05 1.015820263217e-02 1.094948633558e+07 3.733791692953e+03 -3.668043801480e+06 -4.852307893090e+05 1.734211071995e-02 7.607980019790e-06 -5.390786793752e-04 0.000000000000e+00 -2.265403914930e+06 1.331456580876e+07  1.761784169057e-02
1.500000000000e+03 4.545082446453e+06 1.000000000000e+00 5.310717610982e+01 -4.855696226558e-05 1.008481839458e-02 1.095572272759e+07 3.732420920396e+03 -3.666842242416e+06 -4.824312852456e+05 1.734387978295e-02 7.604975168274e-06 -5.389244273049e-04 0.000000000000e+00 -2.268816399975e+06 1.331899640088e+07  1.761952949002e-02
1.600000000000e+03 4.547643486991e+06 1.000000000000e+00 5.273557656599e+01 -4.854514137488e-05 1.000405107527e-02 1.096250349333e+07 3.732206360497e+03 -3.665512033513e+06 -4.793900063484e+05 1.734584284071e-02 7.602359424211e-06 -5.387550657777e-04 0.000000000000e+00 -2.272533817824e+06 1.332379867493e+07  1.762140331993e-02
1.700000000000e+03 4.550130771773e+06 1.000000000000e+00 5.233767154458e+01 -4.853188574217e-05 9.914685210524e-03 1.096991950984e+07 3.728322643286e+03 -3.664034520606e+06 -4.760673809692e+05 1.734803256985e-02 7.590409666419e-06 -5.385680990865e-04 0.000000000000e+00 -2.276605869421e+06 1.332903680608e+07  1.762349452886e-02
1.800000000000e+03 4.552544175197e+06 1.000000000000e+00 5.191117283657e+01 -4.851707567161e-05 9.815976946050e-03 1.097802630613e+07 3.726058395329e+03 -3.662397907816e+06 -4.724391459000e+05 1.735046904736e-02 7.583983271294e-06 -5.383620025348e-04 0.000000000000e+00 -2.281063084139e+06 1.333474972462e+07  1.762582240977e-02
1.900000000000e+03 4.554883463306e+06 1.000000000000e+00 5.145479370212e+01 -4.850064715634e-05 9.707491443860e-03 1.098685340537e+07 3.733390732215e+03 -3.660597186352e+06 -4.684926897641e+05 1.735316271681e-02 7.605791061051e-06 -5.381359609879e-04 0.000000000000e+00 -2.285921176419e+06 1.334095906865e+07  1.762839700675e-02