 TITLE = "Profiles along polylines"
 VARIABLES = "DIST" "PRESSURE1" "SATURATION1" "VELOCITY_X1" "VELOCITY_Y1" "TEMPERATURE1" "DISPLACEMENT_X1" "DISPLACEMENT_Y1" "STRESS_XX" "STRESS_XY" "STRESS_YY" "STRESS_ZZ" "STRAIN_XX" "STRAIN_XY" "STRAIN_YY" "STRAIN_PLS"  p_(1st_Invariant)  q_(2nd_Invariant)   Effective_Strain
 ZONE T="TIME=0.000000000000e+00"
0.000000000000e+00 -7.000000000000e+07 0.000000000000e+00 0.000000000000e+00 0.000000000000e+00 2.500000000000e+01 0.000000000000e+00 0.000000000000e+00 0.000000000000e+00 0.000000000000e+00 0.000000000000e+00 0.000000000000e+00 0.000000000000e+00 0.000000000000e+00 0.000000000000e+00 0.000000000000e+00 -0.000000000000e+00 0.000000000000e+00  0.000000000000e+00
1.856488293236e-01 -7.000000000000e+07 0.000000000000e+00 0.000000000000e+00 0.000000000000e+00 2.500000000000e+01 0.000000000000e+00 0.000000000000e+00 0.000000000000e+00 0.000000000000e+00 0.000000000000e+00 0.000000000000e+00 0.000000000000e+00 0.000000000000e+00 0.000000000000e+00 0.000000000000e+00 -0.000000000000e+00 0.000000000000e+00  0.000000000000e+00
3.329966101904e-01 -7.000000000000e+07 0.000000000000e+00 0.000000000000e+00 0.000000000000e+00 2.500000000000e+01 0.000000000000e+00 0.000000000000e+00 0.000000000000e+00 0.000000000000e+00 0.000000000000e+00 0.000000000000e+00 0.000000000000e+00 0.000000000000e+00 0.000000000000e+00 0.000000000000e+00 -0.000000000000e+00 0.000000000000e+00  0.000000000000e+00
4.500000000000e-01 -7.000000000000e+07 6.684759947500e-01 0.000000000000e+00 0.000000000000e+00 2.500000000000e+01 0.000000000000e+00 0.000000000000e+00 0.000000000000e+00 0.000000000000e+00 0.000000000000e+00 0.000000000000e+00 0.000000000000e+00 0.000000000000e+00 0.000000000000e+00 0.000000000000e+00 -0.000000000000e+00 0.000000000000e+00  0.000000000000e+00
5.425413849766e-01 -7.000000000000e+07 6.684759947500e-01 0.000000000000e+00 0.000000000000e+00 2.500000000000e+01 0.000000000000e+00 0.000000000000e+00 0.000000000000e+00 0.000000000000e+00 0.000000000000e+00 0.000000000000e+00 0.000000000000e+00 0.000000000000e+00 0.000000000000e+00 0.000000000000e+00 -0.000000000000e+00 0.000000000000e+00  0.000000000000e+00
6.536499690359e-01 -7.000000000000e+07 6.684759947500e-01 0.000000000000e+00 0.000000000000e+00 2.500000000000e+01 0.000000000000e+00 0.000000000000e+00 0.000000000000e+00 0.000000000000e+00 0.000000000000e+00 0.000000000000e+00 0.000000000000e+00 0.000000000000e+00 0.000000000000e+00 0.000000000000e+00 -0.000000000000e+00 0.000000000000e+00  0.000000000000e+00
7.871337589362e-01 -7.000000000000e+07 6.684759947500e-01 0.000000000000e+00 0.000000000000e+00 2.500000000000e+01 0.000000000000e+00 0.000000000000e+00 0.000000000000e+00 0.000000000000e+00 0.000000000000e+00 0.000000000000e+00 0.000000000000e+00 0.000000000000e+00 0.000000000000e+00 0.000000000000e+00 -0.000000000000e+00 0.000000000000e+00  0.000000000000e+00
9.474533848814e-01 -7.000000000000e+07 6.504857124747e-01 0.000000000000e+00 0.000000000000e+00 2.500000000000e+01 0.000000000000e+00 0.000000000000e+00 0.000000000000e+00 0.000000000000e+00 0.000000000000e+00 0.000000000000e+00 0.000000000000e+00 0.000000000000e+00 0.000000000000e+00 0.000000000000e+00 -0.000000000000e+00 0.000000000000e+00  0.000000000000e+00
1.140000000000e+00 1.000000000000e+05 9.737398629779e-01 0.000000000000e+00 0.000000000000e+00 2.500000000000e+01 0.000000000000e+00 0.000000000000e+00 3.304572143556e+04 5.605493944878e+02 -4.446166165700e+06 1.775888667205e+05 0.000000000000e+00 0.000000000000e+00 0.000000000000e+00 0.000000000000e+00 1.411843859181e+06 4.553204604223e+06  0.000000000000e+00
1.240000000000e+00 1.000000000000e+05 1.000000000000e+00 0.000000000000e+00 0.000000000000e+00 2.500000000000e+01 0.000000000000e+00 0.000000000000e+00 -1.262331305483e+06 1.487475914788e+03 -1.327249178965e+07 -1.357396928539e+06 0.000000000000e+00 0.000000000000e+00 0.000000000000e+00 0.000000000000e+00 5.297406674556e+06 1.196291125004e+07  0.000000000000e+00
1.487693532361e+00 1.000000000000e+05 1.000000000000e+00 0.000000000000e+00 0.000000000000e+00 2.500000000000e+01 0.000000000000e+00 0.000000000000e+00 -6.266898055332e+06 1.626371943122e+02 -1.670623109008e+07 -3.888888743625e+06 0.000000000000e+00 0.000000000000e+00 0.000000000000e+00 0.000000000000e+00 8.954005963013e+06 1.180929437947e+07  0.000000000000e+00
1.823812918126e+00 1.000000000000e+05 1.000000000000e+00 0.000000000000e+00 0.000000000000e+00 2.500000000000e+01 0.000000000000e+00 0.000000000000e+00 -1.222332787539e+07 -2.874861964183e+03 -1.817378474036e+07 -6.116083784726e+06 0.000000000000e+00 0.000000000000e+00 0.000000000000e+00 0.000000000000e+00 1.217106546683e+07 1.044257078524e+07  0.000000000000e+00
2.280000000000e+00 1.000000000000e+05 1.000000000000e+00 0.000000000000e+00 0.000000000000e+00 2.500000000000e+01 0.000000000000e+00 0.000000000000e+00 -1.862400571852e+07 -6.140100975330e+03 -1.726483383688e+07 -7.763601866620e+06 0.000000000000e+00 0.000000000000e+00 0.000000000000e+00 0.000000000000e+00 1.455081380734e+07 1.024864271960e+07  0.000000000000e+00
2.850000000000e+00 1.000000000000e+05 1.000000000000e+00 0.000000000000e+00 0.000000000000e+00 2.500000000000e+01 0.000000000000e+00 0.000000000000e+00 -2.290522887646e+07 -8.679469202581e+03 -1.624244662485e+07 -8.741252650395e+06 0.000000000000e+00 0.000000000000e+00 0.000000000000e+00 0.000000000000e+00 1.596297605057e+07 1.227353357649e+07  0.000000000000e+00
3.420000000000e+00 1.000000000000e+05 1.000000000000e+00 0.000000000000e+00 0.000000000000e+00 2.500000000000e+01 0.000000000000e+00 0.000000000000e+00 -2.538927640774e+07 -1.052437051289e+04 -1.550903669435e+07 -9.266443930625e+06 0.000000000000e+00 0.000000000000e+00 0.000000000000e+00 0.000000000000e+00 1.672158567757e+07 1.408075802056e+07  0.000000000000e+00
3.972609728322e+00 1.000000000000e+05 1.000000000000e+00 0.000000000000e+00 0.000000000000e+00 2.500000000000e+01 0.000000000000e+00 0.000000000000e+00 -2.694644531562e+07 -1.204288093443e+04 -1.504926595748e+07 -9.595663381930e+06 0.000000000000e+00 0.000000000000e+00 0.000000000000e+00 0.000000000000e+00 1.719712488501e+07 1.536774481875e+07  0.000000000000e+00
4.633649783484e+00 1.000000000000e+05 1.000000000000e+00 0.000000000000e+00 0.000000000000e+00 2.500000000000e+01 0.000000000000e+00 0.000000000000e+00 -2.832397357321e+07 -1.368094842372e+04 -1.460189164019e+07 -9.874709564020e+06 0.000000000000e+00 0.000000000000e+00 0.000000000000e+00 0.000000000000e+00 1.760019159247e+07 1.659846752638e+07  0.000000000000e+00
5.424552109452e+00 1.000000000000e+05 1.000000000000e+00 0.000000000000e+00 0.000000000000e+00 2.500000000000e+01 0.000000000000e+00 0.000000000000e+00 -2.920962299827e+07 -1.515730601599e+04 -1.426998862307e+07 -1.004083348640e+07 0.000000000000e+00 0.000000000000e+00 0.000000000000e+00 0.000000000000e+00 1.784014836925e+07 1.744308313127e+07  0.000000000000e+00
6.370375975935e+00 1.000000000000e+05 1.000000000000e+00 0.000000000000e+00 0.000000000000e+00 2.500000000000e+01 0.000000000000e+00 0.000000000000e+00 -2.991523946550e+07 -1.651999425732e+04 -1.402854325573e+07 -1.018008481637e+07 0.000000000000e+00 0.000000000000e+00 0.000000000000e+00 0.000000000000e+00 1.804128917920e+07 1.812009540962e+07  0.000000000000e+00
7.501825115922e+00 1.000000000000e+05 1.000000000000e+00 0.000000000000e+00 0.000000000000e+00 2.500000000000e+01 0.000000000000e+00 0.000000000000e+00 -3.049326599438e+07 -1.759502775661e+04 -1.382997626749e+07 -1.029392267856e+07 0.000000000000e+00 0.000000000000e+00 0.000000000000e+00 0.000000000000e+00 1.820572164681e+07 1.868400689636e+07  0.000000000000e+00
8.855503976798e+00 1.000000000000e+05 1.000000000000e+00 0.000000000000e+00 0.000000000000e+00 2.500000000000e+01 0.000000000000e+00 0.000000000000e+00 -3.085225541536e+07 -1.786850061417e+04 -1.369136799394e+07 -1.036003702279e+07 0.000000000000e+00 0.000000000000e+00 0.000000000000e+00 0.000000000000e+00 1.830122014403e+07 1.904634812082e+07  0.000000000000e+00
1.047459878112e+01 1.000000000000e+05 1.000000000000e+00 0.000000000000e+00 0.000000000000e+00 2.500000000000e+01 0.000000000000e+00 0.000000000000e+00 -3.113220835338e+07 -1.688267742772e+04 -1.359250579186e+07 -1.041436424357e+07 0.000000000000e+00 0.000000000000e+00 0.000000000000e+00 0.000000000000e+00 1.837969279627e+07 1.932579266621e+07  0.000000000000e+00
1.241154661369e+01 1.000000000000e+05 1.000000000000e+00 0.000000000000e+00 0.000000000000e+00 2.500000000000e+01 0.000000000000e+00 0.000000000000e+00 -3.130685851467e+07 -1.409868786187e+04 -1.352808692198e+07 -1.044743363099e+07 0.000000000000e+00 0.000000000000e+00 0.000000000000e+00 0.000000000000e+00 1.842745968921e+07 1.950246065449e+07  0.000000000000e+00
1.472871140527e+01 1.000000000000e+05 1.000000000000e+00 0.000000000000e+00 0.000000000000e+00 2.500000000000e+01 0.000000000000e+00 0.000000000000e+00 -3.142400077938e+07 -8.843686767664e+03 -1.348940852721e+07 -1.047097279198e+07 0.000000000000e+00 0.000000000000e+00 0.000000000000e+00 0.000000000000e+00 1.846146069952e+07 1.961874619650e+07  0.000000000000e+00
1.750000000000e+01 1.000000000000e+05 1.000000000000e+00 0.000000000000e+00 0.000000000000e+00 2.500000000000e+01 0.000000000000e+00 0.000000000000e+00 -3.145630060804e+07 -9.319594333115e+02 -1.347899521696e+07 -1.047753874750e+07 0.000000000000e+00 0.000000000000e+00 0.000000000000e+00 0.000000000000e+00 1.847094485750e+07 1.965070869555e+07  0.000000000000e+00
 TITLE = "Profiles along polylines"
 VARIABLES = "DIST" "PRESSURE1" "SATURATION1" "VELOCITY_X1" "VELOCITY_Y1" "TEMPERATURE1" "DISPLACEMENT_X1" "DISPLACEMENT_Y1" "STRESS_XX" "STRESS_XY" "STRESS_YY" "STRESS_ZZ" "STRAIN_XX" "STRAIN_XY" "STRAIN_YY" "STRAIN_PLS"  p_(1st_Invariant)  q_(2nd_Invariant)   Effective_Strain
 ZONE T="TIME=1.000000000000e-03"
0.000000000000e+00 -7.000000000000e+07 0.000000000000e+00 0.000000000000e+00 0.000000000000e+00 2.500000000000e+01 0.000000000000e+00 6.370910054709e-05 6.738861561276e+07 -4.119344916075e-01 6.754274009443e+07 4.047940671216e+07 1.749098578539e-04 -5.355148390897e-12 1.759116669848e-04 0.000000000000e+00 -5.847025413978e+07 2.698660122887e+07  1.754129079877e-04
1.856488293236e-01 -7.000000000000e+07 0.000000000000e+00 0.000000000000e+00 0.000000000000e+00 2.500000000000e+01 3.245992596527e-05 6.370897786993e-05 6.735115601994e+07 -5.145839753804e+01 6.756098385043e+07 4.047364196111e+07 1.747038413824e-04 -6.689591679946e-10 1.760677222806e-04 0.000000000000e+00 -5.846192727716e+07 2.698303986160e+07  1.753897591033e-04
3.329966101904e-01 -7.000000000000e+07 0.000000000000e+00 0.000000000000e+00 0.000000000000e+00 2.500000000000e+01 5.846802197937e-05 6.370870001912e-05 6.917305670864e+07 -9.621891064872e+01 6.714530473391e+07 4.089550843277e+07 1.838040637932e-04 -1.250845838433e-09 1.706236759574e-04 0.000000000000e+00 -5.907128995844e+07 2.732016947671e+07  1.775811016086e-04
4.500000000000e-01 -7.000000000000e+07 6.684759947500e-01 -2.131518459023e-14 -1.849270749377e-07 3.310906251120e+01 7.112439203081e-05 6.370836214890e-05 1.891221374172e+07 -1.334061450351e+02 3.016347825416e+07 1.470467830502e+07 -1.745157430964e-04 -3.889226947477e-07 1.477305501549e-04 0.000000000000e+00 -2.126012343364e+07 1.384320778495e+07  2.793954555079e-04
5.425413849766e-01 -6.999999999989e+07 6.684759947436e-01 -3.761932360920e-12 -1.848676933318e-07 2.807634570670e+01 8.631376204873e-06 6.360288798000e-05 -3.411935011640e+05 -1.081624705199e+02 -1.264029607644e+05 -1.747386259163e+05 -7.088772289729e-04 -9.212576353426e-07 2.058458926027e-04 0.000000000000e+00 2.141116959482e+05 1.951648129905e+05  8.311446741381e-04
6.536499690359e-01 -6.999999993365e+07 6.684759878566e-01 -3.299515754770e-09 -1.848325880393e-07 2.599809537035e+01 -7.089840966045e-05 6.347643995448e-05 -3.256158340037e+05 -9.522125957773e+01 -1.130690473901e+05 -1.571563353532e+05 -7.174142687006e-04 -8.110328102835e-07 1.877534345433e-04 0.000000000000e+00 1.986137389157e+05 1.942916397427e+05  8.274258585394e-04
7.871337589362e-01 -6.999993003809e+07 6.684774325879e-01 -3.816477680429e-06 -1.848056506542e-07 2.525080984488e+01 -1.655537728735e-04 6.331159831855e-05 -2.987019391620e+05 -9.330060004180e+01 -1.011140425375e+05 -1.408314865157e+05 -6.723189623738e-04 -7.946738804822e-07 1.691436888663e-04 0.000000000000e+00 1.802158227384e+05 1.810270481136e+05  7.709362999373e-04
9.474533848814e-01 -6.991580129891e+07 6.507528602308e-01 -2.437363284039e-03 -1.580322805186e-07 2.505445512082e+01 -9.127064069647e-05 6.309097089944e-05 9.157271930333e+05 -1.042249475537e+02 5.958590586913e+05 5.284935214733e+05 1.649102386769e-03 -8.877203734861e-07 2.868879345243e-04 0.000000000000e+00 -6.800265910660e+05 3.583320530869e+05  1.526020365397e-03
1.140000000000e+00 1.349371324694e+05 9.738732786163e-01 -2.019618020084e-02 -7.176476130584e-04 2.500485102010e+01 3.100756432215e-06 6.277272098082e-05 -1.871247757310e+05 4.465996599320e+02 -4.420357070369e+06 1.129440766819e+05 -1.837665079577e-04 -8.196971008920e-07 4.529484154846e-05 0.000000000000e+00 1.498179256473e+06 4.390963303371e+06  2.101129284165e-04
1.240000000000e+00 1.413412552946e+05 1.000000000000e+00 -1.912507446065e-02 -1.252585888065e-03 2.500280428798e+01 2.342270467142e-06 6.276031268500e-05 -1.487323964963e+06 2.452880743200e+03 -1.320654503497e+07 -1.406055922530e+06 -6.549536146707e-06 7.171578725343e-08 4.256784950400e-06 0.000000000000e+00 5.366641640822e+06 1.176006646187e+07  9.429318014301e-06
1.487693532361e+00 1.556961197234e+05 1.000000000000e+00 -1.668949622423e-02 -1.060120106664e-03 2.500075208135e+01 1.007215238474e-06 6.274914133798e-05 -6.429892117442e+06 1.743246777929e+03 -1.668080220097e+07 -3.930460624134e+06 -4.509966745175e-06 1.174167119258e-07 2.488600014539e-06 0.000000000000e+00 9.013718314182e+06 1.170255407785e+07  6.147991008067e-06
1.823812918126e+00 1.717928622387e+05 1.000000000000e+00 -1.407500256654e-02 -8.343706375937e-04 2.500007432559e+01 -2.022226353982e-07 6.275074484687e-05 -1.234028080159e+07 -1.305523546527e+03 -1.817541875761e+07 -6.151699902500e+06 -3.021081455905e-06 1.165794253116e-07 1.262192305238e-06 0.000000000000e+00 1.222246648723e+07 1.041434572701e+07  3.817593565714e-06
2.280000000000e+00 1.897522717761e+05 1.000000000000e+00 -1.080450907902e-02 -6.178745246235e-04 2.500000402545e+01 -1.291323435338e-06 6.276132965571e-05 -1.870411296173e+07 -4.878943160435e+03 -1.727614924508e+07 -7.791030806472e+06 -1.956622695973e-06 9.368600910654e-08 5.985026042740e-07 0.000000000000e+00 1.459043100443e+07 1.027380302328e+07  2.320334615039e-06
2.850000000000e+00 2.074446307919e+05 1.000000000000e+00 -8.741383585309e-03 -5.169176379832e-04 2.499999994532e+01 -2.193508697133e-06 6.277711931663e-05 -2.296065486779e+07 -7.643644630064e+03 -1.625343054517e+07 -8.761175652344e+06 -1.318682462507e-06 7.694696824411e-08 3.320230322728e-07 0.000000000000e+00 1.599175368843e+07 1.230337965834e+07  1.518143006589e-06
3.420000000000e+00 2.215970185909e+05 1.000000000000e+00 -7.354823483911e-03 -4.556995872021e-04 2.500000000096e+01 -2.814084861571e-06 6.279307293669e-05 -2.542851360744e+07 -9.602922054340e+03 -1.551617008997e+07 -9.280355109214e+06 -9.406807842087e-07 6.845045692119e-08 2.517462244000e-07 0.000000000000e+00 1.674167960221e+07 1.410502603087e+07  1.095045994572e-06
3.972609728322e+00 2.330505661732e+05 1.000000000000e+00 -6.170055220174e-03 -4.143423897757e-04 2.500000000020e+01 -3.245938369276e-06 6.280837509651e-05 -2.697386838816e+07 -1.118451617249e+04 -1.505166050455e+07 -9.604608667858e+06 -6.863177882131e-07 6.376423945910e-08 2.433131576052e-07 0.000000000000e+00 1.721004585352e+07 1.538670446072e+07  8.422714419673e-07
4.633649783484e+00 2.447525257874e+05 1.000000000000e+00 -5.063055921838e-03 -3.843603950768e-04 2.499999999998e+01 -3.608585289043e-06 6.282651799781e-05 -2.833985714531e+07 -1.287265812393e+04 -1.459819313817e+07 -9.878365085039e+06 -4.541847544609e-07 6.004442227016e-08 2.731494274369e-07 0.000000000000e+00 1.760547178950e+07 1.661231154685e+07  6.448028415435e-07
5.424552109452e+00 2.565441707821e+05 1.000000000000e+00 -4.298457931970e-03 -3.623238966003e-04 2.500000000001e+01 -3.877963646642e-06 6.284836472455e-05 -2.921541266290e+07 -1.436842495957e+04 -1.425997087875e+07 -1.003956506249e+07 -2.621575740909e-07 5.860259276268e-08 3.249747583811e-07 0.000000000000e+00 1.783831620138e+07 1.745267077150e+07  5.194541107466e-07
6.370375975935e+00 2.680807782276e+05 1.000000000000e+00 -3.547741570992e-03 -3.462440019069e-04 2.499999999998e+01 -4.028292469433e-06 6.287470931466e-05 -2.991137374117e+07 -1.573749842956e+04 -1.401164621244e+07 -1.017385598608e+07 -8.777250699701e-08 5.812826149040e-08 3.962479112723e-07 0.000000000000e+00 1.803229197990e+07 1.812596290483e+07  4.578567211351e-07
7.501825115922e+00 2.794199820965e+05 1.000000000000e+00 -2.776495605589e-03 -3.349118681415e-04 2.499999999999e+01 -4.020676946889e-06 6.290646402789e-05 -3.047996307599e+07 -1.682095333947e+04 -1.380557025570e+07 -1.028260999951e+07 7.392317517857e-08 5.750267098782e-08 4.863237872911e-07 0.000000000000e+00 1.818938111040e+07 1.868664488151e+07  4.646983267717e-07
8.855503976798e+00 2.902924433088e+05 1.000000000000e+00 -2.217119764407e-03 -3.264088149119e-04 2.499999999998e+01 -3.814590001908e-06 6.294433065937e-05 -3.083071712334e+07 -1.711061741401e+04 -1.366010521341e+07 -1.034419670102e+07 2.116388949944e-07 5.629989486963e-08 5.728341823382e-07 0.000000000000e+00 1.827833967926e+07 1.904631773175e+07  5.110822472474e-07
1.047459878112e+01 3.001110515483e+05 1.000000000000e+00 -1.628522891811e-03 -3.210050958718e-04 2.499999999996e+01 -3.355504730033e-06 6.298770236811e-05 -3.110295325123e+07 -1.617948352774e+04 -1.355447434501e+07 -1.039417827886e+07 3.368536762061e-07 5.223726114181e-08 6.628321937165e-07 0.000000000000e+00 1.835053529170e+07 1.932345096842e+07  5.811416775574e-07
1.241154661369e+01 3.083650975032e+05 1.000000000000e+00 -1.171255185209e-03 -3.171848420128e-04 2.500000000001e+01 -2.591700214361e-06 6.303341442789e-05 -3.127133941731e+07 -1.351245267838e+04 -1.348470148083e+07 -1.042376226945e+07 4.400587587763e-07 4.354889934520e-08 7.322372424514e-07 0.000000000000e+00 1.839326772253e+07 1.949815896942e+07  6.428726143398e-07
1.472871140527e+01 3.143751555563e+05 1.000000000000e+00 -6.076283789138e-04 -3.149048949760e-04 2.499999999966e+01 -1.474658896290e-06 6.307278087968e-05 -3.138380868037e+07 -8.475047907954e+03 -1.344159549441e+07 -1.044457125235e+07 5.122207768674e-07 2.738460100702e-08 7.952840321334e-07 0.000000000000e+00 1.842332514237e+07 1.961322593742e+07  6.998110890579e-07
1.750000000000e+01 3.166832744713e+05 1.000000000000e+00 -2.790489179235e-04 -3.137548235771e-04 2.500000000003e+01 0.000000000000e+00 6.308983731278e-05 -3.141410603470e+07 -9.113966638034e+02 -1.342974270496e+07 -1.045010462194e+07 5.482452035644e-07 1.527520020602e-09 8.103972109620e-07 0.000000000000e+00 1.843131778720e+07 1.964440031790e+07  7.162590724219e-07
 TITLE = "Profiles along polylines"
 VARIABLES = "DIST" "PRESSURE1" "SATURATION1" "VELOCITY_X1" "VELOCITY_Y1" "TEMPERATURE1" "DISPLACEMENT_X1" "DISPLACEMENT_Y1" "STRESS_XX" "STRESS_XY" "STRESS_YY" "STRESS_ZZ" "STRAIN_XX" "STRAIN_XY" "STRAIN_YY" "STRAIN_PLS"  p_(1st_Invariant)  q_(2nd_Invariant)   Effective_Strain
 ZONE T="TIME=9.000000000000e-01"
0.000000000000e+00 -7.000000000000e+07 0.000000000000e+00 0.000000000000e+00 0.000000000000e+00 2.500000000000e+01 0.000000000000e+00 8.939066047367e-04 5.967931594360e+07 -8.829241062712e-01 6.107690452367e+07 3.622686614018e+07 1.524409237222e-04 -1.147801338152e-11 1.615252494927e-04 0.000000000000e+00 -5.232769553582e+07 2.418155354068e+07  1.571800980144e-04
1.856488293236e-01 -7.000000000000e+07 0.000000000000e+00 0.000000000000e+00 0.000000000000e+00 2.500000000000e+01 2.829477284715e-05 8.939062605123e-04 5.963899425090e+07 -1.160180664440e+02 6.107729915994e+07 3.621488802325e+07 1.522566904797e-04 -1.508234863773e-09 1.616056723885e-04 0.000000000000e+00 -5.231039381136e+07 2.417536929590e+07  1.571399004396e-04
3.329966101904e-01 -7.000000000000e+07 0.000000000000e+00 0.000000000000e+00 0.000000000000e+00 2.500000000000e+01 5.121876240304e-05 8.939055049739e-04 6.288321937460e+07 -2.146910122675e+02 6.038665383544e+07 3.698096196301e+07 1.683646731753e-04 -2.790983159478e-09 1.521369971708e-04 0.000000000000e+00 -5.341694505769e+07 2.474859784726e+07  1.608658860617e-04
4.500000000000e-01 -1.825455417321e+08 4.447347592060e-01 -3.515172207292e-03 -1.464769593741e-07 8.283348462567e+01 5.530186371009e-05 8.939046245792e-04 -1.906708176404e+07 -2.312664391562e+02 7.916541406233e+06 -4.384664961398e+06 -2.855755648669e-02 -5.939985323217e-07 4.004436632191e-04 0.000000000000e+00 5.178401773067e+06 2.339881365563e+07  2.875986928358e-02
5.425413849766e-01 -1.226642315127e+08 5.272211560514e-01 -5.012050668619e-03 -2.127082507562e-07 7.355501941886e+01 -5.462480475565e-03 8.937528278694e-04 -2.365450256165e+07 -6.386359637017e+01 -1.583726084325e+07 -1.376602268470e+07 -4.211182281982e-02 -5.439486126169e-07 -8.820730328212e-03 0.000000000000e+00 1.775259536320e+07 9.032755113879e+06  3.846756910562e-02
6.536499690359e-01 -7.854812253515e+07 6.273424054583e-01 -4.818317047137e-03 -2.543543314639e-07 6.573361624658e+01 -7.872674002014e-03 8.935863674251e-04 -7.311851125113e+06 2.868464055844e+01 -7.883741054707e+06 -5.379939510916e+06 -8.227383845948e-03 2.443171277847e-07 -1.066287723696e-02 0.000000000000e+00 6.858510563579e+06 2.272483526042e+06  9.677768966423e-03
7.871337589362e-01 -5.089559797900e+07 7.335714557578e-01 -4.050383162515e-03 -2.075721953260e-07 5.931954520063e+01 -7.038307027847e-03 8.933370199553e-04 5.267415020104e+06 -1.952454359623e+01 -7.440069777614e+05 1.384845001029e+06 1.653460418218e-02 -1.662973744786e-07 -9.066088868667e-03 0.000000000000e+00 -1.969417681124e+06 5.279372838667e+06  2.248313354145e-02
9.474533848814e-01 -2.984247135388e+07 8.166774406110e-01 -4.852515173949e-03 -1.408305575301e-07 5.367778754723e+01 -2.528249534991e-03 8.928558589740e-04 1.799171099059e+07 -2.740952024790e+02 7.419277060339e+06 8.561227546101e+06 4.016136482671e-02 -2.334564816068e-06 -4.863196075013e-03 0.000000000000e+00 -1.132407186568e+07 1.005023453879e+07  4.280068351032e-02
1.140000000000e+00 3.221762364192e+05 9.953957013209e-01 -8.315130152206e-03 -2.782604270399e-04 4.850921061954e+01 1.801298440901e-04 8.919487780485e-04 -3.912792854963e+06 6.321684902959e+01 -7.195617342919e+06 -6.096599188333e+06 -2.051207174603e-03 -2.576412669891e-06 1.539693144360e-04 0.000000000000e+00 5.735003128738e+06 2.894286410195e+06  2.132369644100e-03
1.240000000000e+00 3.242066392019e+05 1.000000000000e+00 -6.195659568349e-03 -5.131552921041e-04 4.754491137781e+01 2.004564179079e-04 8.919234120631e-04 -6.690003979305e+06 2.441084160089e+03 -1.698891845301e+07 -1.196444904933e+07 1.923769508874e-04 7.083946965094e-08 2.559375169902e-04 0.000000000000e+00 1.188112382721e+07 8.919998281256e+06  2.308168965961e-04
1.487693532361e+00 3.288737998542e+05 1.000000000000e+00 -5.441365883172e-03 -4.678346311736e-04 4.548073206582e+01 2.443296320745e-04 8.918918413140e-04 -1.169161458670e+07 1.767157668443e+03 -1.997648110414e+07 -1.373290674970e+07 1.641454833464e-04 1.191929495069e-07 2.441685254178e-04 0.000000000000e+00 1.513366748018e+07 7.476233221454e+06  2.155989111891e-04
1.823812918126e+00 3.341395924271e+05 1.000000000000e+00 -4.608994579181e-03 -4.155749781712e-04 4.320611496752e+01 2.933049784931e-04 8.918745468334e-04 -1.745270754439e+07 -1.679837514051e+03 -2.087192376863e+07 -1.490906259007e+07 1.323622536358e-04 8.877324486694e-08 2.263797631487e-04 0.000000000000e+00 1.774456463437e+07 5.182513849843e+06  1.969859166666e-04
2.280000000000e+00 3.400202934397e+05 1.000000000000e+00 -3.538235720053e-03 -3.661248476382e-04 4.068907690810e+01 3.450502833593e-04 8.918644950322e-04 -2.357331009485e+07 -5.546025213652e+03 -1.925124473706e+07 -1.536637073493e+07 9.855725255924e-05 4.413134229611e-08 2.086075816732e-04 0.000000000000e+00 1.939697518895e+07 7.110785230103e+06  1.807508530922e-04
2.850000000000e+00 3.458142124492e+05 1.000000000000e+00 -2.862576151826e-03 -3.433419752950e-04 3.823030640400e+01 3.918177305697e-04 8.918574190678e-04 -2.749016296012e+07 -8.437526726717e+03 -1.754914619215e+07 -1.518416854416e+07 6.901075294671e-05 1.797286963565e-08 1.907737492688e-04 0.000000000000e+00 2.007449256548e+07 1.131050085923e+07  1.673071078045e-04
3.420000000000e+00 3.504485616522e+05 1.000000000000e+00 -2.408345892577e-03 -3.295973454164e-04 3.628894648100e+01 4.238713444010e-04 8.918522829067e-04 -2.963726572952e+07 -1.042792818438e+04 -1.628679311381e+07 -1.478093917713e+07 4.704164863260e-05 7.164287261012e-09 1.759360135761e-04 0.000000000000e+00 2.023499934015e+07 1.416357663556e+07  1.577658949223e-04
3.972609728322e+00 3.541988347917e+05 1.000000000000e+00 -2.020220842614e-03 -3.203488140399e-04 3.474112344303e+01 4.442641379524e-04 8.918483870114e-04 -3.088618061505e+07 -1.201249162998e+04 -1.541297100708e+07 -1.434970800957e+07 3.024577504801e-05 2.257491187750e-09 1.630697557560e-04 0.000000000000e+00 2.021628654390e+07 1.603132146464e+07  1.502477321497e-04
4.633649783484e+00 3.580301911513e+05 1.000000000000e+00 -1.657640409160e-03 -3.136610608574e-04 3.319533788731e+01 4.577927804595e-04 8.918447823939e-04 -3.190953265235e+07 -1.368565255544e+04 -1.455196637433e+07 -1.383319832456e+07 1.385167388027e-05 -3.494497845062e-10 1.488839495520e-04 0.000000000000e+00 2.009823245041e+07 1.772789780428e+07  1.424640564797e-04
5.424552109452e+00 3.618906970247e+05 1.000000000000e+00 -1.407245040909e-03 -3.087556241191e-04 3.168500316570e+01 4.622043231949e-04 8.918418840948e-04 -3.245779281403e+07 -1.516066494293e+04 -1.384820563088e+07 -1.327055136905e+07 -6.853575156225e-07 -2.495202869280e-10 1.356271753513e-04 0.000000000000e+00 1.985884993799e+07 1.890505267007e+07  1.359711495606e-04
6.370375975935e+00 3.656674933688e+05 1.000000000000e+00 -1.161416025962e-03 -3.051804873803e-04 3.026718839136e+01 4.543958874479e-04 8.918402956291e-04 -3.281259377607e+07 -1.649268972151e+04 -1.326674706362e+07 -1.270540852721e+07 -1.381827941852e-05 2.028336945723e-09 1.220930249667e-04 0.000000000000e+00 1.959491645563e+07 1.983249549784e+07  1.295560386010e-04
7.501825115922e+00 3.693795180321e+05 1.000000000000e+00 -9.089023493106e-04 -3.026633816513e-04 2.895768555555e+01 4.311011307125e-04 8.918404484155e-04 -3.301879681849e+07 -1.754555304809e+04 -1.276594950542e+07 -1.213812865832e+07 -2.530635136155e-05 3.675264061558e-09 1.080200732678e-04 0.000000000000e+00 1.930762499408e+07 2.057396574796e+07  1.226472242521e-04
8.855503976798e+00 3.729386548895e+05 1.000000000000e+00 -7.257720745936e-04 -3.007762032506e-04 2.779623283947e+01 3.900292273186e-04 8.918430518255e-04 -3.305616168799e+07 -1.777701335579e+04 -1.239047139404e+07 -1.163908905085e+07 -3.435172908419e-05 6.796196337487e-09 9.582666332422e-05 0.000000000000e+00 1.902857404430e+07 2.105146345541e+07  1.168529092965e-04
1.047459878112e+01 3.761527329390e+05 1.000000000000e+00 -5.330852722073e-04 -2.995773716530e-04 2.684457941189e+01 3.280334414623e-04 8.918487072016e-04 -3.302958151596e+07 -1.677332230145e+04 -1.210744348247e+07 -1.120134236854e+07 -4.124324425415e-05 8.123523666395e-09 8.439007327621e-05 0.000000000000e+00 1.877945578899e+07 2.138960718975e+07  1.109198371208e-04
1.241154661369e+01 3.788546175728e+05 1.000000000000e+00 -3.833975232918e-04 -2.987301023611e-04 2.612776105972e+01 2.434548115211e-04 8.918571694600e-04 -3.297215860290e+07 -1.395798124259e+04 -1.192089242535e+07 -1.087854409392e+07 -4.584132893997e-05 1.045249171812e-08 7.570846992632e-05 0.000000000000e+00 1.859053170739e+07 2.159133238993e+07  1.063192224330e-04
1.472871140527e+01 3.808219314875e+05 1.000000000000e+00 -1.988984535369e-04 -2.982245709674e-04 2.565559885442e+01 1.344402199072e-04 8.918650597195e-04 -3.290178001723e+07 -8.773031604392e+03 -1.182176718120e+07 -1.065511530704e+07 -4.804936398927e-05 5.248669271640e-09 6.878054341119e-05 0.000000000000e+00 1.845955416849e+07 2.168689201208e+07  1.017072562805e-04
1.750000000000e+01 3.815774611815e+05 1.000000000000e+00 -9.134233618293e-05 -2.979695961118e-04 2.547503917203e+01 0.000000000000e+00 8.918705855177e-04 -3.287153785058e+07 -8.369333730791e+02 -1.178211921828e+07 -1.056529197421e+07 -4.930654915945e-05 7.059078760126e-09 6.628622837164e-05 0.000000000000e+00 1.840631634769e+07 2.172340737649e+07  1.004656418336e-04
 TITLE = "Profiles along polylines"
 VARIABLES = "DIST" "PRESSURE1" "SATURATION1" "VELOCITY_X1" "VELOCITY_Y1" "TEMPERATURE1" "DISPLACEMENT_X1" "DISPLACEMENT_Y1" "STRESS_XX" "STRESS_XY" "STRESS_YY" "STRESS_ZZ" "STRAIN_XX" "STRAIN_XY" "STRAIN_YY" "STRAIN_PLS"  p_(1st_Invariant)  q_(2nd_Invariant)   Effective_Strain
 ZONE T="TIME=1.000000000000e+00"
0.000000000000e+00 -7.000000000000e+07 0.000000000000e+00 0.000000000000e+00 0.000000000000e+00 2.500000000000e+01 0.000000000000e+00 9.845142164535e-04 5.920086901410e+07 -6.361178803556e-01 6.066228539446e+07 3.595894632257e+07 1.510724974950e-04 -8.269532444619e-12 1.605717039673e-04 0.000000000000e+00 -5.194070024371e+07 2.400601663684e+07  1.560391081395e-04
1.856488293236e-01 -7.000000000000e+07 0.000000000000e+00 0.000000000000e+00 0.000000000000e+00 2.500000000000e+01 2.804159432936e-05 9.845138664858e-04 5.916139687845e+07 -1.146196465565e+02 6.066020890217e+07 3.594648173419e+07 1.508969484377e-04 -1.490055405234e-09 1.606392265919e-04 0.000000000000e+00 -5.192269583827e+07 2.399944825668e+07  1.559964136844e-04