 TITLE = "Time curves in points"
 VARIABLES = "TIME"  "PRESSURE1"  "SATURATION1"  "TEMPERATURE1"  "DISPLACEMENT_X1"  "DISPLACEMENT_Y1"  "STRESS_XX"  "STRESS_XY"  "STRESS_YY"  "STRESS_ZZ"  "STRAIN_XX"  "STRAIN_XY"  "STRAIN_YY"  "STRAIN_PLS"  p_(1st_Invariant)  q_(2nd_Invariant)   Effective_Strain
 ZONE T="POINT=POINT6"
0.000000000000e+00 1.000000000000e+05 1.000000000000e+00 2.500000000000e+01 0.000000000000e+00 0.000000000000e+00 -3.096833482140e+07 1.077886406635e+03 -1.276457505907e+07 -1.019441292181e+07 0.000000000000e+00 0.000000000000e+00 0.000000000000e+00 0.000000000000e+00 1.797577426743e+07 1.961553518206e+07  0.000000000000e+00
1.000000000000e-03 2.334135896320e+05 1.000000000000e+00 2.447870096528e+01 0.000000000000e+00 5.466344584500e-05 -3.071573594685e+07 1.328379665003e+04 -1.215272103508e+07 -9.764571501491e+06 -6.583294557191e-06 9.067247609381e-07 6.760468136444e-06 0.000000000000e+00 1.754434282781e+07 1.986505891234e+07  1.166260258749e-05
2.000000000000e-03 2.334135767170e+05 1.000000000000e+00 2.447870184588e+01 0.000000000000e+00 5.278816493700e-05 -3.071692429307e+07 1.232707134908e+04 -1.216323095591e+07 -9.767540045756e+06 -6.517172915407e-06 8.356537385815e-07 6.480359863923e-06 0.000000000000e+00 1.754923176491e+07 1.986021756512e+07  1.134888470621e-05
3.000000000000e-03 2.334099446350e+05 1.000000000000e+00 2.447870265160e+01 0.000000000000e+00 5.122332899799e-05 -3.071743568985e+07 1.144793966741e+04 -1.217122736060e+07 -9.769593477885e+06 -6.459897316994e-06 7.703468136579e-07 6.259620883197e-06 0.000000000000e+00 1.755275217611e+07 1.985626561527e+07  1.109639300566e-05
4.000000000000e-03 2.333989359300e+05 1.000000000000e+00 2.447870339123e+01 0.000000000000e+00 4.963293375400e-05 -3.071766826309e+07 1.063976140483e+04 -1.217785636662e+07 -9.771191284238e+06 -6.409188658195e-06 7.103107141518e-07 6.072747752478e-06 0.000000000000e+00 1.755557197132e+07 1.985286174620e+07  1.088076166786e-05
1.000000000000e-02 2.311936456360e+05 1.000000000000e+00 2.447870657472e+01 0.000000000000e+00 4.116434146708e-05 -3.071773690972e+07 7.422725672691e+03 -1.220463263709e+07 -9.777355157120e+06 -6.182794540425e-06 4.713309169070e-07 5.307144413714e-06 0.000000000000e+00 1.756657490131e+07 1.983843018361e+07  9.993606564358e-06
2.000000000000e-02 2.212675572970e+05 1.000000000000e+00 2.447871069638e+01 0.000000000000e+00 3.350073065700e-05 -3.071722209970e+07 4.422625263290e+03 -1.223782952017e+07 -9.785286532245e+06 -5.869079092058e-06 2.484663150658e-07 4.368711260948e-06 0.000000000000e+00 1.758011271737e+07 1.981980021561e+07  8.908268401906e-06
3.000000000000e-02 2.075009229160e+05 1.000000000000e+00 2.447871456597e+01 0.000000000000e+00 3.069363653000e-05 -3.071631002656e+07 2.684998420706e+03 -1.226546790880e+07 -9.792124937522e+06 -5.581204179418e-06 1.193854639024e-07 3.596140450730e-06 0.000000000000e+00 1.759130095763e+07 1.980369366057e+07  8.012216860151e-06
4.000000000000e-02 1.919972533250e+05 1.000000000000e+00 2.447871851270e+01 0.000000000000e+00 3.291876338700e-05 -3.071398580125e+07 1.646407119904e+03 -1.228742185019e+07 -9.797227049035e+06 -5.305368811848e-06 4.223296727144e-08 2.970215341274e-06 0.000000000000e+00 1.759954490016e+07 1.978951922297e+07  7.261718536952e-06
5.000000000000e-02 1.762362105500e+05 1.000000000000e+00 2.447872261597e+01 0.000000000000e+00 3.742749550700e-05 -3.071126383712e+07 1.010039924074e+03 -1.230704237198e+07 -9.801742402867e+06 -5.036554144467e-06 -5.040024418797e-09 2.409166245431e-06 0.000000000000e+00 1.760668287065e+07 1.977624823372e+07  6.580648303317e-06
6.000000000000e-02 1.604597903140e+05 1.000000000000e+00 2.447872687006e+01 0.000000000000e+00 4.677630613404e-05 -3.070634792370e+07 6.162324429967e+02 -1.232081249228e+07 -9.803989039659e+06 -4.770516565330e-06 -3.429429444171e-08 1.981151143794e-06 0.000000000000e+00 1.761038315188e+07 1.976450002640e+07  6.011441657409e-06
7.000000000000e-02 1.455698547290e+05 1.000000000000e+00 2.447873122071e+01 0.000000000000e+00 5.634363715696e-05 -3.070168417174e+07 3.741811322791e+02 -1.233462122173e+07 -9.806417250101e+06 -4.507100818831e-06 -5.227524895215e-08 1.558446152190e-06 0.000000000000e+00 1.761424088119e+07 1.975288583091e+07  5.456645877642e-06
8.000000000000e-02 1.319055427570e+05 1.000000000000e+00 2.447873561305e+01 0.000000000000e+00 6.753861195100e-05 -3.069644533001e+07 2.321012884164e+02 -1.234679503847e+07 -9.808246905522e+06 -4.244556639085e-06 -6.282975163910e-08 1.174234445756e-06 0.000000000000e+00 1.761716242467e+07 1.974171631582e+07  4.938728069215e-06
9.000000000000e-02 1.205674320160e+05 1.000000000000e+00 2.447873993944e+01 0.000000000000e+00 7.760223547500e-05 -3.069207102323e+07 1.577076965151e+02 -1.236070868652e+07 -9.810903725116e+06 -3.983400516606e-06 -6.835613275176e-08 7.561236745313e-07 0.000000000000e+00 1.762122781162e+07 1.973022425546e+07  4.411934247616e-06
1.000000000000e-01 1.126213907650e+05 1.000000000000e+00 2.447874405795e+01 0.000000000000e+00 8.646834670000e-05 -3.068852650569e+07 1.309349791095e+02 -1.237633190747e+07 -9.814356135120e+06 -3.723514636387e-06 -7.034496318761e-08 3.040649822193e-07 0.000000000000e+00 1.762640484943e+07 1.971840738528e+07  3.886393239759e-06
2.000000000000e-01 1.225914106110e+05 1.000000000000e+00 2.448021059699e+01 0.000000000000e+00 2.602023956039e-04 -3.060743538520e+07 9.450507823825e+02 -1.242083230709e+07 -9.803138516388e+06 -1.128213142665e-06 -9.867789230190e-09 -1.765461413687e-06 0.000000000000e+00 1.761046873623e+07 1.962681362151e+07  1.548610425027e-06
3.000000000000e-01 1.420620612730e+05 1.000000000000e+00 2.448611462932e+01 0.000000000000e+00 4.663654012570e-04 -3.051237953652e+07 1.940040636915e+03 -1.242364345189e+07 -9.777144116148e+06 1.436926370775e-06 6.404574282082e-08 -2.835381657809e-06 0.000000000000e+00 1.757105570152e+07 1.954681997659e+07  3.767052798582e-06
4.000000000000e-01 1.621984937820e+05 1.000000000000e+00 2.449981673137e+01 0.000000000000e+00 6.660330918270e-04 -3.042773751420e+07 2.858851261041e+03 -1.243277181641e+07 -9.759083216243e+06 3.909939489205e-06 1.323002463273e-07 -3.845268622175e-06 0.000000000000e+00 1.753986418228e+07 1.946998614178e+07  6.720193098707e-06
5.000000000000e-01 1.815513874540e+05 1.000000000000e+00 2.452393734028e+01 0.000000000000e+00 8.611610646280e-04 -3.035448893862e+07 3.647596395301e+03 -1.244398551338e+07 -9.748831600662e+06 6.249826574958e-06 1.908927420152e-07 -4.642551659787e-06 0.000000000000e+00 1.751576868422e+07 1.939901004842e+07  9.473018578397e-06
6.000000000000e-01 1.998797458080e+05 1.000000000000e+00 2.455991550361e+01 0.000000000000e+00 1.052347936292e-03 -3.029362344829e+07 4.311784681958e+03 -1.245526593903e+07 -9.746552539351e+06 8.425893938558e-06 2.402324433097e-07 -5.146189746778e-06 0.000000000000e+00 1.749848064222e+07 1.933554190339e+07  1.187490385006e-05
7.000000000000e-01 2.172260171510e+05 1.000000000000e+00 2.460807585663e+01 0.000000000000e+00 1.239772444644e-03 -3.024552897467e+07 4.871491012589e+03 -1.246551425145e+07 -9.752125646747e+06 1.041926123340e-05 2.818106278709e-07 -5.319840219437e-06 0.000000000000e+00 1.748772295762e+07 1.928044506264e+07  1.387547337089e-05
8.000000000000e-01 2.338742176340e+05 1.000000000000e+00 2.466791995127e+01 0.000000000000e+00 1.423629226377e-03 -3.020986672944e+07 5.346421173058e+03 -1.247380801078e+07 -9.764982018761e+06 1.222138130248e-05 3.170911540771e-07 -5.150371748137e-06 0.000000000000e+00 1.748288558633e+07 1.923407132493e+07  1.546398355755e-05
9.000000000000e-01 2.497064717590e+05 1.000000000000e+00 2.473844571409e+01 0.000000000000e+00 1.603745480574e-03 -3.018609998896e+07 5.755405976541e+03 -1.248057845628e+07 -9.784726215218e+06 1.383750181736e-05 3.474728823359e-07 -4.668489569674e-06 0.000000000000e+00 1.748380155348e+07 1.919595481675e+07  1.668033862139e-05
1.000000000000e+00 2.648014421000e+05 1.000000000000e+00 2.481840735633e+01 0.000000000000e+00 1.780147808158e-03 -3.017325824267e+07 6.112022036593e+03 -1.248587852278e+07 -9.810636369477e+06 1.527685812324e-05 3.739643610826e-07 -3.902972024565e-06 0.000000000000e+00 1.748992437831e+07 1.916555393963e+07  1.756873025152e-05
2.000000000000e+00 3.766350511870e+05 1.000000000000e+00 2.591890828956e+01 0.000000000000e+00 3.262752306623e-03 -3.049147402280e+07 7.724784641732e+03 -1.247111717271e+07 -1.028881541664e+07 2.121835089882e-05 4.937695831786e-07 1.440624272987e-05 0.000000000000e+00 1.775046887071e+07 1.920473216098e+07  1.878331590229e-05
3.000000000000e+00 4.686151700600e+05 1.000000000000e+00 2.708342743637e+01 0.000000000000e+00 4.537430840424e-03 -3.096964911993e+07 8.499309255793e+03 -1.242946481408e+07 -1.082894129001e+07 2.351937973050e-05 5.513056973660e-07 3.601514848985e-05 0.000000000000e+00 1.807601840800e+07 1.939005743888e+07  3.168769483863e-05
4.000000000000e+00 5.483132884460e+05 1.000000000000e+00 2.823167826303e+01 0.000000000000e+00 5.653304186581e-03 -3.149387449503e+07 8.896122512971e+03 -1.238005866896e+07 -1.137448229601e+07 2.431110316399e-05 5.807832536136e-07 5.811318553139e-05 0.000000000000e+00 1.841613848666e+07 1.963593079763e+07  5.056073920125e-05
5.000000000000e+00 6.197397654110e+05 1.000000000000e+00 2.933713694020e+01 0.000000000000e+00 6.645802401430e-03 -3.201938298667e+07 9.123928969798e+03 -1.233051287000e+07 -1.190509412341e+07 2.450065563488e-05 5.977060189778e-07 7.966189736788e-05 0.000000000000e+00 1.875166332669e+07 1.990499564849e+07  7.067958023088e-05
6.000000000000e+00 6.851606366850e+05 1.000000000000e+00 3.039255406408e+01 0.000000000000e+00 7.542331120941e-03 -3.252878190329e+07 9.286569984265e+03 -1.228427492293e+07 -1.241413675726e+07 2.448742227525e-05 6.097879229096e-07 1.002866046590e-04 0.000000000000e+00 1.907573119449e+07 2.017989585908e+07  9.056705808850e-05
7.000000000000e+00 7.462730414350e+05 1.000000000000e+00 3.139551191406e+01 0.000000000000e+00 8.356344818894e-03 -3.301718209482e+07 9.396615848456e+03 -1.224024751253e+07 -1.289902351168e+07 2.435692318259e-05 6.179627585353e-07 1.199319879238e-04 0.000000000000e+00 1.938548437301e+07 2.045551063904e+07  1.098039746603e-04
8.000000000000e+00 8.036369444830e+05 1.000000000000e+00 3.234847821821e+01 0.000000000000e+00 9.107001059665e-03 -3.348136875209e+07 9.503649106473e+03 -1.219977524235e+07 -1.336010126411e+07 2.424144957382e-05 6.259138005594e-07 1.385609887634e-04 0.000000000000e+00 1.968041508619e+07 2.072581151644e+07  1.281758618726e-04
9.000000000000e+00 8.580655136630e+05 1.000000000000e+00 3.325456045260e+01 0.000000000000e+00 9.803154165371e-03 -3.392287049884e+07 9.599247641203e+03 -1.216183826931e+07 -1.379863981482e+07 2.413138800672e-05 6.330154059965e-07 1.562586510742e-04 0.000000000000e+00 1.996111619432e+07 2.099055569168e+07  1.457036509827e-04
1.000000000000e+01 9.100569319250e+05 1.000000000000e+00 3.411648238339e+01 0.000000000000e+00 1.045146454342e-02 -3.434314462906e+07 9.682259026064e+03 -1.212588585685e+07 -1.421588335788e+07 2.401882334099e-05 6.391819660147e-07 1.730916437080e-04 0.000000000000e+00 2.022830461460e+07 2.124949276643e+07  1.624234867405e-04
1.100000000000e+01 9.599017900680e+05 1.000000000000e+00 3.493739274946e+01 0.000000000000e+00 1.105912744920e-02 -3.474312163046e+07 9.758991328043e+03 -1.209145395617e+07 -1.461308842691e+07 2.391586585292e-05 6.448820798760e-07 1.891238740114e-04 0.000000000000e+00 2.048255467118e+07 2.150204056635e+07  1.783759927199e-04
1.200000000000e+01 1.007946846100e+06 1.000000000000e+00 3.572000571424e+01 0.000000000000e+00 1.163009324278e-02 -3.512445687364e+07 9.824277632278e+03 -1.205795688130e+07 -1.499153575569e+07 2.380860046080e-05 6.497319196192e-07 2.044246661470e-04 0.000000000000e+00 2.072464983688e+07 2.174861373455e+07  1.936246235355e-04
1.300000000000e+01 1.054427457860e+06 1.000000000000e+00 3.646655380801e+01 0.000000000000e+00 1.216753471662e-02 -3.548840236288e+07 9.878280949864e+03 -1.202526643218e+07 -1.535235060965e+07 2.369231972186e-05 6.537435946399e-07 2.190405774043e-04 0.000000000000e+00 2.095533980157e+07 2.198919510257e+07  2.082109586778e-04
1.400000000000e+01 1.100043684190e+06 1.000000000000e+00 3.717896992581e+01 0.000000000000e+00 1.267452910512e-02 -3.583571170764e+07 9.921001211620e+03 -1.199261617674e+07 -1.569621067919e+07 2.356420378508e-05 6.569170997989e-07 2.330252466176e-04 0.000000000000e+00 2.117484618786e+07 2.222397251806e+07  2.221852323695e-04
1.500000000000e+01 1.144328323690e+06 1.000000000000e+00 3.785899718853e+01 0.000000000000e+00 1.315294414835e-02 -3.616748224700e+07 9.952454535391e+03 -1.196039367371e+07 -1.602417551635e+07 2.342284913199e-05 6.592536324218e-07 2.464036335395e-04 0.000000000000e+00 2.138401714569e+07 2.245273769959e+07  2.355699666660e-04
1.600000000000e+01 1.187416062120e+06 1.000000000000e+00 3.850823173461e+01 0.000000000000e+00 1.360480244800e-02 -3.648446038821e+07 9.974262283274e+03 -1.192863524243e+07 -1.633704187194e+07 2.327012566627e-05 6.608736365503e-07 2.592039827658e-04 0.000000000000e+00 2.158337916753e+07 2.267533536010e+07  2.483904274321e-04
1.700000000000e+01 1.229427499770e+06 1.000000000000e+00 3.912814233171e+01 0.000000000000e+00 1.403188456994e-02 -3.678732660004e+07 9.987790432219e+03 -1.189736187356e+07 -1.663553699198e+07 2.310777082838e-05 6.618785847577e-07 2.714525266396e-04 0.000000000000e+00 2.177340848853e+07 2.289165645471e+07  2.606704716018e-04
1.800000000000e+01 1.270471825970e+06 1.000000000000e+00 3.972008145039e+01 0.000000000000e+00 1.443576165308e-02 -3.707669867077e+07 9.993926564538e+03 -1.186652663253e+07 -1.692030780132e+07 2.293686683390e-05 6.623344117300e-07 2.831750370820e-04 0.000000000000e+00 2.195451103487e+07 2.310166845114e+07  2.724341561385e-04
1.900000000000e+01 1.310633782880e+06 1.000000000000e+00 4.028529438307e+01 0.000000000000e+00 1.481781661506e-02 -3.735315093188e+07 9.993162588081e+03 -1.183604998956e+07 -1.719194054398e+07 2.275785614825e-05 6.622776591931e-07 2.943962428336e-04 0.000000000000e+00 2.212704715514e+07 2.330539645250e+07  2.837050515961e-04
2.000000000000e+01 1.349995946340e+06 1.000000000000e+00 4.082492863823e+01 0.000000000000e+00 1.517928750663e-02 -3.761719382439e+07 9.984265442605e+03 -1.180557297732e+07 -1.745088394949e+07 2.256844663131e-05 6.616167283863e-07 3.051461440646e-04 0.000000000000e+00 2.229121691707e+07 2.350308446576e+07  2.945133999734e-04
2.100000000000e+01 1.388472754850e+06 1.000000000000e+00 4.134131914436e+01 0.000000000000e+00 1.552472467759e-02 -3.786887464230e+07 9.983211573313e+03 -1.177589373307e+07 -1.769821328875e+07 2.240682028143e-05 6.615384409532e-07 3.154350343091e-04 0.000000000000e+00 2.244766055471e+07 2.369360355745e+07  3.048520021909e-04
2.200000000000e+01 1.426190233860e+06 1.000000000000e+00 4.183639356871e+01 0.000000000000e+00 1.585493815952e-02 -3.810963495012e+07 9.982730541619e+03 -1.174676534549e+07 -1.793496411702e+07 2.225789675503e-05 6.615027071702e-07 3.253105480408e-04 0.000000000000e+00 2.259712147087e+07 2.387794629968e+07  3.147744443255e-04
2.300000000000e+01 1.463228482370e+06 1.000000000000e+00 4.231146548328e+01 0.000000000000e+00 1.617049420580e-02 -3.834041305248e+07 9.978215314743e+03 -1.171771159943e+07 -1.816173557415e+07 2.210907850362e-05 6.611672903166e-07 3.348126270161e-04 0.000000000000e+00 2.273995340869e+07 2.405694598041e+07  3.243257919647e-04
2.400000000000e+01 1.499644120820e+06 1.000000000000e+00 4.276749054018e+01 0.000000000000e+00 1.647192686994e-02 -3.856182812176e+07 9.969757998860e+03 -1.168881276868e+07 -1.837907218856e+07 2.195759303762e-05 6.605390325653e-07 3.439585149795e-04 0.000000000000e+00 2.287657102633e+07 2.423079403060e+07  3.335242176524e-04
2.500000000000e+01 1.535482131400e+06 1.000000000000e+00 4.320524538876e+01 0.000000000000e+00 1.675975341728e-02 -3.877432089090e+07 9.957326622355e+03 -1.166006428363e+07 -1.858737679885e+07 2.180203285147e-05 6.596155588821e-07 3.527633442352e-04 0.000000000000e+00 2.300725399113e+07 2.439962988156e+07  3.423852405270e-04
2.600000000000e+01 1.570774235150e+06 1.000000000000e+00 4.362540764395e+01 0.000000000000e+00 1.703446567957e-02 -3.897824995716e+07 9.940996590980e+03 -1.163147459046e+07 -1.878699689732e+07 2.164198547631e-05 6.584024708370e-07 3.612397079244e-04 0.000000000000e+00 2.313224048165e+07 2.456353919438e+07  3.509214414734e-04
2.700000000000e+01 1.605546318150e+06 1.000000000000e+00 4.402858938007e+01 0.000000000000e+00 1.729653735687e-02 -3.917391821933e+07 9.921034347614e+03 -1.160304291620e+07 -1.897823760738e+07 2.147753354068e-05 6.569195613298e-07 3.693989679133e-04 0.000000000000e+00 2.325173291430e+07 2.472258853412e+07  3.591439792744e-04
2.800000000000e+01 1.639831833480e+06 1.000000000000e+00 4.441535216502e+01 0.000000000000e+00 1.754640641166e-02 -3.936160538521e+07 9.897831475535e+03 -1.157481169588e+07 -1.916139240416e+07 2.130918840323e-05 6.551959194040e-07 3.772504485489e-04 0.000000000000e+00 2.336593649508e+07 2.487680950864e+07  3.670618059707e-04
2.900000000000e+01 1.673654166930e+06 1.000000000000e+00 4.478621585322e+01 0.000000000000e+00 1.778449018933e-02 -3.954156555120e+07 9.871458838162e+03 -1.154676432561e+07 -1.933671477268e+07 2.113692735378e-05 6.532368091992e-07 3.848041817036e-04 0.000000000000e+00 2.347501488316e+07 2.502627422615e+07  3.746848410003e-04
3.000000000000e+01 1.707028523550e+06 1.000000000000e+00 4.514166471358e+01 0.000000000000e+00 1.801119242865e-02 -3.971402365730e+07 9.842198232840e+03 -1.151889391391e+07 -1.950443990224e+07 2.096113108248e-05 6.510631642324e-07 3.920691589504e-04 0.000000000000e+00 2.357911915782e+07 2.517103635872e+07  3.820217965404e-04
3.100000000000e+01 1.739862169900e+06 1.000000000000e+00 4.548316211200e+01 0.000000000000e+00 1.822961077494e-02 -3.987884443293e+07 9.821537920121e+03 -1.149173048996e+07 -1.966520103741e+07 2.081034443680e-05 6.495283981447e-07 3.990492140037e-04 0.000000000000e+00 2.367859198677e+07 2.531033204937e+07  3.890633106620e-04
3.200000000000e+01 1.772216944290e+06 1.000000000000e+00 4.581188528851e+01 0.000000000000e+00 1.843995953288e-02 -4.003700271081e+07 9.803509510920e+03 -1.146506872190e+07 -1.981964230720e+07 2.067228413612e-05 6.481891448897e-07 4.057758982666e-04 0.000000000000e+00 2.377390457997e+07 2.544500491257e+07  3.958463953712e-04
3.300000000000e+01 1.804125471630e+06 1.000000000000e+00 4.612855743917e+01 0.000000000000e+00 1.864235559840e-02 -4.018908437056e+07 9.785503576641e+03 -1.143870721760e+07 -1.996813217835e+07 2.053887484541e-05 6.468515612005e-07 4.122703779259e-04 0.000000000000e+00 2.386530792217e+07 2.557560125094e+07  4.023958193759e-04
3.400000000000e+01 1.835622427100e+06 1.000000000000e+00 4.643364730800e+01 0.000000000000e+00 1.883685343404e-02 -4.033545982365e+07 9.766556025924e+03 -1.141261923878e+07 -2.011093747192e+07 2.040626892051e-05 6.454440288614e-07 4.185435566152e-04 0.000000000000e+00 2.395300551145e+07 2.570236685845e+07  4.087241881979e-04
3.500000000000e+01 1.866724724140e+06 1.000000000000e+00 4.672750835819e+01 0.000000000000e+00 1.902357941855e-02 -4.047635786038e+07 9.747002541618e+03 -1.138689216601e+07 -2.024827644289e+07 2.027407504938e-05 6.439914843130e-07 4.246002953825e-04 0.000000000000e+00 2.403717548976e+07 2.582534601456e+07  4.148364917393e-04
3.600000000000e+01 1.897454081370e+06 1.000000000000e+00 4.701043929426e+01 0.000000000000e+00 1.920263210236e-02 -4.061197605770e+07 9.727661289248e+03 -1.136172128098e+07 -2.038037129200e+07 2.014320783017e-05 6.425547055655e-07 4.304415940791e-04 0.000000000000e+00 2.411802287689e+07 2.594447775235e+07  4.207332633348e-04
3.700000000000e+01 1.927826208290e+06 1.000000000000e+00 4.728270804192e+01 0.000000000000e+00 1.937414819780e-02 -4.074250117360e+07 9.711381254538e+03 -1.133765207833e+07 -2.050753535727e+07 2.001836880685e-05 6.413453315585e-07 4.360588297448e-04 0.000000000000e+00 2.419589620307e+07 2.605941592898e+07  4.264036650690e-04
3.800000000000e+01 1.957851141680e+06 1.000000000000e+00 4.754456181106e+01 0.000000000000e+00 1.953832863467e-02 -4.086942362131e+07 9.790453062973e+03 -1.133193412726e+07 -2.063547722584e+07 2.005623300988e-05 6.472192373280e-07 4.410233373313e-04 0.000000000000e+00 2.427894499147e+07 2.615752627497e+07  4.313465270699e-04
3.900000000000e+01 1.987546620950e+06 1.000000000000e+00 4.779623193571e+01 0.000000000000e+00 1.969528196019e-02 -4.098950269927e+07 9.741179617253e+03 -1.130263775376e+07 -2.075072653371e+07 1.987684154952e-05 6.435589242174e-07 4.463921769250e-04 0.000000000000e+00 2.434762232891e+07 2.626961135904e+07  4.367945059000e-04
4.000000000000e+01 2.016929925280e+06 1.000000000000e+00 4.803793683095e+01 0.000000000000e+00 1.984517445672e-02 -4.110464398344e+07 9.682567718396e+03 -1.127208784113e+07 -2.086062885953e+07 1.968225166810e-05 6.392048974451e-07 4.516089743530e-04 0.000000000000e+00 2.441245356137e+07 2.637936917077e+07  4.420979540858e-04
4.200000000000e+01 2.074208403470e+06 1.000000000000e+00 4.848775660010e+01 0.000000000000e+00 2.012587603518e-02 -4.131682775630e+07 9.583713705576e+03 -1.121288682001e+07 -2.106381887221e+07 1.934819771823e-05 6.318614564927e-07 4.613549270370e-04 0.000000000000e+00 2.453117781617e+07 2.658451656639e+07  4.519928460235e-04
4.400000000000e+01 2.129970192110e+06 1.000000000000e+00 4.890720119697e+01 0.000000000000e+00 2.038756491357e-02 -4.151363887535e+07 9.487317552754e+03 -1.115464224925e+07 -2.125205478522e+07 1.902969006539e-05 6.247005994260e-07 4.705099164343e-04 0.000000000000e+00 2.464011196994e+07 2.677833775613e+07  4.612908230575e-04
5.000000000000e+01 2.281485240722e+06 1.000000000000e+00 4.980573480116e+01 0.000000000000e+00 2.093498722974e-02 -4.193841407894e+07 9.192946982481e+03 -1.101064475200e+07 -2.165045108805e+07 1.804990232316e-05 6.028330713486e-07 4.906559718658e-04 0.000000000000e+00 2.486650330633e+07 2.721520111804e+07  4.818857536368e-04
6.500000000000e+01 2.612859593381e+06 1.000000000000e+00 5.137611536001e+01 0.000000000000e+00 2.186370413415e-02 -4.263470182379e+07 8.527538166985e+03 -1.063493437185e+07 -2.229518854978e+07 1.613517752161e-05 5.534027021974e-07 5.285583202787e-04 0.000000000000e+00 2.518827491514e+07 2.805033761837e+07  5.206791510373e-04
8.000000000000e+01 2.867909414203e+06 1.000000000000e+00 5.216638751426e+01 0.000000000000e+00 2.230445552304e-02 -4.296839695671e+07 8.003214888184e+03 -1.035776480919e+07 -2.258797186385e+07 1.461559567851e-05 5.144529729151e-07 5.497279985570e-04 0.000000000000e+00 2.530471120991e+07 2.853413223610e+07  5.425685946127e-04
1.000000000000e+02 3.168586946530e+06 1.000000000000e+00 5.286387895362e+01 0.000000000000e+00 2.267344130663e-02 -4.324169679664e+07 7.464164878527e+03 -1.005523376728e+07 -2.282238586334e+07 1.317126446214e-05 4.744092579120e-07 5.696716715236e-04 0.000000000000e+00 2.537310547575e+07 2.899387947755e+07  5.632021613011e-04
1.860000000000e+02 3.767070137304e+06 1.000000000000e+00 5.367399317868e+01 0.000000000000e+00 2.311209652039e-02 -4.345058707980e+07 6.418471438244e+03 -9.357603642567e+06 -2.295743572329e+07 1.042862017139e-05 3.967291737767e-07 6.005997852394e-04 0.000000000000e+00 2.525520881522e+07 2.972588478058e+07  5.954543670972e-04
2.720000000000e+02 4.057393745366e+06 1.000000000000e+00 5.333862578740e+01 0.000000000000e+00 2.277587582618e-02 -4.323447987479e+07 5.844278748078e+03 -9.118908437018e+06 -2.270272156255e+07 8.994647530138e-06 3.540748596500e-07 6.000047954751e-04 0.000000000000e+00 2.501870329145e+07 2.974849154059e+07  5.955587315560e-04
3.580000000000e+02 4.198760828878e+06 1.000000000000e+00 5.291604569850e+01 0.000000000000e+00 2.242404700686e-02 -4.299553864832e+07 5.487750611677e+03 -8.979804493870e+06 -2.244084585413e+07 8.142795343248e-06 3.275899123746e-07 5.954447013363e-04 0.000000000000e+00 2.480539633210e+07 2.967124349539e+07  5.914156195687e-04
4.440000000000e+02 4.270890553149e+06 1.000000000000e+00 5.250802911794e+01 0.000000000000e+00 2.209482778134e-02 -4.277969921424e+07 5.235827359607e+03 -8.900574330777e+06 -2.220913896108e+07 7.553432581914e-06 3.088756136494e-07 5.897812799382e-04 0.000000000000e+00 2.462980416870e+07 2.956400775436e+07  5.860413173025e-04
5.300000000000e+02 4.309855588322e+06 1.000000000000e+00 5.214927465920e+01 0.000000000000e+00 2.180949580682e-02 -4.259609904529e+07 5.052288426113e+03 -8.853701870019e+06 -2.201416424069e+07 7.130949242382e-06 2.952412928755e-07 5.842803388661e-04 0.000000000000e+00 2.448798838533e+07 2.945643673629e+07  5.807479254247e-04
6.160000000000e+02 4.332371405394e+06 1.000000000000e+00 5.184945747612e+01 0.000000000000e+00 2.157301155509e-02 -4.244591778592e+07 4.918483866200e+03 -8.826446591137e+06 -2.185580615377e+07 6.827238504765e-06 2.853015255676e-07 5.794108059959e-04 0.000000000000e+00 2.437605684361e+07 2.935971641725e+07  5.760277438774e-04
7.020000000000e+02 4.346181928998e+06 1.000000000000e+00 5.161929376212e+01 0.000000000000e+00 2.139160499489e-02 -4.233187664450e+07 4.822238862950e+03 -8.809941053400e+06 -2.173594824961e+07 6.611187317295e-06 2.781518967548e-07 5.755720038146e-04 0.000000000000e+00 2.429258864917e+07 2.928305170045e+07  5.722952534719e-04
7.880000000000e+02 4.355800657703e+06 1.000000000000e+00 5.141141553677e+01 0.000000000000e+00 2.122813163540e-02 -4.223308827526e+07 4.752821096196e+03 -8.808549115625e+06 -2.163304733444e+07 6.458435611236e-06 2.729951483674e-07 5.718016703684e-04 0.000000000000e+00 2.422489490844e+07 2.920641534747e+07  5.686001591059e-04
8.740000000000e+02 4.364186902747e+06 1.000000000000e+00 5.110955643582e+01 0.000000000000e+00 2.099704573931e-02 -4.208328117437e+07 4.634454161727e+03 -8.787275490707e+06 -2.147592135608e+07 6.186591590900e-06 2.642021760925e-07 5.667557258121e-04 0.000000000000e+00 2.411549267372e+07 2.910574802280e+07  5.636880785126e-04
9.370000000000e+02 4.369560866174e+06 1.000000000000e+00 5.085470718014e+01 0.000000000000e+00 2.080711076842e-02 -4.195966281726e+07 4.563860660731e+03 -8.782460939140e+06 -2.134811188136e+07 6.030921508340e-06 2.589580874471e-07 5.621873429520e-04 0.000000000000e+00 2.403007854592e+07 2.901257024997e+07  5.591964538775e-04
1.000000000000e+03 4.373750967670e+06 1.000000000000e+00 5.063409317228e+01 0.000000000000e+00 2.064808599400e-02 -4.185101249480e+07 4.513398765591e+03 -8.777014908415e+06 -2.123660802053e+07 5.924932940442e-06 2.552094895224e-07 5.582480521196e-04 0.000000000000e+00 2.395487847458e+07 2.893168307338e+07  5.553094683583e-04
1.100000000000e+03 4.377896344590e+06 1.000000000000e+00 5.039952478691e+01 0.000000000000e+00 2.048171186900e-02 -4.173485772769e+07 4.466116728741e+03 -8.771277407979e+06 -2.111788465249e+07 5.829527762821e-06 2.516971096421e-07 5.540514341800e-04 0.000000000000e+00 2.387467326272e+07 2.884524255753e+07  5.511599649354e-04
1.200000000000e+03 4.381157757110e+06 1.000000000000e+00 5.020666365626e+01 0.000000000000e+00 2.034344839500e-02 -4.163981001182e+07 4.423083682086e+03 -8.766570087074e+06 -2.102040698473e+07 5.739272407237e-06 2.485003690335e-07 5.506056784399e-04 0.000000000000e+00 2.380892902788e+07 2.877469652698e+07  5.477587622830e-04
1.300000000000e+03 4.384063158280e+06 1.000000000000e+00 5.002355940255e+01 0.000000000000e+00 2.021184910623e-02 -4.154977092978e+07 4.381185216935e+03 -8.762254008386e+06 -2.092796678845e+07 5.650088163801e-06 2.453879116222e-07 5.473324969292e-04 0.000000000000e+00 2.374666390887e+07 2.870788005522e+07  5.445296038547e-04
1.400000000000e+03 4.386802694110e+06 1.000000000000e+00 4.983346618981e+01 0.000000000000e+00 2.007587303840e-02 -4.145632646310e+07 4.339018581632e+03 -8.758075876059e+06 -2.083210155735e+07 5.560174056860e-06 2.422555329997e-07 5.439269761175e-04 0.000000000000e+00 2.368216796550e+07 2.863840475245e+07  5.411684749555e-04
1.500000000000e+03 4.389442600510e+06 1.000000000000e+00 4.962660281772e+01 0.000000000000e+00 1.992907992300e-02 -4.135458226278e+07 4.295795950904e+03 -8.753935157197e+06 -2.072788884737e+07 5.468486555146e-06 2.390447090029e-07 5.402100164476e-04 0.000000000000e+00 2.361213542245e+07 2.856254847396e+07  5.374967966703e-04
1.600000000000e+03 4.392003663130e+06 1.000000000000e+00 4.939698227315e+01 0.000000000000e+00 1.976752180740e-02 -4.124154981124e+07 4.251026728201e+03 -8.749783937990e+06 -2.061232197362e+07 5.374350872987e-06 2.357189953163e-07 5.360717207072e-04 0.000000000000e+00 2.353455190761e+07 2.847806004464e+07  5.334050080000e-04
1.700000000000e+03 4.394490967350e+06 1.000000000000e+00 4.914090603614e+01 0.000000000000e+00 1.958875601360e-02 -4.111538726320e+07 4.204406717485e+03 -8.745602548483e+06 -2.048354781916e+07 5.277348349115e-06 2.322557945203e-07 5.314439894379e-04 0.000000000000e+00 2.344817921028e+07 2.838357999409e+07  5.288252178964e-04
1.800000000000e+03 4.396904398280e+06 1.000000000000e+00 4.885614509573e+01 0.000000000000e+00 1.939130946880e-02 -4.097498353999e+07 4.155755573835e+03 -8.741378336878e+06 -2.034044899569e+07 5.177244624892e-06 2.286417095634e-07 5.262857895683e-04 0.000000000000e+00 2.335227029085e+07 2.827832972454e+07  5.237165098785e-04
1.900000000000e+03 4.399243705860e+06 1.000000000000e+00 4.854145211274e+01 0.000000000000e+00 1.917434646960e-02 -4.081972229259e+07 4.104958950115e+03 -8.737113868725e+06 -2.018240472256e+07 5.073875097856e-06 2.248682460871e-07 5.205739682405e-04 0.000000000000e+00 2.324641362796e+07 2.816191953328e+07  5.180558126509e-04
2.000000000000e+03 4.401508073670e+06 1.000000000000e+00 4.819625178811e+01 0.000000000000e+00 1.893748703050e-02 -4.064931394494e+07 4.051996454091e+03 -8.732804760830e+06 -2.000912540481e+07 4.967239065535e-06 2.209338892396e-07 5.142979318747e-04 0.000000000000e+00 2.313041470353e+07 2.803423306646e+07  5.118325330138e-04