 TITLE = "Time curves in points"
 VARIABLES = "TIME"  "PRESSURE1"  "SATURATION1"  "TEMPERATURE1"  "DISPLACEMENT_X1"  "DISPLACEMENT_Y1"  "STRESS_XX"  "STRESS_XY"  "STRESS_YY"  "STRESS_ZZ"  "STRAIN_XX"  "STRAIN_XY"  "STRAIN_YY"  "STRAIN_PLS"  p_(1st_Invariant)  q_(2nd_Invariant)   Effective_Strain
 ZONE T="POINT=POINT7"
0.000000000000e+00 1.000000000000e+05 1.000000000000e+00 2.500000000000e+01 0.000000000000e+00 0.000000000000e+00 -1.262331305483e+06 1.487475914788e+03 -1.327249178965e+07 -1.357396928539e+06 0.000000000000e+00 0.000000000000e+00 0.000000000000e+00 0.000000000000e+00 5.297406674556e+06 1.196291125004e+07  0.000000000000e+00
1.000000000000e-03 1.413412552946e+05 1.000000000000e+00 2.500280428798e+01 -1.020086459019e-04 6.275961394942e-05 1.087566463129e+06 2.471674279238e+03 -1.546475670280e+07 -1.311052294451e+06 8.556054499659e-05 7.311187850199e-08 -8.314835461181e-05 0.000000000000e+00 5.229414178041e+06 1.549290417042e+07  1.461112258075e-04
2.000000000000e-03 1.644189448192e+05 1.000000000000e+00 2.501564381585e+01 -9.611741944825e-05 6.218283262022e-05 9.370912064915e+05 2.288770525707e+03 -1.534423197204e+07 -1.324382563287e+06 8.046658830685e-05 5.952474252545e-08 -7.817659748412e-05 0.000000000000e+00 5.243841109613e+06 1.527664814235e+07  1.373938388084e-04
3.000000000000e-03 1.801828042397e+05 1.000000000000e+00 2.504723888815e+01 -9.016485149869e-05 6.170801594682e-05 7.803401962543e+05 2.216469272933e+03 -1.523378452529e+07 -1.348995796942e+06 7.555861374806e-05 5.415379231936e-08 -7.316005792609e-05 0.000000000000e+00 5.267480041993e+06 1.506276285873e+07  1.287997653096e-04
4.000000000000e-03 1.909645331175e+05 1.000000000000e+00 2.510343997643e+01 -8.415584014830e-05 6.119888472849e-05 6.187766505644e+05 2.182024222656e+03 -1.513625689745e+07 -1.387329936352e+06 7.098152151481e-05 5.159501715594e-08 -6.811376371407e-05 0.000000000000e+00 5.301603394414e+06 1.485393158201e+07  1.204686173844e-04
1.000000000000e-02 2.067813581907e+05 1.000000000000e+00 2.594628110919e+01 -7.283877323667e-05 5.840412520774e-05 3.382662420429e+05 2.150189740481e+03 -1.532838455570e+07 -1.819134766940e+06 7.660102862015e-05 4.923016990867e-08 -5.921146874151e-05 0.000000000000e+00 5.603084360200e+06 1.470711025197e+07  1.179380443230e-04
2.000000000000e-02 2.050625079167e+05 1.000000000000e+00 2.758034036847e+01 -5.774159763100e-05 5.658653303837e-05 -3.905292250831e+04 2.127818613476e+03 -1.583597336686e+07 -2.650251848038e+06 9.345637980618e-05 4.756831475967e-08 -4.719470442944e-05 0.000000000000e+00 6.175092712469e+06 1.466670267121e+07  1.239842250566e-04
3.000000000000e-02 1.950322212313e+05 1.000000000000e+00 2.908484136141e+01 -4.343840178246e-05 5.694244232040e-05 -4.012989980870e+05 2.113620538456e+03 -1.628802629882e+07 -3.416993932442e+06 1.084805172768e-04 4.651360061539e-08 -3.550625019590e-05 0.000000000000e+00 6.702106409784e+06 1.461413735473e+07  1.299248217624e-04
4.000000000000e-02 1.817985407931e+05 1.000000000000e+00 3.039238212025e+01 -2.987039576581e-05 5.962593980422e-05 -7.468236360822e+05 2.101190143596e+03 -1.664707366484e+07 -4.083320493084e+06 1.203960172609e-04 4.559019985434e-08 -2.409302296688e-05 0.000000000000e+00 7.159072598002e+06 1.452236348713e+07  1.340760417537e-04
5.000000000000e-02 1.676434085483e+05 1.000000000000e+00 3.151681238627e+01 -1.722534525010e-05 6.331125626181e-05 -1.072623727610e+06 2.090330978876e+03 -1.692989551231e+07 -4.657665006173e+06 1.296276672046e-04 4.478351904659e-08 -1.326503824384e-05 0.000000000000e+00 7.553394748697e+06 1.440335476956e+07  1.367436116392e-04
6.000000000000e-02 1.532845441325e+05 1.000000000000e+00 3.248853658346e+01 -5.311487708538e-06 6.931166485830e-05 -1.381739614999e+06 2.080655182829e+03 -1.714472049041e+07 -5.153712151779e+06 1.365708282240e-04 4.406474562595e-08 -2.819643450861e-06 0.000000000000e+00 7.893390752396e+06 1.425629071408e+07  1.380022767112e-04
7.000000000000e-02 1.396036811256e+05 1.000000000000e+00 3.333663389762e+01 6.121508662136e-06 7.533003078307e-05 -1.680800154146e+06 2.071720263519e+03 -1.730855083266e+07 -5.588527893943e+06 1.416131643361e-04 4.340100876292e-08 7.245528545959e-06 0.000000000000e+00 8.192626293583e+06 1.408644544934e+07  1.381330135176e-04
8.000000000000e-02 1.272619211682e+05 1.000000000000e+00 3.408501699852e+01 1.716412490979e-05 8.213216380369e-05 -1.971008869309e+06 2.062962911715e+03 -1.742741160994e+07 -5.972529368007e+06 1.450968953810e-04 4.275046262890e-08 1.709361156948e-05 0.000000000000e+00 8.456983282417e+06 1.389472750171e+07  1.373501951907e-04
9.000000000000e-02 1.171517363113e+05 1.000000000000e+00 3.475240661445e+01 2.783433732064e-05 8.832034867945e-05 -2.254020765262e+06 2.054634587908e+03 -1.751750251570e+07 -6.317550379989e+06 1.474000911192e-04 4.213178714609e-08 2.656244408616e-05 0.000000000000e+00 8.696357886984e+06 1.369169641146e+07  1.360773638207e-04
1.000000000000e-01 1.102703160861e+05 1.000000000000e+00 3.535333117252e+01 3.812292810693e-05 9.385988643761e-05 -2.529814071290e+06 2.051390963745e+03 -1.758600979072e+07 -6.630777433793e+06 1.487904874652e-04 4.189083220827e-08 3.565203586951e-05 0.000000000000e+00 8.915533765268e+06 1.348191513261e+07  1.345548151875e-04
2.000000000000e-01 1.323288196601e+05 1.000000000000e+00 3.882851231477e+01 8.168722203594e-05 1.886881105124e-04 -3.630195444321e+06 2.009930224864e+03 -1.801864366997e+07 -8.305716076933e+06 1.701311860692e-04 3.881089160563e-08 8.179478424276e-05 0.000000000000e+00 9.984851730407e+06 1.271276764113e+07  1.473742449141e-04
3.000000000000e-01 1.634812514515e+05 1.000000000000e+00 4.114283855407e+01 1.177843411075e-04 2.983616800346e-04 -4.556206449183e+06 1.993768007778e+03 -1.794233829088e+07 -9.370119561143e+06 1.752714781593e-04 3.761026976496e-08 1.241639705937e-04 0.000000000000e+00 1.062288810040e+07 1.174404621359e+07  1.561229779156e-04
4.000000000000e-01 1.951057524480e+05 1.000000000000e+00 4.283441461058e+01 1.479818552647e-04 4.037946730279e-04 -5.361524176650e+06 2.008286579688e+03 -1.770101834044e+07 -1.013112027856e+07 1.736254177862e-04 3.868879224971e-08 1.613930239713e-04 0.000000000000e+00 1.106455426522e+07 1.077765150810e+07  1.678438773495e-04
5.000000000000e-01 2.250539193533e+05 1.000000000000e+00 4.415040919333e+01 1.753870571505e-04 5.062187817529e-04 -6.108446760105e+06 2.053205218693e+03 -1.734166149184e+07 -1.070784916533e+07 1.673039376235e-04 4.202560543294e-08 1.961619227137e-04 0.000000000000e+00 1.138598580576e+07 9.781285881001e+06  1.834433173591e-04
6.000000000000e-01 2.527631152710e+05 1.000000000000e+00 4.521803575671e+01 1.987146866725e-04 6.060886273638e-04 -6.767681075439e+06 2.125477676735e+03 -1.695088452862e+07 -1.116198258138e+07 1.596859042213e-04 4.739441660181e-08 2.275443082292e-04 0.000000000000e+00 1.162684939515e+07 8.846438016365e+06  2.023373132746e-04
7.000000000000e-01 2.783761873711e+05 1.000000000000e+00 4.611200686447e+01 2.185778270946e-04 7.035854656324e-04 -7.357357777016e+06 2.221293793486e+03 -1.655600929883e+07 -1.153327368957e+07 1.515744393243e-04 5.451218527473e-08 2.560019150687e-04 0.000000000000e+00 1.181554692181e+07 7.977511082219e+06  2.229539265130e-04
8.000000000000e-01 3.021552404606e+05 1.000000000000e+00 4.687762352566e+01 2.355148309904e-04 7.988759202577e-04 -7.879224655328e+06 2.330491605100e+03 -1.616821772128e+07 -1.184145070068e+07 1.436373871139e-04 6.262402270891e-08 2.818521769331e-04 0.000000000000e+00 1.196296435910e+07 7.180793365624e+06  2.441062271576e-04
9.000000000000e-01 3.242066392019e+05 1.000000000000e+00 4.754491137781e+01 2.503580011491e-04 8.919233287449e-04 -8.355360267172e+06 2.447251502886e+03 -1.578033025899e+07 -1.210147947748e+07 1.356105618123e-04 7.129761511591e-08 3.059176372424e-04 0.000000000000e+00 1.207905666788e+07 6.430301996175e+06  2.654998641173e-04
1.000000000000e+00 3.447023617940e+05 1.000000000000e+00 4.813450176080e+01 2.634502021247e-04 9.827865810627e-04 -8.791569988371e+06 2.573099342750e+03 -1.539768080228e+07 -1.232391984297e+07 1.276705571718e-04 8.064631179150e-08 3.283924020670e-04 0.000000000000e+00 1.217105687787e+07 5.725654623748e+06  2.867321388901e-04
2.000000000000e+00 4.796085427425e+05 1.000000000000e+00 5.134024693470e+01 3.268781835925e-04 1.736040606072e-03 -1.142716260753e+07 3.348665140005e+03 -1.214466851222e+07 -1.326118186682e+07 6.458970648882e-05 1.382597710162e-07 4.840311622980e-04 0.000000000000e+00 1.227767099552e+07 1.600798350681e+06  4.551863606292e-04
3.000000000000e+00 5.833220838915e+05 1.000000000000e+00 5.340425538575e+01 3.691854168838e-04 2.378738300687e-03 -1.349698960708e+07 4.351688413902e+03 -9.210533682540e+06 -1.372488317960e+07 4.933609551573e-06 2.127700713628e-07 6.102365047320e-04 0.000000000000e+00 1.214413548974e+07 4.404832850302e+06  6.077848298334e-04
4.000000000000e+00 6.697140086513e+05 1.000000000000e+00 5.490878737857e+01 4.019265721603e-04 2.939074950676e-03 -1.523551053566e+07 5.279346791918e+03 -6.585312497154e+06 -1.398606660122e+07 -4.993892642147e-05 2.816818365868e-07 7.174458187064e-04 0.000000000000e+00 1.193562987801e+07 8.098097455223e+06  7.436740624340e-04
5.000000000000e+00 7.455226978264e+05 1.000000000000e+00 5.611567457007e+01 4.301925821360e-04 3.436395845954e-03 -1.676659611655e+07 6.175921613203e+03 -4.235294165083e+06 -1.416336499286e+07 -1.002224505932e-04 3.482845375965e-07 8.113175827302e-04 0.000000000000e+00 1.172175175817e+07 1.145375833724e+07  8.657905981859e-04
6.000000000000e+00 8.142013544012e+05 1.000000000000e+00 5.716990259263e+01 4.558422546764e-04 3.885139501454e-03 -1.814708018163e+07 6.915551200659e+03 -2.124018727820e+06 -1.431358734005e+07 -1.459178858295e-04 4.032284498076e-07 8.953160718668e-04 0.000000000000e+00 1.152822874983e+07 1.449172238936e+07  9.764865662586e-04
7.000000000000e+00 8.779417004956e+05 1.000000000000e+00 5.804439800794e+01 4.774369789607e-04 4.292356796749e-03 -1.935410294354e+07 7.448767079562e+03 -2.263380268635e+05 -1.441297654532e+07 -1.870585607900e-04 4.428387722404e-07 9.694929540982e-04 0.000000000000e+00 1.133113917191e+07 1.719806916704e+07  1.075295326047e-03
8.000000000000e+00 9.374371718012e+05 1.000000000000e+00 5.888785281134e+01 4.975259069415e-04 4.667779333893e-03 -2.046091717688e+07 7.856298819516e+03 1.487079511695e+06 -1.452658496889e+07 -2.239490622962e-04 4.731125586369e-07 1.037353918406e-03 0.000000000000e+00 1.116680754469e+07 1.966429095876e+07  1.165577729428e-03
9.000000000000e+00 9.937703155433e+05 1.000000000000e+00 5.965317844942e+01 5.153790995571e-04 5.015894348015e-03 -2.146365922620e+07 8.159008318476e+03 3.046351964727e+06 -1.462785662855e+07 -2.574322481976e-04 4.955995499883e-07 1.099031271163e-03 0.000000000000e+00 1.101505463001e+07 2.190715516160e+07  1.247825278329e-03
1.000000000000e+01 1.047436495103e+06 1.000000000000e+00 6.034406420573e+01 5.322514622977e-04 5.340063492811e-03 -2.239657449837e+07 8.429211723774e+03 4.499524235055e+06 -1.471394858679e+07 -2.888856855723e-04 5.156718029533e-07 1.156203942510e-03 0.000000000000e+00 1.087033295003e+07 2.399563327109e+07  1.324490114100e-03
1.100000000000e+01 1.098728747000e+06 1.000000000000e+00 6.099305099283e+01 5.471855259814e-04 5.643904208355e-03 -2.324608582539e+07 8.399222208616e+03 5.834871151606e+06 -1.479566398807e+07 -3.174038199568e-04 5.134440103987e-07 1.208837685743e-03 0.000000000000e+00 1.073562622062e+07 2.591072260047e+07  1.394892191330e-03
1.200000000000e+01 1.148046967535e+06 1.000000000000e+00 6.158495237055e+01 5.607155993209e-04 5.929386175762e-03 -2.402962588322e+07 8.548237504552e+03 7.076306329475e+06 -1.486578005797e+07 -3.439024252228e-04 5.245137180968e-07 1.257552446375e-03 0.000000000000e+00 1.060636653724e+07 2.768583286265e+07  1.460199710640e-03
1.300000000000e+01 1.195651368083e+06 1.000000000000e+00 6.212186572654e+01 5.736271262096e-04 6.198105066719e-03 -2.476725125151e+07 8.652607828600e+03 8.251472154994e+06 -1.492275675241e+07 -3.691836616801e-04 5.322669421689e-07 1.303317739973e-03 0.000000000000e+00 1.047951194964e+07 2.936150117072e+07  1.521873244683e-03
1.400000000000e+01 1.242259551708e+06 1.000000000000e+00 6.260772768483e+01 5.860443013822e-04 6.451597981136e-03 -2.546471121367e+07 8.703543354596e+03 9.368933150908e+06 -1.496712786325e+07 -3.934412475862e-04 5.360507241000e-07 1.346471503938e-03 0.000000000000e+00 1.035430197534e+07 3.095017250446e+07  1.580360660299e-03
1.500000000000e+01 1.287424555555e+06 1.000000000000e+00 6.304640614474e+01 5.969287153608e-04 6.690805282299e-03 -2.610417935173e+07 8.560951611779e+03 1.040555869637e+07 -1.500183781962e+07 -4.159036943347e-04 5.254581946337e-07 1.386263965435e-03 0.000000000000e+00 1.023348615833e+07 3.241727315256e+07  1.634397992440e-03
1.600000000000e+01 1.331285541316e+06 1.000000000000e+00 6.344141475303e+01 6.068777413724e-04 6.916733328023e-03 -2.669816220354e+07 8.504047885650e+03 1.138217807435e+07 -1.502561978616e+07 -4.370825843587e-04 5.212310606926e-07 1.423421729660e-03 0.000000000000e+00 1.011386797178e+07 3.379151360859e+07  1.685029456507e-03
1.700000000000e+01 1.373981454982e+06 1.000000000000e+00 6.379585165581e+01 6.165595704279e-04 7.130271492503e-03 -2.726288115438e+07 8.453540531008e+03 1.231732723094e+07 -1.503886362358e+07 -4.575659457147e-04 5.174790857763e-07 1.458647755152e-03 0.000000000000e+00 9.994805849003e+06 3.510257189482e+07  1.733334419895e-03
1.800000000000e+01 1.415647029235e+06 1.000000000000e+00 6.411243622563e+01 6.260637251406e-04 7.332208658302e-03 -2.780111315423e+07 8.372178561777e+03 1.321616860522e+07 -1.504180544307e+07 -4.774481524135e-04 5.114350537763e-07 1.492142559492e-03 0.000000000000e+00 9.875583330693e+06 3.635746728030e+07  1.779569512257e-03
1.900000000000e+01 1.456374282014e+06 1.000000000000e+00 6.439355789026e+01 6.354948331574e-04 7.523235400572e-03 -2.831690924080e+07 8.269038247227e+03 1.408232263329e+07 -1.503541064447e+07 -4.968438138628e-04 5.037732018383e-07 1.524076473729e-03 0.000000000000e+00 9.756665750659e+06 3.756285312628e+07  1.823976864529e-03
2.000000000000e+01 1.496247460135e+06 1.000000000000e+00 6.464132388855e+01 6.442389467436e-04 7.703973438478e-03 -2.879900499093e+07 7.954145093947e+03 1.490341359569e+07 -1.502075026877e+07 -5.152947556797e-04 4.803811390233e-07 1.554029609807e-03 0.000000000000e+00 9.638780554670e+06 3.869882204995e+07  1.865829765490e-03
2.100000000000e+01 1.535192806225e+06 1.000000000000e+00 6.490430940938e+01 6.526400403989e-04 7.876691099692e-03 -2.925808263323e+07 7.813511937880e+03 1.567467917639e+07 -1.501939937546e+07 -5.323963870021e-04 4.699341045726e-07 1.582626441053e-03 0.000000000000e+00 9.534267610766e+06 3.977323226247e+07  1.905449455251e-03
2.200000000000e+01 1.573367391864e+06 1.000000000000e+00 6.515088863720e+01 6.609581094161e-04 8.041797755173e-03 -2.970096685002e+07 7.650962343595e+03 1.641879712595e+07 -1.501558997299e+07 -5.489878642891e-04 4.578589918543e-07 1.610123615659e-03 0.000000000000e+00 9.432586565689e+06 4.080939822350e+07  1.943662698810e-03
2.300000000000e+01 1.610838576131e+06 1.000000000000e+00 6.537661451534e+01 6.685616743036e-04 8.199577373710e-03 -3.011523372565e+07 7.425545366470e+03 1.712567135344e+07 -1.500706949444e+07 -5.646913945870e-04 4.411137306964e-07 1.636062469191e-03 0.000000000000e+00 9.332210622215e+06 4.178799531180e+07  1.979759519568e-03
2.400000000000e+01 1.647648378482e+06 1.000000000000e+00 6.558092359377e+01 6.758348673652e-04 8.350293654410e-03 -3.050920785466e+07 7.248284517607e+03 1.780541459585e+07 -1.499310464678e+07 -5.798434137207e-04 4.279457819238e-07 1.660791380996e-03 0.000000000000e+00 9.232299301863e+06 4.272467308844e+07  2.014310276217e-03
2.500000000000e+01 1.683854202719e+06 1.000000000000e+00 6.576416191171e+01 6.828971360970e-04 8.494209085435e-03 -3.088642128407e+07 7.041062274218e+03 1.846087909777e+07 -1.497402046199e+07 -5.945630393907e-04 4.125521295577e-07 1.684428364204e-03 0.000000000000e+00 9.133187549428e+06 4.362484017695e+07  2.047511533642e-03
2.600000000000e+01 1.719493175218e+06 1.000000000000e+00 6.592693399654e+01 6.897382266828e-04 8.631564856315e-03 -3.124736799640e+07 6.861471825280e+03 1.909194583778e+07 -1.495021247246e+07 -6.088539283170e-04 3.992111247794e-07 1.706983689221e-03 0.000000000000e+00 9.035211543696e+06 4.448883354486e+07  2.079375056155e-03
2.700000000000e+01 1.754594732155e+06 1.000000000000e+00 6.606991878478e+01 6.965047034609e-04 8.762601900753e-03 -3.159522163756e+07 6.684532270912e+03 1.970364501614e+07 -1.492136131940e+07 -6.228458206738e-04 3.860670435978e-07 1.728632330161e-03 0.000000000000e+00 8.937645980272e+06 4.532373919756e+07  2.110160780290e-03
2.800000000000e+01 1.789200920037e+06 1.000000000000e+00 6.619379701274e+01 7.032905632761e-04 8.887535727823e-03 -3.193243172240e+07 6.496111943016e+03 2.029907003631e+07 -1.488751205598e+07 -6.366280250374e-04 3.720701049541e-07 1.749490858269e-03 0.000000000000e+00 8.840291247356e+06 4.613434119470e+07  2.140044118858e-03
2.900000000000e+01 1.823338912299e+06 1.000000000000e+00 6.629922530560e+01 7.101410731478e-04 9.006577743820e-03 -3.226051036080e+07 6.294253103258e+03 2.087934314850e+07 -1.484901146068e+07 -6.502438251465e-04 3.570748768578e-07 1.769613837468e-03 0.000000000000e+00 8.743392890992e+06 4.692291490159e+07  2.169108346560e-03
3.000000000000e+01 1.857014513206e+06 1.000000000000e+00 6.638683103109e+01 7.170270111052e-04 9.119928083197e-03 -3.257880477821e+07 6.118776391271e+03 2.144514232509e+07 -1.480567988428e+07 -6.636756477740e-04 3.440394639673e-07 1.789019776903e-03 0.000000000000e+00 8.646447445798e+06 4.768958567973e+07  2.197358947010e-03
3.100000000000e+01 1.890151113501e+06 1.000000000000e+00 6.649419011281e+01 7.240528548567e-04 9.229139526318e-03 -3.289246319848e+07 5.915300155146e+03 2.198695773426e+07 -1.477501904798e+07 -6.764646487319e-04 3.289240864267e-07 1.808005518181e-03 0.000000000000e+00 8.560174837401e+06 4.843261179898e+07  2.224756282628e-03
3.200000000000e+01 1.922830080027e+06 1.000000000000e+00 6.659549683178e+01 7.312880574411e-04 9.334315515218e-03 -3.320293109179e+07 5.707566878453e+03 2.251994881895e+07 -1.474392794023e+07 -6.891511259142e-04 3.134924715866e-07 1.826647517325e-03 0.000000000000e+00 8.475636737691e+06 4.916487999313e+07  2.251756406662e-03
3.300000000000e+01 1.955077262852e+06 1.000000000000e+00 6.668654149222e+01 7.387373488202e-04 9.435515016571e-03 -3.351093383880e+07 5.499341879081e+03 2.304696919845e+07 -1.471029651883e+07 -7.018403950267e-04 2.980243287761e-07 1.844973392911e-03 0.000000000000e+00 8.391420386395e+06 4.988923559000e+07  2.278460858122e-03
3.400000000000e+01 1.986915457134e+06 1.000000000000e+00 6.676628760818e+01 7.463572884920e-04 9.532764361680e-03 -3.381535410944e+07 5.308121214027e+03 2.356751128970e+07 -1.467357926806e+07 -7.145112172503e-04 2.838193650864e-07 1.862944029844e-03 0.000000000000e+00 8.307140695934e+06 5.060425852434e+07  2.304816996206e-03
3.500000000000e+01 2.018386078475e+06 1.000000000000e+00 6.683449111677e+01 7.544805665369e-04 9.626130024287e-03 -3.412347301148e+07 5.093912488462e+03 2.408922495955e+07 -1.463358017423e+07 -7.274413142401e-04 2.679067169015e-07 1.880836285524e-03 0.000000000000e+00 8.222609408718e+06 5.132265543106e+07  2.331290250772e-03
3.600000000000e+01 2.049530889919e+06 1.000000000000e+00 6.689117748563e+01 7.634754425611e-04 9.715658188741e-03 -3.444297773840e+07 4.908434061591e+03 2.462014388153e+07 -1.459020423640e+07 -7.409197389306e-04 2.541283194769e-07 1.898945024936e-03 0.000000000000e+00 8.137679364426e+06 5.205783560281e+07  2.358372386441e-03
3.700000000000e+01 2.080435745441e+06 1.000000000000e+00 6.693649239167e+01 7.746933727844e-04 9.801403955042e-03 -3.480331837264e+07 5.101524744563e+03 2.518896586174e+07 -1.454372809832e+07 -7.560300761882e-04 2.684721987833e-07 1.918346441929e-03 0.000000000000e+00 8.052693536407e+06 5.285930519417e+07  2.387878215120e-03
3.800000000000e+01 2.113302048560e+06 1.000000000000e+00 6.697096005175e+01 8.302910544022e-04 9.883196128207e-03 -3.611416952348e+07 1.734440066768e+04 2.668467510426e+07 -1.450054208591e+07 -8.063228851091e-04 1.177942981643e-06 1.972297304762e-03 0.000000000000e+00 7.976678835045e+06 5.525878978751e+07  2.475969682597e-03
3.900000000000e+01 2.143157947788e+06 1.000000000000e+00 6.699389716341e+01 8.274433935892e-04 9.962023873633e-03 -3.615533346287e+07 2.745348331223e+03 2.694377165085e+07 -1.444339864898e+07 -8.099743019435e-04 9.344195093520e-08 1.979798420264e-03 0.000000000000e+00 7.884986820333e+06 5.552388265496e+07  2.485808927557e-03
4.000000000000e+01 2.172544101843e+06 1.000000000000e+00 6.700587685751e+01 8.219990243698e-04 1.003696655981e-02 -3.613776092034e+07 2.746445117835e+03 2.713090246219e+07 -1.438638893885e+07 -8.114391110261e-04 9.352342651216e-08 1.984631489737e-03 0.000000000000e+00 7.797749132331e+06 5.567643792407e+07  2.491506214912e-03
4.200000000000e+01 2.229827605392e+06 1.000000000000e+00 6.705899310480e+01 8.120420056650e-04 1.017731261494e-02 -3.610635159875e+07 2.745508051149e+03 2.747025279998e+07 -1.429409177677e+07 -8.137006593871e-04 9.345381584400e-08 1.993807750549e-03 0.000000000000e+00 7.643396858512e+06 5.595542792512e+07  2.501947404873e-03
4.400000000000e+01 2.285593809495e+06 1.000000000000e+00 6.709089078090e+01 8.028709231868e-04 1.030815170260e-02 -3.607569452245e+07 2.745417825075e+03 2.779696177339e+07 -1.419838426174e+07 -8.161168185401e-04 9.344711333569e-08 2.002387804717e-03 0.000000000000e+00 7.492372336935e+06 5.622251355269e+07  2.511928735623e-03
5.000000000000e+01 2.437116678573e+06 1.000000000000e+00 6.687731638316e+01 7.837278495744e-04 1.058185113418e-02 -3.599376849119e+07 2.746366413589e+03 2.861690836838e+07 -1.385408473774e+07 -8.258621196989e-04 9.351757991102e-08 2.020054695926e-03 0.000000000000e+00 7.076981620184e+06 5.687042492206e+07  2.535932943634e-03
6.500000000000e+01 2.768502507756e+06 1.000000000000e+00 6.609227658982e+01 7.575774273953e-04 1.104618960626e-02 -3.581728005473e+07 2.746152004032e+03 3.029433976877e+07 -1.302508719067e+07 -8.500981723788e-04 9.350165234390e-08 2.051567953334e-03 0.000000000000e+00 6.182675825542e+06 5.816701440069e+07  2.583724475190e-03
8.000000000000e+01 3.023556374630e+06 1.000000000000e+00 6.508884968109e+01 7.482576587750e-04 1.126655533288e-02 -3.568795078577e+07 2.745822781931e+03 3.144032247000e+07 -1.229278704774e+07 -8.724942334115e-04 9.347719584494e-08 2.066933305500e-03 0.000000000000e+00 5.513471787838e+06 5.901747059116e+07  2.614736486308e-03
1.000000000000e+02 3.324236305531e+06 1.000000000000e+00 6.398428875965e+01 7.438403610712e-04 1.145104030691e-02 -3.555778159086e+07 2.745626887155e+03 3.256557373807e+07 -1.153097908519e+07 -8.959551019241e-04 9.346264366159e-08 2.080432628277e-03 0.000000000000e+00 4.841062312661e+06 5.984390025744e+07  2.644789163465e-03
1.860000000000e+02 3.922717201764e+06 1.000000000000e+00 6.134131221386e+01 7.514099584060e-04 1.167036804240e-02 -3.528853175710e+07 2.746102424955e+03 3.479415350822e+07 -9.859260294871e+06 -9.480468060248e-04 9.349796932676e-08 2.101116036099e-03 0.000000000000e+00 3.451212847915e+06 6.144980891189e+07  2.702857324555e-03
2.720000000000e+02 4.213038211969e+06 1.000000000000e+00 5.933681595054e+01 7.741180993858e-04 1.150227870298e-02 -3.518721165793e+07 2.745770753260e+03 3.544784176435e+07 -8.932481368795e+06 -9.787067053099e-04 9.347333085798e-08 2.090972668358e-03 0.000000000000e+00 2.890617087458e+06 6.183944841750e+07  2.715968061703e-03
3.580000000000e+02 4.354403691727e+06 1.000000000000e+00 5.793077727829e+01 7.940107710909e-04 1.132638537024e-02 -3.513076458446e+07 2.746535052125e+03 3.575378479636e+07 -8.332399670500e+06 -9.988988485179e-04 9.353010734508e-08 2.080047517896e-03 0.000000000000e+00 2.569793152866e+06 6.199340049188e+07  2.720689927759e-03
4.440000000000e+02 4.426532453840e+06 1.000000000000e+00 5.685962552591e+01 8.107205727443e-04 1.116179609925e-02 -3.509722334306e+07 2.748068142598e+03 3.589161594865e+07 -7.906588707004e+06 -1.013468866767e-03 9.364399406590e-08 2.069351124908e-03 0.000000000000e+00 2.370732033804e+06 6.203639533478e+07  2.721498886253e-03
5.300000000000e+02 4.465496889446e+06 1.000000000000e+00 5.603562150135e+01 8.243895802371e-04 1.101914913940e-02 -3.507639694788e+07 2.748568953920e+03 3.594756280041e+07 -7.595507825961e+06 -1.024249747671e-03 9.368119719268e-08 2.059874718106e-03 0.000000000000e+00 2.241447324479e+06 6.203064230749e+07  2.720661240669e-03
6.160000000000e+02 4.488012314786e+06 1.000000000000e+00 5.540773413179e+01 8.352884282182e-04 1.090092541866e-02 -3.506350467409e+07 2.748188792843e+03 3.596025598851e+07 -7.368319371156e+06 -1.032209320108e-03 9.365295665559e-08 2.051907751057e-03 0.000000000000e+00 2.157189352246e+06 6.200307797052e+07  2.719150571470e-03
7.020000000000e+02 4.501822576458e+06 1.000000000000e+00 5.494614336094e+01 8.434922866911e-04 1.081023819878e-02 -3.505524927971e+07 2.749184318039e+03 3.595730152130e+07 -7.205346137863e+06 -1.037955982697e-03 9.372690995583e-08 2.045744722182e-03 0.000000000000e+00 2.101097965426e+06 6.197343654573e+07  2.717685980786e-03
7.880000000000e+02 4.511441113274e+06 1.000000000000e+00 5.458452954715e+01 8.503628756701e-04 1.072851681708e-02 -3.505241249526e+07 2.749675363776e+03 3.591893373667e+07 -7.089556717385e+06 -1.042151366320e-03 9.376338763917e-08 2.040018883135e-03 0.000000000000e+00 2.074345158657e+06 6.192165851189e+07  2.715467732569e-03
8.740000000000e+02 4.519827167133e+06 1.000000000000e+00 5.400168344939e+01 8.607171951313e-04 1.061298945347e-02 -3.504186935113e+07 2.749595210950e+03 3.591635749228e+07 -6.883390783372e+06 -1.049417355659e-03 9.375743342922e-08 2.032265602223e-03 0.000000000000e+00 2.002967547408e+06 6.188613887549e+07  2.713682937446e-03
9.370000000000e+02 4.525201002277e+06 1.000000000000e+00 5.359758949594e+01 8.687818679588e-04 1.051803487443e-02 -3.503869407631e+07 2.750314379279e+03 3.587221863530e+07 -6.754362138892e+06 -1.054091909389e-03 9.381085736223e-08 2.025833666454e-03 0.000000000000e+00 1.973612526634e+06 6.182793223383e+07  2.711185479003e-03
1.000000000000e+03 4.529391016052e+06 1.000000000000e+00 5.327744951566e+01 8.756180846424e-04 1.043853315704e-02 -3.503667758060e+07 2.750259279191e+03 3.583096414527e+07 -6.654158481668e+06 -1.057738861102e-03 9.380676421288e-08 2.020579506699e-03 0.000000000000e+00 1.953290638999e+06 6.177692014093e+07  2.709021693114e-03
1.100000000000e+03 4.533536316160e+06 1.000000000000e+00 5.295519145958e+01 8.827916852237e-04 1.035536051451e-02 -3.503517020996e+07 2.749996438368e+03 3.578347837692e+07 -6.555224728364e+06 -1.061357555315e-03 9.378723889458e-08 2.015141067323e-03 0.000000000000e+00 1.935638853801e+06 6.172096122193e+07  2.706669282468e-03
1.200000000000e+03 4.536797682874e+06 1.000000000000e+00 5.267850939785e+01 8.887276253074e-04 1.028624122912e-02 -3.503347968985e+07 2.750362275419e+03 3.574722594978e+07 -6.468817546944e+06 -1.064504174164e-03 9.381441536121e-08 2.010585139005e-03 0.000000000000e+00 1.918357095672e+06 6.167674840686e+07  2.704791680960e-03
1.300000000000e+03 4.539703052077e+06 1.000000000000e+00 5.241293296211e+01 8.943605398773e-04 1.022045357185e-02 -3.503177891411e+07 2.750465533494e+03 3.571340300020e+07 -6.385565397676e+06 -1.067533225181e-03 9.382208596103e-08 2.006236635334e-03 0.000000000000e+00 1.901313770530e+06 6.163525573271e+07  2.703023661758e-03
1.400000000000e+03 4.542442562524e+06 1.000000000000e+00 5.214105380058e+01 9.001630193079e-04 1.015247614764e-02 -3.503016419172e+07 2.750631759397e+03 3.567744098816e+07 -6.300774820553e+06 -1.070622614071e-03 9.383443417101e-08 2.001751539165e-03 0.000000000000e+00 1.884499341373e+06 6.159185778897e+07  2.701177983456e-03
1.500000000000e+03 4.545082446453e+06 1.000000000000e+00 5.185280185965e+01 9.064098136382e-04 1.007909002784e-02 -3.502871132585e+07 2.750992595032e+03 3.563653265446e+07 -6.211786219142e+06 -1.073873941391e-03 9.386123910386e-08 1.996926795861e-03 0.000000000000e+00 1.867988296844e+06 6.154378001617e+07  2.699142372198e-03
1.600000000000e+03 4.547643486991e+06 1.000000000000e+00 5.154203532848e+01 9.132675742905e-04 9.998321028692e-03 -3.502746413288e+07 2.751863552809e+03 3.558897690388e+07 -6.116973435060e+06 -1.077349234775e-03 9.392593882447e-08 1.991638821716e-03 0.000000000000e+00 1.851820221353e+06 6.148936719546e+07  2.696849487240e-03
1.700000000000e+03 4.550130771773e+06 1.000000000000e+00 5.120496310407e+01 9.208388882652e-04 9.908947550143e-03 -3.502645197092e+07 2.752361073128e+03 3.553369209780e+07 -6.015342882443e+06 -1.081086489285e-03 9.396289747668e-08 1.985810536964e-03 0.000000000000e+00 1.836034251853e+06 6.142760265054e+07  2.694257681499e-03
1.800000000000e+03 4.552544175197e+06 1.000000000000e+00 5.083929706478e+01 9.291862780564e-04 9.810235129411e-03 -3.502569560339e+07 2.751821443455e+03 3.547001731463e+07 -5.906298224958e+06 -1.085108625770e-03 9.392281070097e-08 1.979395243454e-03 0.000000000000e+00 1.820658837905e+06 6.135790241106e+07  2.691342627477e-03
1.900000000000e+03 4.554883463306e+06 1.000000000000e+00 5.044375052885e+01 9.383430695051e-04 9.701763405326e-03 -3.502520155176e+07 2.751893242630e+03 3.539759723450e+07 -5.789497676890e+06 -1.089428581352e-03 9.392814435397e-08 1.972367048693e-03 0.000000000000e+00 1.805700664718e+06 6.127998777181e+07  2.688092161899e-03
2.000000000000e+03 4.557147803229e+06 1.000000000000e+00 5.001772135124e+01 9.483282862638e-04 9.583344195995e-03 -3.502498180120e+07 2.751681835709e+03 3.531622965861e+07 -5.664794742989e+06 -1.094052242447e-03 9.391243983986e-08 1.964713001186e-03 0.000000000000e+00 1.791182295192e+06 6.119375384858e+07  2.684501104005e-03