 TITLE = "Time curves in points"
 VARIABLES = "TIME"  "PRESSURE1"  "SATURATION1"  "TEMPERATURE1"  "DISPLACEMENT_X1"  "DISPLACEMENT_Y1"  "STRESS_XX"  "STRESS_XY"  "STRESS_YY"  "STRESS_ZZ"  "STRAIN_XX"  "STRAIN_XY"  "STRAIN_YY"  "STRAIN_PLS"  p_(1st_Invariant)  q_(2nd_Invariant)   Effective_Strain
 ZONE T="POINT=POINT12"
0.000000000000e+00 1.000000000000e+05 9.737398629779e-01 2.500000000000e+01 0.000000000000e+00 0.000000000000e+00 3.304572143556e+04 5.605493944878e+02 -4.446166165700e+06 1.775888667205e+05 0.000000000000e+00 0.000000000000e+00 0.000000000000e+00 0.000000000000e+00 1.411843859181e+06 4.553204604223e+06  0.000000000000e+00
1.000000000000e-03 1.349371324694e+05 9.738732786163e-01 2.500485102010e+01 3.100751550387e-06 6.277339162031e-05 -1.871247919502e+05 4.456844196958e+02 -4.420357261709e+06 1.129440138910e+05 -1.837665179446e-04 -8.227556228956e-07 4.529483524241e-05 0.000000000000e+00 1.498179346589e+06 4.390963452275e+06  2.101129699732e-04
2.000000000000e-03 1.587039335969e+05 9.739761399314e-01 2.502571714086e+01 3.673254091346e-06 6.219419836329e-05 -1.849480993689e+05 3.403362593015e+02 -4.416035186029e+06 1.113161282133e+05 -1.813022802442e-04 -1.205113131760e-06 4.595712282644e-05 0.000000000000e+00 1.496555719062e+06 4.386728909164e+06  2.081323185262e-04
3.000000000000e-03 1.749406480237e+05 9.740586587527e-01 2.507433594527e+01 4.278712501303e-06 6.172155403659e-05 -1.879895336116e+05 2.976373174687e+02 -4.420695758763e+06 1.005160554603e+05 -1.830478654303e-04 -1.359763554957e-06 4.668823574306e-05 0.000000000000e+00 1.502723078971e+06 4.384084526099e+06  2.103284126305e-04
4.000000000000e-03 1.860499874853e+05 9.741275031931e-01 2.515657108597e+01 4.898161452136e-06 6.121139334925e-05 -1.944602431590e+05 2.807820505542e+02 -4.435450299322e+06 7.978780955505e+04 -1.871935514859e-04 -1.420666968270e-06 4.743745213504e-05 0.000000000000e+00 1.516707577642e+06 4.384551533725e+06  2.148901524163e-04
1.000000000000e-02 2.024129106506e+05 9.744040863014e-01 2.619876091244e+01 8.404174110159e-06 5.841812795401e-05 -2.591404556092e+05 2.669916079966e+02 -4.676968102503e+06 -1.947982433652e+05 -2.234867571043e-04 -1.469247272628e-06 5.158054829389e-05 0.000000000000e+00 1.710302267159e+06 4.450347633152e+06  2.532605952251e-04
2.000000000000e-02 2.009420820042e+05 9.748046987947e-01 2.806247193986e+01 1.358515170623e-05 5.659994781411e-05 -3.663994117073e+05 2.598620979520e+02 -5.116503564995e+06 -6.874387523517e+05 -2.791323556077e-04 -1.494742089132e-06 5.813806391372e-05 0.000000000000e+00 2.056780576351e+06 4.597998001581e+06  3.122976527533e-04
3.000000000000e-02 1.910250440631e+05 9.752023033804e-01 2.971088041292e+01 1.835741275079e-05 5.695571846570e-05 -4.669108009044e+05 2.555879195490e+02 -5.501766793760e+06 -1.125136246372e+06 -3.317185531772e-04 -1.510526529086e-06 6.470483641819e-05 0.000000000000e+00 2.364604613679e+06 4.740144035055e+06  3.683674173557e-04
4.000000000000e-02 1.778581546801e+05 9.756055980516e-01 3.110941615500e+01 2.292735764640e-05 5.964001241176e-05 -5.628658771426e+05 2.506225110031e+02 -5.820466853432e+06 -1.498246406438e+06 -3.844156926572e-04 -1.529861694032e-06 7.137879389521e-05 0.000000000000e+00 2.627193045671e+06 4.857926241194e+06  4.246369118503e-04
5.000000000000e-02 1.637479270978e+05 9.760162346351e-01 3.229341252469e+01 2.730061505397e-05 6.332407581036e-05 -6.537210288648e+05 2.452489974029e+02 -6.084358636541e+06 -1.815933324984e+06 -4.356705258928e-04 -1.551422602010e-06 7.767247952669e-05 0.000000000000e+00 2.851337663463e+06 4.952878821876e+06  4.792584396196e-04
6.000000000000e-02 1.494258948361e+05 9.764364605871e-01 3.330569315258e+01 3.143000425767e-05 6.932526767027e-05 -7.376593485373e+05 2.406184459281e+02 -6.299618345542e+06 -2.086748799664e+06 -4.830146892533e-04 -1.570249942481e-06 8.382289828350e-05 0.000000000000e+00 3.041342164581e+06 5.025121908446e+06  5.299288221379e-04
7.000000000000e-02 1.357749870608e+05 9.768612744592e-01 3.418246247047e+01 3.533012798000e-05 7.534265800528e-05 -8.163431278230e+05 2.359254219625e+02 -6.482650509077e+06 -2.322424707327e+06 -5.271661143120e-04 -1.589537838102e-06 8.941550887040e-05 0.000000000000e+00 3.207139448076e+06 5.083443720475e+06  5.770993428929e-04
8.000000000000e-02 1.234585053864e+05 9.772914050891e-01 3.495181610614e+01 3.906333835929e-05 8.214512432298e-05 -8.911519542155e+05 2.306755719221e+02 -6.637325898613e+06 -2.529457447981e+06 -5.692884045569e-04 -1.611468440795e-06 9.508797044142e-05 0.000000000000e+00 3.352645100270e+06 5.127238214533e+06  6.223112397847e-04
9.000000000000e-02 1.133681070495e+05 9.777279512532e-01 3.563501316121e+01 4.267086426852e-05 8.833184260785e-05 -9.635788698886e+05 2.235056913388e+02 -6.773422328348e+06 -2.714999600708e+06 -6.101796332139e-04 -1.641504361772e-06 1.002163658513e-04 0.000000000000e+00 3.484000266315e+06 5.162003047466e+06  6.659734031779e-04
1.000000000000e-01 1.065002133066e+05 9.781766104707e-01 3.624818141010e+01 4.609097565184e-05 9.387527199561e-05 -1.032583830885e+06 2.208515637885e+02 -6.895308397835e+06 -2.882826261889e+06 -6.485995876030e-04 -1.651913825885e-06 1.049732275689e-04 0.000000000000e+00 3.603572830203e+06 5.191095721780e+06  7.069615138842e-04
2.000000000000e-01 1.288233450336e+05 9.818831375586e-01 3.976317113285e+01 6.867996614986e-05 1.887009438478e-04 -1.470491179989e+06 1.894680352833e+02 -7.417437160358e+06 -3.806496555325e+06 -8.355116048952e-04 -1.788273439642e-06 1.127619110460e-04 0.000000000000e+00 4.231474965224e+06 5.189507677781e+06  8.972281591280e-04
3.000000000000e-01 1.602312300801e+05 9.852101015785e-01 4.209349331099e+01 8.963850345786e-05 2.983763095539e-04 -1.875411017109e+06 1.461469519524e+02 -7.600014312214e+06 -4.407749304877e+06 -1.011101853376e-03 -1.987937208546e-06 1.226747638557e-04 0.000000000000e+00 4.627724878067e+06 4.968620336433e+06  1.077694108905e-03
4.000000000000e-01 1.921149592165e+05 9.880119235020e-01 4.379251978629e+01 1.081983194316e-04 4.038092748808e-04 -2.238941812024e+06 1.075039488481e+02 -7.650818041290e+06 -4.843917472846e+06 -1.157291248858e-03 -2.179576135728e-06 1.228564547506e-04 0.000000000000e+00 4.911225775387e+06 4.687909629294e+06  1.223360819531e-03
5.000000000000e-01 2.223034531660e+05 9.901792853826e-01 4.511244472643e+01 1.255755506545e-04 5.062366961263e-04 -2.597527196431e+06 7.166253468276e+01 -7.622747387034e+06 -5.187667902665e+06 -1.318355373496e-03 -2.369439068475e-06 1.240989797474e-04 0.000000000000e+00 5.135980828710e+06 4.352658898198e+06  1.384588331281e-03
6.000000000000e-01 2.502300358423e+05 9.919296612557e-01 4.618195153606e+01 1.415872881806e-04 6.061083084455e-04 -2.953749084284e+06 4.559593142182e+01 -7.542272077349e+06 -5.470570420708e+06 -1.505062760369e-03 -2.523596699324e-06 1.368068879195e-04 0.000000000000e+00 5.322197194114e+06 3.980005066829e+06  1.577926517688e-03
7.000000000000e-01 2.760379048834e+05 9.933607485649e-01 4.707675917790e+01 1.560578119639e-04 7.036070119591e-04 -3.294639407177e+06 3.829700112993e+01 -7.435864707947e+06 -5.709884725484e+06 -1.691901132085e-03 -2.599468821057e-06 1.464258190579e-04 0.000000000000e+00 5.480129613536e+06 3.602926855211e+06  1.769668963954e-03
8.000000000000e-01 2.999799997830e+05 9.944835302632e-01 4.784238104847e+01 1.685534717259e-04 7.988987651336e-04 -3.604493519254e+06 4.534762965086e+01 -7.322471812219e+06 -5.914199303135e+06 -1.863211314271e-03 -2.612219089028e-06 1.474672992299e-04 0.000000000000e+00 5.613721544869e+06 3.251256285440e+06  1.941155897255e-03
9.000000000000e-01 3.221762364192e+05 9.953957013209e-01 4.850921061954e+01 1.801299629674e-04 8.919501608732e-04 -3.912792840114e+06 6.331182282499e+01 -7.195619062343e+06 -6.096599698964e+06 -2.051207088318e-03 -2.575862421080e-06 1.539692215508e-04 0.000000000000e+00 5.735003867140e+06 2.894287821489e+06  2.132369504607e-03
1.000000000000e+00 3.427987573409e+05 9.961320752210e-01 4.909797408547e+01 1.906129589858e-04 9.828133421593e-04 -4.211847769825e+06 9.611402784733e+01 -7.060296575586e+06 -6.259663758991e+06 -2.248349290278e-03 -2.471579336169e-06 1.651794369136e-04 0.000000000000e+00 5.843936034801e+06 2.544427625908e+06  2.335328279565e-03
2.000000000000e+00 4.782567267200e+05 9.988221752037e-01 5.228561077473e+01 2.535447738504e-04 1.736079722458e-03 -6.751996325699e+06 4.968021021863e+02 -5.681169851521e+06 -7.260445075483e+06 -4.374770732143e-03 -9.014483029403e-07 3.354018304956e-04 0.000000000000e+00 6.564537084235e+06 1.396298890433e+06  4.551749322635e-03
3.000000000000e+00 5.822587995479e+05 9.997920353832e-01 5.432796100527e+01 2.995115437074e-04 2.378777826170e-03 -8.991839790399e+06 1.548956257718e+03 -4.387221425310e+06 -7.985944001069e+06 -6.436497414683e-03 3.661267889209e-06 5.128778133324e-04 0.000000000000e+00 7.121668405592e+06 4.193158427723e+06  6.707661258206e-03
4.000000000000e+00 6.688184904294e+05 1.000000000000e+00 5.581044508543e+01 3.361048378931e-04 2.939116467067e-03 -1.096681914483e+07 2.616793834616e+03 -3.221462492447e+06 -8.563077803583e+06 -8.338706873226e-03 8.353630959808e-06 6.792614888280e-04 0.000000000000e+00 7.583786480285e+06 6.866637362128e+06  8.698264210913e-03
5.000000000000e+00 7.447381124599e+05 1.000000000000e+00 5.699682313759e+01 3.666092659555e-04 3.436435412435e-03 -1.270840258526e+07 3.731763271546e+03 -2.185768884255e+06 -9.048907721237e+06 -1.005135238590e-02 1.326805097191e-05 8.288505849228e-04 0.000000000000e+00 7.981026396916e+06 9.252580205468e+06  1.049038967367e-02
6.000000000000e+00 8.135002017407e+05 1.000000000000e+00 5.803373604215e+01 3.940728826733e-04 3.885174985046e-03 -1.428681828885e+07 4.697476749635e+03 -1.260863587178e+06 -9.486890680466e+06 -1.162026651998e-02 1.753528281892e-05 9.655014454823e-04 0.000000000000e+00 8.344857518832e+06 1.141013705161e+07  1.213190395680e-02
7.000000000000e+00 8.773078091200e+05 1.000000000000e+00 5.888973999461e+01 4.177692758357e-04 4.292390426238e-03 -1.568450618306e+07 5.413202405368e+03 -4.195921198861e+05 -9.857250935498e+06 -1.301692756118e-02 2.069902781138e-05 1.086684608016e-03 0.000000000000e+00 8.653783079480e+06 1.334249011266e+07  1.359293444197e-02
8.000000000000e+00 9.368579986811e+05 1.000000000000e+00 5.971951478020e+01 4.389558832557e-04 4.667813575001e-03 -1.695346518566e+07 5.897510800657e+03 3.288997234885e+05 -1.020743182089e+07 -1.428905927873e-02 2.284161333707e-05 1.196819839175e-03 0.000000000000e+00 8.943999094354e+06 1.508647729107e+07  1.492355814289e-02
9.000000000000e+00 9.932402727675e+05 1.000000000000e+00 6.047163838602e+01 4.585438234102e-04 5.015927011760e-03 -1.812205338315e+07 6.318928759694e+03 1.017741051211e+06 -1.052796375567e+07 -1.546261835981e-02 2.470746175541e-05 1.298176146387e-03 0.000000000000e+00 9.210758695868e+06 1.669289470584e+07  1.615093995839e-02
1.000000000000e+01 1.046949716293e+06 1.000000000000e+00 6.114961432683e+01 4.769226661347e-04 5.340095327369e-03 -1.920964908077e+07 6.699507006866e+03 1.657478983412e+06 -1.082285820710e+07 -1.655763311113e-02 2.639156454137e-05 1.392273665518e-03 0.000000000000e+00 9.458342768151e+06 1.818700608257e+07  1.729590952481e-02
1.100000000000e+01 1.098279334915e+06 1.000000000000e+00 6.178708134755e+01 4.934798959607e-04 5.643936311710e-03 -2.020984869650e+07 6.709606082110e+03 2.247478982768e+06 -1.109607507506e+07 -1.756703486650e-02 2.643752118298e-05 1.479007185480e-03 0.000000000000e+00 9.686148262929e+06 1.956327095764e+07  1.835134991979e-02
1.200000000000e+01 1.147630380353e+06 1.000000000000e+00 6.236752245958e+01 5.086898143530e-04 5.929418834253e-03 -2.113871196717e+07 6.898876716790e+03 2.798260505027e+06 -1.134696536108e+07 -1.850638001778e-02 2.727620161669e-05 1.559295509607e-03 0.000000000000e+00 9.895805607739e+06 2.084399977335e+07  1.933330419466e-02
1.300000000000e+01 1.195264018703e+06 1.000000000000e+00 6.289298058676e+01 5.229113637144e-04 6.198134471328e-03 -2.200860227174e+07 7.039243232954e+03 3.317766889833e+06 -1.157767403348e+07 -1.938823386702e-02 2.789711062373e-05 1.634261046182e-03 0.000000000000e+00 1.008950313846e+07 2.204658359503e+07  2.025493006057e-02
1.400000000000e+01 1.241898008649e+06 1.000000000000e+00 6.336737619028e+01 5.361342176892e-04 6.451630287105e-03 -2.282212805843e+07 7.061643069002e+03 3.809427442804e+06 -1.178873898157e+07 -2.021481983564e-02 2.799559122986e-05 1.704337707214e-03 0.000000000000e+00 1.026714653240e+07 2.317626499179e+07  2.111868696102e-02
1.500000000000e+01 1.287086066045e+06 1.000000000000e+00 6.379459155144e+01 5.483546708882e-04 6.690835145570e-03 -2.358175035165e+07 7.028853468620e+03 4.274042036452e+06 -1.198142774732e+07 -2.098795262544e-02 2.785087874586e-05 1.769474135526e-03 0.000000000000e+00 1.042971202084e+07 2.423585410516e+07  2.192635766530e-02
1.600000000000e+01 1.330967366046e+06 1.000000000000e+00 6.417813460760e+01 5.599166467617e-04 6.916761198117e-03 -2.429750170759e+07 6.998896537119e+03 4.715430189161e+06 -1.215861271385e+07 -2.171817823879e-02 2.771735931066e-05 1.830328344045e-03 0.000000000000e+00 1.058022807743e+07 2.523723896396e+07  2.268883138961e-02
1.700000000000e+01 1.373681660743e+06 1.000000000000e+00 6.452110640142e+01 5.712502138911e-04 7.130300214810e-03 -2.498246522935e+07 6.919026434369e+03 5.137464312326e+06 -1.232408213619e+07 -2.241849846633e-02 2.736497110453e-05 1.888168697970e-03 0.000000000000e+00 1.072302768440e+07 2.619494903354e+07  2.341978667924e-02
1.800000000000e+01 1.415363601907e+06 1.000000000000e+00 6.482622665961e+01 5.824311720798e-04 7.332238396258e-03 -2.563936440628e+07 6.802218848743e+03 5.542314575477e+06 -1.247857313236e+07 -2.309137374665e-02 2.684791044241e-05 1.943148041279e-03 0.000000000000e+00 1.085854098772e+07 2.711324586320e+07  2.412176373972e-02
1.900000000000e+01 1.456105669480e+06 1.000000000000e+00 6.509588653669e+01 5.935206458153e-04 7.523264695190e-03 -2.627111968612e+07 6.654429387749e+03 5.931187729500e+06 -1.262312993378e+07 -2.373951867877e-02 2.619308181088e-05 1.995478327393e-03 0.000000000000e+00 1.098768729680e+07 2.799570678523e+07  2.479758928028e-02
2.000000000000e+01 1.495992375948e+06 1.000000000000e+00 6.533218991584e+01 6.038036483021e-04 7.704006003850e-03 -2.686254394439e+07 6.228418934185e+03 6.300503370895e+06 -1.275405881107e+07 -2.434721662322e-02 2.430354551671e-05 2.044472937150e-03 0.000000000000e+00 1.110536646152e+07 2.882632158895e+07  2.543119785533e-02
2.100000000000e+01 1.534950182382e+06 1.000000000000e+00 6.558585634315e+01 6.136167993560e-04 7.876723961885e-03 -2.742512443514e+07 6.037614176356e+03 6.645756835641e+06 -1.288550370493e+07 -2.492509581040e-02 2.345980497071e-05 2.090814549302e-03 0.000000000000e+00 1.122162376814e+07 2.961161831585e+07  2.603358044311e-02
2.200000000000e+01 1.573137018867e+06 1.000000000000e+00 6.582320177682e+01 6.233335349388e-04 8.041831326032e-03 -2.796894655157e+07 5.824205789384e+03 6.978352875836e+06 -1.301152367239e+07 -2.548396644029e-02 2.251474346656e-05 2.135471531571e-03 0.000000000000e+00 1.133403911604e+07 3.036966911572e+07  2.661605887012e-02
2.300000000000e+01 1.610620081282e+06 1.000000000000e+00 6.603970464469e+01 6.322121705131e-04 8.199612445549e-03 -2.847766330952e+07 5.505757928962e+03 7.295725253667e+06 -1.312656950055e+07 -2.600719864381e-02 2.110345338941e-05 2.177528888732e-03 0.000000000000e+00 1.143616918547e+07 3.108425417581e+07  2.716153117534e-02
2.400000000000e+01 1.647440265274e+06 1.000000000000e+00 6.623479066443e+01 6.406424448839e-04 8.350329880129e-03 -2.896070383062e+07 5.249902832053e+03 7.600994709116e+06 -1.323281434902e+07 -2.650452703349e-02 1.996973173765e-05 2.216995567975e-03 0.000000000000e+00 1.153084115684e+07 3.176611459477e+07  2.767971527946e-02
2.500000000000e+01 1.683655739377e+06 1.000000000000e+00 6.640880618128e+01 6.487842301184e-04 8.494244034930e-03 -2.942252960668e+07 5.012215428861e+03 7.895634457846e+06 -1.333137274970e+07 -2.698051786225e-02 1.891692485908e-05 2.254485317559e-03 0.000000000000e+00 1.161942263284e+07 3.242033839942e+07  2.817550892341e-02
2.600000000000e+01 1.719304090802e+06 1.000000000000e+00 6.656235442298e+01 6.567973692898e-04 8.631600917189e-03 -2.986754215731e+07 4.772920305730e+03 8.180553734296e+06 -1.342354858935e+07 -2.743955746466e-02 1.785635224478e-05 2.290219943369e-03 0.000000000000e+00 1.170351233746e+07 3.305147424348e+07  2.865341165614e-02
2.700000000000e+01 1.754414724687e+06 1.000000000000e+00 6.669611482876e+01 6.647294147250e-04 8.762638043749e-03 -3.029738181184e+07 4.536124959724e+03 8.456436286559e+06 -1.350982356743e+07 -2.788326900597e-02 1.680681983911e-05 2.324319806842e-03 0.000000000000e+00 1.178358969757e+07 3.366153015272e+07  2.911511007813e-02
2.800000000000e+01 1.789029777743e+06 1.000000000000e+00 6.681076908106e+01 6.726880712860e-04 8.887573022901e-03 -3.071511188164e+07 4.284486069412e+03 8.724661694387e+06 -1.359092815763e+07 -2.831480517523e-02 1.569059248918e-05 2.357418643006e-03 0.000000000000e+00 1.186045944829e+07 3.425433599215e+07  2.956410328332e-02
2.900000000000e+01 1.823176496980e+06 1.000000000000e+00 6.690697369537e+01 6.807228631131e-04 9.006617303374e-03 -3.112208890046e+07 4.016869610451e+03 8.985314421669e+06 -1.366740843754e+07 -2.873499496541e-02 1.450528767325e-05 2.389097768233e-03 0.000000000000e+00 1.193472763878e+07 3.483113277697e+07  3.000098443985e-02
3.000000000000e+01 1.856860334171e+06 1.000000000000e+00 6.698535614097e+01 6.888057939802e-04 9.119970259071e-03 -3.151831094399e+07 3.778009477866e+03 9.238954820772e+06 -1.373921521219e+07 -2.914457187912e-02 1.344510907676e-05 2.419823537701e-03 0.000000000000e+00 1.200619044514e+07 3.539242391645e+07  3.042674611773e-02
3.100000000000e+01 1.890005249946e+06 1.000000000000e+00 6.708519226011e+01 6.969924672402e-04 9.229180552350e-03 -3.190809513511e+07 3.504567146109e+03 9.479400304906e+06 -1.381655373933e+07 -2.954688356303e-02 1.223338869226e-05 2.450029252555e-03 0.000000000000e+00 1.208174952318e+07 3.593696006479e+07  3.084496960031e-02
3.200000000000e+01 1.922693061172e+06 1.000000000000e+00 6.717904474686e+01 7.054179597799e-04 9.334357370824e-03 -3.229438164963e+07 3.224695872231e+03 9.714728066965e+06 -1.389317222256e+07 -2.994518471273e-02 1.099248846324e-05 2.479778419806e-03 0.000000000000e+00 1.215760860174e+07 3.647398268652e+07  3.125893750310e-02
3.300000000000e+01 1.954949683954e+06 1.000000000000e+00 6.726264363772e+01 7.140934614625e-04 9.435558220992e-03 -3.267837844353e+07 2.943565991088e+03 9.946416476472e+06 -1.396827549379e+07 -3.034082271229e-02 9.747129152163e-06 2.509332492393e-03 0.000000000000e+00 1.223341248695e+07 3.700576737741e+07  3.167014003306e-02
3.400000000000e+01 1.986797246050e+06 1.000000000000e+00 6.733494671336e+01 7.229757547442e-04 9.532808239124e-03 -3.305881746795e+07 2.680609382291e+03 1.017393251565e+07 -1.404143099700e+07 -3.073237755000e-02 8.579674297336e-06 2.537965221260e-03 0.000000000000e+00 1.230877198310e+07 3.753075760289e+07  3.207675519065e-02
3.500000000000e+01 2.018278015524e+06 1.000000000000e+00 6.739570877738e+01 7.324278712000e-04 9.626175571781e-03 -3.344465261771e+07 2.389377371026e+03 1.039995070066e+07 -1.411480165563e+07 -3.112929624394e-02 7.287916334616e-06 2.566882139352e-03 0.000000000000e+00 1.238650119090e+07 3.805893781825e+07  3.248888059691e-02
3.600000000000e+01 2.049434059600e+06 1.000000000000e+00 6.744495446282e+01 7.428507233667e-04 9.715703264952e-03 -3.384445960060e+07 2.140033760880e+03 1.062665221917e+07 -1.419063109712e+07 -3.153961482587e-02 6.182481479056e-06 2.595920612700e-03 0.000000000000e+00 1.246947949285e+07 3.859954883163e+07  3.291444300157e-02
3.700000000000e+01 2.080353415110e+06 1.000000000000e+00 6.748283023127e+01 7.557218759043e-04 9.801449344230e-03 -3.429330581556e+07 2.393084165670e+03 1.086287108409e+07 -1.427810063038e+07 -3.199865058900e-02 7.302478462103e-06 2.627547994639e-03 0.000000000000e+00 1.256951178728e+07 3.919028734206e+07  3.339005537800e-02
3.800000000000e+01 2.113298548489e+06 1.000000000000e+00 6.750986996814e+01 8.168914562742e-04 9.883193385616e-03 -3.585875798659e+07 1.912199326956e+04 1.137517599327e+07 -1.465690250669e+07 -3.357359819722e-02 8.144018263732e-05 2.724586041388e-03 0.000000000000e+00 1.304682816667e+07 4.097703320115e+07  3.501576672761e-02
3.900000000000e+01 2.143157947788e+06 1.000000000000e+00 6.752535725930e+01 8.144990623769e-04 9.962078219454e-03 -3.592743712318e+07 -8.149240443559e+02 1.152088218123e+07 -1.463922464513e+07 -3.364607624585e-02 -6.920313447346e-06 2.734456255394e-03 0.000000000000e+00 1.301525986236e+07 4.116358942363e+07  3.509329800812e-02
4.000000000000e+01 2.172544101843e+06 1.000000000000e+00 6.752988574847e+01 8.092662968748e-04 1.003702118240e-02 -3.592698464433e+07 -8.148332836300e+02 1.164066173648e+07 -1.460408677861e+07 -3.365005073295e-02 -6.920148413543e-06 2.740912422857e-03 0.000000000000e+00 1.296346989549e+07 4.126823102706e+07  3.510086182687e-02
4.200000000000e+01 2.229827605392e+06 1.000000000000e+00 6.757085467195e+01 7.996518447863e-04 1.017736561389e-02 -3.592658201851e+07 -8.159662258169e+02 1.185823409151e+07 -1.454615664412e+07 -3.365727263679e-02 -6.924504751926e-06 2.753083317053e-03 0.000000000000e+00 1.287150152371e+07 4.145903456409e+07  3.511485282239e-02
4.400000000000e+01 2.285593809495e+06 1.000000000000e+00 6.759066828649e+01 7.908338004011e-04 1.030820590087e-02 -3.592578427758e+07 -8.150827951031e+02 1.206691686475e+07 -1.448702221791e+07 -3.366401891458e-02 -6.921226503187e-06 2.764484433866e-03 0.000000000000e+00 1.278196321025e+07 4.164151514043e+07  3.512794249094e-02
5.000000000000e+01 2.437116678573e+06 1.000000000000e+00 6.734086521760e+01 7.729362507595e-04 1.058190647445e-02 -3.591893511818e+07 -8.153236323844e+02 1.258155037479e+07 -1.428692296428e+07 -3.367942325277e-02 -6.922043760009e-06 2.788490980859e-03 0.000000000000e+00 1.254143590256e+07 4.208417699350e+07  3.515670838282e-02
6.500000000000e+01 2.768502507756e+06 1.000000000000e+00 6.648644605861e+01 7.497230156423e-04 1.104624416206e-02 -3.589580792881e+07 -8.159953545545e+02 1.360994853502e+07 -1.382105563045e+07 -3.370470259533e-02 -6.924733946665e-06 2.831379865869e-03 0.000000000000e+00 1.203563834141e+07 4.295680740937e+07  3.520588941007e-02
8.000000000000e+01 3.023556374630e+06 1.000000000000e+00 6.542969247624e+01 7.429699717843e-04 1.126660946054e-02 -3.587135584880e+07 -8.155220133435e+02 1.429418109939e+07 -1.342193753811e+07 -3.371830120669e-02 -6.923228739556e-06 2.853137965051e-03 0.000000000000e+00 1.166637076251e+07 4.352436510800e+07  3.523162416915e-02
1.000000000000e+02 3.324236305531e+06 1.000000000000e+00 6.427463271857e+01 7.412059345395e-04 1.145109546950e-02 -3.584407829563e+07 -8.156898620928e+02 1.495724724211e+07 -1.301078985730e+07 -3.372934138994e-02 -6.923758063789e-06 2.872343555318e-03 0.000000000000e+00 1.129920697027e+07 4.407008532148e+07  3.525338605411e-02
1.860000000000e+02 3.922717201764e+06 1.000000000000e+00 6.153628170521e+01 7.545432879751e-04 1.167042192712e-02 -3.577835004198e+07 -8.154523959632e+02 1.623981065117e+07 -1.212202483685e+07 -3.374337470980e-02 -6.923002490821e-06 2.902303108259e-03 0.000000000000e+00 1.055352140922e+07 4.511044491217e+07  3.528416564446e-02
2.720000000000e+02 4.213038211969e+06 1.000000000000e+00 5.948547595359e+01 7.804255122133e-04 1.150233248386e-02 -3.573709388571e+07 -8.155808523371e+02 1.657096210164e+07 -1.164744443498e+07 -3.373886953036e-02 -6.923416018439e-06 2.891421890689e-03 0.000000000000e+00 1.027119207302e+07 4.534711900051e+07  3.527357491756e-02
3.580000000000e+02 4.354403691727e+06 1.000000000000e+00 5.805270967561e+01 8.023626379769e-04 1.132643997420e-02 -3.570883421955e+07 -8.156549675221e+02 1.670644563654e+07 -1.134472529072e+07 -3.373271307374e-02 -6.923745565163e-06 2.878709767942e-03 0.000000000000e+00 1.011570462457e+07 4.543038388936e+07  3.526031389087e-02
4.440000000000e+02 4.426532453839e+06 1.000000000000e+00 5.696357475614e+01 8.205197542761e-04 1.116185083551e-02 -3.568810428248e+07 -8.156373118137e+02 1.675070710309e+07 -1.113243799230e+07 -3.372664071936e-02 -6.923796860251e-06 2.865937863672e-03 0.000000000000e+00 1.002327839057e+07 4.544380854907e+07  3.524710618646e-02
5.300000000000e+02 4.465496889446e+06 1.000000000000e+00 5.612699021294e+01 8.352445402426e-04 1.101920400639e-02 -3.567257828259e+07 -8.154912621008e+02 1.675376461527e+07 -1.097876924421e+07 -3.372124386483e-02 -6.923460317678e-06 2.854489813427e-03 0.000000000000e+00 9.965860970511e+06 4.542795985253e+07  3.523531595995e-02
6.160000000000e+02 4.488012314786e+06 1.000000000000e+00 5.549026067416e+01 8.469128755399e-04 1.090098023945e-02 -3.566100007511e+07 -8.154185661725e+02 1.673757283889e+07 -1.086743352331e+07 -3.371669907030e-02 -6.923210434652e-06 2.844796482249e-03 0.000000000000e+00 9.930286919845e+06 4.540026302803e+07  3.522535952866e-02
7.020000000000e+02 4.501822576458e+06 1.000000000000e+00 5.502246718042e+01 8.556680316127e-04 1.081029293582e-02 -3.565259468441e+07 -8.148406338564e+02 1.671808264404e+07 -1.078794411636e+07 -3.371318409753e-02 -6.921371067689e-06 2.837273174582e-03 0.000000000000e+00 9.907485385577e+06 4.537356170635e+07  3.521764554377e-02
7.880000000000e+02 4.511441113274e+06 1.000000000000e+00 5.465670951073e+01 8.629298191191e-04 1.072857146755e-02 -3.564636700301e+07 -8.155235722877e+02 1.668073043335e+07 -1.073253057056e+07 -3.370997969745e-02 -6.923844961550e-06 2.830223687457e-03 0.000000000000e+00 9.899389046740e+06 4.533382431891e+07  3.521050729805e-02
8.740000000000e+02 4.519827167133e+06 1.000000000000e+00 5.406599893403e+01 8.739823507149e-04 1.061304415291e-02 -3.563573891054e+07 -8.151811998322e+02 1.665680879500e+07 -1.063194341194e+07 -3.370555174576e-02 -6.922741242989e-06 2.820759802916e-03 0.000000000000e+00 9.870291175823e+06 4.530108351834e+07  3.520079990035e-02
9.370000000000e+02 4.525201002277e+06 1.000000000000e+00 5.365779407733e+01 8.824805656138e-04 1.051808819547e-02 -3.562864312464e+07 -8.151529944347e+02 1.661370485401e+07 -1.057046377270e+07 -3.370176044068e-02 -6.922900885499e-06 2.812808447269e-03 0.000000000000e+00 9.861800681112e+06 4.525568639778e+07  3.519257433603e-02
1.000000000000e+03 4.529391016052e+06 1.000000000000e+00 5.333501593124e+01 8.896525972323e-04 1.043858790352e-02 -3.562293320998e+07 -8.152015774664e+02 1.657509508177e+07 -1.052316176017e+07 -3.369848119139e-02 -6.922895844904e-06 2.806273137401e-03 0.000000000000e+00 9.856999962794e+06 4.521586122279e+07  3.518565176100e-02
1.100000000000e+03 4.533536316160e+06 1.000000000000e+00 5.301050912482e+01 8.971549091391e-04 1.035541503551e-02 -3.561715533423e+07 -8.147428975985e+02 1.653225726568e+07 -1.047679179463e+07 -3.369499056100e-02 -6.921459833545e-06 2.799485243678e-03 0.000000000000e+00 9.853896621063e+06 4.517238010413e+07  3.517837800576e-02
1.200000000000e+03 4.536797682874e+06 1.000000000000e+00 5.273157995108e+01 9.033797799821e-04 1.028629639595e-02 -3.561221771250e+07 -8.145119976425e+02 1.649849739329e+07 -1.043603242476e+07 -3.369213812402e-02 -6.920638918768e-06 2.793816392378e-03 0.000000000000e+00 9.849917581324e+06 4.513776597806e+07  3.517236660894e-02
1.300000000000e+03 4.539703052077e+06 1.000000000000e+00 5.246375662071e+01 9.092911381715e-04 1.022050755595e-02 -3.560749009598e+07 -8.149229372469e+02 1.646678315424e+07 -1.039669189667e+07 -3.368944070058e-02 -6.922360633570e-06 2.788411574751e-03 0.000000000000e+00 9.845799612803e+06 4.510521353558e+07  3.516665784492e-02
1.400000000000e+03 4.542442562524e+06 1.000000000000e+00 5.218963067332e+01 9.153778334609e-04 1.015253093980e-02 -3.560265578649e+07 -8.152216608480e+02 1.643344837651e+07 -1.035668832261e+07 -3.368665173355e-02 -6.923358658387e-06 2.782832940430e-03 0.000000000000e+00 9.841965244195e+06 4.507120165913e+07  3.516076125580e-02
1.500000000000e+03 4.545082446453e+06 1.000000000000e+00 5.189913200929e+01 9.219219626213e-04 1.007914488779e-02 -3.559753319715e+07 -8.151894414817e+02 1.639631872185e+07 -1.031483404483e+07 -3.368362834354e-02 -6.923273424869e-06 2.776824422547e-03 0.000000000000e+00 9.838682840044e+06 4.503366074345e+07  3.515439144515e-02
1.600000000000e+03 4.547643486991e+06 1.000000000000e+00 5.158611879312e+01 9.290957928999e-04 9.998375815922e-03 -3.559201196486e+07 -8.151413913011e+02 1.635404971158e+07 -1.027041033379e+07 -3.368028312224e-02 -6.923192730119e-06 2.770228880884e-03 0.000000000000e+00 9.836124195690e+06 4.499132532805e+07  3.514737367230e-02
1.700000000000e+03 4.550130771774e+06 1.000000000000e+00 5.124679990710e+01 9.370052626509e-04 9.909002876395e-03 -3.558602460972e+07 -8.151713613767e+02 1.630579110120e+07 -1.022297987053e+07 -3.367656206074e-02 -6.923395695549e-06 2.762948264485e-03 0.000000000000e+00 9.834404459682e+06 4.494341035945e+07  3.513959956862e-02
1.800000000000e+03 4.552544175197e+06 1.000000000000e+00 5.087888722012e+01 9.457145657892e-04 9.810289946519e-03 -3.557953006629e+07 -8.143552864353e+02 1.625103977752e+07 -1.017227557974e+07 -3.367243256850e-02 -6.920514836296e-06 2.754923913272e-03 0.000000000000e+00 9.833588622835e+06 4.488946507437e+07  3.513100417337e-02
1.900000000000e+03 4.554883463306e+06 1.000000000000e+00 5.048109404415e+01 9.552598796462e-04 9.701817770552e-03 -3.557250572178e+07 -8.147493047915e+02 1.618949009129e+07 -1.011815426186e+07 -3.366787601615e-02 -6.922095597769e-06 2.746121651446e-03 0.000000000000e+00 9.833723297449e+06 4.482923362156e+07  3.512155017359e-02
2.000000000000e+03 4.557147803229e+06 1.000000000000e+00 5.005281822980e+01 9.656581325591e-04 9.583398750715e-03 -3.556494059848e+07 -8.150402782102e+02 1.612101799116e+07 -1.006054306863e+07 -3.366288392491e-02 -6.923126757054e-06 2.736526475526e-03 0.000000000000e+00 9.834821891983e+06 4.476263370382e+07  3.511122111499e-02