 TITLE = "Time curves in points"
 VARIABLES = "TIME"  "PRESSURE1"  "SATURATION1"  "TEMPERATURE1"  "DISPLACEMENT_X1"  "DISPLACEMENT_Y1"  "STRESS_XX"  "STRESS_XY"  "STRESS_YY"  "STRESS_ZZ"  "STRAIN_XX"  "STRAIN_XY"  "STRAIN_YY"  "STRAIN_PLS"  p_(1st_Invariant)  q_(2nd_Invariant)   Effective_Strain
 ZONE T="POINT=POINT15"
0.000000000000e+00 1.000000000000e+05 1.000000000000e+00 2.500000000000e+01 0.000000000000e+00 0.000000000000e+00 -3.444049899891e+07 -5.858766693045e+04 -1.446208944789e+07 -1.168309508854e+07 0.000000000000e+00 0.000000000000e+00 0.000000000000e+00 0.000000000000e+00 2.019522784511e+07 2.150325191297e+07  0.000000000000e+00
1.000000000000e-03 1.960039119575e+05 1.000000000000e+00 2.500000003922e+01 0.000000000000e+00 -4.686931843295e-04 -3.837792198474e+07 1.385107738637e+05 -9.980258067438e+06 -1.151977257874e+07 -1.523134041233e-04 1.464159845900e-05 1.604017580529e-04 0.000000000000e+00 1.995931754364e+07 2.766109833152e+07  2.720341229971e-04
2.000000000000e-03 2.110301634482e+05 1.000000000000e+00 2.499999991814e+01 0.000000000000e+00 -4.687638925969e-04 -3.837078455393e+07 1.384070802312e+05 -9.978350025578e+06 -1.151705890700e+07 -1.521490930722e-04 1.463389550343e-05 1.603718346576e-04 0.000000000000e+00 1.995539782884e+07 2.765624236686e+07  2.718664263282e-04
3.000000000000e-03 2.214048532335e+05 1.000000000000e+00 2.499999996345e+01 0.000000000000e+00 -4.687682200175e-04 -3.836490989772e+07 1.382846971316e+05 -9.978494272069e+06 -1.151533977270e+07 -1.519947451157e-04 1.462480418746e-05 1.603026233710e-04 0.000000000000e+00 1.995291464750e+07 2.765108169682e+07  2.716728633405e-04
4.000000000000e-03 2.285516429807e+05 1.000000000000e+00 2.500000020706e+01 0.000000000000e+00 -4.688357833211e-04 -3.835981650715e+07 1.381387546632e+05 -9.980658355350e+06 -1.151446091216e+07 -1.518382054288e-04 1.461396274696e-05 1.601895997434e-04 0.000000000000e+00 1.995164525822e+07 2.764522362546e+07  2.714390420863e-04
1.000000000000e-02 2.383748876322e+05 1.000000000000e+00 2.500562013607e+01 0.000000000000e+00 -4.668451761997e-04 -3.832241965537e+07 1.361841400809e+05 -1.003099424199e+07 -1.152011488325e+07 -1.502391748650e-04 1.446876280656e-05 1.585299857374e-04 0.000000000000e+00 1.995784292687e+07 2.757804425647e+07  2.686056879182e-04
2.000000000000e-02 2.339019572337e+05 1.000000000000e+00 2.506208476331e+01 0.000000000000e+00 -4.556464954932e-04 -3.824930652124e+07 1.315716681426e+05 -1.015549235179e+07 -1.155398299352e+07 -1.462655857872e-04 1.412612203400e-05 1.551637286119e-04 0.000000000000e+00 1.998626062218e+07 2.742227502903e+07  2.622273057710e-04
3.000000000000e-02 2.226011893648e+05 1.000000000000e+00 2.517761121051e+01 0.000000000000e+00 -4.396294945128e-04 -3.818672819345e+07 1.268513949705e+05 -1.029582955431e+07 -1.161558743754e+07 -1.416530828342e-04 1.377547316978e-05 1.522393690104e-04 0.000000000000e+00 2.003271506177e+07 2.725588061775e+07  2.556890460801e-04
4.000000000000e-02 2.085792893110e+05 1.000000000000e+00 2.534734615133e+01 0.000000000000e+00 -4.200533254767e-04 -3.814304678635e+07 1.225622644598e+05 -1.043818803541e+07 -1.170194051539e+07 -1.368232305362e-04 1.345685204613e-05 1.501591683179e-04 0.000000000000e+00 2.009439177905e+07 2.709592680297e+07  2.497136266790e-04
5.000000000000e-02 1.938518400507e+05 1.000000000000e+00 2.555910063164e+01 0.000000000000e+00 -3.994152268324e-04 -3.812055447677e+07 1.188862884346e+05 -1.057805692122e+07 -1.180842610778e+07 -1.320326227489e-04 1.318377954141e-05 1.489192174198e-04 0.000000000000e+00 2.016901250192e+07 2.694917329842e+07  2.445264357273e-04
6.000000000000e-02 1.789834898879e+05 1.000000000000e+00 2.579984334791e+01 0.000000000000e+00 -3.764964728150e-04 -3.811454335283e+07 1.157603062543e+05 -1.070882716227e+07 -1.192730152810e+07 -1.273939796762e-04 1.295156372229e-05 1.484774097928e-04 0.000000000000e+00 2.025022401440e+07 2.681799765806e+07  2.401939308363e-04
7.000000000000e-02 1.648571695325e+05 1.000000000000e+00 2.605851251381e+01 0.000000000000e+00 -3.543327827639e-04 -3.812394133552e+07 1.131451901961e+05 -1.083388631121e+07 -1.205550995541e+07 -1.229810203044e-04 1.275729795797e-05 1.485943829892e-04 0.000000000000e+00 2.033777920071e+07 2.670093063154e+07  2.365737872126e-04
8.000000000000e-02 1.520598724209e+05 1.000000000000e+00 2.632667934489e+01 0.000000000000e+00 -3.320115514540e-04 -3.814390833648e+07 1.109203919412e+05 -1.095131610341e+07 -1.218812941334e+07 -1.187967861885e-04 1.259202723046e-05 1.491585705734e-04 0.000000000000e+00 2.042778461774e+07 2.659645708571e+07  2.335726693133e-04
9.000000000000e-02 1.415311319150e+05 1.000000000000e+00 2.659830396968e+01 0.000000000000e+00 -3.112614279472e-04 -3.817308215787e+07 1.090342754658e+05 -1.106405343432e+07 -1.232353499345e+07 -1.148510351502e-04 1.245191572086e-05 1.500005341153e-04 0.000000000000e+00 2.052022352855e+07 2.650241641414e+07  2.310493188510e-04
1.000000000000e-01 1.342880976520e+05 1.000000000000e+00 2.686923310750e+01 0.000000000000e+00 -2.921009198721e-04 -3.820926699274e+07 1.074288033577e+05 -1.117220172249e+07 -1.245964070407e+07 -1.111396883370e-04 1.233265207855e-05 1.510389526633e-04 0.000000000000e+00 2.061370313977e+07 2.641754054840e+07  2.289268455050e-04
2.000000000000e-01 1.519776802304e+05 1.000000000000e+00 2.902104310329e+01 0.000000000000e+00 -9.456334533201e-05 -3.859674723705e+07 9.912328043515e+04 -1.181855027007e+07 -1.351290805210e+07 -8.641045305577e-05 1.171567037573e-05 1.661530795369e-04 0.000000000000e+00 2.130940185307e+07 2.597306895517e+07  2.232548900100e-04
3.000000000000e-01 1.790572852396e+05 1.000000000000e+00 3.070768399391e+01 0.000000000000e+00 9.855180559472e-05 -3.892042322599e+07 9.313451627818e+04 -1.224949945723e+07 -1.432421242128e+07 -6.829854178958e-05 1.127079075264e-05 1.802805577267e-04 0.000000000000e+00 2.183137836816e+07 2.569696712397e+07  2.232929951502e-04
4.000000000000e-01 2.066914115448e+05 1.000000000000e+00 3.205934977555e+01 0.000000000000e+00 2.721472639685e-04 -3.919905409912e+07 8.840763178076e+04 -1.257464072641e+07 -1.497523728897e+07 -5.446676484889e-05 1.091965076140e-05 1.923848056712e-04 0.000000000000e+00 2.224964403817e+07 2.550943401572e+07  2.254214635200e-04
5.000000000000e-01 2.329672035767e+05 1.000000000000e+00 3.317184845531e+01 0.000000000000e+00 4.327582192515e-04 -3.943758517753e+07 8.429336509391e+04 -1.283095361099e+07 -1.551103527051e+07 -4.342542273263e-05 1.061401952181e-05 2.027656807014e-04 0.000000000000e+00 2.259319135301e+07 2.537339259639e+07  2.283480813170e-04
6.000000000000e-01 2.574499089701e+05 1.000000000000e+00 3.410964206560e+01 0.000000000000e+00 5.837457578455e-04 -3.964513230003e+07 8.053633659908e+04 -1.303969187046e+07 -1.596277768817e+07 -3.435531176945e-05 1.033492597648e-05 2.117915494338e-04 0.000000000000e+00 2.288253395289e+07 2.527139418116e+07  2.315870131378e-04
7.000000000000e-01 2.802222965386e+05 1.000000000000e+00 3.491618489167e+01 0.000000000000e+00 7.269630813430e-04 -3.982999640114e+07 7.707209891664e+04 -1.321289579819e+07 -1.635151901168e+07 -2.678272922344e-05 1.007758260578e-05 2.197972241342e-04 0.000000000000e+00 2.313147040367e+07 2.519519340432e+07  2.349884611493e-04
8.000000000000e-01 3.015584664199e+05 1.000000000000e+00 3.562141889441e+01 0.000000000000e+00 8.635472400081e-04 -3.999925325024e+07 7.392549760729e+04 -1.335711160566e+07 -1.669168428175e+07 -2.043470215844e-05 9.843835079947e-06 2.270753470311e-04 0.000000000000e+00 2.334934971255e+07 2.514158554505e+07  2.385617543382e-04
9.000000000000e-01 3.214760045040e+05 1.000000000000e+00 3.624655662569e+01 0.000000000000e+00 9.945393274284e-04 -4.015479652862e+07 7.096508488897e+04 -1.348072355980e+07 -1.699369867433e+07 -1.499434648846e-05 9.623918706586e-06 2.337017233156e-04 0.000000000000e+00 2.354307292092e+07 2.510292645267e+07  2.421226754261e-04
1.000000000000e+00 3.401226122245e+05 1.000000000000e+00 3.680707518524e+01 0.000000000000e+00 1.120649132408e-03 -4.029954645956e+07 6.812865872265e+04 -1.358866791331e+07 -1.726528483455e+07 -1.028328654363e-05 9.413212762802e-06 2.397798475649e-04 0.000000000000e+00 2.371783306914e+07 2.507582104729e+07  2.456250636312e-04
2.000000000000e+00 4.671720763694e+05 1.000000000000e+00 4.007010834523e+01 0.000000000000e+00 2.119623938428e-03 -4.133418049297e+07 4.527543713204e+04 -1.415117444263e+07 -1.888573490519e+07 1.147559483899e-05 7.715544873214e-06 2.790748933854e-04 0.000000000000e+00 2.479036328026e+07 2.515230495606e+07  2.738439772696e-04
3.000000000000e+00 5.669204485162e+05 1.000000000000e+00 4.231089734745e+01 0.000000000000e+00 2.954824219380e-03 -4.215218345179e+07 2.566577669504e+04 -1.450842008032e+07 -2.002289843888e+07 2.333013047730e-05 6.258827240751e-06 3.080432723798e-04 0.000000000000e+00 2.556116732366e+07 2.534064257748e+07  2.972638250184e-04
4.000000000000e+00 6.510622430743e+05 1.000000000000e+00 4.402956206316e+01 0.000000000000e+00 3.674922686430e-03 -4.283508999915e+07 8.621456691488e+03 -1.476758793177e+07 -2.090773517288e+07 3.083039455248e-05 4.992677754773e-06 3.312824023032e-04 0.000000000000e+00 2.617013770126e+07 2.555675464627e+07  3.171115838727e-04
5.000000000000e+00 7.254035437310e+05 1.000000000000e+00 4.544864994937e+01 0.000000000000e+00 4.309483786412e-03 -4.342531842649e+07 -6.304381575668e+03 -1.497323059551e+07 -2.164394643202e+07 3.625261401924e-05 3.883901197784e-06 3.509892358465e-04 0.000000000000e+00 2.668083181801e+07 2.577254504454e+07  3.344079432023e-04
6.000000000000e+00 7.929929650988e+05 1.000000000000e+00 4.668777858518e+01 0.000000000000e+00 4.879962791293e-03 -4.394661639231e+07 -1.972147502208e+04 -1.515319222915e+07 -2.228872518962e+07 4.083904342817e-05 2.887202827479e-06 3.682538718795e-04 0.000000000000e+00 2.712951127036e+07 2.597155839218e+07  3.496635719897e-04
7.000000000000e+00 8.558563136304e+05 1.000000000000e+00 4.776451332755e+01 0.000000000000e+00 5.394781744110e-03 -4.441048323229e+07 -3.163004923211e+04 -1.530304401337e+07 -2.285048279421e+07 4.447498611351e-05 2.002565886163e-06 3.835532309215e-04 0.000000000000e+00 2.752133667996e+07 2.616339496017e+07  3.633794319049e-04
8.000000000000e+00 9.146399701799e+05 1.000000000000e+00 4.876058458216e+01 0.000000000000e+00 5.868831460661e-03 -4.483559066418e+07 -4.252794722844e+04 -1.544402483177e+07 -2.336954846243e+07 4.796486346283e-05 1.193007749293e-06 3.975963824863e-04 0.000000000000e+00 2.788305465279e+07 2.633894347223e+07  3.759217007522e-04
9.000000000000e+00 9.703372484239e+05 1.000000000000e+00 4.967363714009e+01 0.000000000000e+00 6.307281561031e-03 -4.522592049587e+07 -5.247237111813e+04 -1.557129322669e+07 -2.384498744474e+07 5.112606048604e-05 4.542791174867e-07 4.105284328753e-04 0.000000000000e+00 2.821406705577e+07 2.650482741619e+07  3.875040462731e-04
1.000000000000e+01 1.023443027822e+06 1.000000000000e+00 5.051032884249e+01 0.000000000000e+00 6.714654412492e-03 -4.558404328420e+07 -6.165519220039e+04 -1.568673908146e+07 -2.428048647096e+07 5.400003503613e-05 -2.278733057669e-07 4.224161221004e-04 0.000000000000e+00 2.851708961220e+07 2.666051044014e+07  3.981721416420e-04
1.100000000000e+01 1.074252378356e+06 1.000000000000e+00 5.129075261320e+01 0.000000000000e+00 7.095806851895e-03 -4.591819093383e+07 -7.014154767804e+04 -1.579270603951e+07 -2.468620408157e+07 5.665834787294e-05 -8.582882841063e-07 4.335497177671e-04 0.000000000000e+00 2.879903368497e+07 2.680919555168e+07  4.081832007892e-04
1.200000000000e+01 1.123145537297e+06 1.000000000000e+00 5.201381134970e+01 0.000000000000e+00 7.453045359374e-03 -4.622988076558e+07 -7.796157484753e+04 -1.588729062807e+07 -2.506169024398e+07 5.902792586860e-05 -1.439204588125e-06 4.439832047958e-04 0.000000000000e+00 2.905962054588e+07 2.695339628477e+07  4.176172750295e-04
1.300000000000e+01 1.170375194811e+06 1.000000000000e+00 5.268259098611e+01 0.000000000000e+00 7.788605097271e-03 -4.651989477022e+07 -8.525808198476e+04 -1.597256007200e+07 -2.540888621194e+07 6.115182736308e-05 -1.981230832606e-06 4.537119042596e-04 0.000000000000e+00 2.930044701805e+07 2.709153192583e+07  4.264510544502e-04
1.400000000000e+01 1.216652637515e+06 1.000000000000e+00 5.330105528490e+01 0.000000000000e+00 8.104457061538e-03 -4.678998024372e+07 -9.206784339905e+04 -1.604832553686e+07 -2.572964725106e+07 6.303406265756e-05 -2.487098823382e-06 4.628117398747e-04 0.000000000000e+00 2.952265101055e+07 2.722467455212e+07  4.347570038455e-04
1.500000000000e+01 1.261522918597e+06 1.000000000000e+00 5.387297891050e+01 0.000000000000e+00 8.401796523859e-03 -4.704208135285e+07 -9.840160855647e+04 -1.611514423823e+07 -2.602604454282e+07 6.467934944151e-05 -2.957607092218e-06 4.713389446612e-04 0.000000000000e+00 2.972775671130e+07 2.735354898911e+07  4.425880308034e-04
1.600000000000e+01 1.305126560981e+06 1.000000000000e+00 5.440179052023e+01 0.000000000000e+00 8.682088290062e-03 -4.727666920190e+07 -1.043447694054e+05 -1.617470558748e+07 -2.629992560514e+07 6.613881164829e-05 -3.399099040993e-06 4.792993911462e-04 0.000000000000e+00 2.991710013151e+07 2.747672942681e+07  4.499295702975e-04
1.700000000000e+01 1.347593761466e+06 1.000000000000e+00 5.489050806219e+01 0.000000000000e+00 8.946614330659e-03 -4.749400067179e+07 -1.099689969536e+05 -1.622845231745e+07 -2.655285608177e+07 6.746106047021e-05 -3.816898801723e-06 4.866976445936e-04 0.000000000000e+00 3.009176969034e+07 2.759286069627e+07  4.567670728604e-04
1.800000000000e+01 1.389052735390e+06 1.000000000000e+00 5.534178435914e+01 0.000000000000e+00 9.196431796942e-03 -4.769498042185e+07 -1.153108293812e+05 -1.627703282731e+07 -2.678622994697e+07 6.866427046109e-05 -4.213720639197e-06 4.935613977921e-04 0.000000000000e+00 3.025274773204e+07 2.770186168020e+07  4.631207925004e-04
1.900000000000e+01 1.429591500330e+06 1.000000000000e+00 5.575796323472e+01 0.000000000000e+00 9.432430881409e-03 -4.788056809665e+07 -1.203875391966e+05 -1.632071393758e+07 -2.700123508386e+07 6.975691905313e-05 -4.590847654059e-06 4.999248616381e-04 0.000000000000e+00 3.040083903936e+07 2.780405934854e+07  4.690212197548e-04
2.000000000000e+01 1.469293608682e+06 1.000000000000e+00 5.614111083334e+01 0.000000000000e+00 9.655153407125e-03 -4.805342460801e+07 -1.251170819589e+05 -1.635752131568e+07 -2.719880035589e+07 7.067467302086e-05 -4.942185116401e-06 5.058958691267e-04 0.000000000000e+00 3.053658209320e+07 2.790316196371e+07  4.745996104656e-04
2.100000000000e+01 1.508082098440e+06 1.000000000000e+00 5.651572149916e+01 0.000000000000e+00 9.868353549639e-03 -4.821840577321e+07 -1.296746536459e+05 -1.639538841936e+07 -2.739124375309e+07 7.169469878054e-05 -5.280747584574e-06 5.116372743146e-04 0.000000000000e+00 3.066834598189e+07 2.799539996974e+07  4.799112510866e-04
2.200000000000e+01 1.546103877700e+06 1.000000000000e+00 5.687205991380e+01 0.000000000000e+00 1.007213705829e-02 -4.837410951574e+07 -1.340490656187e+05 -1.643122984454e+07 -2.757388732659e+07 7.269532107373e-05 -5.605703902557e-06 5.170899255378e-04 0.000000000000e+00 3.079307556229e+07 2.808258744740e+07  4.849441765672e-04
2.300000000000e+01 1.583429864235e+06 1.000000000000e+00 5.720737052371e+01 0.000000000000e+00 1.026649439650e-02 -4.852205870461e+07 -1.381527764945e+05 -1.646209168744e+07 -2.774534897722e+07 7.356864108199e-05 -5.910550996185e-06 5.223122041108e-04 0.000000000000e+00 3.090983312309e+07 2.816859567359e+07  4.897972930469e-04
2.400000000000e+01 1.620108796691e+06 1.000000000000e+00 5.752132531308e+01 0.000000000000e+00 1.045189160471e-02 -4.866130153405e+07 -1.420569651551e+05 -1.648924665784e+07 -2.790561224079e+07 7.434940006416e-05 -6.200576439543e-06 5.272562264287e-04 0.000000000000e+00 3.101872014423e+07 2.825149763471e+07  4.944098693667e-04
2.500000000000e+01 1.656192917748e+06 1.000000000000e+00 5.781431139797e+01 0.000000000000e+00 1.062868435179e-02 -4.879178102152e+07 -1.457817120263e+05 -1.651302417174e+07 -2.805489488398e+07 7.504780299075e-05 -6.477271921404e-06 5.319178455166e-04 0.000000000000e+00 3.111990002575e+07 2.833089200707e+07  4.987738631783e-04
2.600000000000e+01 1.691716213409e+06 1.000000000000e+00 5.808694277237e+01 0.000000000000e+00 1.079720814411e-02 -4.891348910429e+07 -1.493416714390e+05 -1.653370226168e+07 -2.819349294651e+07 7.567514509606e-05 -6.741726049210e-06 5.362977302125e-04 0.000000000000e+00 3.121356143750e+07 2.840645501620e+07  5.028856003886e-04
2.700000000000e+01 1.726707846541e+06 1.000000000000e+00 5.833989622005e+01 0.000000000000e+00 1.095778036168e-02 -4.902660274249e+07 -1.527501547885e+05 -1.655153422504e+07 -2.832177239743e+07 7.623844671165e-05 -6.994927669455e-06 5.404000654650e-04 0.000000000000e+00 3.129996978832e+07 2.847804924081e+07  5.067465411396e-04
2.800000000000e+01 1.761207355485e+06 1.000000000000e+00 5.857384815821e+01 0.000000000000e+00 1.111071883322e-02 -4.913114693084e+07 -1.560286027093e+05 -1.656697560043e+07 -2.844011412006e+07 7.675092655656e-05 -7.238469514999e-06 5.442220783626e-04 0.000000000000e+00 3.137941221711e+07 2.854524111886e+07  5.103489128630e-04
2.900000000000e+01 1.795239383678e+06 1.000000000000e+00 5.878945157670e+01 0.000000000000e+00 1.125628206870e-02 -4.922736876697e+07 -1.591789411314e+05 -1.658005052929e+07 -2.854882799490e+07 7.721491656545e-05 -7.472494654929e-06 5.477743820698e-04 0.000000000000e+00 3.145208243039e+07 2.860815529012e+07  5.137023246133e-04
3.000000000000e+01 1.828814801809e+06 1.000000000000e+00 5.898732735168e+01 0.000000000000e+00 1.139474148404e-02 -4.931550290664e+07 -1.622139177560e+05 -1.659099886623e+07 -2.864827364101e+07 7.763505823345e-05 -7.697950061324e-06 5.510614249825e-04 0.000000000000e+00 3.151825847129e+07 2.866673407745e+07  5.168094289555e-04
3.100000000000e+01 1.861850495525e+06 1.000000000000e+00 5.918598549435e+01 0.000000000000e+00 1.152861580305e-02 -4.939974643772e+07 -1.652131061724e+05 -1.660484788065e+07 -2.874762440978e+07 7.819618420458e-05 -7.920746915116e-06 5.542372044297e-04 0.000000000000e+00 3.158407290939e+07 2.871956049181e+07  5.197523469525e-04
3.200000000000e+01 1.894421488072e+06 1.000000000000e+00 5.937697639130e+01 0.000000000000e+00 1.165768788879e-02 -4.947891950161e+07 -1.681543782465e+05 -1.661887866586e+07 -2.884281326584e+07 7.879105648542e-05 -8.139241412048e-06 5.572516470613e-04 0.000000000000e+00 3.164687047777e+07 2.876825852198e+07  5.225224631408e-04
3.300000000000e+01 1.926555659600e+06 1.000000000000e+00 5.955745626517e+01 0.000000000000e+00 1.178193099582e-02 -4.955244352164e+07 -1.710380774925e+05 -1.663230959658e+07 -2.893244620650e+07 7.938938782303e-05 -8.353459070320e-06 5.600820074303e-04 0.000000000000e+00 3.170573310824e+07 2.881309070272e+07  5.251088487931e-04
3.400000000000e+01 1.958279953357e+06 1.000000000000e+00 5.972658109677e+01 0.000000000000e+00 1.190133732146e-02 -4.962029990019e+07 -1.738603250074e+05 -1.664486307543e+07 -2.901614075287e+07 7.997766262756e-05 -8.563111742855e-06 5.627243899381e-04 0.000000000000e+00 3.176043457616e+07 2.885429503384e+07  5.275128100700e-04
3.500000000000e+01 1.989627564578e+06 1.000000000000e+00 5.988415469201e+01 0.000000000000e+00 1.201608549317e-02 -4.968161605197e+07 -1.766644747619e+05 -1.665742268697e+07 -2.909383203096e+07 8.058588160477e-05 -8.771420010334e-06 5.651435661244e-04 0.000000000000e+00 3.181095692330e+07 2.889035944477e+07  5.296881682305e-04
3.600000000000e+01 2.020634135390e+06 1.000000000000e+00 6.003022103161e+01 0.000000000000e+00 1.212637268772e-02 -4.973546512301e+07 -1.795044460543e+05 -1.667122406620e+07 -2.916562824421e+07 8.125248974392e-05 -8.982389306343e-06 5.672976599591e-04 0.000000000000e+00 3.185743914447e+07 2.891941988287e+07  5.315790672516e-04
3.700000000000e+01 2.051361737692e+06 1.000000000000e+00 6.016492785138e+01 0.000000000000e+00 1.223274442067e-02 -4.977844995624e+07 -1.825532415411e+05 -1.669018213703e+07 -2.923173648817e+07 8.211135928536e-05 -9.208871256789e-06 5.690489521039e-04 0.000000000000e+00 3.190012286048e+07 2.893519864519e+07  5.329990733450e-04
3.800000000000e+01 2.083287020103e+06 1.000000000000e+00 6.028866548787e+01 0.000000000000e+00 1.235005152595e-02 -4.970154160243e+07 -1.912668746040e+05 -1.683837018498e+07 -2.929680606103e+07 8.738482513347e-05 -9.856169712893e-06 5.659616944581e-04 0.000000000000e+00 3.194557261615e+07 2.873824447238e+07  5.279997308705e-04
3.900000000000e+01 2.113075158540e+06 1.000000000000e+00 6.040116681718e+01 0.000000000000e+00 1.244257570738e-02 -4.977077928353e+07 -1.923814935122e+05 -1.681417646376e+07 -2.935007355309e+07 8.679164668315e-05 -9.938969974643e-06 5.688388252369e-04 0.000000000000e+00 3.197834310013e+07 2.881417768754e+07  5.310708898666e-04
4.000000000000e+01 2.142460697470e+06 1.000000000000e+00 6.050277272890e+01 0.000000000000e+00 1.252957604929e-02 -4.984212455484e+07 -1.930174918140e+05 -1.677906217164e+07 -2.939688418907e+07 8.588036022809e-05 -9.986215562776e-06 5.718817511376e-04 0.000000000000e+00 3.200602363852e+07 2.890161686433e+07  5.344248649392e-04
4.200000000000e+01 2.199743116275e+06 1.000000000000e+00 6.070353137102e+01 0.000000000000e+00 1.269306264213e-02 -4.997430411988e+07 -1.942685523683e+05 -1.671568859946e+07 -2.948842492117e+07 8.437091786185e-05 -1.007915148967e-05 5.776357110112e-04 0.000000000000e+00 3.205947254684e+07 2.906179612176e+07  5.406945340695e-04
4.400000000000e+01 2.255508367281e+06 1.000000000000e+00 6.088145664395e+01 0.000000000000e+00 1.284520431320e-02 -5.009308263388e+07 -1.954218450225e+05 -1.665225949142e+07 -2.956792461111e+07 8.291199011073e-05 -1.016482465826e-05 5.829444949358e-04 0.000000000000e+00 3.210442224547e+07 2.921142163584e+07  5.465121819885e-04
5.000000000000e+01 2.407029548280e+06 1.000000000000e+00 6.110376251630e+01 0.000000000000e+00 1.315825638901e-02 -5.029942944121e+07 -1.975886098912e+05 -1.646731812772e+07 -2.965399838036e+07 7.844470583908e-05 -1.032578433423e-05 5.930107713025e-04 0.000000000000e+00 3.214024864976e+07 2.953784321218e+07  5.582263489904e-04
6.500000000000e+01 2.738412900207e+06 1.000000000000e+00 6.116215475679e+01 0.000000000000e+00 1.368164932061e-02 -5.045341452174e+07 -2.013972836202e+05 -1.600501936826e+07 -2.958554593508e+07 7.018274059481e-05 -1.060871438267e-05 6.076393486864e-04 0.000000000000e+00 3.201465994170e+07 3.005689550692e+07  5.760581870158e-04
8.000000000000e+01 2.993465893724e+06 1.000000000000e+00 6.080672396127e+01 0.000000000000e+00 1.391854401699e-02 -5.036694285170e+07 -2.029162035677e+05 -1.563289517051e+07 -2.932633458498e+07 6.376669533549e-05 -1.072154843591e-05 6.118332544561e-04 0.000000000000e+00 3.177539086906e+07 3.030609342578e+07  5.828691043124e-04
1.000000000000e+02 3.294145306883e+06 1.000000000000e+00 6.031955409286e+01 0.000000000000e+00 1.411179400407e-02 -5.018568297575e+07 -2.041960417620e+05 -1.523717440926e+07 -2.898538137776e+07 5.783522874546e-05 -1.081662213035e-05 6.138674778920e-04 0.000000000000e+00 3.146941292092e+07 3.049683926129e+07  5.873891606398e-04
1.860000000000e+02 3.892626698402e+06 1.000000000000e+00 5.884437027137e+01 0.000000000000e+00 1.432074709821e-02 -4.948695056142e+07 -2.058715458487e+05 -1.434889396393e+07 -2.799798087938e+07 4.711327133805e-05 -1.094108814821e-05 6.101858759214e-04 0.000000000000e+00 3.061127513491e+07 3.068395925911e+07  5.883517085901e-04
2.720000000000e+02 4.182948269365e+06 1.000000000000e+00 5.740652461788e+01 0.000000000000e+00 1.408815582303e-02 -4.881767649237e+07 -2.034590177839e+05 -1.395280931923e+07 -2.717756051121e+07 4.149926594222e-05 -1.076187177769e-05 5.944248347639e-04 0.000000000000e+00 2.998268210760e+07 3.048766964036e+07  5.751020193060e-04
3.580000000000e+02 4.324314095300e+06 1.000000000000e+00 5.632819007730e+01 0.000000000000e+00 1.385785354348e-02 -4.829972449213e+07 -2.012607518311e+05 -1.370670615084e+07 -2.657233605591e+07 3.825771761147e-05 -1.059857202119e-05 5.810860441072e-04 0.000000000000e+00 2.952625556629e+07 3.028633185460e+07  5.632322851331e-04
4.440000000000e+02 4.396443065099e+06 1.000000000000e+00 5.547754095058e+01 0.000000000000e+00 1.364661477817e-02 -4.789245394289e+07 -1.992473535805e+05 -1.354477053553e+07 -2.610479513688e+07 3.601910387597e-05 -1.044900529401e-05 5.697349899688e-04 0.000000000000e+00 2.918067320510e+07 3.010363638112e+07  5.529028268948e-04
5.300000000000e+02 4.435407630124e+06 1.000000000000e+00 5.480783314931e+01 0.000000000000e+00 1.346534824535e-02 -4.757252224360e+07 -1.975204173161e+05 -1.343364015488e+07 -2.574174236481e+07 3.441746403021e-05 -1.032071860008e-05 5.603778725736e-04 0.000000000000e+00 2.891596825443e+07 2.994803571426e+07  5.442799723717e-04
6.160000000000e+02 4.457923140021e+06 1.000000000000e+00 5.428842769212e+01 0.000000000000e+00 1.331606523001e-02 -4.732486457624e+07 -1.960981351520e+05 -1.335702513808e+07 -2.546313534015e+07 3.326791647328e-05 -1.021506335360e-05 5.528753122815e-04 0.000000000000e+00 2.871500835149e+07 2.982061327660e+07  5.373061492721e-04
7.020000000000e+02 4.471733458232e+06 1.000000000000e+00 5.390298112949e+01 0.000000000000e+00 1.320187820104e-02 -4.714134377593e+07 -1.950085601215e+05 -1.330404314749e+07 -2.525760595214e+07 3.245045464423e-05 -1.013412349419e-05 5.472092660916e-04 0.000000000000e+00 2.856766429185e+07 2.972353216490e+07  5.320168463591e-04
7.880000000000e+02 4.481352036468e+06 1.000000000000e+00 5.359220289655e+01 0.000000000000e+00 1.309986071453e-02 -4.699552052574e+07 -1.940232199165e+05 -1.327310323691e+07 -2.509602335169e+07 3.186510734891e-05 -1.006092679325e-05 5.423568233249e-04 0.000000000000e+00 2.845488237145e+07 2.963778596975e+07  5.274350360192e-04
8.740000000000e+02 4.489738131595e+06 1.000000000000e+00 5.310537577069e+01 0.000000000000e+00 1.295471151729e-02 -4.676350412423e+07 -1.926512745442e+05 -1.320584805139e+07 -2.483626362784e+07 3.083464109075e-05 -9.959010851305e-06 5.352066547584e-04 0.000000000000e+00 2.826853860115e+07 2.951617700899e+07  5.207605773976e-04
9.370000000000e+02 4.495111994429e+06 1.000000000000e+00 5.275159323252e+01 0.000000000000e+00 1.283679009727e-02 -4.659319943273e+07 -1.915551161661e+05 -1.316931446039e+07 -2.465060431068e+07 3.026432642327e-05 -9.877581943221e-06 5.296676992154e-04 0.000000000000e+00 2.813770606794e+07 2.941660877919e+07  5.154866290955e-04
1.000000000000e+03 4.499302027140e+06 1.000000000000e+00 5.246388243437e+01 0.000000000000e+00 1.273855484656e-02 -4.645080115611e+07 -1.906734341428e+05 -1.313990738922e+07 -2.449850371245e+07 2.990395447780e-05 -9.812085564347e-06 5.251105110677e-04 0.000000000000e+00 2.802973741926e+07 2.933219097843e+07  5.110980782372e-04
1.100000000000e+03 4.503447343828e+06 1.000000000000e+00 5.216936964690e+01 0.000000000000e+00 1.263608873899e-02 -4.630294064080e+07 -1.897697846558e+05 -1.311067749459e+07 -2.434241708445e+07 2.959841314944e-05 -9.744957316741e-06 5.203986895425e-04 0.000000000000e+00 2.791867840661e+07 2.924345206433e+07  5.065301366180e-04
1.200000000000e+03 4.506708720429e+06 1.000000000000e+00 5.192025738058e+01 0.000000000000e+00 1.255073632085e-02 -4.617944728118e+07 -1.890058864375e+05 -1.308531764112e+07 -2.421069044835e+07 2.929260573732e-05 -9.688210591953e-06 5.164479233304e-04 0.000000000000e+00 2.782515179022e+07 2.917049839190e+07  5.027225806890e-04
1.300000000000e+03 4.509614096533e+06 1.000000000000e+00 5.168219822456e+01 0.000000000000e+00 1.246944670019e-02 -4.606196886421e+07 -1.882747366227e+05 -1.306101504045e+07 -2.408495365781e+07 2.898586614729e-05 -9.633896605710e-06 5.126803677065e-04 0.000000000000e+00 2.773597918749e+07 2.910147812018e+07  4.990984785037e-04
1.400000000000e+03 4.512353612459e+06 1.000000000000e+00 5.143780994797e+01 0.000000000000e+00 1.238551646455e-02 -4.594123024337e+07 -1.875219116939e+05 -1.303641130702e+07 -2.395593307137e+07 2.867825028247e-05 -9.577972468145e-06 5.088020274519e-04 0.000000000000e+00 2.764452487392e+07 2.903039220663e+07  4.953641145266e-04
1.500000000000e+03 4.514993501238e+06 1.000000000000e+00 5.117703367255e+01 0.000000000000e+00 1.229503819612e-02 -4.581188135760e+07 -1.867150749467e+05 -1.301075669082e+07 -2.381827822393e+07 2.836974313443e-05 -9.518036024065e-06 5.046420188631e-04 0.000000000000e+00 2.754697209078e+07 2.895379124581e+07  4.913487805084e-04
1.600000000000e+03 4.517554546543e+06 1.000000000000e+00 5.089373351050e+01 0.000000000000e+00 1.219561445734e-02 -4.567067475635e+07 -1.858349937322e+05 -1.298360850895e+07 -2.366873456035e+07 2.806008081948e-05 -9.452658562415e-06 5.000959009711e-04 0.000000000000e+00 2.744100594188e+07 2.886961030958e+07  4.869482571759e-04
1.700000000000e+03 4.520041835520e+06 1.000000000000e+00 5.058412186792e+01 0.000000000000e+00 1.208576293788e-02 -4.551560319098e+07 -1.848688508422e+05 -1.295469954605e+07 -2.350529411076e+07 2.774923654850e-05 -9.380887947732e-06 4.950990171798e-04 0.000000000000e+00 2.732519894927e+07 2.877660731047e+07  4.820979572398e-04
1.800000000000e+03 4.522455244882e+06 1.000000000000e+00 5.024591284061e+01 0.000000000000e+00 1.196458947944e-02 -4.534545955178e+07 -1.838095816345e+05 -1.292386693663e+07 -2.332674583344e+07 2.743706427561e-05 -9.302199378017e-06 4.896124352290e-04 0.000000000000e+00 2.719869077395e+07 2.867408260632e+07  4.767590524691e-04
1.900000000000e+03 4.524794537194e+06 1.000000000000e+00 4.987782121186e+01 0.000000000000e+00 1.183158624250e-02 -4.515956677641e+07 -1.826527784033e+05 -1.289102796158e+07 -2.313241197960e+07 2.712353850362e-05 -9.216265423697e-06 4.836140540167e-04 0.000000000000e+00 2.706100223919e+07 2.856168994051e+07  4.709094751791e-04
2.000000000000e+03 4.527058883136e+06 1.000000000000e+00 4.947924582705e+01 0.000000000000e+00 1.168652523624e-02 -4.495760438388e+07 -1.813971125739e+05 -1.285614704963e+07 -2.292197533724e+07 2.680878065280e-05 -9.122987390652e-06 4.770934126018e-04 0.000000000000e+00 2.691190892358e+07 2.843932874608e+07  4.645387272505e-04