 TITLE = "Time curves in points"
 VARIABLES = "TIME"  "PRESSURE1"  "SATURATION1"  "TEMPERATURE1"  "DISPLACEMENT_X1"  "DISPLACEMENT_Y1"  "STRESS_XX"  "STRESS_XY"  "STRESS_YY"  "STRESS_ZZ"  "STRAIN_XX"  "STRAIN_XY"  "STRAIN_YY"  "STRAIN_PLS"  p_(1st_Invariant)  q_(2nd_Invariant)   Effective_Strain
 ZONE T="POINT=POINT11"
0.000000000000e+00 1.000000000000e+05 1.000000000000e+00 2.500000000000e+01 0.000000000000e+00 0.000000000000e+00 -5.392170068764e+07 8.391404681268e+05 -2.357515820812e+05 -1.424861648653e+07 0.000000000000e+00 0.000000000000e+00 0.000000000000e+00 0.000000000000e+00 2.280202291875e+07 4.825308313763e+07  0.000000000000e+00
1.000000000000e-03 1.321562803133e+05 1.000000000000e+00 2.500658919670e+01 0.000000000000e+00 -1.672849401398e-05 -5.462510862376e+07 8.320744314298e+05 8.176425446118e+05 -1.393155313589e+07 -2.902154767902e-04 -2.595722537271e-04 -8.188441174064e-05 0.000000000000e+00 2.257967307168e+07 4.975719533767e+07  5.189404792215e-04
2.000000000000e-03 1.547721087935e+05 1.000000000000e+00 2.503242649855e+01 0.000000000000e+00 -1.669124264899e-05 -5.435956637876e+07 8.093671458779e+05 1.068065097083e+06 -1.359401092737e+07 -2.768381322726e-04 -3.387310218787e-04 -1.092688494878e-03 0.000000000000e+00 2.229517073635e+07 4.976424301991e+07  1.145567881791e-03
3.000000000000e-03 1.705465206431e+05 1.000000000000e+00 2.508821888304e+01 0.000000000000e+00 -1.651894923901e-05 -5.410472818966e+07 7.868688127552e+05 1.313211559118e+06 -1.326821609865e+07 -2.634582825580e-04 -4.181010943276e-04 -2.104805901139e-03 0.000000000000e+00 2.201991090973e+07 4.977500262917e+07  2.114122791022e-03
4.000000000000e-03 1.815030669678e+05 1.000000000000e+00 2.517801402977e+01 0.000000000000e+00 -1.639266485324e-05 -5.386215072741e+07 7.646077392999e+05 1.554766680079e+06 -1.295507936773e+07 -2.500943847985e-04 -4.975801799846e-04 -3.117275637812e-03 0.000000000000e+00 2.175415447169e+07 4.979189996614e+07  3.121393851640e-03
1.000000000000e-02 1.978603628676e+05 1.000000000000e+00 2.624254793578e+01 0.000000000000e+00 -1.547021124369e-05 -5.389392111206e+07 7.455419065036e+05 1.711296309584e+06 -1.297613949027e+07 -2.331008833465e-04 -5.814828137550e-04 -4.172288776823e-03 0.000000000000e+00 2.171958809758e+07 4.992624972966e+07  4.183794001578e-03
2.000000000000e-02 1.963680346369e+05 1.000000000000e+00 2.811855859645e+01 0.000000000000e+00 -1.110887192162e-05 -5.417813224849e+07 7.285785581893e+05 1.798315765792e+06 -1.328642751342e+07 -2.137648371201e-04 -6.683304635285e-04 -5.253905297638e-03 0.000000000000e+00 2.188874799871e+07 5.018081649659e+07  5.278836320382e-03
3.000000000000e-02 1.864315871100e+05 1.000000000000e+00 2.977104240945e+01 0.000000000000e+00 -4.469684699452e-06 -5.440257771538e+07 7.102141931804e+05 1.886552116040e+06 -1.352993726022e+07 -1.947169205761e-04 -7.543288598205e-04 -6.329434253494e-03 0.000000000000e+00 2.201532095319e+07 5.039709041624e+07  6.369791267216e-03
4.000000000000e-02 1.732308016779e+05 1.000000000000e+00 3.117078428574e+01 0.000000000000e+00 4.724914593461e-06 -5.455213914566e+07 6.905735550922e+05 1.976484805617e+06 -1.369415606298e+07 -1.758582102879e-04 -8.395326785215e-04 -7.399672553428e-03 0.000000000000e+00 2.208993680101e+07 5.056327938165e+07  7.456489267144e-03
5.000000000000e-02 1.590712169439e+05 1.000000000000e+00 3.235484757263e+01 0.000000000000e+00 1.463900586681e-05 -5.464099343041e+07 6.700535263257e+05 2.073987411377e+06 -1.378949781013e+07 -1.574512781181e-04 -9.235635698915e-04 -8.460040328472e-03 0.000000000000e+00 2.211883460972e+07 5.069407134981e+07  8.533694282349e-03
6.000000000000e-02 1.446828136011e+05 1.000000000000e+00 3.336666820306e+01 0.000000000000e+00 2.653660234228e-05 -5.468035841363e+07 6.491216133341e+05 2.189375705556e+06 -1.382580224751e+07 -1.391548248422e-04 -1.005368876818e-03 -9.503348243159e-03 0.000000000000e+00 2.210559498519e+07 5.080489886024e+07  9.593896751126e-03
7.000000000000e-02 1.309553152747e+05 1.000000000000e+00 3.424269924722e+01 0.000000000000e+00 3.824291204075e-05 -5.468041649977e+07 6.278222608800e+05 2.307182462960e+06 -1.381948998868e+07 -1.210538524554e-04 -1.086302937088e-03 -1.053872730812e-02 0.000000000000e+00 2.206424134183e+07 5.089025584526e+07  1.064630621309e-02
8.000000000000e-02 1.185266125142e+05 1.000000000000e+00 3.501114549322e+01 0.000000000000e+00 5.068444950620e-05 -5.464939744193e+07 6.063240197813e+05 2.427235953521e+06 -1.377957532030e+07 -1.031095058553e-04 -1.166365747536e-03 -1.156578093788e-02 0.000000000000e+00 2.200057893624e+07 5.095562257778e+07  1.169044932785e-02
9.000000000000e-02 1.083066492509e+05 1.000000000000e+00 3.569332899835e+01 0.000000000000e+00 6.218810258011e-05 -5.459494722484e+07 5.847529332384e+05 2.549523303410e+06 -1.371327961429e+07 -8.535092857278e-05 -1.245555935352e-03 -1.258416887587e-02 0.000000000000e+00 2.191956784524e+07 5.100652719638e+07  1.272590858614e-02
1.000000000000e-01 1.013009242719e+05 1.000000000000e+00 3.630541896253e+01 0.000000000000e+00 7.268428645656e-05 -5.452272654850e+07 5.632068288431e+05 2.674661945076e+06 -1.362584109618e+07 -6.781113454435e-05 -1.323841059965e-03 -1.359325889088e-02 0.000000000000e+00 2.182463523320e+07 5.104755675434e+07  1.375198810257e-02
2.000000000000e-01 1.227583401152e+05 1.000000000000e+00 3.981142503252e+01 0.000000000000e+00 2.149997367953e-04 -5.520786885945e+07 5.251805922987e+05 2.026052116949e+06 -1.471044736480e+07 -1.458251610108e-05 -1.438817799055e-03 -1.513230438233e-02 0.000000000000e+00 2.263075470243e+07 5.097807450698e+07  1.532895206704e-02
3.000000000000e-01 1.535262526101e+05 1.000000000000e+00 4.213322259453e+01 0.000000000000e+00 3.699635411499e-04 -5.556654277581e+07 4.885294668099e+05 1.480754396339e+06 -1.539696227922e+07 3.421578355364e-05 -1.542578299402e-03 -1.655226955995e-02 0.000000000000e+00 2.316091688623e+07 5.076553259023e+07  1.678343798532e-02
4.000000000000e-01 1.848711887700e+05 1.000000000000e+00 4.382361384831e+01 0.000000000000e+00 5.152694410675e-04 -5.577831852691e+07 4.544509322985e+05 1.019887701945e+06 -1.587335487722e+07 7.681535174975e-05 -1.638066745313e-03 -1.785619446000e-02 0.000000000000e+00 2.354392856739e+07 5.052258481825e+07  1.811825044082e-02
5.000000000000e-01 2.146182721516e+05 1.000000000000e+00 4.513443190839e+01 0.000000000000e+00 6.555855257607e-04 -5.589199182140e+07 4.230161543018e+05 5.715126155566e+05 -1.623541440015e+07 1.150176334064e-04 -1.730942944800e-03 -1.909148571100e-02 0.000000000000e+00 2.385196453533e+07 5.022110073357e+07  1.938252830898e-02
6.000000000000e-01 2.422349190066e+05 1.000000000000e+00 4.619629486424e+01 0.000000000000e+00 7.901205890737e-04 -5.596480878658e+07 3.947889489088e+05 1.682063028463e+05 -1.651939686474e+07 1.480076520119e-04 -1.818953852072e-03 -2.023865925298e-02 0.000000000000e+00 2.410533311616e+07 4.993128855777e+07  2.055593564903e-02
7.000000000000e-01 2.677989511646e+05 1.000000000000e+00 4.708364073506e+01 0.000000000000e+00 9.187360624970e-04 -5.601996770461e+07 3.699591817298e+05 -1.657655040269e+05 -1.674271399651e+07 1.776900086620e-04 -1.897033899954e-03 -2.127181682425e-02 0.000000000000e+00 2.430948240172e+07 4.968908835154e+07  2.161244472317e-02
8.000000000000e-01 2.915671400692e+05 1.000000000000e+00 4.784280359403e+01 0.000000000000e+00 1.042776839651e-03 -5.606598008171e+07 3.481418314745e+05 -4.734103349570e+05 -1.693232675488e+07 2.019527935595e-04 -1.971854968275e-03 -2.222393520381e-02 0.000000000000e+00 2.449057239051e+07 4.946513812716e+07  2.258532494166e-02
9.000000000000e-01 3.136002835465e+05 1.000000000000e+00 4.850368017678e+01 0.000000000000e+00 1.162716512294e-03 -5.610828891334e+07 3.301329845336e+05 -7.505772655008e+05 -1.709456152693e+07 2.237300672272e-04 -2.041044870959e-03 -2.309963548167e-02 0.000000000000e+00 2.465114256859e+07 4.926625067797e+07  2.347996784547e-02
1.000000000000e+00 3.340884170568e+05 1.000000000000e+00 4.908706938572e+01 0.000000000000e+00 1.278969663267e-03 -5.614906747943e+07 3.154066240659e+05 -1.004640925991e+06 -1.723655699082e+07 2.436948764933e-04 -2.105286702296e-03 -2.391106017454e-02 0.000000000000e+00 2.479675513208e+07 4.908748944283e+07  2.430888489865e-02
2.000000000000e+00 4.691559606783e+05 1.000000000000e+00 5.224848730855e+01 0.000000000000e+00 2.238778444456e-03 -5.713313324925e+07 2.766774308652e+05 -3.997962175050e+06 -1.919371793031e+07 3.020920979241e-04 -2.355305376221e-03 -2.652516093799e-02 0.000000000000e+00 2.677493778487e+07 4.740314301397e+07  2.698760556595e-02
3.000000000000e+00 5.730621993731e+05 1.000000000000e+00 5.427679455463e+01 0.000000000000e+00 3.052791273889e-03 -5.789544416653e+07 2.607509718903e+05 -6.417771547881e+06 -2.064454558362e+07 3.369112832011e-04 -2.556236522481e-03 -2.852914864502e-02 0.000000000000e+00 2.831925376601e+07 4.604557128187e+07  2.903860635736e-02
4.000000000000e+00 6.596126034108e+05 1.000000000000e+00 5.575088147689e+01 0.000000000000e+00 3.760043896803e-03 -5.851220956109e+07 2.540746904305e+05 -8.456188293522e+06 -2.180573673602e+07 3.631876658591e-04 -2.722369112608e-03 -3.016496134810e-02 0.000000000000e+00 2.959137819688e+07 4.489748422632e+07  3.071231383455e-02
5.000000000000e+00 7.355452377896e+05 1.000000000000e+00 5.693149995896e+01 0.000000000000e+00 4.386127021975e-03 -5.902353902545e+07 2.507323805286e+05 -1.023040967252e+07 -2.278625149460e+07 3.850272285052e-04 -2.865116588872e-03 -3.155921108989e-02 0.000000000000e+00 3.068006673086e+07 4.388585674147e+07  3.213891543544e-02
6.000000000000e+00 8.043233661910e+05 1.000000000000e+00 5.796438519089e+01 0.000000000000e+00 4.950038987865e-03 -5.946772118933e+07 2.485001466862e+05 -1.182152779411e+07 -2.365683751199e+07 4.038371776979e-04 -2.992182219645e-03 -3.278815806911e-02 0.000000000000e+00 3.164869549848e+07 4.297106122067e+07  3.339651081407e-02
7.000000000000e+00 8.681486722727e+05 1.000000000000e+00 5.881773266898e+01 0.000000000000e+00 5.459359759815e-03 -5.985741917707e+07 2.469047965357e+05 -1.322394640563e+07 -2.441131492292e+07 4.190812263076e-04 -3.103872952687e-03 -3.386117688340e-02 0.000000000000e+00 3.249756016854e+07 4.217007277521e+07  3.449416754257e-02
8.000000000000e+00 9.277122832900e+05 1.000000000000e+00 5.964548359829e+01 0.000000000000e+00 5.928080528809e-03 -6.022493506848e+07 2.460613162045e+05 -1.450547552363e+07 -2.511660408197e+07 4.329412865498e-04 -3.204997504248e-03 -3.482802315237e-02 0.000000000000e+00 3.328233822469e+07 4.144769723423e+07  3.548342079082e-02
9.000000000000e+00 9.841048929835e+05 1.000000000000e+00 6.039584327610e+01 0.000000000000e+00 6.360819040553e-03 -6.056646449277e+07 2.456832763444e+05 -1.565620512198e+07 -2.575594847174e+07 4.452752458179e-04 -3.294988639971e-03 -3.568966268716e-02 0.000000000000e+00 3.399287269550e+07 4.081096911227e+07  3.636499507090e-02
1.000000000000e+01 1.037819556408e+06 1.000000000000e+00 6.107245844145e+01 0.000000000000e+00 6.763464520285e-03 -6.087136630272e+07 2.452818322800e+05 -1.672792785819e+07 -2.634343926893e+07 4.565802580056e-04 -3.378313214900e-03 -3.648261733415e-02 0.000000000000e+00 3.464757780995e+07 4.020969995977e+07  3.717641828433e-02
1.100000000000e+01 1.089158496838e+06 1.000000000000e+00 6.170901697769e+01 0.000000000000e+00 7.139793742293e-03 -6.116539442484e+07 2.449589650012e+05 -1.771672987142e+07 -2.689308305561e+07 4.657756654108e-04 -3.455258305617e-03 -3.720553983053e-02 0.000000000000e+00 3.525840245062e+07 3.966700937299e+07  3.791589384412e-02
1.200000000000e+01 1.138516106949e+06 1.000000000000e+00 6.228858435154e+01 0.000000000000e+00 7.492266740320e-03 -6.143998018385e+07 2.449130624268e+05 -1.862163843492e+07 -2.739776158003e+07 4.740043912612e-04 -3.525091137619e-03 -3.786148638937e-02 0.000000000000e+00 3.581979339960e+07 3.917692732659e+07  3.858681309941e-02
1.300000000000e+01 1.186155559904e+06 1.000000000000e+00 6.281335036953e+01 0.000000000000e+00 7.823979231546e-03 -6.168734997313e+07 2.447155748776e+05 -1.947618082539e+07 -2.786633026250e+07 4.815519074784e-04 -3.590785119462e-03 -3.847434015913e-02 0.000000000000e+00 3.634328702034e+07 3.870657629486e+07  3.921371377637e-02
1.400000000000e+01 1.232794460601e+06 1.000000000000e+00 6.328719669981e+01 0.000000000000e+00 8.136878791131e-03 -6.190872977851e+07 2.443313784187e+05 -2.028454761071e+07 -2.830123782813e+07 4.885355313828e-04 -3.652704795931e-03 -3.904834339002e-02 0.000000000000e+00 3.683150507245e+07 3.825350680206e+07  3.980094281090e-02
1.500000000000e+01 1.277982880797e+06 1.000000000000e+00 6.371396674996e+01 0.000000000000e+00 8.430641671582e-03 -6.211992145611e+07 2.442491623043e+05 -2.101346736207e+07 -2.869715309679e+07 4.943972124577e-04 -3.708239117768e-03 -3.956289073373e-02 0.000000000000e+00 3.727684730499e+07 3.785643264609e+07  4.032715768278e-02
1.600000000000e+01 1.321868393102e+06 1.000000000000e+00 6.409718126667e+01 0.000000000000e+00 8.707576752083e-03 -6.231488174345e+07 2.440619511336e+05 -2.169249348478e+07 -2.906254529208e+07 4.993786784479e-04 -3.759966450124e-03 -4.003869148578e-02 0.000000000000e+00 3.768997350677e+07 3.748714025083e+07  4.081363383622e-02
1.700000000000e+01 1.364582364112e+06 1.000000000000e+00 6.443989680906e+01 0.000000000000e+00 8.969525607097e-03 -6.248802807706e+07 2.438744809766e+05 -2.234008291079e+07 -2.940233227677e+07 5.042622862850e-04 -3.809000833199e-03 -4.048855509769e-02 0.000000000000e+00 3.807681442154e+07 3.712649311709e+07  4.127371667001e-02
1.800000000000e+01 1.406266469302e+06 1.000000000000e+00 6.474480269154e+01 0.000000000000e+00 9.217606927971e-03 -6.263964376884e+07 2.435895535612e+05 -2.296233111963e+07 -2.971913964050e+07 5.091153921031e-04 -3.855901182918e-03 -4.091754995876e-02 0.000000000000e+00 3.844037150966e+07 3.676995517905e+07  4.171259725069e-02
1.900000000000e+01 1.447009435937e+06 1.000000000000e+00 6.501430106622e+01 0.000000000000e+00 9.452700617981e-03 -6.276978297500e+07 2.429889465388e+05 -2.356254173526e+07 -3.001451328087e+07 5.138143736078e-04 -3.901152596211e-03 -4.132888054228e-02 0.000000000000e+00 3.878227933038e+07 3.641495336370e+07  4.213351065000e-02
2.000000000000e+01 1.486894329421e+06 1.000000000000e+00 6.525046042328e+01 0.000000000000e+00 9.674750446509e-03 -6.288771181453e+07 2.424612907223e+05 -2.412188721756e+07 -3.028553015078e+07 5.180912205937e-04 -3.943171423818e-03 -4.171024920235e-02 0.000000000000e+00 3.909837639429e+07 3.608347700120e+07  4.252374423294e-02
2.100000000000e+01 1.525849531847e+06 1.000000000000e+00 6.550408013656e+01 0.000000000000e+00 9.886923298562e-03 -6.300845860890e+07 2.421429684276e+05 -2.465641647115e+07 -3.055372113197e+07 5.221152963984e-04 -3.983186212567e-03 -4.207158550177e-02 0.000000000000e+00 3.940619873734e+07 3.577232954671e+07  4.289352452948e-02
2.200000000000e+01 1.564034463581e+06 1.000000000000e+00 6.574140182376e+01 0.000000000000e+00 1.009000631676e-02 -6.311778281411e+07 2.416558678148e+05 -2.517466994751e+07 -3.080974631617e+07 5.260651972267e-04 -4.021921747459e-03 -4.241993050128e-02 0.000000000000e+00 3.970073302593e+07 3.546543040336e+07  4.325009203527e-02
2.300000000000e+01 1.601514635910e+06 1.000000000000e+00 6.595789737850e+01 0.000000000000e+00 1.028361207677e-02 -6.322220863304e+07 2.412617183530e+05 -2.565929017996e+07 -3.104879029705e+07 5.295583661892e-04 -4.058042554108e-03 -4.274410580924e-02 0.000000000000e+00 3.997676303668e+07 3.518165462957e+07  4.358184989700e-02
2.400000000000e+01 1.638336215366e+06 1.000000000000e+00 6.615302041940e+01 0.000000000000e+00 1.046855101338e-02 -6.331686058740e+07 2.408538215729e+05 -2.612270743838e+07 -3.127324184639e+07 5.328563711519e-04 -4.092531176471e-03 -4.305260677646e-02 0.000000000000e+00 4.023760329072e+07 3.490755361350e+07  4.389758736272e-02
2.500000000000e+01 1.674554485485e+06 1.000000000000e+00 6.632710006372e+01 0.000000000000e+00 1.064519077945e-02 -6.340070565418e+07 2.403166842480e+05 -2.656699447757e+07 -3.148351487267e+07 5.359734754931e-04 -4.125611210470e-03 -4.334721568914e-02 0.000000000000e+00 4.048373833480e+07 3.464064110169e+07  4.419913276290e-02
2.600000000000e+01 1.710201348263e+06 1.000000000000e+00 6.648073203976e+01 0.000000000000e+00 1.081373217961e-02 -6.347472628812e+07 2.397963666443e+05 -2.698912678862e+07 -3.167900633652e+07 5.390703265558e-04 -4.156870309429e-03 -4.362611289535e-02 0.000000000000e+00 4.071428647108e+07 3.438391165965e+07  4.448465553882e-02
2.700000000000e+01 1.745310255366e+06 1.000000000000e+00 6.661459188943e+01 0.000000000000e+00 1.097472219703e-02 -6.353726460849e+07 2.391389724677e+05 -2.739690263198e+07 -3.186189158615e+07 5.421280104534e-04 -4.187070339623e-03 -4.389478798382e-02 0.000000000000e+00 4.093201960888e+07 3.413014994800e+07  4.475977639678e-02
2.800000000000e+01 1.779924773093e+06 1.000000000000e+00 6.672935958689e+01 0.000000000000e+00 1.112854865990e-02 -6.358754992659e+07 2.382498958047e+05 -2.779424574664e+07 -3.203335511581e+07 5.451880314190e-04 -4.216562015900e-03 -4.415623018309e-02 0.000000000000e+00 4.113838359635e+07 3.387579121288e+07  4.502756409003e-02
2.900000000000e+01 1.814068114876e+06 1.000000000000e+00 6.682569370622e+01 0.000000000000e+00 1.127545866238e-02 -6.362571489864e+07 2.372080411319e+05 -2.818069181025e+07 -3.219337907740e+07 5.483535804399e-04 -4.245242862784e-03 -4.441040373538e-02 0.000000000000e+00 4.133326192876e+07 3.362127794975e+07  4.528800631931e-02
3.000000000000e+01 1.847751175360e+06 1.000000000000e+00 6.690421870234e+01 0.000000000000e+00 1.141574688043e-02 -6.365209050985e+07 2.359633031870e+05 -2.855861428907e+07 -3.234292583097e+07 5.515877797962e-04 -4.273384044383e-03 -4.465938026470e-02 0.000000000000e+00 4.151787687663e+07 3.336518359065e+07  4.554320472568e-02
3.100000000000e+01 1.880894611771e+06 1.000000000000e+00 6.700421408375e+01 0.000000000000e+00 1.155127653009e-02 -6.368064354919e+07 2.347179487962e+05 -2.893139482816e+07 -3.249643676201e+07 5.549157162547e-04 -4.301178165551e-03 -4.490461320674e-02 0.000000000000e+00 4.170282504645e+07 3.311348002480e+07  4.579466011595e-02
3.200000000000e+01 1.913581044444e+06 1.000000000000e+00 6.709823362326e+01 0.000000000000e+00 1.168235252833e-02 -6.370094176045e+07 2.331959591864e+05 -2.930414119378e+07 -3.264606969118e+07 5.583510404465e-04 -4.329117093764e-03 -4.515027538094e-02 0.000000000000e+00 4.188371754847e+07 3.285604766763e+07  4.604663495337e-02
3.300000000000e+01 1.945836759411e+06 1.000000000000e+00 6.718200325324e+01 0.000000000000e+00 1.180905417067e-02 -6.371151563967e+07 2.313904971494e+05 -2.967736373080e+07 -3.279054917185e+07 5.618886252117e-04 -4.357256885663e-03 -4.539677079174e-02 0.000000000000e+00 4.205980951411e+07 3.259173849630e+07  4.629954113139e-02
3.400000000000e+01 1.977683955850e+06 1.000000000000e+00 6.725448079532e+01 0.000000000000e+00 1.193138000112e-02 -6.371252884769e+07 2.293386261218e+05 -3.005017018563e+07 -3.292938245142e+07 5.654926739669e-04 -4.385523683849e-03 -4.564332137177e-02 0.000000000000e+00 4.223069382825e+07 3.232152481901e+07  4.655257227702e-02
3.500000000000e+01 2.009163290122e+06 1.000000000000e+00 6.731542028234e+01 0.000000000000e+00 1.204976441738e-02 -6.370038288787e+07 2.270602201513e+05 -3.043037375817e+07 -3.306397133172e+07 5.695899668593e-04 -4.414319594556e-03 -4.589534776858e-02 0.000000000000e+00 4.239824265925e+07 3.203691928673e+07  4.681140418309e-02
3.600000000000e+01 2.040320277005e+06 1.000000000000e+00 6.736484979958e+01 0.000000000000e+00 1.216470891693e-02 -6.367020638722e+07 2.242371471125e+05 -3.083038385491e+07 -3.319691810315e+07 5.742295614541e-04 -4.444830791724e-03 -4.616145293001e-02 0.000000000000e+00 4.256583611509e+07 3.172520623208e+07  4.708488408578e-02
3.700000000000e+01 2.071240992759e+06 1.000000000000e+00 6.740291338406e+01 0.000000000000e+00 1.227771585437e-02 -6.360620845048e+07 2.203927772614e+05 -3.128394902355e+07 -3.333451405222e+07 5.804907996259e-04 -4.479474468820e-03 -4.646495680901e-02 0.000000000000e+00 4.274155717542e+07 3.134964266940e+07  4.739724396328e-02
3.800000000000e+01 2.104214843803e+06 1.000000000000e+00 6.743016255845e+01 0.000000000000e+00 1.243430169551e-02 -6.299873831816e+07 1.971516041864e+05 -3.290092032053e+07 -3.368582356821e+07 6.167425010851e-04 -4.604184006526e-03 -4.757237611354e-02 0.000000000000e+00 4.319516073563e+07 2.971510478692e+07  4.854324646874e-02
3.900000000000e+01 2.134028859186e+06 1.000000000000e+00 6.744583771760e+01 0.000000000000e+00 1.252389763405e-02 -6.309716169341e+07 1.986947133235e+05 -3.297436366418e+07 -3.374312202059e+07 6.139857307287e-04 -4.609182324099e-03 -4.761823196036e-02 0.000000000000e+00 4.327154912606e+07 2.974786104217e+07  4.858851297935e-02
4.000000000000e+01 2.163414648802e+06 1.000000000000e+00 6.745056538364e+01 0.000000000000e+00 1.260616704028e-02 -6.321290182524e+07 2.007440841865e+05 -3.297112753282e+07 -3.377813190212e+07 6.094615375891e-04 -4.608760955816e-03 -4.761339374816e-02 0.000000000000e+00 4.332072042006e+07 2.984848101626e+07  4.858134695940e-02
4.200000000000e+01 2.220697509681e+06 1.000000000000e+00 6.749194524000e+01 0.000000000000e+00 1.276032270178e-02 -6.343642724345e+07 2.046836617308e+05 -3.296548627119e+07 -3.385343627701e+07 6.011503341732e-04 -4.607987525028e-03 -4.760405745295e-02 0.000000000000e+00 4.341844993055e+07 3.003890332450e+07  4.856774145301e-02
4.400000000000e+01 2.276463149110e+06 1.000000000000e+00 6.751216664321e+01 0.000000000000e+00 1.290409877948e-02 -6.363532122484e+07 2.082188038560e+05 -3.295985383624e+07 -3.391638999479e+07 5.935301894688e-04 -4.607257904269e-03 -4.759553588007e-02 0.000000000000e+00 4.350385501862e+07 3.021071221280e+07  4.855530019900e-02
5.000000000000e+01 2.427985018064e+06 1.000000000000e+00 6.726334194248e+01 0.000000000000e+00 1.320505465304e-02 -6.394056329041e+07 2.140096985585e+05 -3.294338411253e+07 -3.394538144435e+07 5.780830288955e-04 -4.605613485180e-03 -4.758061245930e-02 0.000000000000e+00 4.360977628243e+07 3.051077555981e+07  4.853235449967e-02
6.500000000000e+01 2.759369379565e+06 1.000000000000e+00 6.641202496310e+01 0.000000000000e+00 1.371810790070e-02 -6.415163183658e+07 2.194282347003e+05 -3.290588191874e+07 -3.379901683044e+07 5.581575438331e-04 -4.602712970924e-03 -4.756080666516e-02 0.000000000000e+00 4.361884352859e+07 3.081123746388e+07  4.850199164564e-02
8.000000000000e+01 3.014422729007e+06 1.000000000000e+00 6.535760750312e+01 0.000000000000e+00 1.396321718885e-02 -6.393542986287e+07 2.174447597638e+05 -3.287623327685e+07 -3.347889928249e+07 5.524653268992e-04 -4.601095268897e-03 -4.755841001989e-02 0.000000000000e+00 4.343018747407e+07 3.076459691933e+07  4.849631106709e-02
1.000000000000e+02 3.315102353166e+06 1.000000000000e+00 6.420536454622e+01 0.000000000000e+00 1.416955557674e-02 -6.357548056859e+07 2.132026559138e+05 -3.284574587047e+07 -3.309235403841e+07 5.511159902902e-04 -4.599671014019e-03 -4.755980793484e-02 0.000000000000e+00 4.317119349249e+07 3.060940333863e+07  4.849660761943e-02
1.860000000000e+02 3.913583542837e+06 1.000000000000e+00 6.147268638692e+01 0.000000000000e+00 1.442301470035e-02 -6.233634772300e+07 1.966055046633e+05 -3.278049431755e+07 -3.206150342017e+07 5.631149580907e-04 -4.597440182801e-03 -4.757640338358e-02 0.000000000000e+00 4.239278182024e+07 2.992376595904e+07  4.851836364176e-02
2.720000000000e+02 4.203904885271e+06 1.000000000000e+00 5.942458207660e+01 0.000000000000e+00 1.424267989821e-02 -6.106842587938e+07 1.774421598784e+05 -3.275098982158e+07 -3.119267240593e+07 5.857348195530e-04 -4.597684182767e-03 -4.760981822307e-02 0.000000000000e+00 4.167069603563e+07 2.912949620215e+07  4.856275017266e-02
3.580000000000e+02 4.345270570126e+06 1.000000000000e+00 5.799349184248e+01 0.000000000000e+00 1.405243224910e-02 -6.009865999911e+07 1.625455419422e+05 -3.273306950099e+07 -3.056114230636e+07 6.048672877687e-04 -4.598183977680e-03 -4.763687208570e-02 0.000000000000e+00 4.113095726882e+07 2.851505119072e+07  4.859919052658e-02
4.440000000000e+02 4.417399455284e+06 1.000000000000e+00 5.690549126728e+01 0.000000000000e+00 1.387340468061e-02 -5.932980908651e+07 1.505934586998e+05 -3.272127640658e+07 -3.007206628269e+07 6.206816383093e-04 -4.598744249453e-03 -4.765940904574e-02 0.000000000000e+00 4.070771725859e+07 2.802841335122e+07  4.862952994209e-02
5.300000000000e+02 4.456363967567e+06 1.000000000000e+00 5.606970574270e+01 0.000000000000e+00 1.371780859263e-02 -5.872261731959e+07 1.410839567281e+05 -3.271316007274e+07 -2.969166282348e+07 6.334957744154e-04 -4.599267746172e-03 -4.767774367762e-02 0.000000000000e+00 4.037581340527e+07 2.764540702318e+07  4.865420844738e-02
6.160000000000e+02 4.478879443004e+06 1.000000000000e+00 5.543354191827e+01 0.000000000000e+00 1.358861711632e-02 -5.825061754711e+07 1.336497972550e+05 -3.270755418169e+07 -2.939933024869e+07 6.436444702671e-04 -4.599722458322e-03 -4.769231393633e-02 0.000000000000e+00 4.011916732583e+07 2.734864150252e+07  4.867381555853e-02
7.020000000000e+02 4.492689738173e+06 1.000000000000e+00 5.496615109681e+01 0.000000000000e+00 1.348941620755e-02 -5.789994962461e+07 1.281097551720e+05 -3.270368014313e+07 -2.918345691286e+07 6.512572577731e-04 -4.600080107890e-03 -4.770327445989e-02 0.000000000000e+00 3.992902889353e+07 2.712913004221e+07  4.868855969240e-02
7.880000000000e+02 4.502308299529e+06 1.000000000000e+00 5.460065469369e+01 0.000000000000e+00 1.339971416868e-02 -5.761702835440e+07 1.235896655126e+05 -3.270136654884e+07 -2.901224651924e+07 6.575640026698e-04 -4.600423952580e-03 -4.771253647753e-02 0.000000000000e+00 3.977688047416e+07 2.695111315022e+07  4.870096791268e-02
8.740000000000e+02 4.510694377837e+06 1.000000000000e+00 5.401038251121e+01 0.000000000000e+00 1.327347686568e-02 -5.717425599668e+07 1.165961173803e+05 -3.269643360207e+07 -2.873963252947e+07 6.671742529669e-04 -4.600872578329e-03 -4.772634900002e-02 0.000000000000e+00 3.953677404274e+07 2.667798196603e+07  4.871955856781e-02
9.370000000000e+02 4.516068229386e+06 1.000000000000e+00 5.360241834825e+01 0.000000000000e+00 1.316951961710e-02 -5.684966001022e+07 1.114154143261e+05 -3.269383975875e+07 -2.854586816793e+07 6.745573898620e-04 -4.601270752356e-03 -4.773686865883e-02 0.000000000000e+00 3.936312264564e+07 2.647535111532e+07  4.873376644745e-02
1.000000000000e+03 4.520258254381e+06 1.000000000000e+00 5.327981538065e+01 0.000000000000e+00 1.308261796204e-02 -5.658298069950e+07 1.071561395373e+05 -3.269183101247e+07 -2.838964065110e+07 6.807877919374e-04 -4.601605590233e-03 -4.774543483357e-02 0.000000000000e+00 3.922148412102e+07 2.630807093829e+07  4.874544953782e-02
1.100000000000e+03 4.524403564311e+06 1.000000000000e+00 5.295547262778e+01 0.000000000000e+00 1.299175704436e-02 -5.630839188228e+07 1.027675966629e+05 -3.268990106417e+07 -2.823064563944e+07 6.873064033078e-04 -4.601959339594e-03 -4.775424961532e-02 0.000000000000e+00 3.907631286196e+07 2.613562002917e+07  4.875752903142e-02
1.200000000000e+03 4.527664936884e+06 1.000000000000e+00 5.267668556676e+01 0.000000000000e+00 1.291621869992e-02 -5.607732302223e+07 9.907696234969e+04 -3.268818727420e+07 -2.809546009944e+07 6.927146859682e-04 -4.602251319844e-03 -4.776168041631e-02 0.000000000000e+00 3.895365679862e+07 2.599219463645e+07  4.876766694143e-02
1.300000000000e+03 4.530570310175e+06 1.000000000000e+00 5.240899671779e+01 0.000000000000e+00 1.284431049523e-02 -5.585690642191e+07 9.555716600507e+04 -3.268652785307e+07 -2.796609054691e+07 6.978506166444e-04 -4.602528168271e-03 -4.776877419968e-02 0.000000000000e+00 3.883650827396e+07 2.585634707948e+07  4.877733130435e-02
1.400000000000e+03 4.533309823868e+06 1.000000000000e+00 5.213500147556e+01 0.000000000000e+00 1.277001656936e-02 -5.563052611439e+07 9.193992177810e+04 -3.268484975173e+07 -2.783344690972e+07 7.031381073283e-04 -4.602814330571e-03 -4.777606640272e-02 0.000000000000e+00 3.871627425861e+07 2.571739200699e+07  4.878727084298e-02
1.500000000000e+03 4.535949710671e+06 1.000000000000e+00 5.184463135536e+01 0.000000000000e+00 1.268982619725e-02 -5.538855121765e+07 8.807148754329e+04 -3.268312233937e+07 -2.769226880206e+07 7.088232263077e-04 -4.603124594367e-03 -4.778387455895e-02 0.000000000000e+00 3.858798078636e+07 2.556927569118e+07  4.879792707130e-02
1.600000000000e+03 4.538510754033e+06 1.000000000000e+00 5.153174535744e+01 0.000000000000e+00 1.260158756429e-02 -5.512512514674e+07 8.385679704802e+04 -3.268131802479e+07 -2.753935016113e+07 7.150553248630e-04 -4.603467458446e-03 -4.779238635415e-02 0.000000000000e+00 3.844859777756e+07 2.540847776796e+07  4.880956295456e-02
1.700000000000e+03 4.540998041300e+06 1.000000000000e+00 5.119255284710e+01 0.000000000000e+00 1.250396840985e-02 -5.483663777805e+07 7.923800540546e+04 -3.267942655429e+07 -2.737271567730e+07 7.219264443657e-04 -4.603848565507e-03 -4.780172190026e-02 0.000000000000e+00 3.829626000322e+07 2.523299307129e+07  4.882234515454e-02
1.800000000000e+03 4.543411448242e+06 1.000000000000e+00 5.082476598952e+01 0.000000000000e+00 1.239616706068e-02 -5.452090383970e+07 7.417945842643e+04 -3.267743455176e+07 -2.719116890674e+07 7.294923430975e-04 -4.604270885427e-03 -4.781194926086e-02 0.000000000000e+00 3.812983576607e+07 2.504180193515e+07  4.883636998442e-02
1.900000000000e+03 4.545750738841e+06 1.000000000000e+00 5.042709828818e+01 0.000000000000e+00 1.227772594665e-02 -5.417672877499e+07 6.866167639176e+04 -3.267532983381e+07 -2.699404583553e+07 7.377830108415e-04 -4.604735661799e-03 -4.782310299366e-02 0.000000000000e+00 3.794870148144e+07 2.483458961447e+07  4.885168726025e-02
2.000000000000e+03 4.548015082330e+06 1.000000000000e+00 4.999894771924e+01 0.000000000000e+00 1.214843834276e-02 -5.380348211797e+07 6.267514703676e+04 -3.267312561002e+07 -2.678102042085e+07 7.468153862685e-04 -4.605244932311e-03 -4.783521283165e-02 0.000000000000e+00 3.775254271628e+07 2.461143915875e+07  4.886833571423e-02