# vtk DataFile Version 3.0
Unstructured Grid from OpenGeoSys
ASCII
DATASET UNSTRUCTURED_GRID
FIELD TimesAndCycles 2
TIME 1 1 double
6.643884750301e+01
CYLCE 1 1 long
30
POINTS 1849 double
0.000000000000e+00 1.400000000000e-01 0.000000000000e+00
0.000000000000e+00 1.366670000000e-01 0.000000000000e+00
3.333330000000e-03 1.366670000000e-01 0.000000000000e+00
3.333330000000e-03 1.400000000000e-01 0.000000000000e+00
0.000000000000e+00 1.333330000000e-01 0.000000000000e+00
3.333330000000e-03 1.333330000000e-01 0.000000000000e+00
0.000000000000e+00 1.300000000000e-01 0.000000000000e+00
3.333330000000e-03 1.300000000000e-01 0.000000000000e+00
0.000000000000e+00 1.266670000000e-01 0.000000000000e+00
3.333330000000e-03 1.266670000000e-01 0.000000000000e+00
0.000000000000e+00 1.233330000000e-01 0.000000000000e+00
3.333330000000e-03 1.233330000000e-01 0.000000000000e+00
0.000000000000e+00 1.200000000000e-01 0.000000000000e+00
3.333330000000e-03 1.200000000000e-01 0.000000000000e+00
0.000000000000e+00 1.166670000000e-01 0.000000000000e+00
3.333330000000e-03 1.166670000000e-01 0.000000000000e+00
0.000000000000e+00 1.133330000000e-01 0.000000000000e+00
3.333330000000e-03 1.133330000000e-01 0.000000000000e+00
0.000000000000e+00 1.100000000000e-01 0.000000000000e+00
3.333330000000e-03 1.100000000000e-01 0.000000000000e+00
0.000000000000e+00 1.066670000000e-01 0.000000000000e+00
3.333330000000e-03 1.066670000000e-01 0.000000000000e+00
0.000000000000e+00 1.033330000000e-01 0.000000000000e+00
3.333330000000e-03 1.033330000000e-01 0.000000000000e+00
0.000000000000e+00 1.000000000000e-01 0.000000000000e+00
3.333330000000e-03 1.000000000000e-01 0.000000000000e+00
0.000000000000e+00 9.666670000000e-02 0.000000000000e+00
3.333330000000e-03 9.666670000000e-02 0.000000000000e+00
0.000000000000e+00 9.333330000000e-02 0.000000000000e+00
3.333330000000e-03 9.333330000000e-02 0.000000000000e+00
0.000000000000e+00 9.000000000000e-02 0.000000000000e+00
3.333330000000e-03 9.000000000000e-02 0.000000000000e+00
0.000000000000e+00 8.666670000000e-02 0.000000000000e+00
3.333330000000e-03 8.666670000000e-02 0.000000000000e+00
0.000000000000e+00 8.333330000000e-02 0.000000000000e+00
3.333330000000e-03 8.333330000000e-02 0.000000000000e+00
0.000000000000e+00 8.000000000000e-02 0.000000000000e+00
3.333330000000e-03 8.000000000000e-02 0.000000000000e+00
0.000000000000e+00 7.666670000000e-02 0.000000000000e+00
3.333330000000e-03 7.666670000000e-02 0.000000000000e+00
0.000000000000e+00 7.333330000000e-02 0.000000000000e+00
3.333330000000e-03 7.333330000000e-02 0.000000000000e+00
0.000000000000e+00 7.000000000000e-02 0.000000000000e+00
3.333330000000e-03 7.000000000000e-02 0.000000000000e+00
0.000000000000e+00 6.666670000000e-02 0.000000000000e+00
3.333330000000e-03 6.666670000000e-02 0.000000000000e+00
0.000000000000e+00 6.333330000000e-02 0.000000000000e+00
3.333330000000e-03 6.333330000000e-02 0.000000000000e+00
0.000000000000e+00 6.000000000000e-02 0.000000000000e+00
3.333330000000e-03 6.000000000000e-02 0.000000000000e+00
0.000000000000e+00 5.666670000000e-02 0.000000000000e+00
3.333330000000e-03 5.666670000000e-02 0.000000000000e+00
0.000000000000e+00 5.333330000000e-02 0.000000000000e+00
3.333330000000e-03 5.333330000000e-02 0.000000000000e+00
0.000000000000e+00 5.000000000000e-02 0.000000000000e+00
3.333330000000e-03 5.000000000000e-02 0.000000000000e+00
0.000000000000e+00 4.666670000000e-02 0.000000000000e+00
3.333330000000e-03 4.666670000000e-02 0.000000000000e+00
0.000000000000e+00 4.333330000000e-02 0.000000000000e+00
3.333330000000e-03 4.333330000000e-02 0.000000000000e+00
0.000000000000e+00 4.000000000000e-02 0.000000000000e+00
3.333330000000e-03 4.000000000000e-02 0.000000000000e+00
0.000000000000e+00 3.666670000000e-02 0.000000000000e+00
3.333330000000e-03 3.666670000000e-02 0.000000000000e+00
0.000000000000e+00 3.333330000000e-02 0.000000000000e+00
3.333330000000e-03 3.333330000000e-02 0.000000000000e+00
0.000000000000e+00 3.000000000000e-02 0.000000000000e+00
3.333330000000e-03 3.000000000000e-02 0.000000000000e+00
0.000000000000e+00 2.666670000000e-02 0.000000000000e+00
3.333330000000e-03 2.666670000000e-02 0.000000000000e+00
0.000000000000e+00 2.333330000000e-02 0.000000000000e+00
3.333330000000e-03 2.333330000000e-02 0.000000000000e+00
0.000000000000e+00 2.000000000000e-02 0.000000000000e+00
3.333330000000e-03 2.000000000000e-02 0.000000000000e+00
0.000000000000e+00 1.666670000000e-02 0.000000000000e+00
3.333330000000e-03 1.666670000000e-02 0.000000000000e+00
0.000000000000e+00 1.333330000000e-02 0.000000000000e+00
3.333330000000e-03 1.333330000000e-02 0.000000000000e+00
0.000000000000e+00 1.000000000000e-02 0.000000000000e+00
3.333330000000e-03 1.000000000000e-02 0.000000000000e+00
0.000000000000e+00 6.666670000000e-03 0.000000000000e+00
3.333330000000e-03 6.666670000000e-03 0.000000000000e+00
0.000000000000e+00 3.333330000000e-03 0.000000000000e+00
3.333330000000e-03 3.333330000000e-03 0.000000000000e+00
0.000000000000e+00 7.771560000000e-18 0.000000000000e+00
3.333330000000e-03 7.771560000000e-18 0.000000000000e+00
6.666670000000e-03 1.366670000000e-01 0.000000000000e+00
6.666670000000e-03 1.400000000000e-01 0.000000000000e+00
6.666670000000e-03 1.333330000000e-01 0.000000000000e+00
6.666670000000e-03 1.300000000000e-01 0.000000000000e+00
6.666670000000e-03 1.266670000000e-01 0.000000000000e+00
6.666670000000e-03 1.233330000000e-01 0.000000000000e+00
6.666670000000e-03 1.200000000000e-01 0.000000000000e+00
6.666670000000e-03 1.166670000000e-01 0.000000000000e+00
6.666670000000e-03 1.133330000000e-01 0.000000000000e+00
6.666670000000e-03 1.100000000000e-01 0.000000000000e+00
6.666670000000e-03 1.066670000000e-01 0.000000000000e+00
6.666670000000e-03 1.033330000000e-01 0.000000000000e+00
6.666670000000e-03 1.000000000000e-01 0.000000000000e+00
6.666670000000e-03 9.666670000000e-02 0.000000000000e+00
6.666670000000e-03 9.333330000000e-02 0.000000000000e+00
6.666670000000e-03 9.000000000000e-02 0.000000000000e+00
6.666670000000e-03 8.666670000000e-02 0.000000000000e+00
6.666670000000e-03 8.333330000000e-02 0.000000000000e+00
6.666670000000e-03 8.000000000000e-02 0.000000000000e+00
6.666670000000e-03 7.666670000000e-02 0.000000000000e+00
6.666670000000e-03 7.333330000000e-02 0.000000000000e+00
6.666670000000e-03 7.000000000000e-02 0.000000000000e+00
6.666670000000e-03 6.666670000000e-02 0.000000000000e+00
6.666670000000e-03 6.333330000000e-02 0.000000000000e+00
6.666670000000e-03 6.000000000000e-02 0.000000000000e+00
6.666670000000e-03 5.666670000000e-02 0.000000000000e+00
6.666670000000e-03 5.333330000000e-02 0.000000000000e+00
6.666670000000e-03 5.000000000000e-02 0.000000000000e+00
6.666670000000e-03 4.666670000000e-02 0.000000000000e+00
6.666670000000e-03 4.333330000000e-02 0.000000000000e+00
6.666670000000e-03 4.000000000000e-02 0.000000000000e+00
6.666670000000e-03 3.666670000000e-02 0.000000000000e+00
6.666670000000e-03 3.333330000000e-02 0.000000000000e+00
6.666670000000e-03 3.000000000000e-02 0.000000000000e+00
6.666670000000e-03 2.666670000000e-02 0.000000000000e+00
6.666670000000e-03 2.333330000000e-02 0.000000000000e+00
6.666670000000e-03 2.000000000000e-02 0.000000000000e+00
6.666670000000e-03 1.666670000000e-02 0.000000000000e+00
6.666670000000e-03 1.333330000000e-02 0.000000000000e+00
6.666670000000e-03 1.000000000000e-02 0.000000000000e+00
6.666670000000e-03 6.666670000000e-03 0.000000000000e+00
6.666670000000e-03 3.333330000000e-03 0.000000000000e+00
6.666670000000e-03 7.771560000000e-18 0.000000000000e+00
1.000000000000e-02 1.366670000000e-01 0.000000000000e+00
1.000000000000e-02 1.400000000000e-01 0.000000000000e+00
1.000000000000e-02 1.333330000000e-01 0.000000000000e+00
1.000000000000e-02 1.300000000000e-01 0.000000000000e+00
1.000000000000e-02 1.266670000000e-01 0.000000000000e+00
1.000000000000e-02 1.233330000000e-01 0.000000000000e+00
1.000000000000e-02 1.200000000000e-01 0.000000000000e+00
1.000000000000e-02 1.166670000000e-01 0.000000000000e+00
1.000000000000e-02 1.133330000000e-01 0.000000000000e+00
1.000000000000e-02 1.100000000000e-01 0.000000000000e+00
1.000000000000e-02 1.066670000000e-01 0.000000000000e+00
1.000000000000e-02 1.033330000000e-01 0.000000000000e+00
1.000000000000e-02 1.000000000000e-01 0.000000000000e+00
1.000000000000e-02 9.666670000000e-02 0.000000000000e+00
1.000000000000e-02 9.333330000000e-02 0.000000000000e+00
1.000000000000e-02 9.000000000000e-02 0.000000000000e+00
1.000000000000e-02 8.666670000000e-02 0.000000000000e+00
1.000000000000e-02 8.333330000000e-02 0.000000000000e+00
1.000000000000e-02 8.000000000000e-02 0.000000000000e+00
1.000000000000e-02 7.666670000000e-02 0.000000000000e+00
1.000000000000e-02 7.333330000000e-02 0.000000000000e+00
1.000000000000e-02 7.000000000000e-02 0.000000000000e+00
1.000000000000e-02 6.666670000000e-02 0.000000000000e+00
1.000000000000e-02 6.333330000000e-02 0.000000000000e+00
1.000000000000e-02 6.000000000000e-02 0.000000000000e+00
1.000000000000e-02 5.666670000000e-02 0.000000000000e+00
1.000000000000e-02 5.333330000000e-02 0.000000000000e+00
1.000000000000e-02 5.000000000000e-02 0.000000000000e+00
1.000000000000e-02 4.666670000000e-02 0.000000000000e+00
1.000000000000e-02 4.333330000000e-02 0.000000000000e+00
1.000000000000e-02 4.000000000000e-02 0.000000000000e+00
1.000000000000e-02 3.666670000000e-02 0.000000000000e+00
1.000000000000e-02 3.333330000000e-02 0.000000000000e+00
1.000000000000e-02 3.000000000000e-02 0.000000000000e+00
1.000000000000e-02 2.666670000000e-02 0.000000000000e+00
1.000000000000e-02 2.333330000000e-02 0.000000000000e+00
1.000000000000e-02 2.000000000000e-02 0.000000000000e+00
1.000000000000e-02 1.666670000000e-02 0.000000000000e+00
1.000000000000e-02 1.333330000000e-02 0.000000000000e+00
1.000000000000e-02 1.000000000000e-02 0.000000000000e+00
1.000000000000e-02 6.666670000000e-03 0.000000000000e+00
1.000000000000e-02 3.333330000000e-03 0.000000000000e+00
1.000000000000e-02 7.771560000000e-18 0.000000000000e+00
[...]
POINT_DATA 1849
SCALARS HEAD double 1
LOOKUP_TABLE default
1.000243051216e+01
1.000243164445e+01
1.000243047919e+01
1.000242944519e+01
1.000243526374e+01
1.000243376686e+01
1.000244211828e+01
1.000243992566e+01
1.000245399432e+01
1.000245015017e+01
1.000247419870e+01
1.000246775141e+01
1.000253311051e+01
1.000248532693e+01
1.000254742454e+01
1.000249711551e+01
1.000254738525e+01
1.000249558866e+01
1.000253592285e+01
1.000248374377e+01
1.000251407719e+01
1.000246218480e+01
1.000248098685e+01
1.000243049107e+01
1.000243391944e+01
1.000238586892e+01
1.000234277339e+01
1.000233599510e+01
1.000229099081e+01
1.000228677166e+01
1.000224826101e+01
1.000224568155e+01
1.000221130044e+01
1.000220944503e+01
1.000217825646e+01
1.000217681488e+01
1.000214820234e+01
1.000214701596e+01
1.000212057852e+01
1.000211956098e+01
1.000209502321e+01
1.000209412325e+01
1.000207128987e+01
1.000207047549e+01
1.000204919968e+01
1.000204844944e+01
1.000202861877e+01
1.000202791833e+01
1.000200944594e+01
1.000200878520e+01
1.000199159942e+01
1.000199097103e+01
1.000197501257e+01
1.000197441108e+01
1.000195963198e+01
1.000195905315e+01
1.000194541124e+01
1.000194485176e+01
1.000193231052e+01
1.000193176793e+01
1.000192029683e+01
1.000191976887e+01
1.000190934014e+01
1.000190882498e+01
1.000189941438e+01
1.000189891048e+01
1.000189049756e+01
1.000189000348e+01
1.000188256959e+01
1.000188208412e+01
1.000187561305e+01
1.000187513497e+01
1.000186961333e+01
1.000186914161e+01
1.000186455766e+01
1.000186409121e+01
1.000186043525e+01
1.000185997309e+01
1.000185723782e+01
1.000185677900e+01
1.000185495852e+01
1.000185450209e+01
1.000185359298e+01
1.000185313789e+01
1.000185313808e+01
1.000185268349e+01
1.000242718906e+01
1.000242642262e+01
1.000242959202e+01
1.000243391874e+01
1.000244059873e+01
1.000244870989e+01
1.000245590774e+01
1.000245840398e+01
1.000245377691e+01
1.000244093902e+01
1.000242008075e+01
1.000239120946e+01
1.000235563148e+01
1.000231593525e+01
1.000227606548e+01
1.000223847475e+01
1.000220414278e+01
1.000217262527e+01
1.000214353367e+01
1.000211655509e+01
1.000209145340e+01
1.000206805189e+01
1.000204621251e+01
1.000202582693e+01
1.000200681029e+01
1.000198909115e+01
1.000197261055e+01
1.000195731983e+01
1.000194317607e+01
1.000193014202e+01
1.000191818669e+01
1.000190728105e+01
1.000189740014e+01
1.000188852260e+01
1.000188062887e+01
1.000187370190e+01
1.000186772743e+01
1.000186269288e+01
1.000185858760e+01
1.000185540337e+01
1.000185313356e+01
1.000185177351e+01
1.000185132053e+01
1.000242233154e+01
1.000242193526e+01
1.000242354166e+01
1.000242558086e+01
1.000242819243e+01
1.000243056803e+01
1.000243117672e+01
1.000242821254e+01
1.000242012403e+01
1.000240609352e+01
1.000238592490e+01
1.000236003508e+01
1.000232948573e+01
1.000229602264e+01
1.000226163747e+01
1.000222800908e+01
1.000219604529e+01
1.000216604353e+01
1.000213796378e+01
1.000211168986e+01
1.000208709733e+01
1.000206407554e+01
1.000204252801e+01
1.000202237251e+01
1.000200354149e+01
1.000198597532e+01
1.000196962290e+01
1.000195444135e+01
1.000194039163e+01
1.000192743955e+01
1.000191555569e+01
1.000190471301e+01
1.000189488749e+01
1.000188605859e+01
1.000187820734e+01
1.000187131712e+01
1.000186537403e+01
1.000186036571e+01
1.000185628166e+01
1.000185311388e+01
1.000185085574e+01
1.000184950273e+01
1.000184905200e+01
1.000241667024e+01
1.000241667740e+01
1.000241662516e+01
1.000241642485e+01
1.000241575309e+01
1.000241398716e+01
1.000241021701e+01
1.000240341011e+01
1.000239267762e+01
1.000237748729e+01
1.000235774203e+01
1.000233379009e+01
1.000230644072e+01
1.000227681399e+01
1.000224616865e+01
1.000221561332e+01
1.000218592504e+01
1.000215752598e+01
1.000213058922e+01
1.000210514773e+01
1.000208117653e+01
1.000205863016e+01
1.000203745501e+01
1.000201759781e+01
1.000199901057e+01
1.000198164737e+01
1.000196546678e+01
1.000195043251e+01
1.000193651054e+01
1.000192367009e+01
1.000191188449e+01
1.000190112842e+01
1.000189137926e+01
1.000188261763e+01
1.000187482516e+01
1.000186798594e+01
1.000186208648e+01
1.000185711460e+01
1.000185306019e+01
1.000184991527e+01
1.000184767342e+01
1.000184633010e+01
1.000184588266e+01
1.000241102682e+01
1.000241142629e+01
1.000240979730e+01
1.000240762726e+01
1.000240428009e+01
1.000239936167e+01
1.000239234875e+01
1.000238267136e+01
1.000236984174e+01
1.000235358856e+01
1.000233390652e+01
1.000231108723e+01
1.000228571851e+01
1.000225856361e+01
1.000223046990e+01
1.000220222054e+01
1.000217442924e+01
1.000214750972e+01
1.000212170356e+01
1.000209712874e+01
1.000207382990e+01
1.000205181389e+01
1.000203106431e+01
1.000201155495e+01
1.000199325668e+01
1.000197613758e+01
1.000196016571e+01
1.000194531225e+01
1.000193154829e+01
1.000191884689e+01
1.000190718420e+01
1.000189653705e+01
1.000188688441e+01
1.000187820786e+01
1.000187049010e+01
1.000186371571e+01
1.000185787174e+01
1.000185294638e+01
1.000184892973e+01
1.000184581403e+01
1.000184359291e+01
1.000184226200e+01
1.000184181871e+01
1.000240619003e+01
1.000240695963e+01
1.000240386802e+01
1.000239994770e+01
1.000239432327e+01
1.000238681248e+01
1.000237717741e+01
1.000236515592e+01
1.000235053277e+01
1.000233322417e+01
1.000231330042e+01
1.000229101429e+01
1.000226680847e+01
1.000224122467e+01
1.000221486303e+01
1.000218829524e+01
1.000216200100e+01
1.000213634161e+01
1.000211156475e+01
1.000208782140e+01
1.000206519544e+01
1.000204372831e+01
1.000202343181e+01
1.000200430128e+01
1.000198632408e+01
1.000196948030e+01
1.000195374743e+01
1.000193910320e+01
1.000192552380e+01
1.000191298611e+01
1.000190146910e+01
1.000189095166e+01
1.000188141433e+01
1.000187283997e+01
1.000186521211e+01
1.000185851594e+01
1.000185273901e+01
1.000184786990e+01
1.000184389901e+01
1.000184081867e+01
1.000183862276e+01
1.000183730698e+01
1.000183686870e+01
1.000240289524e+01
1.000240402731e+01
1.000239951753e+01
1.000239394445e+01
1.000238622491e+01
1.000237638102e+01
1.000236440960e+01
1.000235027980e+01
1.000233397294e+01
1.000231554103e+01
1.000229511070e+01
1.000227291127e+01
1.000224929164e+01
1.000222465081e+01
1.000219942900e+01
1.000217405293e+01
1.000214889622e+01
1.000212426013e+01
1.000210037062e+01
1.000207738233e+01
1.000205539441e+01
1.000203446698e+01
1.000201462968e+01
1.000199589327e+01
1.000197825714e+01
1.000196171137e+01
1.000194624093e+01
1.000193182945e+01
1.000191845753e+01
1.000190610549e+01
1.000189475474e+01
1.000188438634e+01
1.000187498211e+01
1.000186652610e+01
1.000185900266e+01
1.000185239759e+01
1.000184669898e+01
1.000184189562e+01
1.000183797824e+01
1.000183493941e+01
1.000183277309e+01
1.000183147496e+01
1.000183104259e+01
1.000240185682e+01
1.000240337592e+01
1.000239736388e+01
1.000239007710e+01
1.000238023344e+01
1.000236807092e+01
1.000235380446e+01
1.000233759502e+01
1.000231957463e+01
1.000229989387e+01
1.000227871838e+01
1.000225626050e+01
1.000223280417e+01
1.000220865109e+01
1.000218413045e+01
1.000215956458e+01
1.000213524263e+01
1.000211140857e+01
1.000208825647e+01
1.000206592863e+01
1.000204452400e+01
1.000202410902e+01
1.000200472207e+01
1.000198638247e+01
1.000196909799e+01
1.000195286537e+01
1.000193767521e+01
1.000192351564e+01
1.000191037082e+01
1.000189822380e+01
1.000188705818e+01
1.000187685654e+01
1.000186760212e+01
1.000185927986e+01
1.000185187481e+01
1.000184537335e+01
1.000183976386e+01
1.000183503559e+01
1.000183117933e+01
1.000182818795e+01
1.000182605543e+01
1.000182477761e+01
1.000182435194e+01
1.000240383242e+01
1.000240581274e+01
1.000239802637e+01
1.000238876590e+01
1.000237654213e+01
1.000236185106e+01
1.000234513254e+01
1.000232671756e+01
1.000230685409e+01
1.000228576015e+01
1.000226362122e+01
1.000224062975e+01
1.000221701853e+01
1.000219301534e+01
1.000216886727e+01
1.000214481611e+01
1.000212108268e+01
1.000209785888e+01
1.000207530397e+01
1.000205353990e+01
1.000203265636e+01
1.000201271716e+01
1.000199376226e+01
1.000197581441e+01
1.000195888526e+01
1.000194297535e+01
1.000192807890e+01
1.000191418689e+01
1.000190128602e+01
1.000188936130e+01
1.000187839790e+01
1.000186837968e+01
1.000185929088e+01
1.000185111699e+01
1.000184384370e+01
1.000183745793e+01
1.000183194818e+01
1.000182730403e+01
1.000182351642e+01
1.000182057828e+01
1.000181848378e+01
1.000181722873e+01
1.000181681063e+01
1.000240971775e+01
1.000241231434e+01
1.000240218690e+01
1.000239041566e+01
1.000237528312e+01
1.000235762639e+01
1.000233812870e+01
1.000231726701e+01
1.000229536617e+01
1.000227267593e+01
1.000224937734e+01
1.000222563278e+01
1.000220162579e+01
1.000217752201e+01
1.000215350113e+01
1.000212973961e+01
1.000210640037e+01
1.000208362885e+01
1.000206154955e+01
1.000204026075e+01
1.000201983739e+01
1.000200033535e+01
1.000198179071e+01
1.000196422528e+01
1.000194765106e+01
1.000193207004e+01
1.000191747767e+01
1.000190386646e+01
1.000189122444e+01
1.000187953775e+01
1.000186879250e+01
1.000185897341e+01
1.000185006518e+01
1.000184205383e+01
1.000183492541e+01
1.000182866698e+01
1.000182326733e+01
1.000181871622e+01
1.000181500461e+01
1.000181212551e+01
1.000181007311e+01
1.000180884331e+01
1.000180843368e+01
1.000242069470e+01
1.000242421626e+01
1.000241065279e+01
1.000239539767e+01
1.000237647290e+01
1.000235517768e+01
1.000233243865e+01
1.000230881858e+01
1.000228465923e+01
1.000226019546e+01
1.000223557293e+01
1.000221090747e+01
1.000218632891e+01
1.000216194370e+01
1.000213787188e+01
1.000211423355e+01
1.000209114145e+01
1.000206869856e+01
1.000204699616e+01
1.000202610788e+01
1.000200609139e+01
1.000198699083e+01
1.000196883526e+01
1.000195164217e+01
1.000193542136e+01
1.000192017365e+01
1.000190589432e+01
1.000189257594e+01
1.000188020641e+01
1.000186877263e+01
1.000185826084e+01
1.000184865592e+01
1.000183994285e+01
1.000183210784e+01
1.000182513699e+01
1.000181901749e+01
1.000181373824e+01
1.000180928888e+01
1.000180566057e+01
1.000180284624e+01
1.000180084008e+01
1.000179963805e+01
1.000179923763e+01
1.000243850957e+01
1.000244357488e+01
1.000242437584e+01
1.000240393306e+01
1.000237986256e+01
1.000235406800e+01
1.000232756067e+01
1.000230086300e+01
1.000227424419e+01
1.000224786599e+01
1.000222180277e+01
1.000219610425e+01
1.000217083827e+01
1.000214605148e+01
1.000212180851e+01
1.000209817824e+01
1.000207522839e+01
1.000205302343e+01
1.000203162352e+01
1.000201107791e+01
1.000199142569e+01
1.000197269788e+01
1.000195491401e+01
1.000193808525e+01
1.000192221707e+01
1.000190730746e+01
1.000189334992e+01
1.000188033573e+01
1.000186825247e+01
1.000185708605e+01
1.000184682257e+01
1.000183744674e+01
1.000182894335e+01
1.000182129828e+01
1.000181449773e+01
1.000180852867e+01
1.000180337991e+01
1.000179904118e+01
1.000179550341e+01
1.000179275955e+01
1.000179080379e+01
1.000178963194e+01
1.000178924166e+01
1.000246584513e+01
1.000247428915e+01
1.000244441557e+01
1.000241557146e+01
1.000238471739e+01
1.000235353919e+01
1.000232279831e+01
1.000229278181e+01
1.000226357831e+01
1.000223521485e+01
1.000220765973e+01
1.000218087815e+01
1.000215486853e+01
1.000212961650e+01
1.000210513344e+01
1.000208144140e+01
1.000205856728e+01
1.000203654077e+01
1.000201539319e+01
1.000199515025e+01
1.000197583295e+01
1.000195745806e+01
1.000194003462e+01
1.000192356635e+01
1.000190805267e+01
1.000189348764e+01
1.000187986173e+01
1.000186716420e+01
1.000185538088e+01
1.000184449669e+01
1.000183449680e+01
1.000182536510e+01
1.000181708584e+01
1.000180964465e+01
1.000180302711e+01
1.000179722010e+01
1.000179221212e+01
1.000178799284e+01
1.000178455295e+01
1.000178188536e+01
1.000177998400e+01
1.000177884492e+01
1.000177846550e+01
1.000250945851e+01
1.000252312831e+01
1.000246899537e+01
1.000242865830e+01
1.000238961568e+01
1.000235246316e+01
1.000231725545e+01
1.000228385401e+01
1.000225207262e+01
1.000222175487e+01
1.000219273841e+01
1.000216489265e+01
1.000213814278e+01
1.000211241465e+01
1.000208766956e+01
1.000206388693e+01
1.000204105692e+01
1.000201917836e+01
1.000199825584e+01
1.000197829388e+01
1.000195929567e+01
1.000194126433e+01
1.000192419781e+01
1.000190809137e+01
1.000189293818e+01
1.000187872683e+01
1.000186544448e+01
1.000185307742e+01
1.000184160921e+01
1.000183102301e+01
1.000182130251e+01
1.000181243051e+01
1.000180439054e+01
1.000179716723e+01
1.000179074578e+01
1.000178511260e+01
1.000178025605e+01
1.000177616503e+01
1.000177283047e+01
1.000177024495e+01
1.000176840234e+01
1.000176729849e+01
1.000176693081e+01
1.000255460578e+01
1.000265093724e+01
1.000249341788e+01
1.000244002490e+01
1.000239250577e+01
1.000234941104e+01
1.000230989549e+01
1.000227329986e+01
1.000223912191e+01
1.000220700443e+01
1.000217664883e+01
1.000214782933e+01
1.000212040138e+01
1.000209423544e+01
1.000206924865e+01
1.000204538290e+01
1.000202259657e+01
1.000200086104e+01
1.000198015810e+01
1.000196047243e+01
1.000194179162e+01
1.000192410503e+01
1.000190740012e+01
1.000189166330e+01
1.000187688095e+01
1.000186303660e+01
1.000185011268e+01
1.000183809204e+01
1.000182695573e+01
1.000181668447e+01
1.000180726021e+01
1.000179866441e+01
1.000179087921e+01
1.000178388864e+01
1.000177767683e+01
1.000177222977e+01
1.000176753518e+01
1.000176358180e+01
1.000176036007e+01
1.000175786244e+01
1.000175608284e+01
1.000175501686e+01
1.000175466178e+01
1.000258972151e+01
1.000269108635e+01
1.000251002931e+01
1.000244590623e+01
1.000239106674e+01
1.000234286082e+01
1.000229966331e+01
1.000226035479e+01
1.000222415009e+01
1.000219051474e+01
1.000215903254e+01
1.000212939713e+01
1.000210140617e+01
1.000207488467e+01
1.000204971333e+01
1.000202580358e+01
1.000200308738e+01
1.000198151331e+01
1.000196104362e+01
1.000194164611e+01
1.000192329359e+01
1.000190596359e+01
1.000188963327e+01
1.000187428075e+01
1.000185988545e+01
1.000184642517e+01
1.000183387781e+01
1.000182222241e+01
1.000181143688e+01
1.000180149945e+01
1.000179238988e+01
1.000178408781e+01
1.000177657419e+01
1.000176983163e+01
1.000176384368e+01
1.000175859523e+01
1.000175407367e+01
1.000175026733e+01
1.000174716627e+01
1.000174476278e+01
1.000174305046e+01
1.000174202485e+01
1.000174168327e+01
1.000259970038e+01
1.000270401594e+01
1.000251389332e+01
1.000244303752e+01
1.000238326777e+01
1.000233147476e+01
1.000228564288e+01
1.000224436311e+01
1.000220666696e+01
1.000217190496e+01
1.000213958471e+01
1.000210934724e+01
1.000208095172e+01
1.000205419231e+01
1.000202892388e+01
1.000200503522e+01
1.000198243834e+01
1.000196106387e+01
1.000194085808e+01
1.000192177438e+01
1.000190377352e+01
1.000188682203e+01
1.000187088794e+01
1.000185594106e+01
1.000184195431e+01
1.000182889988e+01
1.000181675089e+01
1.000180548260e+01
1.000179506936e+01
1.000178548667e+01
1.000177671194e+01
1.000176872275e+01
1.000176149837e+01
1.000175502025e+01
1.000174927081e+01
1.000174423425e+01
1.000173989725e+01
1.000173624769e+01
1.000173327536e+01
1.000173097220e+01
1.000172933163e+01
1.000172834911e+01
1.000172802191e+01
1.000259048496e+01
1.000269554623e+01
1.000250273326e+01
1.000242961149e+01
1.000236778491e+01
1.000231435249e+01
1.000226720557e+01
1.000222486622e+01
1.000218632141e+01
1.000215089464e+01
1.000211807414e+01
1.000208748555e+01
1.000205887404e+01
1.000203201991e+01
1.000200676401e+01
1.000198298148e+01
1.000196057099e+01
1.000193945012e+01
1.000191955274e+01
1.000190082133e+01
1.000188320605e+01
1.000186666431e+01
1.000185115553e+01
1.000183664257e+01
1.000182309147e+01
1.000181046948e+01
1.000179874474e+01
1.000178788856e+01
1.000177787190e+01
1.000176866728e+01
1.000176024943e+01
1.000175259381e+01
1.000174567772e+01
1.000173948134e+01
1.000173398594e+01
1.000172917502e+01
1.000172503454e+01
1.000172155190e+01
1.000171871657e+01
1.000171652014e+01
1.000171495589e+01
1.000171401923e+01
1.000171370727e+01
1.000256325816e+01
1.000266777847e+01
1.000247686125e+01
1.000240509997e+01
1.000234420663e+01
1.000229117939e+01
1.000224410478e+01
1.000220165761e+01
1.000216293173e+01
1.000212731954e+01
1.000209435134e+01
1.000206367656e+01
1.000203505131e+01
1.000200825936e+01
1.000198313968e+01
1.000195956208e+01
1.000193741792e+01
1.000191661670e+01
1.000189708387e+01
1.000187875326e+01
1.000186156710e+01
1.000184547445e+01
1.000183042782e+01
1.000181638299e+01
1.000180330041e+01
1.000179114171e+01
1.000177987096e+01
1.000176945547e+01
1.000175986266e+01
1.000175106205e+01
1.000174302545e+01
1.000173572573e+01
1.000172913850e+01
1.000172324226e+01
1.000171801726e+01
1.000171344639e+01
1.000170951481e+01
1.000170620953e+01
1.000170351967e+01
1.000170143654e+01
1.000169995346e+01
1.000169906544e+01
1.000169876977e+01
1.000251723652e+01
1.000261903808e+01
1.000243628988e+01
1.000237025097e+01
1.000231305042e+01
1.000226227105e+01
1.000221650257e+01
1.000217479703e+01
1.000213649235e+01
1.000210113530e+01
1.000206835028e+01
1.000203784340e+01
1.000200940490e+01
1.000198283491e+01
1.000195798061e+01
1.000193471405e+01
1.000191292466e+01
1.000189251814e+01
1.000187341429e+01
1.000185554162e+01
1.000183883533e+01
1.000182323896e+01
1.000180869793e+01
1.000179516201e+01
1.000178258557e+01
1.000177092581e+01
1.000176014259e+01
1.000175019965e+01
1.000174106124e+01
1.000173269346e+01
1.000172506477e+01
1.000171814548e+01
1.000171190894e+01
1.000170633227e+01
1.000170139497e+01
1.000169707900e+01
1.000169336923e+01
1.000169025222e+01
1.000168771655e+01
1.000168575357e+01
1.000168435617e+01
1.000168351986e+01
1.000168324127e+01
1.000244693198e+01
1.000254399426e+01
1.000238365517e+01
1.000232710247e+01
1.000227573827e+01
1.000222851011e+01
1.000218492225e+01
1.000214457751e+01
1.000210715392e+01
1.000207240304e+01
1.000204007931e+01
1.000200996686e+01
1.000198189782e+01
1.000195570267e+01
1.000193124207e+01
1.000190839480e+01
1.000188705302e+01
1.000186712119e+01
1.000184851726e+01
1.000183116538e+01
1.000181499786e+01
1.000179995091e+01
1.000178596514e+01
1.000177298356e+01
1.000176095615e+01
1.000174983450e+01
1.000173957561e+01
1.000173014027e+01
1.000172149026e+01
1.000171358760e+01
1.000170639668e+01
1.000169988410e+01
1.000169402151e+01
1.000168878468e+01
1.000168415282e+01
1.000168010733e+01
1.000167663264e+01
1.000167371500e+01
1.000167134256e+01
1.000166950643e+01
1.000166819989e+01
1.000166741769e+01
1.000166715737e+01
1.000236801790e+01
1.000238283237e+01
1.000232431439e+01
1.000227915401e+01
1.000223436058e+01
1.000219116080e+01
1.000215011542e+01
1.000211143833e+01
1.000207516069e+01
1.000204125332e+01
1.000200959783e+01
1.000198005815e+01
1.000195252160e+01
1.000192684068e+01
1.000190289501e+01
1.000188057439e+01
1.000185977362e+01
1.000184040008e+01
1.000182236929e+01
1.000180560662e+01
1.000179003982e+01
1.000177560272e+01
1.000176222861e+01
1.000174985484e+01
1.000173842355e+01
1.000172788283e+01
1.000171818656e+01
1.000170929644e+01
1.000170117233e+01
1.000169377236e+01
1.000168705202e+01
1.000168097479e+01
1.000167550928e+01
1.000167063399e+01
1.000166632597e+01
1.000166256665e+01
1.000165934048e+01
1.000165663302e+01
1.000165443342e+01
1.000165273094e+01
1.000165151975e+01
1.000165079487e+01
1.000165055357e+01
1.000229285017e+01
1.000230307872e+01
1.000226644515e+01
1.000223038944e+01
1.000219121684e+01
1.000215156677e+01
1.000211288384e+01
1.000207585845e+01
1.000204079242e+01
1.000200783856e+01
1.000197698225e+01
1.000194815197e+01
1.000192128801e+01
1.000189624132e+01
1.000187292335e+01
1.000185123019e+01
1.000183106758e+01
1.000181233380e+01
1.000179495268e+01
1.000177884697e+01
1.000176393919e+01
1.000175018065e+01
1.000173748076e+01
1.000172577701e+01
1.000171499505e+01
1.000170508105e+01
1.000169598791e+01
1.000168767749e+01
1.000168012794e+01
1.000167327444e+01
1.000166706897e+01
1.000166145137e+01
1.000165640944e+01
1.000165191359e+01
1.000164795011e+01
1.000164449333e+01
1.000164153071e+01
1.000163904584e+01
1.000163702547e+01
1.000163546623e+01
1.000163435513e+01
1.000163368942e+01
1.000163346598e+01
1.000223738619e+01
1.000224533160e+01
1.000221539605e+01
1.000218410794e+01
1.000214815147e+01
1.000211082614e+01
1.000207388328e+01
1.000203822599e+01
1.000200439666e+01
1.000197229097e+01
1.000194229181e+01
1.000191444341e+01
1.000188823099e+01
1.000186394309e+01
1.000184135896e+01
1.000182040706e+01
1.000180095532e+01