# vtk DataFile Version 3.0
Unstructured Grid from OpenGeoSys
ASCII
DATASET UNSTRUCTURED_GRID
FIELD TimesAndCycles 2
TIME 1 1 double
6.643884750301e+01
CYLCE 1 1 long
30
POINTS 1849 double
0.000000000000e+00 1.400000000000e-01 0.000000000000e+00
0.000000000000e+00 1.366670000000e-01 0.000000000000e+00
3.333330000000e-03 1.366670000000e-01 0.000000000000e+00
3.333330000000e-03 1.400000000000e-01 0.000000000000e+00
0.000000000000e+00 1.333330000000e-01 0.000000000000e+00
3.333330000000e-03 1.333330000000e-01 0.000000000000e+00
0.000000000000e+00 1.300000000000e-01 0.000000000000e+00
3.333330000000e-03 1.300000000000e-01 0.000000000000e+00
0.000000000000e+00 1.266670000000e-01 0.000000000000e+00
3.333330000000e-03 1.266670000000e-01 0.000000000000e+00
0.000000000000e+00 1.233330000000e-01 0.000000000000e+00
3.333330000000e-03 1.233330000000e-01 0.000000000000e+00
0.000000000000e+00 1.200000000000e-01 0.000000000000e+00
3.333330000000e-03 1.200000000000e-01 0.000000000000e+00
0.000000000000e+00 1.166670000000e-01 0.000000000000e+00
3.333330000000e-03 1.166670000000e-01 0.000000000000e+00
0.000000000000e+00 1.133330000000e-01 0.000000000000e+00
3.333330000000e-03 1.133330000000e-01 0.000000000000e+00
0.000000000000e+00 1.100000000000e-01 0.000000000000e+00
3.333330000000e-03 1.100000000000e-01 0.000000000000e+00
0.000000000000e+00 1.066670000000e-01 0.000000000000e+00
3.333330000000e-03 1.066670000000e-01 0.000000000000e+00
0.000000000000e+00 1.033330000000e-01 0.000000000000e+00
3.333330000000e-03 1.033330000000e-01 0.000000000000e+00
0.000000000000e+00 1.000000000000e-01 0.000000000000e+00
3.333330000000e-03 1.000000000000e-01 0.000000000000e+00
0.000000000000e+00 9.666670000000e-02 0.000000000000e+00
3.333330000000e-03 9.666670000000e-02 0.000000000000e+00
0.000000000000e+00 9.333330000000e-02 0.000000000000e+00
3.333330000000e-03 9.333330000000e-02 0.000000000000e+00
0.000000000000e+00 9.000000000000e-02 0.000000000000e+00
3.333330000000e-03 9.000000000000e-02 0.000000000000e+00
0.000000000000e+00 8.666670000000e-02 0.000000000000e+00
3.333330000000e-03 8.666670000000e-02 0.000000000000e+00
0.000000000000e+00 8.333330000000e-02 0.000000000000e+00
3.333330000000e-03 8.333330000000e-02 0.000000000000e+00
0.000000000000e+00 8.000000000000e-02 0.000000000000e+00
3.333330000000e-03 8.000000000000e-02 0.000000000000e+00
0.000000000000e+00 7.666670000000e-02 0.000000000000e+00
3.333330000000e-03 7.666670000000e-02 0.000000000000e+00
0.000000000000e+00 7.333330000000e-02 0.000000000000e+00
3.333330000000e-03 7.333330000000e-02 0.000000000000e+00
0.000000000000e+00 7.000000000000e-02 0.000000000000e+00
3.333330000000e-03 7.000000000000e-02 0.000000000000e+00
0.000000000000e+00 6.666670000000e-02 0.000000000000e+00
3.333330000000e-03 6.666670000000e-02 0.000000000000e+00
0.000000000000e+00 6.333330000000e-02 0.000000000000e+00
3.333330000000e-03 6.333330000000e-02 0.000000000000e+00
0.000000000000e+00 6.000000000000e-02 0.000000000000e+00
3.333330000000e-03 6.000000000000e-02 0.000000000000e+00
0.000000000000e+00 5.666670000000e-02 0.000000000000e+00
3.333330000000e-03 5.666670000000e-02 0.000000000000e+00
0.000000000000e+00 5.333330000000e-02 0.000000000000e+00
3.333330000000e-03 5.333330000000e-02 0.000000000000e+00
0.000000000000e+00 5.000000000000e-02 0.000000000000e+00
3.333330000000e-03 5.000000000000e-02 0.000000000000e+00
0.000000000000e+00 4.666670000000e-02 0.000000000000e+00
3.333330000000e-03 4.666670000000e-02 0.000000000000e+00
0.000000000000e+00 4.333330000000e-02 0.000000000000e+00
3.333330000000e-03 4.333330000000e-02 0.000000000000e+00
0.000000000000e+00 4.000000000000e-02 0.000000000000e+00
3.333330000000e-03 4.000000000000e-02 0.000000000000e+00
0.000000000000e+00 3.666670000000e-02 0.000000000000e+00
3.333330000000e-03 3.666670000000e-02 0.000000000000e+00
0.000000000000e+00 3.333330000000e-02 0.000000000000e+00
3.333330000000e-03 3.333330000000e-02 0.000000000000e+00
0.000000000000e+00 3.000000000000e-02 0.000000000000e+00
3.333330000000e-03 3.000000000000e-02 0.000000000000e+00
0.000000000000e+00 2.666670000000e-02 0.000000000000e+00
3.333330000000e-03 2.666670000000e-02 0.000000000000e+00
0.000000000000e+00 2.333330000000e-02 0.000000000000e+00
3.333330000000e-03 2.333330000000e-02 0.000000000000e+00
0.000000000000e+00 2.000000000000e-02 0.000000000000e+00
3.333330000000e-03 2.000000000000e-02 0.000000000000e+00
0.000000000000e+00 1.666670000000e-02 0.000000000000e+00
3.333330000000e-03 1.666670000000e-02 0.000000000000e+00
0.000000000000e+00 1.333330000000e-02 0.000000000000e+00
3.333330000000e-03 1.333330000000e-02 0.000000000000e+00
0.000000000000e+00 1.000000000000e-02 0.000000000000e+00
3.333330000000e-03 1.000000000000e-02 0.000000000000e+00
0.000000000000e+00 6.666670000000e-03 0.000000000000e+00
3.333330000000e-03 6.666670000000e-03 0.000000000000e+00
0.000000000000e+00 3.333330000000e-03 0.000000000000e+00
3.333330000000e-03 3.333330000000e-03 0.000000000000e+00
0.000000000000e+00 7.771560000000e-18 0.000000000000e+00
3.333330000000e-03 7.771560000000e-18 0.000000000000e+00
6.666670000000e-03 1.366670000000e-01 0.000000000000e+00
6.666670000000e-03 1.400000000000e-01 0.000000000000e+00
6.666670000000e-03 1.333330000000e-01 0.000000000000e+00
6.666670000000e-03 1.300000000000e-01 0.000000000000e+00
6.666670000000e-03 1.266670000000e-01 0.000000000000e+00
6.666670000000e-03 1.233330000000e-01 0.000000000000e+00
6.666670000000e-03 1.200000000000e-01 0.000000000000e+00
6.666670000000e-03 1.166670000000e-01 0.000000000000e+00
6.666670000000e-03 1.133330000000e-01 0.000000000000e+00
6.666670000000e-03 1.100000000000e-01 0.000000000000e+00
6.666670000000e-03 1.066670000000e-01 0.000000000000e+00
6.666670000000e-03 1.033330000000e-01 0.000000000000e+00
6.666670000000e-03 1.000000000000e-01 0.000000000000e+00
6.666670000000e-03 9.666670000000e-02 0.000000000000e+00
6.666670000000e-03 9.333330000000e-02 0.000000000000e+00
6.666670000000e-03 9.000000000000e-02 0.000000000000e+00
6.666670000000e-03 8.666670000000e-02 0.000000000000e+00
6.666670000000e-03 8.333330000000e-02 0.000000000000e+00
6.666670000000e-03 8.000000000000e-02 0.000000000000e+00
6.666670000000e-03 7.666670000000e-02 0.000000000000e+00
6.666670000000e-03 7.333330000000e-02 0.000000000000e+00
6.666670000000e-03 7.000000000000e-02 0.000000000000e+00
6.666670000000e-03 6.666670000000e-02 0.000000000000e+00
6.666670000000e-03 6.333330000000e-02 0.000000000000e+00
6.666670000000e-03 6.000000000000e-02 0.000000000000e+00
6.666670000000e-03 5.666670000000e-02 0.000000000000e+00
6.666670000000e-03 5.333330000000e-02 0.000000000000e+00
6.666670000000e-03 5.000000000000e-02 0.000000000000e+00
6.666670000000e-03 4.666670000000e-02 0.000000000000e+00
6.666670000000e-03 4.333330000000e-02 0.000000000000e+00
6.666670000000e-03 4.000000000000e-02 0.000000000000e+00
6.666670000000e-03 3.666670000000e-02 0.000000000000e+00
6.666670000000e-03 3.333330000000e-02 0.000000000000e+00
6.666670000000e-03 3.000000000000e-02 0.000000000000e+00
6.666670000000e-03 2.666670000000e-02 0.000000000000e+00
6.666670000000e-03 2.333330000000e-02 0.000000000000e+00
6.666670000000e-03 2.000000000000e-02 0.000000000000e+00
6.666670000000e-03 1.666670000000e-02 0.000000000000e+00
6.666670000000e-03 1.333330000000e-02 0.000000000000e+00
6.666670000000e-03 1.000000000000e-02 0.000000000000e+00
6.666670000000e-03 6.666670000000e-03 0.000000000000e+00
6.666670000000e-03 3.333330000000e-03 0.000000000000e+00
6.666670000000e-03 7.771560000000e-18 0.000000000000e+00
1.000000000000e-02 1.366670000000e-01 0.000000000000e+00
1.000000000000e-02 1.400000000000e-01 0.000000000000e+00
1.000000000000e-02 1.333330000000e-01 0.000000000000e+00
1.000000000000e-02 1.300000000000e-01 0.000000000000e+00
1.000000000000e-02 1.266670000000e-01 0.000000000000e+00
1.000000000000e-02 1.233330000000e-01 0.000000000000e+00
1.000000000000e-02 1.200000000000e-01 0.000000000000e+00
1.000000000000e-02 1.166670000000e-01 0.000000000000e+00
1.000000000000e-02 1.133330000000e-01 0.000000000000e+00
1.000000000000e-02 1.100000000000e-01 0.000000000000e+00
1.000000000000e-02 1.066670000000e-01 0.000000000000e+00
1.000000000000e-02 1.033330000000e-01 0.000000000000e+00
1.000000000000e-02 1.000000000000e-01 0.000000000000e+00
1.000000000000e-02 9.666670000000e-02 0.000000000000e+00
1.000000000000e-02 9.333330000000e-02 0.000000000000e+00
1.000000000000e-02 9.000000000000e-02 0.000000000000e+00
1.000000000000e-02 8.666670000000e-02 0.000000000000e+00
1.000000000000e-02 8.333330000000e-02 0.000000000000e+00
1.000000000000e-02 8.000000000000e-02 0.000000000000e+00
1.000000000000e-02 7.666670000000e-02 0.000000000000e+00
1.000000000000e-02 7.333330000000e-02 0.000000000000e+00
1.000000000000e-02 7.000000000000e-02 0.000000000000e+00
1.000000000000e-02 6.666670000000e-02 0.000000000000e+00
1.000000000000e-02 6.333330000000e-02 0.000000000000e+00
1.000000000000e-02 6.000000000000e-02 0.000000000000e+00
1.000000000000e-02 5.666670000000e-02 0.000000000000e+00
1.000000000000e-02 5.333330000000e-02 0.000000000000e+00
1.000000000000e-02 5.000000000000e-02 0.000000000000e+00
1.000000000000e-02 4.666670000000e-02 0.000000000000e+00
1.000000000000e-02 4.333330000000e-02 0.000000000000e+00
1.000000000000e-02 4.000000000000e-02 0.000000000000e+00
1.000000000000e-02 3.666670000000e-02 0.000000000000e+00
1.000000000000e-02 3.333330000000e-02 0.000000000000e+00
1.000000000000e-02 3.000000000000e-02 0.000000000000e+00
1.000000000000e-02 2.666670000000e-02 0.000000000000e+00
1.000000000000e-02 2.333330000000e-02 0.000000000000e+00
1.000000000000e-02 2.000000000000e-02 0.000000000000e+00
1.000000000000e-02 1.666670000000e-02 0.000000000000e+00
1.000000000000e-02 1.333330000000e-02 0.000000000000e+00
1.000000000000e-02 1.000000000000e-02 0.000000000000e+00
1.000000000000e-02 6.666670000000e-03 0.000000000000e+00
1.000000000000e-02 3.333330000000e-03 0.000000000000e+00
1.000000000000e-02 7.771560000000e-18 0.000000000000e+00
[...]
POINT_DATA 1849
SCALARS HEAD double 1
LOOKUP_TABLE default
1.000242311427e+01
1.000242424925e+01
1.000242308129e+01
1.000242204457e+01
1.000242787659e+01
1.000242637710e+01
1.000243474443e+01
1.000243254924e+01
1.000244663889e+01
1.000244279226e+01
1.000246686665e+01
1.000246041698e+01
1.000252580648e+01
1.000247802072e+01
1.000254015293e+01
1.000248984188e+01
1.000254015008e+01
1.000248835166e+01
1.000252872776e+01
1.000247654705e+01
1.000250692542e+01
1.000245503161e+01
1.000247388126e+01
1.000242338428e+01
1.000242686243e+01
1.000237881091e+01
1.000233576693e+01
1.000232898788e+01
1.000228403650e+01
1.000227981677e+01
1.000224135997e+01
1.000223878016e+01
1.000220445340e+01
1.000220259784e+01
1.000217146373e+01
1.000217002221e+01
1.000214146391e+01
1.000214027770e+01
1.000211389398e+01
1.000211287678e+01
1.000208839189e+01
1.000208749242e+01
1.000206471082e+01
1.000206389694e+01
1.000204267147e+01
1.000204192201e+01
1.000202213998e+01
1.000202144045e+01
1.000200301484e+01
1.000200235517e+01
1.000198521403e+01
1.000198458668e+01
1.000196867078e+01
1.000196807046e+01
1.000195333173e+01
1.000195275413e+01
1.000193915009e+01
1.000193859190e+01
1.000192608599e+01
1.000192554469e+01
1.000191410631e+01
1.000191357968e+01
1.000190318106e+01
1.000190266726e+01
1.000189328414e+01
1.000189278158e+01
1.000188439347e+01
1.000188390078e+01
1.000187648891e+01
1.000187600478e+01
1.000186955303e+01
1.000186907636e+01
1.000186357129e+01
1.000186310093e+01
1.000185853076e+01
1.000185806572e+01
1.000185442082e+01
1.000185396002e+01
1.000185123310e+01
1.000185077567e+01
1.000184896083e+01
1.000184850577e+01
1.000184759939e+01
1.000184714564e+01
1.000184714588e+01
1.000184669262e+01
1.000241978305e+01
1.000241901384e+01
1.000242219424e+01
1.000242653457e+01
1.000243323338e+01
1.000244136843e+01
1.000244859494e+01
1.000245112429e+01
1.000244653441e+01
1.000243373741e+01
1.000241292330e+01
1.000238409904e+01
1.000234857052e+01
1.000230892572e+01
1.000226910896e+01
1.000223157236e+01
1.000219729511e+01
1.000216583261e+01
1.000213679602e+01
1.000210987190e+01
1.000208482402e+01
1.000206147528e+01
1.000203968738e+01
1.000201935176e+01
1.000200038303e+01
1.000198271005e+01
1.000196627344e+01
1.000195102438e+01
1.000193691992e+01
1.000192392274e+01
1.000191200145e+01
1.000190112738e+01
1.000189127531e+01
1.000188242394e+01
1.000187455368e+01
1.000186764737e+01
1.000186169093e+01
1.000185667150e+01
1.000185257865e+01
1.000184940415e+01
1.000184714125e+01
1.000184578537e+01
1.000184533373e+01
1.000241491188e+01
1.000241451276e+01
1.000241613054e+01
1.000241818367e+01
1.000242081450e+01
1.000242321474e+01
1.000242385288e+01
1.000242092266e+01
1.000241287233e+01
1.000239888375e+01
1.000237876032e+01
1.000235291863e+01
1.000232241983e+01
1.000228900935e+01
1.000225467816e+01
1.000222110488e+01
1.000218919685e+01
1.000215925110e+01
1.000213122716e+01
1.000210500850e+01
1.000208047028e+01
1.000205750218e+01
1.000203600678e+01
1.000201590178e+01
1.000199711925e+01
1.000197959957e+01
1.000196329152e+01
1.000194815191e+01
1.000193414172e+01
1.000192122649e+01
1.000190937708e+01
1.000189856604e+01
1.000188876943e+01
1.000187996674e+01
1.000187213896e+01
1.000186526946e+01
1.000185934435e+01
1.000185435115e+01
1.000185027954e+01
1.000184712145e+01
1.000184487022e+01
1.000184352134e+01
1.000184307202e+01
1.000240923127e+01
1.000240923544e+01
1.000240919503e+01
1.000240900922e+01
1.000240835763e+01
1.000240661717e+01
1.000240287757e+01
1.000239610588e+01
1.000238541294e+01
1.000237026602e+01
1.000235056752e+01
1.000232666524e+01
1.000229936797e+01
1.000226979521e+01
1.000223920555e+01
1.000220870674e+01
1.000217907563e+01
1.000215073388e+01
1.000212385421e+01
1.000209846912e+01
1.000207455330e+01
1.000205206150e+01
1.000203093932e+01
1.000201113326e+01
1.000199259525e+01
1.000197527917e+01
1.000195914336e+01
1.000194415149e+01
1.000193026931e+01
1.000191746610e+01
1.000190571498e+01
1.000189499076e+01
1.000188527070e+01
1.000187653534e+01
1.000186876644e+01
1.000186194796e+01
1.000185606642e+01
1.000185110971e+01
1.000184706765e+01
1.000184393239e+01
1.000184169743e+01
1.000184035827e+01
1.000183991219e+01
1.000240356261e+01
1.000240395898e+01
1.000240234232e+01
1.000240018763e+01
1.000239686161e+01
1.000239196993e+01
1.000238498902e+01
1.000237534849e+01
1.000236256020e+01
1.000234635236e+01
1.000232671910e+01
1.000230395156e+01
1.000227863689e+01
1.000225153809e+01
1.000222350187e+01
1.000219531102e+01
1.000216757871e+01
1.000214071823e+01
1.000211497076e+01
1.000209045390e+01
1.000206721200e+01
1.000204525149e+01
1.000202455592e+01
1.000200509858e+01
1.000198685046e+01
1.000196977909e+01
1.000195385272e+01
1.000193904217e+01
1.000192531844e+01
1.000191265458e+01
1.000190102675e+01
1.000189041154e+01
1.000188078811e+01
1.000187213794e+01
1.000186444375e+01
1.000185769008e+01
1.000185186403e+01
1.000184695382e+01
1.000184294954e+01
1.000183984340e+01
1.000183762927e+01
1.000183630254e+01
1.000183586055e+01
1.000239869437e+01
1.000239946071e+01
1.000239638224e+01
1.000239247820e+01
1.000238687619e+01
1.000237939376e+01
1.000236979260e+01
1.000235781005e+01
1.000234323050e+01
1.000232596960e+01
1.000230609714e+01
1.000228386537e+01
1.000225971618e+01
1.000223419084e+01
1.000220788920e+01
1.000218138223e+01
1.000215514934e+01
1.000212955118e+01
1.000210483498e+01
1.000208115149e+01
1.000205858403e+01
1.000203717385e+01
1.000201693268e+01
1.000199785542e+01
1.000197992925e+01
1.000196313412e+01
1.000194744739e+01
1.000193284669e+01
1.000191930805e+01
1.000190680831e+01
1.000189532637e+01
1.000188484114e+01
1.000187533312e+01
1.000186678526e+01
1.000185918089e+01
1.000185250542e+01
1.000184674644e+01
1.000184189249e+01
1.000183793390e+01
1.000183486321e+01
1.000183267423e+01
1.000183136253e+01
1.000183092562e+01
1.000239536164e+01
1.000239649017e+01
1.000239199445e+01
1.000238643874e+01
1.000237874338e+01
1.000236892978e+01
1.000235699455e+01
1.000234290630e+01
1.000232664586e+01
1.000230826456e+01
1.000228788853e+01
1.000226574652e+01
1.000224218661e+01
1.000221760738e+01
1.000219244853e+01
1.000216713621e+01
1.000214204344e+01
1.000211747112e+01
1.000209364479e+01
1.000207071831e+01
1.000204879092e+01
1.000202792230e+01
1.000200814186e+01
1.000198946013e+01
1.000197187619e+01
1.000195538004e+01
1.000193995654e+01
1.000192558927e+01
1.000191225867e+01
1.000189994497e+01
1.000188862961e+01
1.000187829360e+01
1.000186891885e+01
1.000186048938e+01
1.000185298946e+01
1.000184640510e+01
1.000184072435e+01
1.000183593599e+01
1.000183203105e+01
1.000182900183e+01
1.000182684231e+01
1.000182554833e+01
1.000182511724e+01
1.000239427824e+01
1.000239579337e+01
1.000238979666e+01
1.000238252869e+01
1.000237271109e+01
1.000236058125e+01
1.000234635388e+01
1.000233018908e+01
1.000231221839e+01
1.000229259190e+01
1.000227147446e+01
1.000224907755e+01
1.000222568473e+01
1.000220159675e+01
1.000217714269e+01
1.000215264373e+01
1.000212838907e+01
1.000210462172e+01
1.000208153543e+01
1.000205927202e+01
1.000203793016e+01
1.000201757604e+01
1.000199824772e+01
1.000197996436e+01
1.000196273347e+01
1.000194655165e+01
1.000193140942e+01
1.000191729474e+01
1.000190419178e+01
1.000189208353e+01
1.000188095361e+01
1.000187078461e+01
1.000186155978e+01
1.000185326404e+01
1.000184588253e+01
1.000183940173e+01
1.000183381006e+01
1.000182909674e+01
1.000182525276e+01
1.000182227089e+01
1.000182014515e+01
1.000181887138e+01
1.000181844708e+01
1.000239620128e+01
1.000239817746e+01
1.000239040764e+01
1.000238116772e+01
1.000236897220e+01
1.000235431682e+01
1.000233764069e+01
1.000231927412e+01
1.000229946444e+01
1.000227842893e+01
1.000225635225e+01
1.000223342629e+01
1.000220988283e+01
1.000218594916e+01
1.000216187163e+01
1.000213789142e+01
1.000211422873e+01
1.000209107508e+01
1.000206858905e+01
1.000204689233e+01
1.000202607416e+01
1.000200619811e+01
1.000198730393e+01
1.000196941406e+01
1.000195254000e+01
1.000193668211e+01
1.000192183463e+01
1.000190798834e+01
1.000189512993e+01
1.000188324442e+01
1.000187231702e+01
1.000186233161e+01
1.000185327240e+01
1.000184512508e+01
1.000183787532e+01
1.000183151002e+01
1.000182601810e+01
1.000182138872e+01
1.000181761314e+01
1.000181468450e+01
1.000181259670e+01
1.000181134569e+01
1.000181092893e+01
1.000240202574e+01
1.000240461776e+01
1.000239450862e+01
1.000238276001e+01
1.000236765858e+01
1.000235004085e+01
1.000233058954e+01
1.000230978071e+01
1.000228793846e+01
1.000226531165e+01
1.000224208041e+01
1.000221840643e+01
1.000219447232e+01
1.000217044297e+01
1.000214649735e+01
1.000212281111e+01
1.000209954677e+01
1.000207684930e+01
1.000205484243e+01
1.000203362418e+01
1.000201326921e+01
1.000199383287e+01
1.000197535117e+01
1.000195784566e+01
1.000194132814e+01
1.000192580047e+01
1.000191125813e+01
1.000189769344e+01
1.000188509451e+01
1.000187344749e+01
1.000186273848e+01
1.000185295233e+01
1.000184407377e+01
1.000183608887e+01
1.000182898386e+01
1.000182274581e+01
1.000181736372e+01
1.000181282725e+01
1.000180912759e+01
1.000180625779e+01
1.000180421194e+01
1.000180298615e+01
1.000180257781e+01
1.000241293273e+01
1.000241644919e+01
1.000240290606e+01
1.000238767602e+01
1.000236878573e+01
1.000234753371e+01
1.000232484568e+01
1.000230128382e+01
1.000227718864e+01
1.000225279417e+01
1.000222824500e+01
1.000220365604e+01
1.000217915614e+01
1.000215485090e+01
1.000213085971e+01
1.000210730183e+01
1.000208428938e+01
1.000206192474e+01
1.000204029882e+01
1.000201948469e+01
1.000199953964e+01
1.000198050774e+01
1.000196241759e+01
1.000194528646e+01
1.000192912409e+01
1.000191393114e+01
1.000189970291e+01
1.000188643181e+01
1.000187410618e+01
1.000186271239e+01
1.000185223704e+01
1.000184266506e+01
1.000183398157e+01
1.000182617285e+01
1.000181922519e+01
1.000181312588e+01
1.000180786391e+01
1.000180342904e+01
1.000179981248e+01
1.000179700717e+01
1.000179500747e+01
1.000179380930e+01
1.000179341016e+01
1.000243066746e+01
1.000243572705e+01
1.000241655079e+01
1.000239613608e+01
1.000237210406e+01
1.000234635762e+01
1.000231990704e+01
1.000229327374e+01
1.000226672580e+01
1.000224042373e+01
1.000221444079e+01
1.000218882559e+01
1.000216364498e+01
1.000213894463e+01
1.000211478825e+01
1.000209124408e+01
1.000206837911e+01
1.000204625725e+01
1.000202493823e+01
1.000200447066e+01
1.000198489350e+01
1.000196623739e+01
1.000194852156e+01
1.000193175702e+01
1.000191594910e+01
1.000190109574e+01
1.000188719048e+01
1.000187422457e+01
1.000186218551e+01
1.000185105944e+01
1.000184083258e+01
1.000183148958e+01
1.000182301540e+01
1.000181539651e+01
1.000180861873e+01
1.000180266954e+01
1.000179753771e+01
1.000179321309e+01
1.000178968675e+01
1.000178695177e+01
1.000178500224e+01
1.000178383423e+01
1.000178344511e+01
1.000245791145e+01
1.000246634901e+01
1.000243650116e+01
1.000240768869e+01
1.000237687793e+01
1.000234575372e+01
1.000231507639e+01
1.000228513161e+01
1.000225600683e+01
1.000222772755e+01
1.000220026073e+01
1.000217357038e+01
1.000214765362e+01
1.000212249531e+01
1.000209810565e+01
1.000207450607e+01
1.000205172272e+01
1.000202978473e+01
1.000200872275e+01
1.000198856218e+01
1.000196932365e+01
1.000195102378e+01
1.000193367143e+01
1.000191726952e+01
1.000190181804e+01
1.000188731077e+01
1.000187373832e+01
1.000186108983e+01
1.000184935126e+01
1.000183850763e+01
1.000182854423e+01
1.000181944514e+01
1.000181119482e+01
1.000180377917e+01
1.000179718403e+01
1.000179139636e+01
1.000178640490e+01
1.000178219925e+01
1.000177877037e+01
1.000177611127e+01
1.000177421608e+01
1.000177308063e+01
1.000177270245e+01
1.000250142036e+01
1.000251508282e+01
1.000246097912e+01
1.000242067802e+01
1.000238168453e+01
1.000234459310e+01
1.000230945701e+01
1.000227613611e+01
1.000224444262e+01
1.000221421841e+01
1.000218529955e+01
1.000215755405e+01
1.000213090589e+01
1.000210527944e+01
1.000208063538e+01
1.000205695218e+01
1.000203421938e+01
1.000201243514e+01
1.000199160346e+01
1.000197172838e+01
1.000195281317e+01
1.000193486027e+01
1.000191786769e+01
1.000190183025e+01
1.000188674111e+01
1.000187258929e+01
1.000185936157e+01
1.000184704429e+01
1.000183562116e+01
1.000182507554e+01
1.000181539128e+01
1.000180655139e+01
1.000179853982e+01
1.000179134140e+01
1.000178494164e+01
1.000177932726e+01
1.000177448644e+01
1.000177040854e+01
1.000176708455e+01
1.000176450714e+01
1.000176267038e+01
1.000176156993e+01
1.000176120350e+01
1.000254644835e+01
1.000264277129e+01
1.000248528562e+01
1.000243193386e+01
1.000238447090e+01
1.000234144582e+01
1.000230201162e+01
1.000226550697e+01
1.000223142778e+01
1.000219941479e+01
1.000216916755e+01
1.000214045863e+01
1.000211314207e+01
1.000208708708e+01
1.000206220970e+01
1.000203845111e+01
1.000201576900e+01
1.000199413408e+01
1.000197352761e+01
1.000195393409e+01
1.000193534026e+01
1.000191773575e+01
1.000190110783e+01
1.000188544269e+01
1.000187072654e+01
1.000185694316e+01
1.000184407494e+01
1.000183210483e+01
1.000182101367e+01
1.000181078288e+01
1.000180139435e+01
1.000179282998e+01
1.000178507239e+01
1.000177810573e+01
1.000177191472e+01
1.000176648543e+01
1.000176180581e+01
1.000175786484e+01
1.000175465323e+01
1.000175216333e+01
1.000175038918e+01
1.000174932640e+01
1.000174897236e+01
1.000258142782e+01
1.000268278282e+01
1.000250176480e+01
1.000243768937e+01
1.000238291462e+01
1.000233478871e+01
1.000229168418e+01
1.000225247921e+01
1.000221638613e+01
1.000218286810e+01
1.000215150673e+01
1.000212199376e+01
1.000209412512e+01
1.000206772466e+01
1.000204267200e+01
1.000201887770e+01
1.000199627337e+01
1.000197480675e+01
1.000195443968e+01
1.000193513929e+01
1.000191687845e+01
1.000189963436e+01
1.000188338419e+01
1.000186810587e+01
1.000185377892e+01
1.000184038129e+01
1.000182789060e+01
1.000181628613e+01
1.000180554578e+01
1.000179564824e+01
1.000178657365e+01
1.000177830201e+01
1.000177081463e+01
1.000176409490e+01
1.000175812645e+01
1.000175289470e+01
1.000174838716e+01
1.000174459241e+01
1.000174150072e+01
1.000173910451e+01
1.000173739720e+01
1.000173637460e+01
1.000173603404e+01
1.000259125084e+01
1.000269555491e+01
1.000250547783e+01
1.000243467756e+01
1.000237498304e+01
1.000232328265e+01
1.000227755789e+01
1.000223639675e+01
1.000219882761e+01
1.000216419797e+01
1.000213201281e+01
1.000210191116e+01
1.000207365026e+01
1.000204702301e+01
1.000202188331e+01
1.000199811933e+01
1.000197564237e+01
1.000195438259e+01
1.000193428573e+01
1.000191530475e+01
1.000189740019e+01
1.000188053844e+01
1.000186468756e+01
1.000184981772e+01
1.000183590147e+01
1.000182291123e+01
1.000181082005e+01
1.000179960295e+01
1.000178923466e+01
1.000177969101e+01
1.000177094989e+01
1.000176298951e+01
1.000175578984e+01
1.000174933273e+01
1.000174360130e+01
1.000173858012e+01
1.000173425599e+01
1.000173061706e+01
1.000172765333e+01
1.000172535674e+01
1.000172372083e+01
1.000172274108e+01
1.000172241482e+01
1.000258185673e+01
1.000268690450e+01
1.000249414504e+01
1.000242108845e+01
1.000235935000e+01
1.000230602569e+01
1.000225900326e+01
1.000221680084e+01
1.000217840140e+01
1.000214312470e+01
1.000211045586e+01
1.000208001803e+01
1.000205155462e+01
1.000202484475e+01
1.000199972844e+01
1.000197608037e+01
1.000195379847e+01
1.000193279999e+01
1.000191301832e+01
1.000189439528e+01
1.000187688123e+01
1.000186043297e+01
1.000184501067e+01
1.000183057705e+01
1.000181709882e+01
1.000180454248e+01
1.000179287664e+01
1.000178207188e+01
1.000177209957e+01
1.000176293257e+01
1.000175454631e+01
1.000174691724e+01
1.000174002354e+01
1.000173384617e+01
1.000172836694e+01
1.000172356972e+01
1.000171944075e+01
1.000171596766e+01
1.000171313999e+01
1.000171094949e+01
1.000170938944e+01
1.000170845528e+01
1.000170814421e+01
1.000255442437e+01
1.000265892873e+01
1.000246807484e+01
1.000239639060e+01
1.000233560131e+01
1.000228270144e+01
1.000223577268e+01
1.000219348486e+01
1.000215492659e+01
1.000211948544e+01
1.000208668778e+01
1.000205618041e+01
1.000202771800e+01
1.000200108306e+01
1.000197611444e+01
1.000195268137e+01
1.000193067512e+01
1.000191000460e+01
1.000189059455e+01
1.000187237857e+01
1.000185529820e+01
1.000183930285e+01
1.000182434548e+01
1.000181038244e+01
1.000179737464e+01
1.000178528359e+01
1.000177407287e+01
1.000176370900e+01
1.000175415963e+01
1.000174539435e+01
1.000173738636e+01
1.000173011001e+01
1.000172354212e+01
1.000171766224e+01
1.000171245118e+01
1.000170789216e+01
1.000170397053e+01
1.000170067353e+01
1.000169799039e+01
1.000169591241e+01
1.000169443299e+01
1.000169354721e+01
1.000169325229e+01
1.000250816548e+01
1.000260994796e+01
1.000242727509e+01
1.000236132794e+01
1.000230425114e+01
1.000225362270e+01
1.000220802716e+01
1.000216650881e+01
1.000212839901e+01
1.000209323759e+01
1.000206064510e+01
1.000203032386e+01
1.000200206289e+01
1.000197566374e+01
1.000195097206e+01
1.000192786073e+01
1.000190621873e+01
1.000188595165e+01
1.000186697854e+01
1.000184922678e+01
1.000183263116e+01
1.000181713524e+01
1.000180268551e+01
1.000178923333e+01
1.000177673383e+01
1.000176514392e+01
1.000175442265e+01
1.000174453206e+01
1.000173543554e+01
1.000172709972e+01
1.000171949508e+01
1.000171259446e+01
1.000170637328e+01
1.000170080964e+01
1.000169588384e+01
1.000169157765e+01
1.000168787621e+01
1.000168476599e+01
1.000168223592e+01
1.000168027749e+01
1.000167888325e+01
1.000167804874e+01
1.000167777100e+01
1.000243758552e+01
1.000253462566e+01
1.000237437646e+01
1.000231793299e+01
1.000226671673e+01
1.000221967081e+01
1.000217628859e+01
1.000213616674e+01
1.000209897173e+01
1.000206444714e+01
1.000203233915e+01
1.000200243155e+01
1.000197455752e+01
1.000194854402e+01
1.000192425770e+01
1.000190157566e+01
1.000188039189e+01
1.000186060924e+01
1.000184214494e+01
1.000182492108e+01
1.000180886869e+01
1.000179392429e+01
1.000178003046e+01
1.000176713324e+01
1.000175518465e+01
1.000174413653e+01
1.000173394366e+01
1.000172456270e+01
1.000171595247e+01
1.000170807584e+01
1.000170090148e+01
1.000169440078e+01
1.000168854834e+01
1.000168332133e+01
1.000167869810e+01
1.000167466046e+01
1.000167119215e+01
1.000166827975e+01
1.000166591197e+01
1.000166407948e+01
1.000166277557e+01
1.000166199528e+01
1.000166173542e+01
1.000235835270e+01
1.000237313907e+01
1.000231472816e+01
1.000226969973e+01
1.000222508388e+01
1.000218209852e+01
1.000214130734e+01
1.000210289909e+01
1.000206689420e+01
1.000203324686e+01
1.000200183536e+01
1.000197251971e+01
1.000194518773e+01
1.000191970470e+01
1.000189594294e+01
1.000187379909e+01
1.000185316497e+01
1.000183395198e+01
1.000181607220e+01
1.000179944644e+01
1.000178399913e+01
1.000176966404e+01
1.000175637916e+01
1.000174408764e+01
1.000173273629e+01
1.000172227538e+01
1.000171265447e+01
1.000170382544e+01
1.000169573788e+01
1.000168835210e+01
1.000168163475e+01
1.000167555982e+01
1.000167009979e+01
1.000166523054e+01
1.000166092850e+01
1.000165717478e+01
1.000165395314e+01
1.000165124994e+01
1.000164905360e+01
1.000164735441e+01
1.000164614524e+01
1.000164542183e+01
1.000164518115e+01
1.000228280856e+01
1.000229300896e+01
1.000225650564e+01
1.000222060038e+01
1.000218163879e+01
1.000214226600e+01
1.000210387842e+01
1.000206718820e+01
1.000203245549e+01
1.000199980280e+01
1.000196921914e+01
1.000194062319e+01
1.000191397069e+01
1.000188913636e+01
1.000186601377e+01
1.000184450110e+01
1.000182451844e+01
1.000180595817e+01
1.000178874472e+01
1.000177279070e+01
1.000175800599e+01
1.000174434290e+01
1.000173172266e+01
1.000172009492e+01
1.000170939187e+01
1.000169956273e+01
1.000169057016e+01
1.000168234212e+01
1.000167482503e+01
1.000166795573e+01
1.000166172451e+01
1.000165610160e+01
1.000165106188e+01
1.000164657076e+01
1.000164261185e+01
1.000163915732e+01
1.000163619756e+01
1.000163371523e+01
1.000163169745e+01
1.000163014039e+01
1.000162903109e+01
1.000162836666e+01
1.000162814370e+01
1.000222692588e+01
1.000223481379e+01
1.000220501328e+01
1.000217393596e+01
1.000213823344e+01
1.000210118601e+01
1.000206466699e+01
1.000202942590e+01
1.000199600511e+01
1.000196435835e+01
1.000193453937e+01
1.000190693582e+01
1.000188108258e+01
1.000185687652e+01
1.000183449811e+01
1.000181373756e+01
1.000179446629e+01