VARIABLES  = "X","Y","Z", "STRESS_XX", "STRESS_YY", "STRESS_ZZ", "DISPLACEMENT_X1", "DISPLACEMENT_Y1"
ZONE T="0.000000000000e+00s", N=75, E=117, F=FEPOINT, ET=QUADRILATERAL
STRANDID=1, SOLUTIONTIME=0.000000000000e+00
0.000000000000e+00 0.000000000000e+00 0.000000000000e+00 0.000000000000e+00 0.000000000000e+00 0.000000000000e+00 0.000000000000e+00 0.000000000000e+00 
1.000000000000e-01 0.000000000000e+00 0.000000000000e+00 0.000000000000e+00 0.000000000000e+00 0.000000000000e+00 0.000000000000e+00 0.000000000000e+00 
1.111111111111e-02 0.000000000000e+00 0.000000000000e+00 0.000000000000e+00 0.000000000000e+00 0.000000000000e+00 0.000000000000e+00 0.000000000000e+00 
2.222222222222e-02 0.000000000000e+00 0.000000000000e+00 0.000000000000e+00 0.000000000000e+00 0.000000000000e+00 0.000000000000e+00 0.000000000000e+00 
3.333333333333e-02 0.000000000000e+00 0.000000000000e+00 0.000000000000e+00 0.000000000000e+00 0.000000000000e+00 0.000000000000e+00 0.000000000000e+00 
4.444444444444e-02 0.000000000000e+00 0.000000000000e+00 0.000000000000e+00 0.000000000000e+00 0.000000000000e+00 0.000000000000e+00 0.000000000000e+00 
5.555555555555e-02 0.000000000000e+00 0.000000000000e+00 0.000000000000e+00 0.000000000000e+00 0.000000000000e+00 0.000000000000e+00 0.000000000000e+00 
6.666666666666e-02 0.000000000000e+00 0.000000000000e+00 0.000000000000e+00 0.000000000000e+00 0.000000000000e+00 0.000000000000e+00 0.000000000000e+00 
7.777777777778e-02 0.000000000000e+00 0.000000000000e+00 0.000000000000e+00 0.000000000000e+00 0.000000000000e+00 0.000000000000e+00 0.000000000000e+00 
8.888888888889e-02 0.000000000000e+00 0.000000000000e+00 0.000000000000e+00 0.000000000000e+00 0.000000000000e+00 0.000000000000e+00 0.000000000000e+00 
1.000000000000e-01 -1.027078831439e-02 0.000000000000e+00 0.000000000000e+00 0.000000000000e+00 0.000000000000e+00 0.000000000000e+00 0.000000000000e+00 
1.000000000000e-01 -2.095579726046e-02 0.000000000000e+00 0.000000000000e+00 0.000000000000e+00 0.000000000000e+00 0.000000000000e+00 0.000000000000e+00 
1.000000000000e-01 -3.207786985738e-02 0.000000000000e+00 0.000000000000e+00 0.000000000000e+00 0.000000000000e+00 0.000000000000e+00 0.000000000000e+00 
0.000000000000e+00 -8.133192903590e-02 0.000000000000e+00 0.000000000000e+00 0.000000000000e+00 0.000000000000e+00 0.000000000000e+00 0.000000000000e+00 
0.000000000000e+00 -6.826783355915e-02 0.000000000000e+00 0.000000000000e+00 0.000000000000e+00 0.000000000000e+00 0.000000000000e+00 0.000000000000e+00 
0.000000000000e+00 -5.571534163644e-02 0.000000000000e+00 0.000000000000e+00 0.000000000000e+00 0.000000000000e+00 0.000000000000e+00 0.000000000000e+00 
0.000000000000e+00 -4.365795665274e-02 0.000000000000e+00 0.000000000000e+00 0.000000000000e+00 0.000000000000e+00 0.000000000000e+00 0.000000000000e+00 
0.000000000000e+00 -3.207786985738e-02 0.000000000000e+00 0.000000000000e+00 0.000000000000e+00 0.000000000000e+00 0.000000000000e+00 0.000000000000e+00 
0.000000000000e+00 -2.095579726046e-02 0.000000000000e+00 0.000000000000e+00 0.000000000000e+00 0.000000000000e+00 0.000000000000e+00 0.000000000000e+00 
0.000000000000e+00 -1.027078831439e-02 0.000000000000e+00 0.000000000000e+00 0.000000000000e+00 0.000000000000e+00 0.000000000000e+00 0.000000000000e+00 
5.004498772813e-02 -4.996206278841e-02 0.000000000000e+00 0.000000000000e+00 0.000000000000e+00 0.000000000000e+00 0.000000000000e+00 0.000000000000e+00 
7.225358222233e-02 -2.762721782684e-02 0.000000000000e+00 0.000000000000e+00 0.000000000000e+00 0.000000000000e+00 0.000000000000e+00 0.000000000000e+00 
2.775548582498e-02 -2.745540160687e-02 0.000000000000e+00 0.000000000000e+00 0.000000000000e+00 0.000000000000e+00 0.000000000000e+00 0.000000000000e+00 
3.144484460580e-02 -7.586712852882e-02 0.000000000000e+00 0.000000000000e+00 0.000000000000e+00 0.000000000000e+00 0.000000000000e+00 0.000000000000e+00 
5.002530677431e-02 -2.216144592127e-02 0.000000000000e+00 0.000000000000e+00 0.000000000000e+00 0.000000000000e+00 0.000000000000e+00 0.000000000000e+00 
2.456481525732e-02 -5.204499879856e-02 0.000000000000e+00 0.000000000000e+00 0.000000000000e+00 0.000000000000e+00 0.000000000000e+00 0.000000000000e+00 
8.415554875855e-02 -1.593261949054e-02 0.000000000000e+00 0.000000000000e+00 0.000000000000e+00 0.000000000000e+00 0.000000000000e+00 0.000000000000e+00 
1.584570179876e-02 -1.589435702197e-02 0.000000000000e+00 0.000000000000e+00 0.000000000000e+00 0.000000000000e+00 0.000000000000e+00 0.000000000000e+00 
5.002678796997e-02 -6.957908922559e-02 0.000000000000e+00 0.000000000000e+00 0.000000000000e+00 0.000000000000e+00 0.000000000000e+00 0.000000000000e+00 
6.357480821475e-02 -1.499016162324e-02 0.000000000000e+00 0.000000000000e+00 0.000000000000e+00 0.000000000000e+00 0.000000000000e+00 0.000000000000e+00 
3.653928432153e-02 -1.491811755562e-02 0.000000000000e+00 0.000000000000e+00 0.000000000000e+00 0.000000000000e+00 0.000000000000e+00 0.000000000000e+00 
4.156694993639e-02 -3.606774926499e-02 0.000000000000e+00 0.000000000000e+00 0.000000000000e+00 0.000000000000e+00 0.000000000000e+00 0.000000000000e+00 
8.454242557621e-02 -3.844635220127e-02 0.000000000000e+00 0.000000000000e+00 0.000000000000e+00 0.000000000000e+00 0.000000000000e+00 0.000000000000e+00 
1.557815204777e-02 -3.837711259674e-02 0.000000000000e+00 0.000000000000e+00 0.000000000000e+00 0.000000000000e+00 0.000000000000e+00 0.000000000000e+00 
5.839491143928e-02 -3.605583620800e-02 0.000000000000e+00 0.000000000000e+00 0.000000000000e+00 0.000000000000e+00 0.000000000000e+00 0.000000000000e+00 
1.693000682173e-02 -6.715456475858e-02 0.000000000000e+00 0.000000000000e+00 0.000000000000e+00 0.000000000000e+00 0.000000000000e+00 0.000000000000e+00 
1.698701460171e-02 -8.593339913784e-02 0.000000000000e+00 0.000000000000e+00 0.000000000000e+00 0.000000000000e+00 0.000000000000e+00 0.000000000000e+00 
3.802067276118e-02 -5.975942885331e-02 0.000000000000e+00 0.000000000000e+00 0.000000000000e+00 0.000000000000e+00 0.000000000000e+00 0.000000000000e+00 
5.005728778040e-02 -1.036531727070e-02 0.000000000000e+00 0.000000000000e+00 0.000000000000e+00 0.000000000000e+00 0.000000000000e+00 0.000000000000e+00 
7.049571814535e-02 -4.034466657971e-02 0.000000000000e+00 0.000000000000e+00 0.000000000000e+00 0.000000000000e+00 0.000000000000e+00 0.000000000000e+00 
2.941632652166e-02 -4.017271159170e-02 0.000000000000e+00 0.000000000000e+00 0.000000000000e+00 0.000000000000e+00 0.000000000000e+00 0.000000000000e+00 
8.897479783189e-02 -2.710999574393e-02 0.000000000000e+00 0.000000000000e+00 0.000000000000e+00 0.000000000000e+00 0.000000000000e+00 0.000000000000e+00 
1.113464613131e-02 -2.708126415819e-02 0.000000000000e+00 0.000000000000e+00 0.000000000000e+00 0.000000000000e+00 0.000000000000e+00 0.000000000000e+00 
2.597015323725e-02 -1.069324664278e-02 0.000000000000e+00 0.000000000000e+00 0.000000000000e+00 0.000000000000e+00 0.000000000000e+00 0.000000000000e+00 
7.408283873696e-02 -1.070827713528e-02 0.000000000000e+00 0.000000000000e+00 0.000000000000e+00 0.000000000000e+00 0.000000000000e+00 0.000000000000e+00 
1.181905148011e-02 -5.063704677617e-02 0.000000000000e+00 0.000000000000e+00 0.000000000000e+00 0.000000000000e+00 0.000000000000e+00 0.000000000000e+00 
3.837716410809e-02 -4.791954238685e-02 0.000000000000e+00 0.000000000000e+00 0.000000000000e+00 0.000000000000e+00 0.000000000000e+00 0.000000000000e+00 
3.962016499175e-02 -2.535813545822e-02 0.000000000000e+00 0.000000000000e+00 0.000000000000e+00 0.000000000000e+00 0.000000000000e+00 0.000000000000e+00 
6.040098105514e-02 -2.537942735538e-02 0.000000000000e+00 0.000000000000e+00 0.000000000000e+00 0.000000000000e+00 0.000000000000e+00 0.000000000000e+00 
6.163087269112e-02 -4.804641620450e-02 0.000000000000e+00 0.000000000000e+00 0.000000000000e+00 0.000000000000e+00 0.000000000000e+00 0.000000000000e+00 
9.069229804381e-02 -9.171850869289e-03 0.000000000000e+00 0.000000000000e+00 0.000000000000e+00 0.000000000000e+00 0.000000000000e+00 0.000000000000e+00 
9.354468020660e-03 -9.152635551513e-03 0.000000000000e+00 0.000000000000e+00 0.000000000000e+00 0.000000000000e+00 0.000000000000e+00 0.000000000000e+00 
2.804557775330e-02 -6.508329529637e-02 0.000000000000e+00 0.000000000000e+00 0.000000000000e+00 0.000000000000e+00 0.000000000000e+00 0.000000000000e+00 
1.044096559141e-02 -7.656376756274e-02 0.000000000000e+00 0.000000000000e+00 0.000000000000e+00 0.000000000000e+00 0.000000000000e+00 0.000000000000e+00 
6.112116579903e-02 -6.644401917176e-03 0.000000000000e+00 0.000000000000e+00 0.000000000000e+00 0.000000000000e+00 0.000000000000e+00 0.000000000000e+00 
3.895159902251e-02 -6.578247738084e-03 0.000000000000e+00 0.000000000000e+00 0.000000000000e+00 0.000000000000e+00 0.000000000000e+00 0.000000000000e+00 
1.789231550313e-02 -7.427897760453e-03 0.000000000000e+00 0.000000000000e+00 0.000000000000e+00 0.000000000000e+00 0.000000000000e+00 0.000000000000e+00 
4.997781314446e-02 -3.165806160767e-02 0.000000000000e+00 0.000000000000e+00 0.000000000000e+00 0.000000000000e+00 0.000000000000e+00 0.000000000000e+00 
8.218065868343e-02 -7.482707021761e-03 0.000000000000e+00 0.000000000000e+00 0.000000000000e+00 0.000000000000e+00 0.000000000000e+00 0.000000000000e+00 
7.593146034688e-02 -1.946650689593e-02 0.000000000000e+00 0.000000000000e+00 0.000000000000e+00 0.000000000000e+00 0.000000000000e+00 0.000000000000e+00 
9.097483185567e-03 -6.052866285240e-02 0.000000000000e+00 0.000000000000e+00 0.000000000000e+00 0.000000000000e+00 0.000000000000e+00 0.000000000000e+00 
2.403235587872e-02 -1.937579604224e-02 0.000000000000e+00 0.000000000000e+00 0.000000000000e+00 0.000000000000e+00 0.000000000000e+00 0.000000000000e+00 
5.204798323580e-02 -5.977244273485e-02 0.000000000000e+00 0.000000000000e+00 0.000000000000e+00 0.000000000000e+00 0.000000000000e+00 0.000000000000e+00 
3.977027004405e-02 -6.986979884634e-02 0.000000000000e+00 0.000000000000e+00 0.000000000000e+00 0.000000000000e+00 0.000000000000e+00 0.000000000000e+00 
1.000000000000e-01 -4.365795665274e-02 0.000000000000e+00 0.000000000000e+00 0.000000000000e+00 0.000000000000e+00 0.000000000000e+00 0.000000000000e+00 
0.000000000000e+00 -9.493635849425e-02 0.000000000000e+00 0.000000000000e+00 0.000000000000e+00 0.000000000000e+00 0.000000000000e+00 0.000000000000e+00 
7.556622015059e-02 -5.213930935979e-02 0.000000000000e+00 0.000000000000e+00 0.000000000000e+00 0.000000000000e+00 0.000000000000e+00 0.000000000000e+00 
8.827644021441e-02 -5.068271212769e-02 0.000000000000e+00 0.000000000000e+00 0.000000000000e+00 0.000000000000e+00 0.000000000000e+00 0.000000000000e+00 
1.125853509499e-02 -1.018913627337e-01 0.000000000000e+00 0.000000000000e+00 0.000000000000e+00 0.000000000000e+00 0.000000000000e+00 0.000000000000e+00 
3.176003359910e-02 -8.986364252605e-02 0.000000000000e+00 0.000000000000e+00 0.000000000000e+00 0.000000000000e+00 0.000000000000e+00 0.000000000000e+00 
2.453145878902e-02 -1.018531985808e-01 0.000000000000e+00 0.000000000000e+00 0.000000000000e+00 0.000000000000e+00 0.000000000000e+00 0.000000000000e+00 
6.206074805899e-02 -5.978173210899e-02 0.000000000000e+00 0.000000000000e+00 0.000000000000e+00 0.000000000000e+00 0.000000000000e+00 0.000000000000e+00 
4.512057632941e-02 -8.568062374441e-02 0.000000000000e+00 0.000000000000e+00 0.000000000000e+00 0.000000000000e+00 0.000000000000e+00 0.000000000000e+00 
5.675176755435e-02 -8.029564380893e-02 0.000000000000e+00 0.000000000000e+00 0.000000000000e+00 0.000000000000e+00 0.000000000000e+00 0.000000000000e+00 
6.027993180190e-02 -6.988363285687e-02 0.000000000000e+00 0.000000000000e+00 0.000000000000e+00 0.000000000000e+00 0.000000000000e+00 0.000000000000e+00 
33  22  42  33
23  34  43  23
21  32  58  21
35  21  58  35
36  24  37  36
12  27  51  12
28  19  52  28
27  12  42  27
19  28  43  19
17  18  34  17
36  37  54  36
42  22  60  42
30  25  39  30
25  31  39  25
23  43  62  23
22  33  40  22
34  23  41  34
13  33  42  13
34  18  43  34
26  36  61  26
23  32  41  23
35  22  40  35
46  26  61  46
32  23  48  32
26  34  41  26
22  35  49  22
17  34  46  17
25  30  49  25
11  12  51  11
31  25  48  31
19  20  52  19
31  23  62  31
30  22  49  30
22  30  60  22
23  31  48  23
34  26  46  34
32  21  47  32
21  35  50  21
27  42  60  27
43  28  62  43
44  5  56  44
8  45  55  8
36  26  53  36
30  39  55  30
39  31  56  39
4  5  44  4
8  9  45  8
38  26  47  38
37  14  54  37
24  36  53  24
10  2  51  10
31  44  56  31
45  30  55  45
6  7  39  6
1  3  52  1
26  38  53  26
2  11  51  2
38  21  63  38
20  1  52  20
21  38  47  21
54  15  61  54
26  41  47  26
36  54  61  36
44  31  62  44
29  38  63  29
12  13  42  12
18  19  43  18
30  45  60  30
38  29  64  38
21  50  63  21
16  17  46  16
6  39  56  6
39  7  55  39
35  40  50  35
41  32  47  41
3  4  57  3
9  10  59  9
25  49  58  25
48  25  58  48
49  35  58  49
32  48  58  32
5  6  56  5
14  15  54  14
7  8  55  7
4  44  57  4
45  9  59  45
44  28  57  44
28  44  62  28
45  27  60  45
27  45  59  27
16  46  61  16
15  16  61  15
10  51  59  10
52  3  57  52
53  38  64  53
24  53  64  24
28  52  57  28
51  27  59  51
13  65  33  13
66  14  37  66
33  67  40  33
33  65  68  33
66  37  69  66
67  33  68  67
37  24  70  37
37  71  69  37
67  72  50  67
29  73  64  29
73  24  64  73
71  37  70  71
24  73  70  24
73  29  74  73
40  67  50  40
50  72  63  50
63  72  75  63
29  63  75  29
74  29  75  74
VARIABLES  = "X","Y","Z", "STRESS_XX", "STRESS_YY", "STRESS_ZZ", "DISPLACEMENT_X1", "DISPLACEMENT_Y1"
ZONE T="1.000000000000e+01s", N=75, E=117, F=FEPOINT, ET=QUADRILATERAL
STRANDID=1, SOLUTIONTIME=1.000000000000e+01
0.000000000000e+00 0.000000000000e+00 0.000000000000e+00 -2.499438578815e+02 -9.997565833369e+02 -2.499400882437e+02 0.000000000000e+00 -2.857159400117e-02 
1.000000000000e-01 0.000000000000e+00 0.000000000000e+00 -2.497909977007e+02 -9.991427318733e+02 -2.497867459148e+02 0.000000000000e+00 -2.857159340033e-02 
1.111111111111e-02 0.000000000000e+00 0.000000000000e+00 -2.499211570802e+02 -9.997034435765e+02 -2.499249201313e+02 -8.770934480526e-11 -2.857159236844e-02 
2.222222222222e-02 0.000000000000e+00 0.000000000000e+00 -2.498195292123e+02 -9.992773750335e+02 -2.498193808491e+02 1.323633609409e-09 -2.857159329173e-02 
3.333333333333e-02 0.000000000000e+00 0.000000000000e+00 -2.499347558070e+02 -9.997372232268e+02 -2.499343958068e+02 3.750881199530e-10 -2.857159388471e-02 
4.444444444444e-02 0.000000000000e+00 0.000000000000e+00 -2.498340109432e+02 -9.993241157065e+02 -2.498316253299e+02 6.292947870630e-10 -2.857159462326e-02 
5.555555555555e-02 0.000000000000e+00 0.000000000000e+00 -2.499358072900e+02 -9.997348875991e+02 -2.499341389778e+02 -1.513703289425e-09 -2.857159440009e-02 
6.666666666666e-02 0.000000000000e+00 0.000000000000e+00 -2.498262550163e+02 -9.993078996504e+02 -2.498268309333e+02 -9.906063927313e-10 -2.857159333039e-02 
7.777777777778e-02 0.000000000000e+00 0.000000000000e+00 -2.499247516981e+02 -9.997012387869e+02 -2.499251980970e+02 -1.637017817071e-09 -2.857159267345e-02 
8.888888888889e-02 0.000000000000e+00 0.000000000000e+00 -2.498287820140e+02 -9.993352480115e+02 -2.498328060051e+02 -4.945415832354e-11 -2.857159176869e-02 
1.000000000000e-01 -1.027078831439e-02 0.000000000000e+00 -2.480303564948e+02 -9.920964585781e+02 -2.480253630146e+02 0.000000000000e+00 -2.826460397058e-02 
1.000000000000e-01 -2.095579726046e-02 0.000000000000e+00 -2.462786516947e+02 -9.851333609311e+02 -2.462824025251e+02 0.000000000000e+00 -2.794759484211e-02 
1.000000000000e-01 -3.207786985738e-02 0.000000000000e+00 -2.444412700309e+02 -9.777829843021e+02 -2.444448508666e+02 0.000000000000e+00 -2.762003511663e-02 
0.000000000000e+00 -8.133192903590e-02 0.000000000000e+00 -2.395132230356e+02 -9.579645225829e+02 -2.394955491237e+02 0.000000000000e+00 -2.619188711290e-02 
0.000000000000e+00 -6.826783355915e-02 0.000000000000e+00 -2.404493946190e+02 -9.618411047963e+02 -2.404580998831e+02 0.000000000000e+00 -2.656796091516e-02 
0.000000000000e+00 -5.571534163644e-02 0.000000000000e+00 -2.416031466595e+02 -9.663565452605e+02 -2.415919383840e+02 0.000000000000e+00 -2.693087326184e-02 
0.000000000000e+00 -4.365795665274e-02 0.000000000000e+00 -2.430018663183e+02 -9.720320800522e+02 -2.430067892741e+02 0.000000000000e+00 -2.728133576048e-02 
0.000000000000e+00 -3.207786985738e-02 0.000000000000e+00 -2.446829763422e+02 -9.787453821682e+02 -2.446856717021e+02 0.000000000000e+00 -2.762003496200e-02 
0.000000000000e+00 -2.095579726046e-02 0.000000000000e+00 -2.464292672653e+02 -9.857356694573e+02 -2.464329873445e+02 0.000000000000e+00 -2.794759511048e-02 
0.000000000000e+00 -1.027078831439e-02 0.000000000000e+00 -2.483385412072e+02 -9.933268857665e+02 -2.483330853947e+02 0.000000000000e+00 -2.826460449179e-02 
5.004498772813e-02 -4.996206278841e-02 0.000000000000e+00 -2.422039015926e+02 -9.687658932891e+02 -2.421939589763e+02 1.271901588994e-09 -2.709782899546e-02 
7.225358222233e-02 -2.762721782684e-02 0.000000000000e+00 -2.452248087968e+02 -9.809042416422e+02 -2.452258100878e+02 -5.484132620508e-09 -2.775083680448e-02 
2.775548582498e-02 -2.745540160687e-02 0.000000000000e+00 -2.452545378834e+02 -9.810178160529e+02 -2.452544707873e+02 5.428521753325e-09 -2.775589388109e-02 
3.144484460580e-02 -7.586712852882e-02 0.000000000000e+00 -2.397909606643e+02 -9.592051112635e+02 -2.397992143856e+02 -1.235898572230e-09 -2.634903267874e-02 
5.002530677431e-02 -2.216144592127e-02 0.000000000000e+00 -2.461161008718e+02 -9.844658284528e+02 -2.461163858649e+02 -4.108345750424e-10 -2.791197919910e-02 
2.456481525732e-02 -5.204499879856e-02 0.000000000000e+00 -2.418993456351e+02 -9.676060431398e+02 -2.419010777550e+02 1.630781580476e-09 -2.703733829431e-02 
8.415554875855e-02 -1.593261949054e-02 0.000000000000e+00 -2.471442787391e+02 -9.885759327005e+02 -2.471440422879e+02 -6.467207792043e-10 -2.809633412095e-02 
1.584570179876e-02 -1.589435702197e-02 0.000000000000e+00 -2.472350492004e+02 -9.889395489493e+02 -2.472349196299e+02 5.502119366780e-10 -2.809746953856e-02 
5.002678796997e-02 -6.957908922559e-02 0.000000000000e+00 -2.402523433936e+02 -9.610468261932e+02 -2.402598339174e+02 -1.619711040423e-09 -2.653014563444e-02 
6.357480821475e-02 -1.499016162324e-02 0.000000000000e+00 -2.473248437165e+02 -9.892902450397e+02 -2.473230177512e+02 -1.450669779169e-09 -2.812430186665e-02 
3.653928432153e-02 -1.491811755562e-02 0.000000000000e+00 -2.473194274322e+02 -9.892646827451e+02 -2.473168220355e+02 9.748113861603e-10 -2.812644069421e-02 
4.156694993639e-02 -3.606774926499e-02 0.000000000000e+00 -2.439957013653e+02 -9.759727940867e+02 -2.439936990904e+02 4.749967856152e-09 -2.750308675190e-02 
8.454242557621e-02 -3.844635220127e-02 0.000000000000e+00 -2.435690170323e+02 -9.743279186715e+02 -2.435793871408e+02 -4.986859332433e-09 -2.743349079101e-02 
1.557815204777e-02 -3.837711259674e-02 0.000000000000e+00 -2.436550373891e+02 -9.746752347696e+02 -2.436660544317e+02 5.187982034812e-09 -2.743551470845e-02 
5.839491143928e-02 -3.605583620800e-02 0.000000000000e+00 -2.439329731803e+02 -9.757250250130e+02 -2.439315996387e+02 -5.467296057919e-09 -2.750343580026e-02 
1.693000682173e-02 -6.715456475858e-02 0.000000000000e+00 -2.403939985808e+02 -9.615973826031e+02 -2.403982762368e+02 -1.066687773866e-09 -2.660007985014e-02 
1.698701460171e-02 -8.593339913784e-02 0.000000000000e+00 -2.391439308464e+02 -9.565881971698e+02 -2.391464256032e+02 3.173275389480e-09 -2.605974409443e-02 
3.802067276118e-02 -5.975942885331e-02 0.000000000000e+00 -2.411124980740e+02 -9.644578163783e+02 -2.411140628905e+02 2.188391824784e-10 -2.681374772260e-02 
5.005728778040e-02 -1.036531727070e-02 0.000000000000e+00 -2.481799183215e+02 -9.926864156114e+02 -2.481732667866e+02 -3.783844497371e-10 -2.826179372993e-02 
7.049571814535e-02 -4.034466657971e-02 0.000000000000e+00 -2.432733029755e+02 -9.730940683711e+02 -2.432734742693e+02 -5.709767335230e-09 -2.737801464801e-02 
2.941632652166e-02 -4.017271159170e-02 0.000000000000e+00 -2.434371079773e+02 -9.737425876047e+02 -2.434359391164e+02 6.097171591940e-09 -2.738303637884e-02 
8.897479783189e-02 -2.710999574393e-02 0.000000000000e+00 -2.452932113049e+02 -9.811879219990e+02 -2.452962266608e+02 -2.879550653913e-09 -2.776605476906e-02 
1.113464613131e-02 -2.708126415819e-02 0.000000000000e+00 -2.454063755524e+02 -9.816379251443e+02 -2.454088601393e+02 2.967592861903e-09 -2.776690066305e-02 
2.597015323725e-02 -1.069324664278e-02 0.000000000000e+00 -2.480778484506e+02 -9.923148417393e+02 -2.480785380380e+02 7.483689222498e-10 -2.825202689830e-02 
7.408283873696e-02 -1.070827713528e-02 0.000000000000e+00 -2.480739603960e+02 -9.923012371439e+02 -2.480750395080e+02 -1.044533877192e-09 -2.825157885529e-02 
1.181905148011e-02 -5.063704677617e-02 0.000000000000e+00 -2.420520109207e+02 -9.682398580957e+02 -2.420583738033e+02 2.186699906221e-09 -2.707822944855e-02 
3.837716410809e-02 -4.791954238685e-02 0.000000000000e+00 -2.424207244553e+02 -9.696232016115e+02 -2.424087852134e+02 5.470523030723e-09 -2.715722193204e-02 
3.962016499175e-02 -2.535813545822e-02 0.000000000000e+00 -2.456557609111e+02 -9.825439918958e+02 -2.456399505614e+02 1.188814401945e-09 -2.781766615982e-02 
6.040098105514e-02 -2.537942735538e-02 0.000000000000e+00 -2.455066483842e+02 -9.819580809596e+02 -2.454929458688e+02 -1.766585001703e-09 -2.781703834407e-02 
6.163087269112e-02 -4.804641620450e-02 0.000000000000e+00 -2.423396269711e+02 -9.692813156607e+02 -2.423241885264e+02 -5.475766319603e-09 -2.715353414440e-02 
9.069229804381e-02 -9.171850869289e-03 0.000000000000e+00 -2.482768920171e+02 -9.931323487996e+02 -2.482818481633e+02 3.418728838089e-10 -2.829734218301e-02 
9.354468020660e-03 -9.152635551513e-03 0.000000000000e+00 -2.484372871345e+02 -9.937751712976e+02 -2.484424916864e+02 -4.307523853293e-10 -2.829791541598e-02 
2.804557775330e-02 -6.508329529637e-02 0.000000000000e+00 -2.406591168894e+02 -9.626025563129e+02 -2.406523346405e+02 -2.838880611672e-09 -2.665986494391e-02 
1.044096559141e-02 -7.656376756274e-02 0.000000000000e+00 -2.397753558923e+02 -9.591434585710e+02 -2.397837628927e+02 -2.959203565459e-10 -2.632897615946e-02 
6.112116579903e-02 -6.644401917176e-03 0.000000000000e+00 -2.488033608903e+02 -9.952182369808e+02 -2.488043195742e+02 -1.226372523755e-09 -2.837273799321e-02 
3.895159902251e-02 -6.578247738084e-03 0.000000000000e+00 -2.488156968137e+02 -9.952656668915e+02 -2.488162727410e+02 5.917193939111e-10 -2.837471364006e-02 
1.789231550313e-02 -7.427897760453e-03 0.000000000000e+00 -2.486660329462e+02 -9.946596804553e+02 -2.486651426803e+02 5.400715258202e-10 -2.834935041662e-02 
4.997781314446e-02 -3.165806160767e-02 0.000000000000e+00 -2.446172976821e+02 -9.784139328876e+02 -2.446062461139e+02 -3.811029563159e-10 -2.763236748499e-02 
8.218065868343e-02 -7.482707021761e-03 0.000000000000e+00 -2.486557778331e+02 -9.946202564621e+02 -2.486552068590e+02 -7.459581522602e-10 -2.834771431665e-02 
7.593146034688e-02 -1.946650689593e-02 0.000000000000e+00 -2.465592917536e+02 -9.862846983897e+02 -2.465687980287e+02 -2.601763596341e-09 -2.799164342634e-02 
9.097483185567e-03 -6.052866285240e-02 0.000000000000e+00 -2.410299262151e+02 -9.641197254074e+02 -2.410299303245e+02 -1.543811430856e-09 -2.679150514714e-02 
2.403235587872e-02 -1.937579604224e-02 0.000000000000e+00 -2.465755158576e+02 -9.863469823473e+02 -2.465844996410e+02 2.419116449557e-09 -2.799432798046e-02 
5.204798323580e-02 -5.977244273485e-02 0.000000000000e+00 -2.410977900117e+02 -9.644264782113e+02 -2.411048536446e+02 3.306096924866e-09 -2.681337015754e-02 
3.977027004405e-02 -6.986979884634e-02 0.000000000000e+00 -2.402245850804e+02 -9.608855586523e+02 -2.402220287465e+02 -3.286417010240e-10 -2.652176657889e-02 
1.000000000000e-01 -4.365795665274e-02 0.000000000000e+00 -2.428269293719e+02 -9.713287734182e+02 -2.428311405580e+02 0.000000000000e+00 -2.728133612345e-02 
0.000000000000e+00 -9.493635849425e-02 0.000000000000e+00 -2.387982499454e+02 -9.551924913720e+02 -2.387981482635e+02 0.000000000000e+00 -2.580157829209e-02 
7.556622015059e-02 -5.213930935979e-02 0.000000000000e+00 -2.418958097135e+02 -9.676189735809e+02 -2.419029566589e+02 -2.330302426813e-09 -2.703460168763e-02 
8.827644021441e-02 -5.068271212769e-02 0.000000000000e+00 -2.421162795606e+02 -9.684783224641e+02 -2.421189204049e+02 -2.434084551457e-09 -2.707690318154e-02 
1.125853509499e-02 -1.018913627337e-01 0.000000000000e+00 -2.384668328181e+02 -9.538692346328e+02 -2.384672134902e+02 2.678059598816e-09 -2.560242500134e-02 
3.176003359910e-02 -8.986364252605e-02 0.000000000000e+00 -2.390109671651e+02 -9.559579214635e+02 -2.389937777257e+02 7.436718206477e-10 -2.594698487805e-02 
2.453145878902e-02 -1.018531985808e-01 0.000000000000e+00 -2.384991526095e+02 -9.540000478662e+02 -2.384998400951e+02 5.640725237413e-10 -2.560351689104e-02 
6.206074805899e-02 -5.978173210899e-02 0.000000000000e+00 -2.410847994899e+02 -9.642543724014e+02 -2.410678343783e+02 2.626809571719e-11 -2.681310115934e-02 
4.512057632941e-02 -8.568062374441e-02 0.000000000000e+00 -2.392269035684e+02 -9.568624494566e+02 -2.392178706050e+02 -2.126854880268e-09 -2.606700393201e-02 
5.675176755435e-02 -8.029564380893e-02 0.000000000000e+00 -2.395830801634e+02 -9.584243237746e+02 -2.396014807876e+02 -1.029121158942e-09 -2.622167199191e-02 
6.027993180190e-02 -6.988363285687e-02 0.000000000000e+00 -2.402699978449e+02 -9.610611071077e+02 -2.402662209905e+02 1.052099797358e-09 -2.652136020105e-02 
33  22  42  33
23  34  43  23
21  32  58  21
35  21  58  35
36  24  37  36
12  27  51  12
28  19  52  28
27  12  42  27
19  28  43  19
17  18  34  17
36  37  54  36
42  22  60  42
30  25  39  30
25  31  39  25
23  43  62  23
22  33  40  22
34  23  41  34
13  33  42  13
34  18  43  34
26  36  61  26
23  32  41  23
35  22  40  35
46  26  61  46
32  23  48  32
26  34  41  26
22  35  49  22
17  34  46  17
25  30  49  25
11  12  51  11
31  25  48  31
19  20  52  19
31  23  62  31
30  22  49  30
22  30  60  22
23  31  48  23
34  26  46  34
32  21  47  32
21  35  50  21
27  42  60  27
43  28  62  43
44  5  56  44
8  45  55  8
36  26  53  36
30  39  55  30
39  31  56  39
4  5  44  4
8  9  45  8
38  26  47  38
37  14  54  37
24  36  53  24
10  2  51  10
31  44  56  31
45  30  55  45
6  7  39  6
1  3  52  1
26  38  53  26
2  11  51  2
38  21  63  38
20  1  52  20
21  38  47  21
54  15  61  54
26  41  47  26
36  54  61  36
44  31  62  44
29  38  63  29
12  13  42  12
18  19  43  18
30  45  60  30
38  29  64  38
21  50  63  21
16  17  46  16
6  39  56  6
39  7  55  39
35  40  50  35
41  32  47  41
3  4  57  3
9  10  59  9
25  49  58  25
48  25  58  48
49  35  58  49
32  48  58  32
5  6  56  5
14  15  54  14
7  8  55  7
4  44  57  4
45  9  59  45
44  28  57  44
28  44  62  28
45  27  60  45
27  45  59  27
16  46  61  16
15  16  61  15
10  51  59  10
52  3  57  52
53  38  64  53
24  53  64  24
28  52  57  28
51  27  59  51
13  65  33  13
66  14  37  66
33  67  40  33
33  65  68  33
66  37  69  66
67  33  68  67
37  24  70  37
37  71  69  37
67  72  50  67
29  73  64  29
73  24  64  73
71  37  70  71
24  73  70  24
73  29  74  73
40  67  50  40
50  72  63  50
63  72  75  63
29  63  75  29
74  29  75  74
