VARIABLES  = "X","Y","Z", "STRESS_XX", "STRESS_YY", "STRESS_ZZ", "DISPLACEMENT_X1", "DISPLACEMENT_Y1"
ZONE T="0.000000000000e+00s", N=78, E=121, F=FEPOINT, ET=QUADRILATERAL
STRANDID=1, SOLUTIONTIME=0.000000000000e+00
1.000000000000e-01 -4.365795665274e-02 0.000000000000e+00 0.000000000000e+00 0.000000000000e+00 0.000000000000e+00 0.000000000000e+00 0.000000000000e+00 
1.000000000000e-01 -5.571534163644e-02 0.000000000000e+00 0.000000000000e+00 0.000000000000e+00 0.000000000000e+00 0.000000000000e+00 0.000000000000e+00 
1.000000000000e-01 -6.826783355915e-02 0.000000000000e+00 0.000000000000e+00 0.000000000000e+00 0.000000000000e+00 0.000000000000e+00 0.000000000000e+00 
1.000000000000e-01 -8.133192903590e-02 0.000000000000e+00 0.000000000000e+00 0.000000000000e+00 0.000000000000e+00 0.000000000000e+00 0.000000000000e+00 
1.000000000000e-01 -9.493635849425e-02 0.000000000000e+00 0.000000000000e+00 0.000000000000e+00 0.000000000000e+00 0.000000000000e+00 0.000000000000e+00 
1.000000000000e-01 -1.090948080906e-01 0.000000000000e+00 0.000000000000e+00 0.000000000000e+00 0.000000000000e+00 0.000000000000e+00 0.000000000000e+00 
1.000000000000e-01 -1.238407989588e-01 0.000000000000e+00 0.000000000000e+00 0.000000000000e+00 0.000000000000e+00 0.000000000000e+00 0.000000000000e+00 
1.000000000000e-01 -1.391895614642e-01 0.000000000000e+00 0.000000000000e+00 0.000000000000e+00 0.000000000000e+00 0.000000000000e+00 0.000000000000e+00 
1.000000000000e-01 -1.551674274464e-01 0.000000000000e+00 0.000000000000e+00 0.000000000000e+00 0.000000000000e+00 0.000000000000e+00 0.000000000000e+00 
0.000000000000e+00 -1.891202423411e-01 0.000000000000e+00 0.000000000000e+00 0.000000000000e+00 0.000000000000e+00 0.000000000000e+00 0.000000000000e+00 
0.000000000000e+00 -1.717986916992e-01 0.000000000000e+00 0.000000000000e+00 0.000000000000e+00 0.000000000000e+00 0.000000000000e+00 0.000000000000e+00 
0.000000000000e+00 -1.551674274464e-01 0.000000000000e+00 0.000000000000e+00 0.000000000000e+00 0.000000000000e+00 0.000000000000e+00 0.000000000000e+00 
0.000000000000e+00 -1.391895614642e-01 0.000000000000e+00 0.000000000000e+00 0.000000000000e+00 0.000000000000e+00 0.000000000000e+00 0.000000000000e+00 
0.000000000000e+00 -1.238407989588e-01 0.000000000000e+00 0.000000000000e+00 0.000000000000e+00 0.000000000000e+00 0.000000000000e+00 0.000000000000e+00 
0.000000000000e+00 -1.090948080907e-01 0.000000000000e+00 0.000000000000e+00 0.000000000000e+00 0.000000000000e+00 0.000000000000e+00 0.000000000000e+00 
0.000000000000e+00 -9.493635849425e-02 0.000000000000e+00 0.000000000000e+00 0.000000000000e+00 0.000000000000e+00 0.000000000000e+00 0.000000000000e+00 
5.003429380367e-02 -1.017798692890e-01 0.000000000000e+00 0.000000000000e+00 0.000000000000e+00 0.000000000000e+00 0.000000000000e+00 0.000000000000e+00 
5.002853232124e-02 -1.519088519355e-01 0.000000000000e+00 0.000000000000e+00 0.000000000000e+00 0.000000000000e+00 0.000000000000e+00 0.000000000000e+00 
6.860613435721e-02 -7.587479770767e-02 0.000000000000e+00 0.000000000000e+00 0.000000000000e+00 0.000000000000e+00 0.000000000000e+00 0.000000000000e+00 
6.888280446269e-02 -1.268465272623e-01 0.000000000000e+00 0.000000000000e+00 0.000000000000e+00 0.000000000000e+00 0.000000000000e+00 0.000000000000e+00 
3.121957414972e-02 -1.268421985082e-01 0.000000000000e+00 0.000000000000e+00 0.000000000000e+00 0.000000000000e+00 0.000000000000e+00 0.000000000000e+00 
7.556622015059e-02 -5.213930935979e-02 0.000000000000e+00 0.000000000000e+00 0.000000000000e+00 0.000000000000e+00 0.000000000000e+00 0.000000000000e+00 
3.104608478085e-02 -1.770328565743e-01 0.000000000000e+00 0.000000000000e+00 0.000000000000e+00 0.000000000000e+00 0.000000000000e+00 0.000000000000e+00 
7.554701895293e-02 -1.019679427391e-01 0.000000000000e+00 0.000000000000e+00 0.000000000000e+00 0.000000000000e+00 0.000000000000e+00 0.000000000000e+00 
2.453145878902e-02 -1.018531985808e-01 0.000000000000e+00 0.000000000000e+00 0.000000000000e+00 0.000000000000e+00 0.000000000000e+00 0.000000000000e+00 
2.486640359495e-02 -1.511994000693e-01 0.000000000000e+00 0.000000000000e+00 0.000000000000e+00 0.000000000000e+00 0.000000000000e+00 0.000000000000e+00 
7.519018389267e-02 -1.512146935932e-01 0.000000000000e+00 0.000000000000e+00 0.000000000000e+00 0.000000000000e+00 0.000000000000e+00 0.000000000000e+00 
8.318938762240e-02 -6.726290804214e-02 0.000000000000e+00 0.000000000000e+00 0.000000000000e+00 0.000000000000e+00 0.000000000000e+00 0.000000000000e+00 
5.005181660085e-02 -1.213864546544e-01 0.000000000000e+00 0.000000000000e+00 0.000000000000e+00 0.000000000000e+00 0.000000000000e+00 0.000000000000e+00 
8.304311980566e-02 -8.600422434734e-02 0.000000000000e+00 0.000000000000e+00 0.000000000000e+00 0.000000000000e+00 0.000000000000e+00 0.000000000000e+00 
4.512057632941e-02 -8.568062374441e-02 0.000000000000e+00 0.000000000000e+00 0.000000000000e+00 0.000000000000e+00 0.000000000000e+00 0.000000000000e+00 
6.206074805899e-02 -5.978173210899e-02 0.000000000000e+00 0.000000000000e+00 0.000000000000e+00 0.000000000000e+00 0.000000000000e+00 0.000000000000e+00 
6.286808215727e-02 -9.137086788006e-02 0.000000000000e+00 0.000000000000e+00 0.000000000000e+00 0.000000000000e+00 0.000000000000e+00 0.000000000000e+00 
1.640712137365e-02 -1.174171270781e-01 0.000000000000e+00 0.000000000000e+00 0.000000000000e+00 0.000000000000e+00 0.000000000000e+00 0.000000000000e+00 
8.372537541237e-02 -1.174905373863e-01 0.000000000000e+00 0.000000000000e+00 0.000000000000e+00 0.000000000000e+00 0.000000000000e+00 0.000000000000e+00 
5.004288552848e-02 -1.716527951481e-01 0.000000000000e+00 0.000000000000e+00 0.000000000000e+00 0.000000000000e+00 0.000000000000e+00 0.000000000000e+00 
3.731099137938e-02 -1.115945408716e-01 0.000000000000e+00 0.000000000000e+00 0.000000000000e+00 0.000000000000e+00 0.000000000000e+00 0.000000000000e+00 
6.271916567743e-02 -1.115718330784e-01 0.000000000000e+00 0.000000000000e+00 0.000000000000e+00 0.000000000000e+00 0.000000000000e+00 0.000000000000e+00 
1.686902144853e-02 -1.361062558984e-01 0.000000000000e+00 0.000000000000e+00 0.000000000000e+00 0.000000000000e+00 0.000000000000e+00 0.000000000000e+00 
8.320724439706e-02 -1.361392086212e-01 0.000000000000e+00 0.000000000000e+00 0.000000000000e+00 0.000000000000e+00 0.000000000000e+00 0.000000000000e+00 
8.827644021441e-02 -5.068271212769e-02 0.000000000000e+00 0.000000000000e+00 0.000000000000e+00 0.000000000000e+00 0.000000000000e+00 0.000000000000e+00 
5.583260035578e-02 -1.366520720980e-01 0.000000000000e+00 0.000000000000e+00 0.000000000000e+00 0.000000000000e+00 0.000000000000e+00 0.000000000000e+00 
8.326930466579e-02 -1.667726886397e-01 0.000000000000e+00 0.000000000000e+00 0.000000000000e+00 0.000000000000e+00 0.000000000000e+00 0.000000000000e+00 
1.683000258849e-02 -1.667776624401e-01 0.000000000000e+00 0.000000000000e+00 0.000000000000e+00 0.000000000000e+00 0.000000000000e+00 0.000000000000e+00 
3.176003359910e-02 -8.986364252605e-02 0.000000000000e+00 0.000000000000e+00 0.000000000000e+00 0.000000000000e+00 0.000000000000e+00 0.000000000000e+00 
3.772961003605e-02 -1.415473931669e-01 0.000000000000e+00 0.000000000000e+00 0.000000000000e+00 0.000000000000e+00 0.000000000000e+00 0.000000000000e+00 
3.703325374415e-02 -1.619447957644e-01 0.000000000000e+00 0.000000000000e+00 0.000000000000e+00 0.000000000000e+00 0.000000000000e+00 0.000000000000e+00 
6.303932844440e-02 -1.619539551222e-01 0.000000000000e+00 0.000000000000e+00 0.000000000000e+00 0.000000000000e+00 0.000000000000e+00 0.000000000000e+00 
1.687036367023e-02 -1.864550581470e-01 0.000000000000e+00 0.000000000000e+00 0.000000000000e+00 0.000000000000e+00 0.000000000000e+00 0.000000000000e+00 
5.675176755435e-02 -8.029564380893e-02 0.000000000000e+00 0.000000000000e+00 0.000000000000e+00 0.000000000000e+00 0.000000000000e+00 0.000000000000e+00 
1.125853509499e-02 -1.018913627337e-01 0.000000000000e+00 0.000000000000e+00 0.000000000000e+00 0.000000000000e+00 0.000000000000e+00 0.000000000000e+00 
8.881871162219e-02 -1.019661470517e-01 0.000000000000e+00 0.000000000000e+00 0.000000000000e+00 0.000000000000e+00 0.000000000000e+00 0.000000000000e+00 
7.207066164269e-02 -6.508809647676e-02 0.000000000000e+00 0.000000000000e+00 0.000000000000e+00 0.000000000000e+00 0.000000000000e+00 0.000000000000e+00 
8.958901145892e-02 -7.668408325171e-02 0.000000000000e+00 0.000000000000e+00 0.000000000000e+00 0.000000000000e+00 0.000000000000e+00 0.000000000000e+00 
3.832908703950e-02 -9.976005802934e-02 0.000000000000e+00 0.000000000000e+00 0.000000000000e+00 0.000000000000e+00 0.000000000000e+00 0.000000000000e+00 
1.169884814581e-02 -1.485111206917e-01 0.000000000000e+00 0.000000000000e+00 0.000000000000e+00 0.000000000000e+00 0.000000000000e+00 0.000000000000e+00 
8.835347874980e-02 -1.485454048835e-01 0.000000000000e+00 0.000000000000e+00 0.000000000000e+00 0.000000000000e+00 0.000000000000e+00 0.000000000000e+00 
6.851377528847e-02 -1.399424198909e-01 0.000000000000e+00 0.000000000000e+00 0.000000000000e+00 0.000000000000e+00 0.000000000000e+00 0.000000000000e+00 
9.100272279741e-02 -6.058966642700e-02 0.000000000000e+00 0.000000000000e+00 0.000000000000e+00 0.000000000000e+00 0.000000000000e+00 0.000000000000e+00 
7.224986561191e-02 -8.603444691608e-02 0.000000000000e+00 0.000000000000e+00 0.000000000000e+00 0.000000000000e+00 0.000000000000e+00 0.000000000000e+00 
6.027993180190e-02 -6.988363285687e-02 0.000000000000e+00 0.000000000000e+00 0.000000000000e+00 0.000000000000e+00 0.000000000000e+00 0.000000000000e+00 
1.000000000000e-01 -3.207786985738e-02 0.000000000000e+00 0.000000000000e+00 0.000000000000e+00 0.000000000000e+00 0.000000000000e+00 0.000000000000e+00 
8.454242557621e-02 -3.844635220127e-02 0.000000000000e+00 0.000000000000e+00 0.000000000000e+00 0.000000000000e+00 0.000000000000e+00 0.000000000000e+00 
2.474920969922e-02 -2.015432236000e-01 0.000000000000e+00 0.000000000000e+00 0.000000000000e+00 0.000000000000e+00 0.000000000000e+00 0.000000000000e+00 
0.000000000000e+00 -2.071452132758e-01 0.000000000000e+00 0.000000000000e+00 0.000000000000e+00 0.000000000000e+00 0.000000000000e+00 0.000000000000e+00 
0.000000000000e+00 -8.133192903590e-02 0.000000000000e+00 0.000000000000e+00 0.000000000000e+00 0.000000000000e+00 0.000000000000e+00 0.000000000000e+00 
1.698701460171e-02 -8.593339913784e-02 0.000000000000e+00 0.000000000000e+00 0.000000000000e+00 0.000000000000e+00 0.000000000000e+00 0.000000000000e+00 
7.049571814535e-02 -4.034466657971e-02 0.000000000000e+00 0.000000000000e+00 0.000000000000e+00 0.000000000000e+00 0.000000000000e+00 0.000000000000e+00 
3.763666536168e-02 -1.917900581297e-01 0.000000000000e+00 0.000000000000e+00 0.000000000000e+00 0.000000000000e+00 0.000000000000e+00 0.000000000000e+00 
3.144484460580e-02 -7.586712852882e-02 0.000000000000e+00 0.000000000000e+00 0.000000000000e+00 0.000000000000e+00 0.000000000000e+00 0.000000000000e+00 
5.599679480673e-02 -1.868962244425e-01 0.000000000000e+00 0.000000000000e+00 0.000000000000e+00 0.000000000000e+00 0.000000000000e+00 0.000000000000e+00 
1.000000000000e-01 -1.717986916992e-01 0.000000000000e+00 0.000000000000e+00 0.000000000000e+00 0.000000000000e+00 0.000000000000e+00 0.000000000000e+00 
8.325780581963e-02 -1.864276587827e-01 0.000000000000e+00 0.000000000000e+00 0.000000000000e+00 0.000000000000e+00 0.000000000000e+00 0.000000000000e+00 
6.163087269112e-02 -4.804641620450e-02 0.000000000000e+00 0.000000000000e+00 0.000000000000e+00 0.000000000000e+00 0.000000000000e+00 0.000000000000e+00 
5.002678796997e-02 -6.957908922559e-02 0.000000000000e+00 0.000000000000e+00 0.000000000000e+00 0.000000000000e+00 0.000000000000e+00 0.000000000000e+00 
3.977027004405e-02 -6.986979884634e-02 0.000000000000e+00 0.000000000000e+00 0.000000000000e+00 0.000000000000e+00 0.000000000000e+00 0.000000000000e+00 
6.904394191688e-02 -1.770178073307e-01 0.000000000000e+00 0.000000000000e+00 0.000000000000e+00 0.000000000000e+00 0.000000000000e+00 0.000000000000e+00 
5.204798323580e-02 -5.977244273485e-02 0.000000000000e+00 0.000000000000e+00 0.000000000000e+00 0.000000000000e+00 0.000000000000e+00 0.000000000000e+00 
19  28  30  19
21  29  46  21
29  42  46  29
30  28  54  30
24  35  38  24
34  25  37  34
35  20  38  35
21  34  37  21
48  18  58  48
17  33  38  17
33  24  38  33
4  5  30  4
35  7  40  35
14  34  39  14
17  31  33  17
28  22  59  28
22  41  59  22
27  48  58  27
30  5  52  30
19  30  60  19
39  21  46  39
17  29  37  17
29  17  38  29
26  39  46  26
18  42  58  18
7  8  40  7
13  14  39  13
33  31  50  33
20  29  38  20
29  21  37  29
22  28  53  22
11  44  49  11
34  21  39  34
20  35  40  20
24  30  52  24
29  20  42  29
6  7  35  6
14  15  34  14
4  30  54  4
28  19  53  28
10  11  49  10
6  35  52  6
34  15  51  34
30  24  60  30
27  43  48  27
44  26  47  44
46  18  47  46
26  46  47  26
32  22  53  32
3  54  59  3
11  12  44  11
25  34  51  25
44  12  56  44
35  24  52  35
9  43  57  9
23  44  47  23
54  28  59  54
31  17  55  31
42  18  46  42
24  33  60  24
1  2  41  1
36  18  48  36
18  36  47  18
50  19  60  50
33  50  60  33
44  23  49  44
36  23  47  36
26  44  56  26
43  27  57  43
45  31  55  45
37  25  55  37
20  40  58  20
40  8  57  40
13  39  56  13
40  27  58  40
17  37  55  17
3  4  54  3
15  16  51  15
5  6  52  5
25  45  55  25
39  26  56  39
27  40  57  27
42  20  58  42
8  9  57  8
12  13  56  12
2  3  59  2
41  2  59  41
32  53  61  32
53  19  61  53
19  50  61  19
62  1  63  62
64  65  49  64
65  10  49  65
16  66  67  16
63  22  68  63
63  1  41  63
16  67  51  16
22  63  41  22
23  36  69  23
67  70  45  67
36  71  69  36
43  72  73  43
67  25  51  67
22  32  74  22
75  31  76  75
31  70  76  31
25  67  45  25
70  31  45  70
31  75  50  31
9  72  43  9
43  77  48  43
68  22  74  68
74  32  78  74
49  23  69  49
64  49  69  64
77  43  73  77
77  36  48  77
36  77  71  36
78  32  61  78
75  78  61  75
50  75  61  50
VARIABLES  = "X","Y","Z", "STRESS_XX", "STRESS_YY", "STRESS_ZZ", "DISPLACEMENT_X1", "DISPLACEMENT_Y1"
ZONE T="1.000000000000e+01s", N=78, E=121, F=FEPOINT, ET=QUADRILATERAL
STRANDID=1, SOLUTIONTIME=1.000000000000e+01
1.000000000000e-01 -4.365795665274e-02 0.000000000000e+00 -2.430212917612e+02 -9.721058091307e+02 -2.430254201784e+02 0.000000000000e+00 -2.734393684584e-02 
1.000000000000e-01 -5.571534163644e-02 0.000000000000e+00 -2.417092514169e+02 -9.667853332516e+02 -2.416989169337e+02 0.000000000000e+00 -2.699311472399e-02 
1.000000000000e-01 -6.826783355915e-02 0.000000000000e+00 -2.406326813927e+02 -9.625635129164e+02 -2.406392388618e+02 0.000000000000e+00 -2.662974548319e-02 
1.000000000000e-01 -8.133192903590e-02 0.000000000000e+00 -2.397892241261e+02 -9.590734722860e+02 -2.397725392824e+02 0.000000000000e+00 -2.625311411275e-02 
1.000000000000e-01 -9.493635849425e-02 0.000000000000e+00 -2.391289728769e+02 -9.565236153631e+02 -2.391305176480e+02 0.000000000000e+00 -2.586214382967e-02 
1.000000000000e-01 -1.090948080906e-01 0.000000000000e+00 -2.387123686460e+02 -9.548660007113e+02 -2.387156738715e+02 0.000000000000e+00 -2.545616543271e-02 
1.000000000000e-01 -1.238407989588e-01 0.000000000000e+00 -2.384302340886e+02 -9.537296682109e+02 -2.384319804599e+02 0.000000000000e+00 -2.503397253053e-02 
1.000000000000e-01 -1.391895614642e-01 0.000000000000e+00 -2.382781730697e+02 -9.530835800668e+02 -2.382723506273e+02 0.000000000000e+00 -2.459493808325e-02 
1.000000000000e-01 -1.551674274464e-01 0.000000000000e+00 -2.381832957999e+02 -9.527317709711e+02 -2.381830133542e+02 0.000000000000e+00 -2.413816389568e-02 
0.000000000000e+00 -1.891202423411e-01 0.000000000000e+00 -2.381163771414e+02 -9.524548787828e+02 -2.381142511848e+02 0.000000000000e+00 -2.316789197239e-02 
0.000000000000e+00 -1.717986916992e-01 0.000000000000e+00 -2.381394754298e+02 -9.525505007664e+02 -2.381379952392e+02 0.000000000000e+00 -2.366285272070e-02 
0.000000000000e+00 -1.551674274464e-01 0.000000000000e+00 -2.381944968263e+02 -9.527720684711e+02 -2.381933130595e+02 0.000000000000e+00 -2.413816291046e-02 
0.000000000000e+00 -1.391895614642e-01 0.000000000000e+00 -2.382932386484e+02 -9.531498716471e+02 -2.382886220591e+02 0.000000000000e+00 -2.459493691958e-02 
0.000000000000e+00 -1.238407989588e-01 0.000000000000e+00 -2.384590747392e+02 -9.538546236927e+02 -2.384627396864e+02 0.000000000000e+00 -2.503397303706e-02 
0.000000000000e+00 -1.090948080907e-01 0.000000000000e+00 -2.387631766129e+02 -9.550674668497e+02 -2.387661286925e+02 0.000000000000e+00 -2.545616622374e-02 
0.000000000000e+00 -9.493635849425e-02 0.000000000000e+00 -2.392094008453e+02 -9.568427660067e+02 -2.392104333704e+02 0.000000000000e+00 -2.586214333893e-02 
5.003429380367e-02 -1.017798692890e-01 0.000000000000e+00 -2.389291705032e+02 -9.557317308266e+02 -2.389321802660e+02 3.783697156321e-10 -2.566582148922e-02 
5.002853232124e-02 -1.519088519355e-01 0.000000000000e+00 -2.382010337511e+02 -9.528118195843e+02 -2.382025706671e+02 9.547216387631e-10 -2.423130406413e-02 
6.860613435721e-02 -7.587479770767e-02 0.000000000000e+00 -2.401127656874e+02 -9.605027372654e+02 -2.401231005906e+02 3.053200490038e-09 -2.641027614604e-02 
6.888280446269e-02 -1.268465272623e-01 0.000000000000e+00 -2.384066634072e+02 -9.536443435245e+02 -2.384102013863e+02 -7.846045115043e-10 -2.494796894833e-02 
3.121957414972e-02 -1.268421985082e-01 0.000000000000e+00 -2.384166858223e+02 -9.536680222431e+02 -2.384169416131e+02 1.359895774861e-09 -2.494809188547e-02 
7.556622015059e-02 -5.213930935979e-02 0.000000000000e+00 -2.421224364505e+02 -9.684991394768e+02 -2.421243151855e+02 -2.322549018858e-09 -2.709695817808e-02 
3.104608478085e-02 -1.770328565743e-01 0.000000000000e+00 -2.381257113595e+02 -9.525108969307e+02 -2.381273216580e+02 -2.276174985291e-11 -2.351328173321e-02 
7.554701895293e-02 -1.019679427391e-01 0.000000000000e+00 -2.389375013333e+02 -9.557699127035e+02 -2.389414828074e+02 -1.642974237788e-09 -2.566042573815e-02 
2.453145878902e-02 -1.018531985808e-01 0.000000000000e+00 -2.389409911740e+02 -9.557832341472e+02 -2.389448450642e+02 6.171044265958e-10 -2.566371748960e-02 
2.486640359495e-02 -1.511994000693e-01 0.000000000000e+00 -2.382017246609e+02 -9.528247465121e+02 -2.382052942346e+02 -6.430007616635e-10 -2.425158434490e-02 
7.519018389267e-02 -1.512146935932e-01 0.000000000000e+00 -2.382058604709e+02 -9.528354551105e+02 -2.382082631163e+02 1.183548110035e-10 -2.425114805329e-02 
8.318938762240e-02 -6.726290804214e-02 0.000000000000e+00 -2.407646606267e+02 -9.630841485941e+02 -2.407697618442e+02 9.546355148607e-10 -2.665877673118e-02 
5.005181660085e-02 -1.213864546544e-01 0.000000000000e+00 -2.384867212020e+02 -9.539266701502e+02 -2.384826782704e+02 -1.750057975786e-09 -2.510420698399e-02 
8.304311980566e-02 -8.600422434734e-02 0.000000000000e+00 -2.395415878832e+02 -9.581715376151e+02 -2.395426250997e+02 -3.069415327964e-09 -2.611872178946e-02 
4.512057632941e-02 -8.568062374441e-02 0.000000000000e+00 -2.395884922888e+02 -9.583333824789e+02 -2.395843749535e+02 -2.007916894597e-09 -2.612802769399e-02 
6.206074805899e-02 -5.978173210899e-02 0.000000000000e+00 -2.413759110462e+02 -9.654508523673e+02 -2.413653526827e+02 2.719364524672e-11 -2.687520408205e-02 
6.286808215727e-02 -9.137086788006e-02 0.000000000000e+00 -2.393406816202e+02 -9.573459791067e+02 -2.393373321454e+02 8.995172026863e-10 -2.596452259898e-02 
1.640712137365e-02 -1.174171270781e-01 0.000000000000e+00 -2.385679250470e+02 -9.542697748534e+02 -2.385675399801e+02 1.185763010855e-09 -2.521782725793e-02 
8.372537541237e-02 -1.174905373863e-01 0.000000000000e+00 -2.385543607266e+02 -9.542033614663e+02 -2.385515444386e+02 -7.040939475167e-10 -2.521572389375e-02 
5.004288552848e-02 -1.716527951481e-01 0.000000000000e+00 -2.381357272462e+02 -9.525402516315e+02 -2.381351957755e+02 4.062151254741e-10 -2.366702175577e-02 
3.731099137938e-02 -1.115945408716e-01 0.000000000000e+00 -2.386862284566e+02 -9.547580018700e+02 -2.386888460653e+02 1.348668929086e-09 -2.538455812374e-02 
6.271916567743e-02 -1.115718330784e-01 0.000000000000e+00 -2.386780601776e+02 -9.546859774773e+02 -2.386728075310e+02 -9.006932217036e-10 -2.538520251937e-02 
1.686902144853e-02 -1.361062558984e-01 0.000000000000e+00 -2.383065321131e+02 -9.532269282051e+02 -2.383066920636e+02 -2.569613323918e-10 -2.468310652324e-02 
8.320724439706e-02 -1.361392086212e-01 0.000000000000e+00 -2.382998712173e+02 -9.531979464211e+02 -2.382995635277e+02 3.669060092320e-10 -2.468216573068e-02 
8.827644021441e-02 -5.068271212769e-02 0.000000000000e+00 -2.422788681332e+02 -9.691413612377e+02 -2.422840458742e+02 -2.429211174647e-09 -2.713930444074e-02 
5.583260035578e-02 -1.366520720980e-01 0.000000000000e+00 -2.383008513261e+02 -9.532003616465e+02 -2.383002425945e+02 -1.082318999325e-09 -2.466749979916e-02 
8.326930466579e-02 -1.667726886397e-01 0.000000000000e+00 -2.381494374224e+02 -9.525880346233e+02 -2.381474944091e+02 8.679381992952e-10 -2.380648187398e-02 
1.683000258849e-02 -1.667776624401e-01 0.000000000000e+00 -2.381502653813e+02 -9.525976913349e+02 -2.381495913432e+02 -7.029675577597e-10 -2.380633973106e-02 
3.176003359910e-02 -8.986364252605e-02 0.000000000000e+00 -2.394092235686e+02 -9.575724985966e+02 -2.393963444330e+02 7.808095679747e-10 -2.600780568618e-02 
3.772961003605e-02 -1.415473931669e-01 0.000000000000e+00 -2.382578359297e+02 -9.530278012854e+02 -2.382571274430e+02 1.157130907983e-09 -2.452751780299e-02 
3.703325374415e-02 -1.619447957644e-01 0.000000000000e+00 -2.381594174982e+02 -9.526436941501e+02 -2.381606223297e+02 4.002311345185e-10 -2.394445712465e-02 
6.303932844440e-02 -1.619539551222e-01 0.000000000000e+00 -2.381640215727e+02 -9.526524201943e+02 -2.381632883534e+02 8.643275711781e-10 -2.394419449077e-02 
1.687036367023e-02 -1.864550581470e-01 0.000000000000e+00 -2.381139185800e+02 -9.524579099472e+02 -2.381143657054e+02 -5.579111074985e-10 -2.324404622077e-02 
5.675176755435e-02 -8.029564380893e-02 0.000000000000e+00 -2.399039918425e+02 -9.596819270575e+02 -2.399171837800e+02 -9.672184639688e-10 -2.628294625761e-02 
1.125853509499e-02 -1.018913627337e-01 0.000000000000e+00 -2.389290137962e+02 -9.557295493223e+02 -2.389317126237e+02 2.586283935508e-09 -2.566262355431e-02 
8.881871162219e-02 -1.019661470517e-01 0.000000000000e+00 -2.389256184659e+02 -9.557280900206e+02 -2.389307416973e+02 -3.301126912859e-09 -2.566047905422e-02 
7.207066164269e-02 -6.508809647676e-02 0.000000000000e+00 -2.408901956500e+02 -9.635392795322e+02 -2.408858950364e+02 1.941334440591e-09 -2.672163157941e-02 
8.958901145892e-02 -7.668408325171e-02 0.000000000000e+00 -2.401320969946e+02 -9.605699116579e+02 -2.401404017305e+02 8.249268292852e-10 -2.638694893111e-02 
3.832908703950e-02 -9.976005802934e-02 0.000000000000e+00 -2.390105319662e+02 -9.560194636266e+02 -2.390059991186e+02 1.900288109713e-09 -2.572374453246e-02 
1.169884814581e-02 -1.485111206917e-01 0.000000000000e+00 -2.382189010713e+02 -9.528797673213e+02 -2.382197336785e+02 -4.108543129941e-10 -2.432843139949e-02 
8.835347874980e-02 -1.485454048835e-01 0.000000000000e+00 -2.382175704206e+02 -9.528820453333e+02 -2.382199231508e+02 5.156360489052e-12 -2.432745278672e-02 
6.851377528847e-02 -1.399424198909e-01 0.000000000000e+00 -2.382772013886e+02 -9.531001699844e+02 -2.382754742746e+02 -6.135318379482e-10 -2.457341241558e-02 
9.100272279741e-02 -6.058966642700e-02 0.000000000000e+00 -2.413223615946e+02 -9.652894086777e+02 -2.413223540545e+02 1.135709532274e-09 -2.685181415666e-02 
7.224986561191e-02 -8.603444691608e-02 0.000000000000e+00 -2.395773289610e+02 -9.582346698067e+02 -2.395623997535e+02 1.683869247164e-09 -2.611785729539e-02 
6.027993180190e-02 -6.988363285687e-02 0.000000000000e+00 -2.405545312036e+02 -9.622354208353e+02 -2.405579904078e+02 1.063654204524e-09 -2.658308098313e-02 
1.000000000000e-01 -3.207786985738e-02 0.000000000000e+00 -2.445033746861e+02 -9.780246787206e+02 -2.445056106813e+02 0.000000000000e+00 -2.768290373084e-02 
8.454242557621e-02 -3.844635220127e-02 0.000000000000e+00 -2.436946300621e+02 -9.748221761177e+02 -2.437033612360e+02 -4.955336715302e-09 -2.749622160216e-02 
2.474920969922e-02 -2.015432236000e-01 0.000000000000e+00 -2.381039073875e+02 -9.524186491047e+02 -2.381045112984e+02 -9.761952042593e-11 -2.281293127974e-02 
0.000000000000e+00 -2.071452132758e-01 0.000000000000e+00 -2.381026725660e+02 -9.524077851783e+02 -2.381020915489e+02 0.000000000000e+00 -2.265286901908e-02 
0.000000000000e+00 -8.133192903590e-02 0.000000000000e+00 -2.398558684761e+02 -9.593602357141e+02 -2.398432208380e+02 0.000000000000e+00 -2.625311423792e-02 
1.698701460171e-02 -8.593339913784e-02 0.000000000000e+00 -2.395446758453e+02 -9.582182079521e+02 -2.395525767595e+02 3.132057541923e-09 -2.612075589283e-02 
7.049571814535e-02 -4.034466657971e-02 0.000000000000e+00 -2.434106256328e+02 -9.736464797968e+02 -2.434114210859e+02 -5.667336377260e-09 -2.744069989932e-02 
3.763666536168e-02 -1.917900581297e-01 0.000000000000e+00 -2.381086037039e+02 -9.524376376563e+02 -2.381092482720e+02 2.766367592661e-10 -2.309160675097e-02 
3.144484460580e-02 -7.586712852882e-02 0.000000000000e+00 -2.401289798264e+02 -9.605375266040e+02 -2.401333012861e+02 -1.156663594150e-09 -2.641050297292e-02 
5.599679480673e-02 -1.868962244425e-01 0.000000000000e+00 -2.381116089556e+02 -9.524525704023e+02 -2.381128358716e+02 5.498111059788e-10 -2.323144098557e-02 
1.000000000000e-01 -1.717986916992e-01 0.000000000000e+00 -2.381360095041e+02 -9.525345073909e+02 -2.381341033790e+02 0.000000000000e+00 -2.366285286591e-02 
8.325780581963e-02 -1.864276587827e-01 0.000000000000e+00 -2.381154815978e+02 -9.524579542479e+02 -2.381146871691e+02 7.957466779475e-10 -2.324482878214e-02 
6.163087269112e-02 -4.804641620450e-02 0.000000000000e+00 -2.425205489046e+02 -9.699950107726e+02 -2.425031119354e+02 -5.426370993907e-09 -2.721601352300e-02 
5.002678796997e-02 -6.957908922559e-02 0.000000000000e+00 -2.405807312668e+02 -9.623611999243e+02 -2.405883862382e+02 -1.520392121005e-09 -2.659187857794e-02 
3.977027004405e-02 -6.986979884634e-02 0.000000000000e+00 -2.405482454782e+02 -9.621475418153e+02 -2.405391574587e+02 -2.599090241856e-10 -2.658348775104e-02 
6.904394191688e-02 -1.770178073307e-01 0.000000000000e+00 -2.381262506917e+02 -9.525096898984e+02 -2.381271881180e+02 1.021149666760e-09 -2.351371191154e-02 
5.204798323580e-02 -5.977244273485e-02 0.000000000000e+00 -2.413369992383e+02 -9.653691175405e+02 -2.413412233557e+02 3.302754817134e-09 -2.687547339655e-02 
19  28  30  19
21  29  46  21
29  42  46  29
30  28  54  30
24  35  38  24
34  25  37  34
35  20  38  35
21  34  37  21
48  18  58  48
17  33  38  17
33  24  38  33
4  5  30  4
35  7  40  35
14  34  39  14
17  31  33  17
28  22  59  28
22  41  59  22
27  48  58  27
30  5  52  30
19  30  60  19
39  21  46  39
17  29  37  17
29  17  38  29
26  39  46  26
18  42  58  18
7  8  40  7
13  14  39  13
33  31  50  33
20  29  38  20
29  21  37  29
22  28  53  22
11  44  49  11
34  21  39  34
20  35  40  20
24  30  52  24
29  20  42  29
6  7  35  6
14  15  34  14
4  30  54  4
28  19  53  28
10  11  49  10
6  35  52  6
34  15  51  34
30  24  60  30
27  43  48  27
44  26  47  44
46  18  47  46
26  46  47  26
32  22  53  32
3  54  59  3
11  12  44  11
25  34  51  25
44  12  56  44
35  24  52  35
9  43  57  9
23  44  47  23
54  28  59  54
31  17  55  31
42  18  46  42
24  33  60  24
1  2  41  1
36  18  48  36
18  36  47  18
50  19  60  50
33  50  60  33
44  23  49  44
36  23  47  36
26  44  56  26
43  27  57  43
45  31  55  45
37  25  55  37
20  40  58  20
40  8  57  40
13  39  56  13
40  27  58  40
17  37  55  17
3  4  54  3
15  16  51  15
5  6  52  5
25  45  55  25
39  26  56  39
27  40  57  27
42  20  58  42
8  9  57  8
12  13  56  12
2  3  59  2
41  2  59  41
32  53  61  32
53  19  61  53
19  50  61  19
62  1  63  62
64  65  49  64
65  10  49  65
16  66  67  16
63  22  68  63
63  1  41  63
16  67  51  16
22  63  41  22
23  36  69  23
67  70  45  67
36  71  69  36
43  72  73  43
67  25  51  67
22  32  74  22
75  31  76  75
31  70  76  31
25  67  45  25
70  31  45  70
31  75  50  31
9  72  43  9
43  77  48  43
68  22  74  68
74  32  78  74
49  23  69  49
64  49  69  64
77  43  73  77
77  36  48  77
36  77  71  36
78  32  61  78
75  78  61  75
50  75  61  50
