VARIABLES  = "X","Y","Z", "STRESS_XX", "STRESS_YY", "STRESS_ZZ", "DISPLACEMENT_X1", "DISPLACEMENT_Y1"
ZONE T="0.000000000000e+00s", N=78, E=121, F=FEPOINT, ET=QUADRILATERAL
STRANDID=1, SOLUTIONTIME=0.000000000000e+00
1.000000000000e-01 -4.365795665274e-02 0.000000000000e+00 0.000000000000e+00 0.000000000000e+00 0.000000000000e+00 0.000000000000e+00 0.000000000000e+00 
1.000000000000e-01 -5.571534163644e-02 0.000000000000e+00 0.000000000000e+00 0.000000000000e+00 0.000000000000e+00 0.000000000000e+00 0.000000000000e+00 
1.000000000000e-01 -6.826783355915e-02 0.000000000000e+00 0.000000000000e+00 0.000000000000e+00 0.000000000000e+00 0.000000000000e+00 0.000000000000e+00 
1.000000000000e-01 -8.133192903590e-02 0.000000000000e+00 0.000000000000e+00 0.000000000000e+00 0.000000000000e+00 0.000000000000e+00 0.000000000000e+00 
1.000000000000e-01 -9.493635849425e-02 0.000000000000e+00 0.000000000000e+00 0.000000000000e+00 0.000000000000e+00 0.000000000000e+00 0.000000000000e+00 
1.000000000000e-01 -1.090948080906e-01 0.000000000000e+00 0.000000000000e+00 0.000000000000e+00 0.000000000000e+00 0.000000000000e+00 0.000000000000e+00 
1.000000000000e-01 -1.238407989588e-01 0.000000000000e+00 0.000000000000e+00 0.000000000000e+00 0.000000000000e+00 0.000000000000e+00 0.000000000000e+00 
1.000000000000e-01 -1.391895614642e-01 0.000000000000e+00 0.000000000000e+00 0.000000000000e+00 0.000000000000e+00 0.000000000000e+00 0.000000000000e+00 
1.000000000000e-01 -1.551674274464e-01 0.000000000000e+00 0.000000000000e+00 0.000000000000e+00 0.000000000000e+00 0.000000000000e+00 0.000000000000e+00 
0.000000000000e+00 -1.891202423411e-01 0.000000000000e+00 0.000000000000e+00 0.000000000000e+00 0.000000000000e+00 0.000000000000e+00 0.000000000000e+00 
0.000000000000e+00 -1.717986916992e-01 0.000000000000e+00 0.000000000000e+00 0.000000000000e+00 0.000000000000e+00 0.000000000000e+00 0.000000000000e+00 
0.000000000000e+00 -1.551674274464e-01 0.000000000000e+00 0.000000000000e+00 0.000000000000e+00 0.000000000000e+00 0.000000000000e+00 0.000000000000e+00 
0.000000000000e+00 -1.391895614642e-01 0.000000000000e+00 0.000000000000e+00 0.000000000000e+00 0.000000000000e+00 0.000000000000e+00 0.000000000000e+00 
0.000000000000e+00 -1.238407989588e-01 0.000000000000e+00 0.000000000000e+00 0.000000000000e+00 0.000000000000e+00 0.000000000000e+00 0.000000000000e+00 
0.000000000000e+00 -1.090948080907e-01 0.000000000000e+00 0.000000000000e+00 0.000000000000e+00 0.000000000000e+00 0.000000000000e+00 0.000000000000e+00 
0.000000000000e+00 -9.493635849425e-02 0.000000000000e+00 0.000000000000e+00 0.000000000000e+00 0.000000000000e+00 0.000000000000e+00 0.000000000000e+00 
5.003429380367e-02 -1.017798692890e-01 0.000000000000e+00 0.000000000000e+00 0.000000000000e+00 0.000000000000e+00 0.000000000000e+00 0.000000000000e+00 
5.002853232124e-02 -1.519088519355e-01 0.000000000000e+00 0.000000000000e+00 0.000000000000e+00 0.000000000000e+00 0.000000000000e+00 0.000000000000e+00 
6.860613435721e-02 -7.587479770767e-02 0.000000000000e+00 0.000000000000e+00 0.000000000000e+00 0.000000000000e+00 0.000000000000e+00 0.000000000000e+00 
6.888280446269e-02 -1.268465272623e-01 0.000000000000e+00 0.000000000000e+00 0.000000000000e+00 0.000000000000e+00 0.000000000000e+00 0.000000000000e+00 
3.121957414972e-02 -1.268421985082e-01 0.000000000000e+00 0.000000000000e+00 0.000000000000e+00 0.000000000000e+00 0.000000000000e+00 0.000000000000e+00 
7.556622015059e-02 -5.213930935979e-02 0.000000000000e+00 0.000000000000e+00 0.000000000000e+00 0.000000000000e+00 0.000000000000e+00 0.000000000000e+00 
3.104608478085e-02 -1.770328565743e-01 0.000000000000e+00 0.000000000000e+00 0.000000000000e+00 0.000000000000e+00 0.000000000000e+00 0.000000000000e+00 
7.554701895293e-02 -1.019679427391e-01 0.000000000000e+00 0.000000000000e+00 0.000000000000e+00 0.000000000000e+00 0.000000000000e+00 0.000000000000e+00 
2.453145878902e-02 -1.018531985808e-01 0.000000000000e+00 0.000000000000e+00 0.000000000000e+00 0.000000000000e+00 0.000000000000e+00 0.000000000000e+00 
2.486640359495e-02 -1.511994000693e-01 0.000000000000e+00 0.000000000000e+00 0.000000000000e+00 0.000000000000e+00 0.000000000000e+00 0.000000000000e+00 
7.519018389267e-02 -1.512146935932e-01 0.000000000000e+00 0.000000000000e+00 0.000000000000e+00 0.000000000000e+00 0.000000000000e+00 0.000000000000e+00 
8.318938762240e-02 -6.726290804214e-02 0.000000000000e+00 0.000000000000e+00 0.000000000000e+00 0.000000000000e+00 0.000000000000e+00 0.000000000000e+00 
5.005181660085e-02 -1.213864546544e-01 0.000000000000e+00 0.000000000000e+00 0.000000000000e+00 0.000000000000e+00 0.000000000000e+00 0.000000000000e+00 
8.304311980566e-02 -8.600422434734e-02 0.000000000000e+00 0.000000000000e+00 0.000000000000e+00 0.000000000000e+00 0.000000000000e+00 0.000000000000e+00 
4.512057632941e-02 -8.568062374441e-02 0.000000000000e+00 0.000000000000e+00 0.000000000000e+00 0.000000000000e+00 0.000000000000e+00 0.000000000000e+00 
6.206074805899e-02 -5.978173210899e-02 0.000000000000e+00 0.000000000000e+00 0.000000000000e+00 0.000000000000e+00 0.000000000000e+00 0.000000000000e+00 
6.286808215727e-02 -9.137086788006e-02 0.000000000000e+00 0.000000000000e+00 0.000000000000e+00 0.000000000000e+00 0.000000000000e+00 0.000000000000e+00 
1.640712137365e-02 -1.174171270781e-01 0.000000000000e+00 0.000000000000e+00 0.000000000000e+00 0.000000000000e+00 0.000000000000e+00 0.000000000000e+00 
8.372537541237e-02 -1.174905373863e-01 0.000000000000e+00 0.000000000000e+00 0.000000000000e+00 0.000000000000e+00 0.000000000000e+00 0.000000000000e+00 
5.004288552848e-02 -1.716527951481e-01 0.000000000000e+00 0.000000000000e+00 0.000000000000e+00 0.000000000000e+00 0.000000000000e+00 0.000000000000e+00 
3.731099137938e-02 -1.115945408716e-01 0.000000000000e+00 0.000000000000e+00 0.000000000000e+00 0.000000000000e+00 0.000000000000e+00 0.000000000000e+00 
6.271916567743e-02 -1.115718330784e-01 0.000000000000e+00 0.000000000000e+00 0.000000000000e+00 0.000000000000e+00 0.000000000000e+00 0.000000000000e+00 
1.686902144853e-02 -1.361062558984e-01 0.000000000000e+00 0.000000000000e+00 0.000000000000e+00 0.000000000000e+00 0.000000000000e+00 0.000000000000e+00 
8.320724439706e-02 -1.361392086212e-01 0.000000000000e+00 0.000000000000e+00 0.000000000000e+00 0.000000000000e+00 0.000000000000e+00 0.000000000000e+00 
8.827644021441e-02 -5.068271212769e-02 0.000000000000e+00 0.000000000000e+00 0.000000000000e+00 0.000000000000e+00 0.000000000000e+00 0.000000000000e+00 
5.583260035578e-02 -1.366520720980e-01 0.000000000000e+00 0.000000000000e+00 0.000000000000e+00 0.000000000000e+00 0.000000000000e+00 0.000000000000e+00 
8.326930466579e-02 -1.667726886397e-01 0.000000000000e+00 0.000000000000e+00 0.000000000000e+00 0.000000000000e+00 0.000000000000e+00 0.000000000000e+00 
1.683000258849e-02 -1.667776624401e-01 0.000000000000e+00 0.000000000000e+00 0.000000000000e+00 0.000000000000e+00 0.000000000000e+00 0.000000000000e+00 
3.176003359910e-02 -8.986364252605e-02 0.000000000000e+00 0.000000000000e+00 0.000000000000e+00 0.000000000000e+00 0.000000000000e+00 0.000000000000e+00 
3.772961003605e-02 -1.415473931669e-01 0.000000000000e+00 0.000000000000e+00 0.000000000000e+00 0.000000000000e+00 0.000000000000e+00 0.000000000000e+00 
3.703325374415e-02 -1.619447957644e-01 0.000000000000e+00 0.000000000000e+00 0.000000000000e+00 0.000000000000e+00 0.000000000000e+00 0.000000000000e+00 
6.303932844440e-02 -1.619539551222e-01 0.000000000000e+00 0.000000000000e+00 0.000000000000e+00 0.000000000000e+00 0.000000000000e+00 0.000000000000e+00 
1.687036367023e-02 -1.864550581470e-01 0.000000000000e+00 0.000000000000e+00 0.000000000000e+00 0.000000000000e+00 0.000000000000e+00 0.000000000000e+00 
5.675176755435e-02 -8.029564380893e-02 0.000000000000e+00 0.000000000000e+00 0.000000000000e+00 0.000000000000e+00 0.000000000000e+00 0.000000000000e+00 
1.125853509499e-02 -1.018913627337e-01 0.000000000000e+00 0.000000000000e+00 0.000000000000e+00 0.000000000000e+00 0.000000000000e+00 0.000000000000e+00 
8.881871162219e-02 -1.019661470517e-01 0.000000000000e+00 0.000000000000e+00 0.000000000000e+00 0.000000000000e+00 0.000000000000e+00 0.000000000000e+00 
7.207066164269e-02 -6.508809647676e-02 0.000000000000e+00 0.000000000000e+00 0.000000000000e+00 0.000000000000e+00 0.000000000000e+00 0.000000000000e+00 
8.958901145892e-02 -7.668408325171e-02 0.000000000000e+00 0.000000000000e+00 0.000000000000e+00 0.000000000000e+00 0.000000000000e+00 0.000000000000e+00 
3.832908703950e-02 -9.976005802934e-02 0.000000000000e+00 0.000000000000e+00 0.000000000000e+00 0.000000000000e+00 0.000000000000e+00 0.000000000000e+00 
1.169884814581e-02 -1.485111206917e-01 0.000000000000e+00 0.000000000000e+00 0.000000000000e+00 0.000000000000e+00 0.000000000000e+00 0.000000000000e+00 
8.835347874980e-02 -1.485454048835e-01 0.000000000000e+00 0.000000000000e+00 0.000000000000e+00 0.000000000000e+00 0.000000000000e+00 0.000000000000e+00 
6.851377528847e-02 -1.399424198909e-01 0.000000000000e+00 0.000000000000e+00 0.000000000000e+00 0.000000000000e+00 0.000000000000e+00 0.000000000000e+00 
9.100272279741e-02 -6.058966642700e-02 0.000000000000e+00 0.000000000000e+00 0.000000000000e+00 0.000000000000e+00 0.000000000000e+00 0.000000000000e+00 
7.224986561191e-02 -8.603444691608e-02 0.000000000000e+00 0.000000000000e+00 0.000000000000e+00 0.000000000000e+00 0.000000000000e+00 0.000000000000e+00 
6.027993180190e-02 -6.988363285687e-02 0.000000000000e+00 0.000000000000e+00 0.000000000000e+00 0.000000000000e+00 0.000000000000e+00 0.000000000000e+00 
1.000000000000e-01 -3.207786985738e-02 0.000000000000e+00 0.000000000000e+00 0.000000000000e+00 0.000000000000e+00 0.000000000000e+00 0.000000000000e+00 
8.454242557621e-02 -3.844635220127e-02 0.000000000000e+00 0.000000000000e+00 0.000000000000e+00 0.000000000000e+00 0.000000000000e+00 0.000000000000e+00 
2.474920969922e-02 -2.015432236000e-01 0.000000000000e+00 0.000000000000e+00 0.000000000000e+00 0.000000000000e+00 0.000000000000e+00 0.000000000000e+00 
0.000000000000e+00 -2.071452132758e-01 0.000000000000e+00 0.000000000000e+00 0.000000000000e+00 0.000000000000e+00 0.000000000000e+00 0.000000000000e+00 
0.000000000000e+00 -8.133192903590e-02 0.000000000000e+00 0.000000000000e+00 0.000000000000e+00 0.000000000000e+00 0.000000000000e+00 0.000000000000e+00 
1.698701460171e-02 -8.593339913784e-02 0.000000000000e+00 0.000000000000e+00 0.000000000000e+00 0.000000000000e+00 0.000000000000e+00 0.000000000000e+00 
7.049571814535e-02 -4.034466657971e-02 0.000000000000e+00 0.000000000000e+00 0.000000000000e+00 0.000000000000e+00 0.000000000000e+00 0.000000000000e+00 
3.763666536168e-02 -1.917900581297e-01 0.000000000000e+00 0.000000000000e+00 0.000000000000e+00 0.000000000000e+00 0.000000000000e+00 0.000000000000e+00 
3.144484460580e-02 -7.586712852882e-02 0.000000000000e+00 0.000000000000e+00 0.000000000000e+00 0.000000000000e+00 0.000000000000e+00 0.000000000000e+00 
5.599679480673e-02 -1.868962244425e-01 0.000000000000e+00 0.000000000000e+00 0.000000000000e+00 0.000000000000e+00 0.000000000000e+00 0.000000000000e+00 
1.000000000000e-01 -1.717986916992e-01 0.000000000000e+00 0.000000000000e+00 0.000000000000e+00 0.000000000000e+00 0.000000000000e+00 0.000000000000e+00 
8.325780581963e-02 -1.864276587827e-01 0.000000000000e+00 0.000000000000e+00 0.000000000000e+00 0.000000000000e+00 0.000000000000e+00 0.000000000000e+00 
6.163087269112e-02 -4.804641620450e-02 0.000000000000e+00 0.000000000000e+00 0.000000000000e+00 0.000000000000e+00 0.000000000000e+00 0.000000000000e+00 
5.002678796997e-02 -6.957908922559e-02 0.000000000000e+00 0.000000000000e+00 0.000000000000e+00 0.000000000000e+00 0.000000000000e+00 0.000000000000e+00 
3.977027004405e-02 -6.986979884634e-02 0.000000000000e+00 0.000000000000e+00 0.000000000000e+00 0.000000000000e+00 0.000000000000e+00 0.000000000000e+00 
6.904394191688e-02 -1.770178073307e-01 0.000000000000e+00 0.000000000000e+00 0.000000000000e+00 0.000000000000e+00 0.000000000000e+00 0.000000000000e+00 
5.204798323580e-02 -5.977244273485e-02 0.000000000000e+00 0.000000000000e+00 0.000000000000e+00 0.000000000000e+00 0.000000000000e+00 0.000000000000e+00 
19  28  30  19
21  29  46  21
29  42  46  29
30  28  54  30
24  35  38  24
34  25  37  34
35  20  38  35
21  34  37  21
48  18  58  48
17  33  38  17
33  24  38  33
4  5  30  4
35  7  40  35
14  34  39  14
17  31  33  17
28  22  59  28
22  41  59  22
27  48  58  27
30  5  52  30
19  30  60  19
39  21  46  39
17  29  37  17
29  17  38  29
26  39  46  26
18  42  58  18
7  8  40  7
13  14  39  13
33  31  50  33
20  29  38  20
29  21  37  29
22  28  53  22
11  44  49  11
34  21  39  34
20  35  40  20
24  30  52  24
29  20  42  29
6  7  35  6
14  15  34  14
4  30  54  4
28  19  53  28
10  11  49  10
6  35  52  6
34  15  51  34
30  24  60  30
27  43  48  27
44  26  47  44
46  18  47  46
26  46  47  26
32  22  53  32
3  54  59  3
11  12  44  11
25  34  51  25
44  12  56  44
35  24  52  35
9  43  57  9
23  44  47  23
54  28  59  54
31  17  55  31
42  18  46  42
24  33  60  24
1  2  41  1
36  18  48  36
18  36  47  18
50  19  60  50
33  50  60  33
44  23  49  44
36  23  47  36
26  44  56  26
43  27  57  43
45  31  55  45
37  25  55  37
20  40  58  20
40  8  57  40
13  39  56  13
40  27  58  40
17  37  55  17
3  4  54  3
15  16  51  15
5  6  52  5
25  45  55  25
39  26  56  39
27  40  57  27
42  20  58  42
8  9  57  8
12  13  56  12
2  3  59  2
41  2  59  41
32  53  61  32
53  19  61  53
19  50  61  19
62  1  63  62
64  65  49  64
65  10  49  65
16  66  67  16
63  22  68  63
63  1  41  63
16  67  51  16
22  63  41  22
23  36  69  23
67  70  45  67
36  71  69  36
43  72  73  43
67  25  51  67
22  32  74  22
75  31  76  75
31  70  76  31
25  67  45  25
70  31  45  70
31  75  50  31
9  72  43  9
43  77  48  43
68  22  74  68
74  32  78  74
49  23  69  49
64  49  69  64
77  43  73  77
77  36  48  77
36  77  71  36
78  32  61  78
75  78  61  75
50  75  61  50
VARIABLES  = "X","Y","Z", "STRESS_XX", "STRESS_YY", "STRESS_ZZ", "DISPLACEMENT_X1", "DISPLACEMENT_Y1"
ZONE T="1.000000000000e+01s", N=78, E=121, F=FEPOINT, ET=QUADRILATERAL
STRANDID=1, SOLUTIONTIME=1.000000000000e+01
1.000000000000e-01 -4.365795665274e-02 0.000000000000e+00 -2.427959773437e+02 -9.712044926120e+02 -2.428000939911e+02 0.000000000000e+00 -2.728133612345e-02 
1.000000000000e-01 -5.571534163644e-02 0.000000000000e+00 -2.414294673346e+02 -9.656650610856e+02 -2.414189056840e+02 0.000000000000e+00 -2.693087309627e-02 
1.000000000000e-01 -6.826783355915e-02 0.000000000000e+00 -2.402997671660e+02 -9.612319703152e+02 -2.403063474962e+02 0.000000000000e+00 -2.656796022041e-02 
1.000000000000e-01 -8.133192903590e-02 0.000000000000e+00 -2.394051071493e+02 -9.575348484851e+02 -2.393879911269e+02 0.000000000000e+00 -2.619188698686e-02 
1.000000000000e-01 -9.493635849425e-02 0.000000000000e+00 -2.386962521675e+02 -9.547935429894e+02 -2.386979590314e+02 0.000000000000e+00 -2.580157879473e-02 
1.000000000000e-01 -1.090948080906e-01 0.000000000000e+00 -2.382409057793e+02 -9.529810189602e+02 -2.382443849479e+02 0.000000000000e+00 -2.539636379782e-02 
1.000000000000e-01 -1.238407989588e-01 0.000000000000e+00 -2.379261141374e+02 -9.517140953041e+02 -2.379280418883e+02 0.000000000000e+00 -2.497502984533e-02 
1.000000000000e-01 -1.391895614642e-01 0.000000000000e+00 -2.377521875737e+02 -9.509770415805e+02 -2.377458458308e+02 0.000000000000e+00 -2.453694073042e-02 
1.000000000000e-01 -1.551674274464e-01 0.000000000000e+00 -2.376415959123e+02 -9.505649306119e+02 -2.376413053049e+02 0.000000000000e+00 -2.408118872867e-02 
0.000000000000e+00 -1.891202423411e-01 0.000000000000e+00 -2.375603727408e+02 -9.502289387368e+02 -2.375578622955e+02 0.000000000000e+00 -2.311315827758e-02 
0.000000000000e+00 -1.717986916992e-01 0.000000000000e+00 -2.375888772103e+02 -9.503471258570e+02 -2.375872006135e+02 0.000000000000e+00 -2.360696731313e-02 
0.000000000000e+00 -1.551674274464e-01 0.000000000000e+00 -2.376547374532e+02 -9.506126415632e+02 -2.376534758033e+02 0.000000000000e+00 -2.408118757908e-02 
0.000000000000e+00 -1.391895614642e-01 0.000000000000e+00 -2.377696267313e+02 -9.510531357002e+02 -2.377645524863e+02 0.000000000000e+00 -2.453693935354e-02 
0.000000000000e+00 -1.238407989588e-01 0.000000000000e+00 -2.379586792679e+02 -9.518544550409e+02 -2.379626268617e+02 0.000000000000e+00 -2.497503029828e-02 
0.000000000000e+00 -1.090948080907e-01 0.000000000000e+00 -2.382969354755e+02 -9.532031195098e+02 -2.383000109971e+02 0.000000000000e+00 -2.539636462264e-02 
0.000000000000e+00 -9.493635849425e-02 0.000000000000e+00 -2.387832893409e+02 -9.551385691701e+02 -2.387843717022e+02 0.000000000000e+00 -2.580157829209e-02 
5.003429380367e-02 -1.017798692890e-01 0.000000000000e+00 -2.384788291222e+02 -9.539312024423e+02 -2.384820063129e+02 3.331301478242e-10 -2.560561702003e-02 
5.002853232124e-02 -1.519088519355e-01 0.000000000000e+00 -2.376626850147e+02 -9.506596452220e+02 -2.376644660473e+02 1.064289878984e-09 -2.417411780058e-02 
6.860613435721e-02 -7.587479770767e-02 0.000000000000e+00 -2.397500696282e+02 -9.590535230541e+02 -2.397607185365e+02 3.124448852482e-09 -2.634880602529e-02 
6.888280446269e-02 -1.268465272623e-01 0.000000000000e+00 -2.378994980760e+02 -9.516174689032e+02 -2.379033933958e+02 -8.338638887850e-10 -2.488920771476e-02 
3.121957414972e-02 -1.268421985082e-01 0.000000000000e+00 -2.379104349169e+02 -9.516437207799e+02 -2.379108311394e+02 1.413648547435e-09 -2.488933025921e-02 
7.556622015059e-02 -5.213930935979e-02 0.000000000000e+00 -2.418612080703e+02 -9.674543267033e+02 -2.418631069547e+02 -2.330302426813e-09 -2.703460168763e-02 
3.104608478085e-02 -1.770328565743e-01 0.000000000000e+00 -2.375722982315e+02 -9.502985007690e+02 -2.375741598001e+02 -1.749630095786e-11 -2.345774300562e-02 
7.554701895293e-02 -1.019679427391e-01 0.000000000000e+00 -2.384878067121e+02 -9.539724493183e+02 -2.384920512061e+02 -1.667527345632e-09 -2.560023123951e-02 
2.453145878902e-02 -1.018531985808e-01 0.000000000000e+00 -2.384920541136e+02 -9.539882314496e+02 -2.384960571126e+02 5.640725237413e-10 -2.560351689104e-02 
2.486640359495e-02 -1.511994000693e-01 0.000000000000e+00 -2.376637405315e+02 -9.506749524312e+02 -2.376677385925e+02 -7.198017138676e-10 -2.419435237895e-02 
7.519018389267e-02 -1.512146935932e-01 0.000000000000e+00 -2.376683915452e+02 -9.506869486222e+02 -2.376710680335e+02 1.565450355349e-10 -2.419391719591e-02 
8.318938762240e-02 -6.726290804214e-02 0.000000000000e+00 -2.404396128135e+02 -9.617841185851e+02 -2.404447462797e+02 1.009102663582e-09 -2.659695197791e-02 
5.005181660085e-02 -1.213864546544e-01 0.000000000000e+00 -2.379894706632e+02 -9.519368366551e+02 -2.379852614636e+02 -1.919104024746e-09 -2.504511742110e-02 
8.304311980566e-02 -8.600422434734e-02 0.000000000000e+00 -2.391415350770e+02 -9.565713554303e+02 -2.391425781015e+02 -3.141145869383e-09 -2.605771346056e-02 
4.512057632941e-02 -8.568062374441e-02 0.000000000000e+00 -2.391912281128e+02 -9.567437379474e+02 -2.391869932120e+02 -2.126854880268e-09 -2.606700393201e-02 
6.206074805899e-02 -5.978173210899e-02 0.000000000000e+00 -2.410800822929e+02 -9.642673445561e+02 -2.410694853698e+02 2.626809571719e-11 -2.681310115934e-02 
6.286808215727e-02 -9.137086788006e-02 0.000000000000e+00 -2.389245776827e+02 -9.556810951619e+02 -2.389211345689e+02 9.274466002971e-10 -2.590377709369e-02 
1.640712137365e-02 -1.174171270781e-01 0.000000000000e+00 -2.380806183288e+02 -9.523198041584e+02 -2.380800844974e+02 1.212504032868e-09 -2.515850343271e-02 
8.372537541237e-02 -1.174905373863e-01 0.000000000000e+00 -2.380653154702e+02 -9.522461033210e+02 -2.380622837582e+02 -7.164542775773e-10 -2.515640431695e-02 
5.004288552848e-02 -1.716527951481e-01 0.000000000000e+00 -2.375844842699e+02 -9.503349954996e+02 -2.375838959539e+02 4.584843983578e-10 -2.361112667748e-02 
3.731099137938e-02 -1.115945408716e-01 0.000000000000e+00 -2.382117934877e+02 -9.528608959368e+02 -2.382145378849e+02 1.321596898168e-09 -2.532489802409e-02 
6.271916567743e-02 -1.115718330784e-01 0.000000000000e+00 -2.382025831858e+02 -9.527838040959e+02 -2.381972774563e+02 -9.481408877541e-10 -2.532554083122e-02 
1.686902144853e-02 -1.361062558984e-01 0.000000000000e+00 -2.377854507667e+02 -9.511423955041e+02 -2.377855692542e+02 -2.998657442566e-10 -2.462491562454e-02 
8.320724439706e-02 -1.361392086212e-01 0.000000000000e+00 -2.377778201676e+02 -9.511095077547e+02 -2.377774655845e+02 3.952996641287e-10 -2.462397712889e-02 
8.827644021441e-02 -5.068271212769e-02 0.000000000000e+00 -2.420238416166e+02 -9.681214599969e+02 -2.420290603227e+02 -2.434084551457e-09 -2.707690318154e-02 
5.583260035578e-02 -1.366520720980e-01 0.000000000000e+00 -2.377787958282e+02 -9.511116014515e+02 -2.377780794559e+02 -1.171459220297e-09 -2.460934328393e-02 
8.326930466579e-02 -1.667726886397e-01 0.000000000000e+00 -2.376010233846e+02 -9.503928859335e+02 -2.375987818636e+02 1.010043855981e-09 -2.375026500130e-02 
1.683000258849e-02 -1.667776624401e-01 0.000000000000e+00 -2.376020886567e+02 -9.504045097930e+02 -2.376013196899e+02 -7.928698285086e-10 -2.375012314576e-02 
3.176003359910e-02 -8.986364252605e-02 0.000000000000e+00 -2.389980174911e+02 -9.559263042025e+02 -2.389848643387e+02 7.436718206477e-10 -2.594698487805e-02 
3.772961003605e-02 -1.415473931669e-01 0.000000000000e+00 -2.377292318709e+02 -9.509131860660e+02 -2.377284835874e+02 1.264248547147e-09 -2.446966900144e-02 
3.703325374415e-02 -1.619447957644e-01 0.000000000000e+00 -2.376133738659e+02 -9.504602283018e+02 -2.376147204335e+02 4.431558396625e-10 -2.388792334239e-02 
6.303932844440e-02 -1.619539551222e-01 0.000000000000e+00 -2.376186054855e+02 -9.504706803918e+02 -2.376178571755e+02 9.925486640273e-10 -2.388766121641e-02 
1.687036367023e-02 -1.864550581470e-01 0.000000000000e+00 -2.375575411610e+02 -9.502328793300e+02 -2.375580840982e+02 -6.516502431224e-10 -2.318913457808e-02 
5.675176755435e-02 -8.029564380893e-02 0.000000000000e+00 -2.395283574585e+02 -9.581814958460e+02 -2.395419706609e+02 -1.029121158942e-09 -2.622167199191e-02 
1.125853509499e-02 -1.018913627337e-01 0.000000000000e+00 -2.384790610657e+02 -9.539297242163e+02 -2.384817570564e+02 2.678059598816e-09 -2.560242500134e-02 
8.881871162219e-02 -1.019661470517e-01 0.000000000000e+00 -2.384753295295e+02 -9.539277065562e+02 -2.384806072172e+02 -3.438774421431e-09 -2.560028451026e-02 
7.207066164269e-02 -6.508809647676e-02 0.000000000000e+00 -2.405706781426e+02 -9.622610759843e+02 -2.405663508254e+02 1.990384415761e-09 -2.665972293737e-02 
8.958901145892e-02 -7.668408325171e-02 0.000000000000e+00 -2.397703057820e+02 -9.591239520796e+02 -2.397788515723e+02 8.529216099281e-10 -2.632551383967e-02 
3.832908703950e-02 -9.976005802934e-02 0.000000000000e+00 -2.385672396307e+02 -9.542449548836e+02 -2.385624389029e+02 1.907169300553e-09 -2.566343188674e-02 
1.169884814581e-02 -1.485111206917e-01 0.000000000000e+00 -2.376837423655e+02 -9.507394103839e+02 -2.376846305499e+02 -4.433227441116e-10 -2.427102656620e-02 
8.835347874980e-02 -1.485454048835e-01 0.000000000000e+00 -2.376822720239e+02 -9.507419481959e+02 -2.376848440440e+02 -6.441852646095e-12 -2.427005036906e-02 
6.851377528847e-02 -1.399424198909e-01 0.000000000000e+00 -2.377514670615e+02 -9.509962110341e+02 -2.377495356191e+02 -6.679386241278e-10 -2.451546263600e-02 
9.100272279741e-02 -6.058966642700e-02 0.000000000000e+00 -2.410250782145e+02 -9.640997327992e+02 -2.410249622027e+02 1.183398032431e-09 -2.678974005026e-02 
7.224986561191e-02 -8.603444691608e-02 0.000000000000e+00 -2.391786510078e+02 -9.566377439098e+02 -2.391632789835e+02 1.765005265048e-09 -2.605685050049e-02 
6.027993180190e-02 -6.988363285687e-02 0.000000000000e+00 -2.402175235943e+02 -9.608884261179e+02 -2.402211899424e+02 1.052099797358e-09 -2.652136020105e-02 
1.000000000000e-01 -3.207786985738e-02 0.000000000000e+00 -2.443311271428e+02 -9.773356782299e+02 -2.443333610745e+02 0.000000000000e+00 -2.762003511663e-02 
8.454242557621e-02 -3.844635220127e-02 0.000000000000e+00 -2.434944597474e+02 -9.740218782739e+02 -2.435032676043e+02 -4.986859332433e-09 -2.743349079101e-02 
2.474920969922e-02 -2.015432236000e-01 0.000000000000e+00 -2.375447791195e+02 -9.501827642641e+02 -2.375455086767e+02 -1.085513997851e-10 -2.275902962154e-02 
0.000000000000e+00 -2.071452132758e-01 0.000000000000e+00 -2.375430434174e+02 -9.501688028589e+02 -2.375423692553e+02 0.000000000000e+00 -2.259934343542e-02 
0.000000000000e+00 -8.133192903590e-02 0.000000000000e+00 -2.394769500289e+02 -9.578423155631e+02 -2.394638531184e+02 0.000000000000e+00 -2.619188711290e-02 
1.698701460171e-02 -8.593339913784e-02 0.000000000000e+00 -2.391452959824e+02 -9.566209947989e+02 -2.391532581563e+02 3.173275389480e-09 -2.605974409443e-02 
7.049571814535e-02 -4.034466657971e-02 0.000000000000e+00 -2.431993612621e+02 -9.728015395343e+02 -2.432001801593e+02 -5.709767335230e-09 -2.737801464801e-02 
3.763666536168e-02 -1.917900581297e-01 0.000000000000e+00 -2.375508824139e+02 -9.502072683697e+02 -2.375516301567e+02 3.352577337444e-10 -2.303705160401e-02 
3.144484460580e-02 -7.586712852882e-02 0.000000000000e+00 -2.397671312000e+02 -9.590898024608e+02 -2.397713867321e+02 -1.235898572230e-09 -2.634903267874e-02 
5.599679480673e-02 -1.868962244425e-01 0.000000000000e+00 -2.375546966621e+02 -9.502260391935e+02 -2.375561471711e+02 6.438686200261e-10 -2.317655889155e-02 
1.000000000000e-01 -1.717986916992e-01 0.000000000000e+00 -2.375846805628e+02 -9.503277673543e+02 -2.375824895834e+02 0.000000000000e+00 -2.360696751097e-02 
8.325780581963e-02 -1.864276587827e-01 0.000000000000e+00 -2.375593614540e+02 -9.502329975671e+02 -2.375584718042e+02 9.308928115098e-10 -2.318991527058e-02 
6.163087269112e-02 -4.804641620450e-02 0.000000000000e+00 -2.422744563356e+02 -9.690099121335e+02 -2.422568736938e+02 -5.475766319603e-09 -2.715353414440e-02 
5.002678796997e-02 -6.957908922559e-02 0.000000000000e+00 -2.402456653493e+02 -9.610218140363e+02 -2.402534958771e+02 -1.619711040423e-09 -2.653014563444e-02 
3.977027004405e-02 -6.986979884634e-02 0.000000000000e+00 -2.402106478458e+02 -9.607960391647e+02 -2.402013374021e+02 -3.286417010240e-10 -2.652176657889e-02 
6.904394191688e-02 -1.770178073307e-01 0.000000000000e+00 -2.375729047157e+02 -9.502971321024e+02 -2.375740073636e+02 1.188966309731e-09 -2.345817225774e-02 
5.204798323580e-02 -5.977244273485e-02 0.000000000000e+00 -2.410404281131e+02 -9.641834511006e+02 -2.410447758427e+02 3.306096924866e-09 -2.681337015754e-02 
19  28  30  19
21  29  46  21
29  42  46  29
30  28  54  30
24  35  38  24
34  25  37  34
35  20  38  35
21  34  37  21
48  18  58  48
17  33  38  17
33  24  38  33
4  5  30  4
35  7  40  35
14  34  39  14
17  31  33  17
28  22  59  28
22  41  59  22
27  48  58  27
30  5  52  30
19  30  60  19
39  21  46  39
17  29  37  17
29  17  38  29
26  39  46  26
18  42  58  18
7  8  40  7
13  14  39  13
33  31  50  33
20  29  38  20
29  21  37  29
22  28  53  22
11  44  49  11
34  21  39  34
20  35  40  20
24  30  52  24
29  20  42  29
6  7  35  6
14  15  34  14
4  30  54  4
28  19  53  28
10  11  49  10
6  35  52  6
34  15  51  34
30  24  60  30
27  43  48  27
44  26  47  44
46  18  47  46
26  46  47  26
32  22  53  32
3  54  59  3
11  12  44  11
25  34  51  25
44  12  56  44
35  24  52  35
9  43  57  9
23  44  47  23
54  28  59  54
31  17  55  31
42  18  46  42
24  33  60  24
1  2  41  1
36  18  48  36
18  36  47  18
50  19  60  50
33  50  60  33
44  23  49  44
36  23  47  36
26  44  56  26
43  27  57  43
45  31  55  45
37  25  55  37
20  40  58  20
40  8  57  40
13  39  56  13
40  27  58  40
17  37  55  17
3  4  54  3
15  16  51  15
5  6  52  5
25  45  55  25
39  26  56  39
27  40  57  27
42  20  58  42
8  9  57  8
12  13  56  12
2  3  59  2
41  2  59  41
32  53  61  32
53  19  61  53
19  50  61  19
62  1  63  62
64  65  49  64
65  10  49  65
16  66  67  16
63  22  68  63
63  1  41  63
16  67  51  16
22  63  41  22
23  36  69  23
67  70  45  67
36  71  69  36
43  72  73  43
67  25  51  67
22  32  74  22
75  31  76  75
31  70  76  31
25  67  45  25
70  31  45  70
31  75  50  31
9  72  43  9
43  77  48  43
68  22  74  68
74  32  78  74
49  23  69  49
64  49  69  64
77  43  73  77
77  36  48  77
36  77  71  36
78  32  61  78
75  78  61  75
50  75  61  50
