VARIABLES  = "X","Y","Z", "PRESSURE1"
ZONE T="0.000000000000e+00s", N=74, E=114, F=FEPOINT, ET=QUADRILATERAL
STRANDID=1, SOLUTIONTIME=0.000000000000e+00
1.000000000000e-01 -1.717986916992e-01 0.000000000000e+00 0.000000000000e+00 
1.000000000000e-01 -1.891202423411e-01 0.000000000000e+00 0.000000000000e+00 
1.000000000000e-01 -2.071452132758e-01 0.000000000000e+00 0.000000000000e+00 
1.000000000000e-01 -2.259159003327e-01 0.000000000000e+00 0.000000000000e+00 
1.000000000000e-01 -2.454553372135e-01 0.000000000000e+00 0.000000000000e+00 
1.000000000000e-01 -2.657958002743e-01 0.000000000000e+00 0.000000000000e+00 
1.000000000000e-01 -2.869820737070e-01 0.000000000000e+00 0.000000000000e+00 
1.000000000000e-01 -3.090302591577e-01 0.000000000000e+00 0.000000000000e+00 
1.000000000000e-01 -3.319808966566e-01 0.000000000000e+00 0.000000000000e+00 
1.000000000000e-01 -3.558736196309e-01 0.000000000000e+00 0.000000000000e+00 
1.000000000000e-01 -3.807449903129e-01 0.000000000000e+00 0.000000000000e+00 
0.000000000000e+00 -3.807449903129e-01 0.000000000000e+00 0.000000000000e+00 
0.000000000000e+00 -3.558736196309e-01 0.000000000000e+00 0.000000000000e+00 
0.000000000000e+00 -3.319808966566e-01 0.000000000000e+00 0.000000000000e+00 
0.000000000000e+00 -3.090302591577e-01 0.000000000000e+00 0.000000000000e+00 
0.000000000000e+00 -2.869820737070e-01 0.000000000000e+00 0.000000000000e+00 
0.000000000000e+00 -2.657958002743e-01 0.000000000000e+00 0.000000000000e+00 
0.000000000000e+00 -2.454553372135e-01 0.000000000000e+00 0.000000000000e+00 
0.000000000000e+00 -2.259159003327e-01 0.000000000000e+00 0.000000000000e+00 
0.000000000000e+00 -2.071452132758e-01 0.000000000000e+00 0.000000000000e+00 
5.004842734123e-02 -2.021418171447e-01 0.000000000000e+00 0.000000000000e+00 
5.005908986205e-02 -2.553771826632e-01 0.000000000000e+00 0.000000000000e+00 
5.008292036290e-02 -3.203087963123e-01 0.000000000000e+00 0.000000000000e+00 
5.009415947708e-02 -3.711929596105e-01 0.000000000000e+00 0.000000000000e+00 
6.904394191688e-02 -1.770178073307e-01 0.000000000000e+00 0.000000000000e+00 
6.807698165746e-02 -2.287558900294e-01 0.000000000000e+00 0.000000000000e+00 
3.206062782805e-02 -2.287631037513e-01 0.000000000000e+00 0.000000000000e+00 
3.557354364095e-02 -2.878483101898e-01 0.000000000000e+00 0.000000000000e+00 
6.776223739581e-02 -2.827412570156e-01 0.000000000000e+00 0.000000000000e+00 
7.535103115493e-02 -2.015293853660e-01 0.000000000000e+00 0.000000000000e+00 
2.474920969922e-02 -2.015432236000e-01 0.000000000000e+00 0.000000000000e+00 
3.050691695726e-02 -3.457552030811e-01 0.000000000000e+00 0.000000000000e+00 
6.961191317484e-02 -3.457465657077e-01 0.000000000000e+00 0.000000000000e+00 
2.403213634881e-02 -2.555147969150e-01 0.000000000000e+00 0.000000000000e+00 
7.607779023971e-02 -2.554704032576e-01 0.000000000000e+00 0.000000000000e+00 
3.066487977987e-02 -3.967816778596e-01 0.000000000000e+00 0.000000000000e+00 
7.369529764403e-02 -3.084770811070e-01 0.000000000000e+00 0.000000000000e+00 
2.378951418650e-02 -3.203343384072e-01 0.000000000000e+00 0.000000000000e+00 
7.605350107748e-02 -3.708957544133e-01 0.000000000000e+00 0.000000000000e+00 
2.414696816088e-02 -3.709124382382e-01 0.000000000000e+00 0.000000000000e+00 
5.006735922148e-02 -2.215423617712e-01 0.000000000000e+00 0.000000000000e+00 
1.850317579946e-02 -2.757149546133e-01 0.000000000000e+00 0.000000000000e+00 
8.327052267209e-02 -2.182301684835e-01 0.000000000000e+00 0.000000000000e+00 
1.689528006222e-02 -2.182447195749e-01 0.000000000000e+00 0.000000000000e+00 
5.386538030076e-02 -2.991451045652e-01 0.000000000000e+00 0.000000000000e+00 
8.325780581963e-02 -1.864276587827e-01 0.000000000000e+00 0.000000000000e+00 
1.887456660158e-02 -3.001711909616e-01 0.000000000000e+00 0.000000000000e+00 
5.599679480673e-02 -1.868962244425e-01 0.000000000000e+00 0.000000000000e+00 
1.562509704916e-02 -2.362679114654e-01 0.000000000000e+00 0.000000000000e+00 
8.450980591300e-02 -2.362475890693e-01 0.000000000000e+00 0.000000000000e+00 
5.000597776251e-02 -2.748200932242e-01 0.000000000000e+00 0.000000000000e+00 
3.763666536168e-02 -1.917900581297e-01 0.000000000000e+00 0.000000000000e+00 
7.990076033980e-02 -3.280154126230e-01 0.000000000000e+00 0.000000000000e+00 
5.374039812767e-02 -2.384606709325e-01 0.000000000000e+00 0.000000000000e+00 
8.295584548888e-02 -2.724709261564e-01 0.000000000000e+00 0.000000000000e+00 
3.621311007526e-02 -2.130558380742e-01 0.000000000000e+00 0.000000000000e+00 
6.391474833037e-02 -2.130589258886e-01 0.000000000000e+00 0.000000000000e+00 
5.005826476111e-02 -3.405429735745e-01 0.000000000000e+00 0.000000000000e+00 
3.698944467363e-02 -2.448228664997e-01 0.000000000000e+00 0.000000000000e+00 
3.662161907618e-02 -3.066087827684e-01 0.000000000000e+00 0.000000000000e+00 
8.289028355298e-02 -2.928054893704e-01 0.000000000000e+00 0.000000000000e+00 
3.408000067884e-02 -2.691217269938e-01 0.000000000000e+00 0.000000000000e+00 
6.944556402011e-02 -3.968201233631e-01 0.000000000000e+00 0.000000000000e+00 
5.004338622634e-02 -4.224088684799e-01 0.000000000000e+00 0.000000000000e+00 
1.687036367023e-02 -1.864550581470e-01 0.000000000000e+00 0.000000000000e+00 
0.000000000000e+00 -1.891202423411e-01 0.000000000000e+00 0.000000000000e+00 
1.000000000000e-01 -4.066333808964e-01 0.000000000000e+00 0.000000000000e+00 
0.000000000000e+00 -4.066333808964e-01 0.000000000000e+00 0.000000000000e+00 
3.104608478085e-02 -1.770328565743e-01 0.000000000000e+00 0.000000000000e+00 
5.004288552848e-02 -1.716527951481e-01 0.000000000000e+00 0.000000000000e+00 
8.326930466579e-02 -1.667726886397e-01 0.000000000000e+00 0.000000000000e+00 
1.000000000000e-01 -1.551674274464e-01 0.000000000000e+00 0.000000000000e+00 
2.375340220851e-02 -4.221482437035e-01 0.000000000000e+00 0.000000000000e+00 
6.303932844440e-02 -1.619539551222e-01 0.000000000000e+00 0.000000000000e+00 
35  29  51  35
22  35  51  22
3  30  46  3
2  3  46  2
25  30  48  25
26  35  54  26
13  14  32  13
10  33  53  10
9  10  53  9
30  21  48  30
32  14  38  32
30  25  46  30
35  22  54  35
33  23  53  33
23  33  58  23
38  23  58  38
32  38  58  32
35  26  50  35
21  30  57  21
29  35  55  29
20  31  44  20
30  3  43  30
17  18  34  17
5  6  35  5
13  32  40  13
33  10  39  33
24  32  58  24
36  12  40  36
33  24  58  33
23  37  53  23
32  24  40  32
24  33  39  24
24  36  40  24
1  2  46  1
34  18  49  34
5  35  50  5
17  34  42  17
37  8  53  37
14  15  38  14
35  6  55  35
29  37  45  29
27  41  54  27
12  13  40  12
16  42  47  16
10  11  39  10
8  9  53  8
27  54  59  27
59  22  62  59
8  37  61  8
37  23  45  37
34  49  59  34
37  29  61  37
34  59  62  34
52  21  56  52
42  28  47  42
29  45  51  29
45  28  51  45
38  15  47  38
31  52  56  31
19  20  44  19
49  27  59  49
3  4  43  3
16  17  42  16
15  16  47  15
23  38  60  23
30  43  57  30
44  31  56  44
6  7  55  6
7  8  61  7
43  26  57  43
27  44  56  27
48  21  52  48
41  21  57  41
18  19  49  18
21  41  56  21
4  5  50  4
43  4  50  43
19  44  49  19
55  7  61  55
26  43  50  26
44  27  49  44
41  26  54  41
22  51  62  22
41  27  56  41
26  41  57  26
28  45  60  28
28  42  62  28
42  34  62  42
29  55  61  29
45  23  60  45
47  28  60  47
54  22  59  54
51  28  62  51
38  47  60  38
36  24  63  36
64  36  63  64
31  20  65  31
20  66  65  20
11  67  63  11
68  12  36  68
69  70  52  69
70  48  52  70
11  63  39  11
71  1  46  71
63  24  39  63
72  1  71  72
68  36  73  68
71  25  74  71
36  64  73  36
65  69  52  65
31  65  52  31
25  71  46  25
25  70  74  25
70  25  48  70
VARIABLES  = "X","Y","Z", "PRESSURE1"
ZONE T="1.000000000000e+01s", N=74, E=114, F=FEPOINT, ET=QUADRILATERAL
STRANDID=1, SOLUTIONTIME=1.000000000000e+01
1.000000000000e-01 -1.717986916992e-01 0.000000000000e+00 4.745203865114e+01 
1.000000000000e-01 -1.891202423411e-01 0.000000000000e+00 4.754785284427e+01 
1.000000000000e-01 -2.071452132758e-01 0.000000000000e+00 4.759745433028e+01 
1.000000000000e-01 -2.259159003327e-01 0.000000000000e+00 4.761475678444e+01 
1.000000000000e-01 -2.454553372135e-01 0.000000000000e+00 4.762147255905e+01 
1.000000000000e-01 -2.657958002743e-01 0.000000000000e+00 4.762391675501e+01 
1.000000000000e-01 -2.869820737070e-01 0.000000000000e+00 4.762469438629e+01 
1.000000000000e-01 -3.090302591577e-01 0.000000000000e+00 4.762492462063e+01 
1.000000000000e-01 -3.319808966566e-01 0.000000000000e+00 4.762497975509e+01 
1.000000000000e-01 -3.558736196309e-01 0.000000000000e+00 4.762499615477e+01 
1.000000000000e-01 -3.807449903129e-01 0.000000000000e+00 4.762499808788e+01 
0.000000000000e+00 -3.807449903129e-01 0.000000000000e+00 4.762499778292e+01 
0.000000000000e+00 -3.558736196309e-01 0.000000000000e+00 4.762499490296e+01 
0.000000000000e+00 -3.319808966566e-01 0.000000000000e+00 4.762498069513e+01 
0.000000000000e+00 -3.090302591577e-01 0.000000000000e+00 4.762492017226e+01 
0.000000000000e+00 -2.869820737070e-01 0.000000000000e+00 4.762468275531e+01 
0.000000000000e+00 -2.657958002743e-01 0.000000000000e+00 4.762388747986e+01 
0.000000000000e+00 -2.454553372135e-01 0.000000000000e+00 4.762146280013e+01 
0.000000000000e+00 -2.259159003327e-01 0.000000000000e+00 4.761468160061e+01 
0.000000000000e+00 -2.071452132758e-01 0.000000000000e+00 4.759749236263e+01 
5.004842734123e-02 -2.021418171447e-01 0.000000000000e+00 4.758681410278e+01 
5.005908986205e-02 -2.553771826632e-01 0.000000000000e+00 4.762283151696e+01 
5.008292036290e-02 -3.203087963123e-01 0.000000000000e+00 4.762496148536e+01 
5.009415947708e-02 -3.711929596105e-01 0.000000000000e+00 4.762499777499e+01 
6.904394191688e-02 -1.770178073307e-01 0.000000000000e+00 4.749551979192e+01 
6.807698165746e-02 -2.287558900294e-01 0.000000000000e+00 4.761618810523e+01 
3.206062782805e-02 -2.287631037513e-01 0.000000000000e+00 4.761598257353e+01 
3.557354364095e-02 -2.878483101898e-01 0.000000000000e+00 4.762469437470e+01 
6.776223739581e-02 -2.827412570156e-01 0.000000000000e+00 4.762463749895e+01 
7.535103115493e-02 -2.015293853660e-01 0.000000000000e+00 4.758753870652e+01 
2.474920969922e-02 -2.015432236000e-01 0.000000000000e+00 4.758583472860e+01 
3.050691695726e-02 -3.457552030811e-01 0.000000000000e+00 4.762499145294e+01 
6.961191317484e-02 -3.457465657077e-01 0.000000000000e+00 4.762499264842e+01 
2.403213634881e-02 -2.555147969150e-01 0.000000000000e+00 4.762294141511e+01 
7.607779023971e-02 -2.554704032576e-01 0.000000000000e+00 4.762322073924e+01 
3.066487977987e-02 -3.967816778596e-01 0.000000000000e+00 4.762499823802e+01 
7.369529764403e-02 -3.084770811070e-01 0.000000000000e+00 4.762492351820e+01 
2.378951418650e-02 -3.203343384072e-01 0.000000000000e+00 4.762496102885e+01 
7.605350107748e-02 -3.708957544133e-01 0.000000000000e+00 4.762499745516e+01 
2.414696816088e-02 -3.709124382382e-01 0.000000000000e+00 4.762499731650e+01 
5.006735922148e-02 -2.215423617712e-01 0.000000000000e+00 4.761171747235e+01 
1.850317579946e-02 -2.757149546133e-01 0.000000000000e+00 4.762439101423e+01 
8.327052267209e-02 -2.182301684835e-01 0.000000000000e+00 4.760950565647e+01 
1.689528006222e-02 -2.182447195749e-01 0.000000000000e+00 4.760919216595e+01 
5.386538030076e-02 -2.991451045652e-01 0.000000000000e+00 4.762486059937e+01 
8.325780581963e-02 -1.864276587827e-01 0.000000000000e+00 4.754185822792e+01 
1.887456660158e-02 -3.001711909616e-01 0.000000000000e+00 4.762486473468e+01 
5.599679480673e-02 -1.868962244425e-01 0.000000000000e+00 4.754265947003e+01 
1.562509704916e-02 -2.362679114654e-01 0.000000000000e+00 4.761907823478e+01 
8.450980591300e-02 -2.362475890693e-01 0.000000000000e+00 4.761898983318e+01 
5.000597776251e-02 -2.748200932242e-01 0.000000000000e+00 4.762435314744e+01 
3.763666536168e-02 -1.917900581297e-01 0.000000000000e+00 4.756376553298e+01 
7.990076033980e-02 -3.280154126230e-01 0.000000000000e+00 4.762497735855e+01 
5.374039812767e-02 -2.384606709325e-01 0.000000000000e+00 4.761967430274e+01 
8.295584548888e-02 -2.724709261564e-01 0.000000000000e+00 4.762424701664e+01 
3.621311007526e-02 -2.130558380742e-01 0.000000000000e+00 4.760408751052e+01 
6.391474833037e-02 -2.130589258886e-01 0.000000000000e+00 4.760380764328e+01 
5.005826476111e-02 -3.405429735745e-01 0.000000000000e+00 4.762498852545e+01 
3.698944467363e-02 -2.448228664997e-01 0.000000000000e+00 4.762126668443e+01 
3.662161907618e-02 -3.066087827684e-01 0.000000000000e+00 4.762490384695e+01 
8.289028355298e-02 -2.928054893704e-01 0.000000000000e+00 4.762478016671e+01 
3.408000067884e-02 -2.691217269938e-01 0.000000000000e+00 4.762411448425e+01 
6.944556402011e-02 -3.968201233631e-01 0.000000000000e+00 4.762499834070e+01 
5.004338622634e-02 -4.224088684799e-01 0.000000000000e+00 4.762499786119e+01 
1.687036367023e-02 -1.864550581470e-01 0.000000000000e+00 4.754424346196e+01 
0.000000000000e+00 -1.891202423411e-01 0.000000000000e+00 4.754915231805e+01 
1.000000000000e-01 -4.066333808964e-01 0.000000000000e+00 4.762499803170e+01 
0.000000000000e+00 -4.066333808964e-01 0.000000000000e+00 4.762499789818e+01 
3.104608478085e-02 -1.770328565743e-01 0.000000000000e+00 4.749263663047e+01 
5.004288552848e-02 -1.716527951481e-01 0.000000000000e+00 4.745960466165e+01 
8.326930466579e-02 -1.667726886397e-01 0.000000000000e+00 4.740965443246e+01 
1.000000000000e-01 -1.551674274464e-01 0.000000000000e+00 4.725022635158e+01 
2.375340220851e-02 -4.221482437035e-01 0.000000000000e+00 4.762499775063e+01 
6.303932844440e-02 -1.619539551222e-01 0.000000000000e+00 4.735879466941e+01 
35  29  51  35
22  35  51  22
3  30  46  3
2  3  46  2
25  30  48  25
26  35  54  26
13  14  32  13
10  33  53  10
9  10  53  9
30  21  48  30
32  14  38  32
30  25  46  30
35  22  54  35
33  23  53  33
23  33  58  23
38  23  58  38
32  38  58  32
35  26  50  35
21  30  57  21
29  35  55  29
20  31  44  20
30  3  43  30
17  18  34  17
5  6  35  5
13  32  40  13
33  10  39  33
24  32  58  24
36  12  40  36
33  24  58  33
23  37  53  23
32  24  40  32
24  33  39  24
24  36  40  24
1  2  46  1
34  18  49  34
5  35  50  5
17  34  42  17
37  8  53  37
14  15  38  14
35  6  55  35
29  37  45  29
27  41  54  27
12  13  40  12
16  42  47  16
10  11  39  10
8  9  53  8
27  54  59  27
59  22  62  59
8  37  61  8
37  23  45  37
34  49  59  34
37  29  61  37
34  59  62  34
52  21  56  52
42  28  47  42
29  45  51  29
45  28  51  45
38  15  47  38
31  52  56  31
19  20  44  19
49  27  59  49
3  4  43  3
16  17  42  16
15  16  47  15
23  38  60  23
30  43  57  30
44  31  56  44
6  7  55  6
7  8  61  7
43  26  57  43
27  44  56  27
48  21  52  48
41  21  57  41
18  19  49  18
21  41  56  21
4  5  50  4
43  4  50  43
19  44  49  19
55  7  61  55
26  43  50  26
44  27  49  44
41  26  54  41
22  51  62  22
41  27  56  41
26  41  57  26
28  45  60  28
28  42  62  28
42  34  62  42
29  55  61  29
45  23  60  45
47  28  60  47
54  22  59  54
51  28  62  51
38  47  60  38
36  24  63  36
64  36  63  64
31  20  65  31
20  66  65  20
11  67  63  11
68  12  36  68
69  70  52  69
70  48  52  70
11  63  39  11
71  1  46  71
63  24  39  63
72  1  71  72
68  36  73  68
71  25  74  71
36  64  73  36
65  69  52  65
31  65  52  31
25  71  46  25
25  70  74  25
70  25  48  70
