VARIABLES  = "X","Y","Z", "STRESS_XX", "STRESS_YY", "STRESS_ZZ", "DISPLACEMENT_X1", "DISPLACEMENT_Y1"
ZONE T="0.000000000000e+00s", N=70, E=99, F=FEPOINT, ET=QUADRILATERAL
STRANDID=1, SOLUTIONTIME=0.000000000000e+00
1.000000000000e-01 -1.000000000000e+00 0.000000000000e+00 0.000000000000e+00 0.000000000000e+00 0.000000000000e+00 0.000000000000e+00 0.000000000000e+00 
0.000000000000e+00 -1.000000000000e+00 0.000000000000e+00 0.000000000000e+00 0.000000000000e+00 0.000000000000e+00 0.000000000000e+00 0.000000000000e+00 
1.000000000000e-01 -4.066333808964e-01 0.000000000000e+00 0.000000000000e+00 0.000000000000e+00 0.000000000000e+00 0.000000000000e+00 0.000000000000e+00 
1.000000000000e-01 -4.336013132129e-01 0.000000000000e+00 0.000000000000e+00 0.000000000000e+00 0.000000000000e+00 0.000000000000e+00 0.000000000000e+00 
1.000000000000e-01 -4.616595392039e-01 0.000000000000e+00 0.000000000000e+00 0.000000000000e+00 0.000000000000e+00 0.000000000000e+00 0.000000000000e+00 
1.000000000000e-01 -4.908798744802e-01 0.000000000000e+00 0.000000000000e+00 0.000000000000e+00 0.000000000000e+00 0.000000000000e+00 0.000000000000e+00 
1.000000000000e-01 -5.212997813718e-01 0.000000000000e+00 0.000000000000e+00 0.000000000000e+00 0.000000000000e+00 0.000000000000e+00 0.000000000000e+00 
1.000000000000e-01 -5.529651305953e-01 0.000000000000e+00 0.000000000000e+00 0.000000000000e+00 0.000000000000e+00 0.000000000000e+00 0.000000000000e+00 
1.000000000000e-01 -5.859254847404e-01 0.000000000000e+00 0.000000000000e+00 0.000000000000e+00 0.000000000000e+00 0.000000000000e+00 0.000000000000e+00 
1.000000000000e-01 -6.202541854239e-01 0.000000000000e+00 0.000000000000e+00 0.000000000000e+00 0.000000000000e+00 0.000000000000e+00 0.000000000000e+00 
1.000000000000e-01 -6.559765085227e-01 0.000000000000e+00 0.000000000000e+00 0.000000000000e+00 0.000000000000e+00 0.000000000000e+00 0.000000000000e+00 
1.000000000000e-01 -6.931783144525e-01 0.000000000000e+00 0.000000000000e+00 0.000000000000e+00 0.000000000000e+00 0.000000000000e+00 0.000000000000e+00 
1.000000000000e-01 -7.319023284412e-01 0.000000000000e+00 0.000000000000e+00 0.000000000000e+00 0.000000000000e+00 0.000000000000e+00 0.000000000000e+00 
1.000000000000e-01 -7.722376567817e-01 0.000000000000e+00 0.000000000000e+00 0.000000000000e+00 0.000000000000e+00 0.000000000000e+00 0.000000000000e+00 
1.000000000000e-01 -8.141871026671e-01 0.000000000000e+00 0.000000000000e+00 0.000000000000e+00 0.000000000000e+00 0.000000000000e+00 0.000000000000e+00 
1.000000000000e-01 -8.578764946731e-01 0.000000000000e+00 0.000000000000e+00 0.000000000000e+00 0.000000000000e+00 0.000000000000e+00 0.000000000000e+00 
1.000000000000e-01 -9.033674988086e-01 0.000000000000e+00 0.000000000000e+00 0.000000000000e+00 0.000000000000e+00 0.000000000000e+00 0.000000000000e+00 
1.000000000000e-01 -9.507169705327e-01 0.000000000000e+00 0.000000000000e+00 0.000000000000e+00 0.000000000000e+00 0.000000000000e+00 0.000000000000e+00 
0.000000000000e+00 -9.507169705327e-01 0.000000000000e+00 0.000000000000e+00 0.000000000000e+00 0.000000000000e+00 0.000000000000e+00 0.000000000000e+00 
0.000000000000e+00 -9.033674988086e-01 0.000000000000e+00 0.000000000000e+00 0.000000000000e+00 0.000000000000e+00 0.000000000000e+00 0.000000000000e+00 
0.000000000000e+00 -8.578764946731e-01 0.000000000000e+00 0.000000000000e+00 0.000000000000e+00 0.000000000000e+00 0.000000000000e+00 0.000000000000e+00 
0.000000000000e+00 -8.141871026671e-01 0.000000000000e+00 0.000000000000e+00 0.000000000000e+00 0.000000000000e+00 0.000000000000e+00 0.000000000000e+00 
0.000000000000e+00 -7.722376567817e-01 0.000000000000e+00 0.000000000000e+00 0.000000000000e+00 0.000000000000e+00 0.000000000000e+00 0.000000000000e+00 
0.000000000000e+00 -7.319023284412e-01 0.000000000000e+00 0.000000000000e+00 0.000000000000e+00 0.000000000000e+00 0.000000000000e+00 0.000000000000e+00 
0.000000000000e+00 -6.931783144525e-01 0.000000000000e+00 0.000000000000e+00 0.000000000000e+00 0.000000000000e+00 0.000000000000e+00 0.000000000000e+00 
0.000000000000e+00 -6.559765085227e-01 0.000000000000e+00 0.000000000000e+00 0.000000000000e+00 0.000000000000e+00 0.000000000000e+00 0.000000000000e+00 
0.000000000000e+00 -6.202541854239e-01 0.000000000000e+00 0.000000000000e+00 0.000000000000e+00 0.000000000000e+00 0.000000000000e+00 0.000000000000e+00 
0.000000000000e+00 -5.859254847404e-01 0.000000000000e+00 0.000000000000e+00 0.000000000000e+00 0.000000000000e+00 0.000000000000e+00 0.000000000000e+00 
0.000000000000e+00 -5.529651305953e-01 0.000000000000e+00 0.000000000000e+00 0.000000000000e+00 0.000000000000e+00 0.000000000000e+00 0.000000000000e+00 
0.000000000000e+00 -5.212997813718e-01 0.000000000000e+00 0.000000000000e+00 0.000000000000e+00 0.000000000000e+00 0.000000000000e+00 0.000000000000e+00 
0.000000000000e+00 -4.908798744802e-01 0.000000000000e+00 0.000000000000e+00 0.000000000000e+00 0.000000000000e+00 0.000000000000e+00 0.000000000000e+00 
0.000000000000e+00 -4.616595392039e-01 0.000000000000e+00 0.000000000000e+00 0.000000000000e+00 0.000000000000e+00 0.000000000000e+00 0.000000000000e+00 
0.000000000000e+00 -4.336013132129e-01 0.000000000000e+00 0.000000000000e+00 0.000000000000e+00 0.000000000000e+00 0.000000000000e+00 0.000000000000e+00 
0.000000000000e+00 -4.066333808964e-01 0.000000000000e+00 0.000000000000e+00 0.000000000000e+00 0.000000000000e+00 0.000000000000e+00 0.000000000000e+00 
5.004338622634e-02 -4.224088684799e-01 0.000000000000e+00 0.000000000000e+00 0.000000000000e+00 0.000000000000e+00 0.000000000000e+00 0.000000000000e+00 
5.008792076171e-02 -4.761562843354e-01 0.000000000000e+00 0.000000000000e+00 0.000000000000e+00 0.000000000000e+00 0.000000000000e+00 0.000000000000e+00 
5.006173506594e-02 -5.371347226804e-01 0.000000000000e+00 0.000000000000e+00 0.000000000000e+00 0.000000000000e+00 0.000000000000e+00 0.000000000000e+00 
5.005598078520e-02 -6.030075791828e-01 0.000000000000e+00 0.000000000000e+00 0.000000000000e+00 0.000000000000e+00 0.000000000000e+00 0.000000000000e+00 
5.008345235811e-02 -6.744505768430e-01 0.000000000000e+00 0.000000000000e+00 0.000000000000e+00 0.000000000000e+00 0.000000000000e+00 0.000000000000e+00 
5.006913214781e-02 -7.520111988761e-01 0.000000000000e+00 0.000000000000e+00 0.000000000000e+00 0.000000000000e+00 0.000000000000e+00 0.000000000000e+00 
5.005245558618e-02 -8.359504089462e-01 0.000000000000e+00 0.000000000000e+00 0.000000000000e+00 0.000000000000e+00 0.000000000000e+00 0.000000000000e+00 
6.944556402011e-02 -3.968201233631e-01 0.000000000000e+00 0.000000000000e+00 0.000000000000e+00 0.000000000000e+00 0.000000000000e+00 0.000000000000e+00 
6.938741587335e-02 -4.492665666015e-01 0.000000000000e+00 0.000000000000e+00 0.000000000000e+00 0.000000000000e+00 0.000000000000e+00 0.000000000000e+00 
5.007750042915e-02 -9.269884316941e-01 0.000000000000e+00 0.000000000000e+00 0.000000000000e+00 0.000000000000e+00 0.000000000000e+00 0.000000000000e+00 
3.079310721189e-02 -4.492985454339e-01 0.000000000000e+00 0.000000000000e+00 0.000000000000e+00 0.000000000000e+00 0.000000000000e+00 0.000000000000e+00 
3.221669410502e-02 -5.066378347700e-01 0.000000000000e+00 0.000000000000e+00 0.000000000000e+00 0.000000000000e+00 0.000000000000e+00 0.000000000000e+00 
6.786784203733e-02 -5.066531442817e-01 0.000000000000e+00 0.000000000000e+00 0.000000000000e+00 0.000000000000e+00 0.000000000000e+00 0.000000000000e+00 
3.339642373282e-02 -5.700696953954e-01 0.000000000000e+00 0.000000000000e+00 0.000000000000e+00 0.000000000000e+00 0.000000000000e+00 0.000000000000e+00 
6.525807751313e-02 -6.387232377182e-01 0.000000000000e+00 0.000000000000e+00 0.000000000000e+00 0.000000000000e+00 0.000000000000e+00 0.000000000000e+00 
5.008827505125e-02 -9.806018183701e-01 0.000000000000e+00 0.000000000000e+00 0.000000000000e+00 0.000000000000e+00 0.000000000000e+00 0.000000000000e+00 
6.875407163887e-02 -5.693536686703e-01 0.000000000000e+00 0.000000000000e+00 0.000000000000e+00 0.000000000000e+00 0.000000000000e+00 0.000000000000e+00 
3.664624163484e-02 -7.132284082360e-01 0.000000000000e+00 0.000000000000e+00 0.000000000000e+00 0.000000000000e+00 0.000000000000e+00 0.000000000000e+00 
6.148490449038e-02 -7.939830735880e-01 0.000000000000e+00 0.000000000000e+00 0.000000000000e+00 0.000000000000e+00 0.000000000000e+00 0.000000000000e+00 
4.100384574845e-02 -8.814719130658e-01 0.000000000000e+00 0.000000000000e+00 0.000000000000e+00 0.000000000000e+00 0.000000000000e+00 0.000000000000e+00 
3.022970257450e-02 -6.380821728272e-01 0.000000000000e+00 0.000000000000e+00 0.000000000000e+00 0.000000000000e+00 0.000000000000e+00 0.000000000000e+00 
2.375340220851e-02 -4.221482437035e-01 0.000000000000e+00 0.000000000000e+00 0.000000000000e+00 0.000000000000e+00 0.000000000000e+00 0.000000000000e+00 
7.632731958147e-02 -4.221881213587e-01 0.000000000000e+00 0.000000000000e+00 0.000000000000e+00 0.000000000000e+00 0.000000000000e+00 0.000000000000e+00 
2.293783770176e-02 -4.762423539471e-01 0.000000000000e+00 0.000000000000e+00 0.000000000000e+00 0.000000000000e+00 0.000000000000e+00 0.000000000000e+00 
7.721888027343e-02 -4.761946882435e-01 0.000000000000e+00 0.000000000000e+00 0.000000000000e+00 0.000000000000e+00 0.000000000000e+00 0.000000000000e+00 
7.129547302367e-02 -7.125259253720e-01 0.000000000000e+00 0.000000000000e+00 0.000000000000e+00 0.000000000000e+00 0.000000000000e+00 0.000000000000e+00 
7.757437444143e-02 -5.370973525672e-01 0.000000000000e+00 0.000000000000e+00 0.000000000000e+00 0.000000000000e+00 0.000000000000e+00 0.000000000000e+00 
2.255445764899e-02 -5.371289046437e-01 0.000000000000e+00 0.000000000000e+00 0.000000000000e+00 0.000000000000e+00 0.000000000000e+00 0.000000000000e+00 
2.720299568724e-02 -7.931304852765e-01 0.000000000000e+00 0.000000000000e+00 0.000000000000e+00 0.000000000000e+00 0.000000000000e+00 0.000000000000e+00 
7.798696120885e-02 -6.030216482613e-01 0.000000000000e+00 0.000000000000e+00 0.000000000000e+00 0.000000000000e+00 0.000000000000e+00 0.000000000000e+00 
2.212749701135e-02 -6.030477024067e-01 0.000000000000e+00 0.000000000000e+00 0.000000000000e+00 0.000000000000e+00 0.000000000000e+00 0.000000000000e+00 
3.066487977987e-02 -3.967816778596e-01 0.000000000000e+00 0.000000000000e+00 0.000000000000e+00 0.000000000000e+00 0.000000000000e+00 0.000000000000e+00 
5.009415947708e-02 -3.711929596105e-01 0.000000000000e+00 0.000000000000e+00 0.000000000000e+00 0.000000000000e+00 0.000000000000e+00 0.000000000000e+00 
1.000000000000e-01 -3.807449903129e-01 0.000000000000e+00 0.000000000000e+00 0.000000000000e+00 0.000000000000e+00 0.000000000000e+00 0.000000000000e+00 
0.000000000000e+00 -3.807449903129e-01 0.000000000000e+00 0.000000000000e+00 0.000000000000e+00 0.000000000000e+00 0.000000000000e+00 0.000000000000e+00 
7.605350107748e-02 -3.708957544133e-01 0.000000000000e+00 0.000000000000e+00 0.000000000000e+00 0.000000000000e+00 0.000000000000e+00 0.000000000000e+00 
25  26  39  25
11  12  39  11
16  17  54  16
35  43  45  35
41  16  54  41
11  39  49  11
39  26  55  39
23  24  40  23
13  14  40  13
25  39  52  25
43  36  45  43
39  12  60  39
17  44  54  17
40  24  52  40
21  22  41  21
46  36  47  46
15  16  41  15
13  40  60  13
40  14  53  40
23  40  63  23
19  44  50  19
44  18  50  44
37  46  47  37
32  33  45  32
4  5  43  4
48  37  51  48
15  41  53  15
21  41  54  21
30  31  46  30
6  7  47  6
19  20  44  19
17  18  44  17
41  22  63  41
42  3  57  42
38  48  51  38
45  33  56  45
2  19  50  2
4  43  57  4
18  1  50  18
28  29  48  28
38  49  55  38
35  42  57  35
35  45  56  35
43  35  57  43
6  47  59  6
46  31  58  46
47  36  59  47
36  46  58  36
44  20  54  44
49  39  55  49
10  11  49  10
52  39  60  52
8  9  51  8
24  25  52  24
48  29  62  48
43  5  59  43
32  45  58  32
37  48  62  37
51  37  61  51
30  46  62  30
36  43  59  36
45  36  58  45
47  7  61  47
40  52  60  40
14  15  53  14
40  53  63  40
46  37  62  46
37  47  61  37
38  55  65  38
38  51  64  38
10  49  64  10
49  38  64  49
20  21  54  20
53  41  63  53
33  34  56  33
3  4  57  3
28  48  65  28
8  51  61  8
48  38  65  48
51  9  64  51
26  27  55  26
31  32  58  31
5  6  59  5
55  27  65  55
12  13  60  12
7  8  61  7
29  30  62  29
22  23  63  22
9  10  64  9
27  28  65  27
1  2  50  1
66  67  42  66
35  66  42  35
68  3  42  68
34  69  66  34
68  42  70  68
42  67  70  42
34  66  56  34
66  35  56  66
VARIABLES  = "X","Y","Z", "STRESS_XX", "STRESS_YY", "STRESS_ZZ", "DISPLACEMENT_X1", "DISPLACEMENT_Y1"
ZONE T="1.000000000000e+01s", N=70, E=99, F=FEPOINT, ET=QUADRILATERAL
STRANDID=1, SOLUTIONTIME=1.000000000000e+01
1.000000000000e-01 -1.000000000000e+00 0.000000000000e+00 -2.375310964359e+02 -9.501243857758e+02 -2.375310964423e+02 0.000000000000e+00 0.000000000000e+00 
0.000000000000e+00 -1.000000000000e+00 0.000000000000e+00 -2.375310963055e+02 -9.501243856131e+02 -2.375310963837e+02 0.000000000000e+00 0.000000000000e+00 
1.000000000000e-01 -4.066333808964e-01 0.000000000000e+00 -2.375310955615e+02 -9.501243818688e+02 -2.375310954861e+02 0.000000000000e+00 -1.691316283811e-02 
1.000000000000e-01 -4.336013132129e-01 0.000000000000e+00 -2.375310955869e+02 -9.501243823563e+02 -2.375310955886e+02 0.000000000000e+00 -1.614447613727e-02 
1.000000000000e-01 -4.616595392039e-01 0.000000000000e+00 -2.375310957352e+02 -9.501243829913e+02 -2.375310957453e+02 0.000000000000e+00 -1.534471199785e-02 
1.000000000000e-01 -4.908798744802e-01 0.000000000000e+00 -2.375310959345e+02 -9.501243836615e+02 -2.375310959192e+02 0.000000000000e+00 -1.451182340684e-02 
1.000000000000e-01 -5.212997813718e-01 0.000000000000e+00 -2.375310961790e+02 -9.501243843271e+02 -2.375310961012e+02 0.000000000000e+00 -1.364474254799e-02 
1.000000000000e-01 -5.529651305953e-01 0.000000000000e+00 -2.375310964361e+02 -9.501243848768e+02 -2.375310962626e+02 0.000000000000e+00 -1.274216193474e-02 
1.000000000000e-01 -5.859254847404e-01 0.000000000000e+00 -2.375310966770e+02 -9.501243853899e+02 -2.375310964134e+02 0.000000000000e+00 -1.180266884837e-02 
1.000000000000e-01 -6.202541854239e-01 0.000000000000e+00 -2.375310967991e+02 -9.501243859228e+02 -2.375310965444e+02 0.000000000000e+00 -1.082417277909e-02 
1.000000000000e-01 -6.559765085227e-01 0.000000000000e+00 -2.375310968245e+02 -9.501243865138e+02 -2.375310966677e+02 0.000000000000e+00 -9.805953269949e-03 
1.000000000000e-01 -6.931783144525e-01 0.000000000000e+00 -2.375310968359e+02 -9.501243869942e+02 -2.375310967660e+02 0.000000000000e+00 -8.745562978666e-03 
1.000000000000e-01 -7.319023284412e-01 0.000000000000e+00 -2.375310968348e+02 -9.501243872322e+02 -2.375310968134e+02 0.000000000000e+00 -7.641784076963e-03 
1.000000000000e-01 -7.722376567817e-01 0.000000000000e+00 -2.375310968606e+02 -9.501243873549e+02 -2.375310968431e+02 0.000000000000e+00 -6.492076703207e-03 
1.000000000000e-01 -8.141871026671e-01 0.000000000000e+00 -2.375310968717e+02 -9.501243873944e+02 -2.375310968532e+02 0.000000000000e+00 -5.296360956041e-03 
1.000000000000e-01 -8.578764946731e-01 0.000000000000e+00 -2.375310968705e+02 -9.501243874122e+02 -2.375310968565e+02 0.000000000000e+00 -4.051050251581e-03 
1.000000000000e-01 -9.033674988086e-01 0.000000000000e+00 -2.375310968237e+02 -9.501243874010e+02 -2.375310968449e+02 0.000000000000e+00 -2.754386878475e-03 
1.000000000000e-01 -9.507169705327e-01 0.000000000000e+00 -2.375310966140e+02 -9.501243870040e+02 -2.375310967236e+02 0.000000000000e+00 -1.404750244185e-03 
0.000000000000e+00 -9.507169705327e-01 0.000000000000e+00 -2.375310967484e+02 -9.501243873041e+02 -2.375310968105e+02 0.000000000000e+00 -1.404750244143e-03 
0.000000000000e+00 -9.033674988086e-01 0.000000000000e+00 -2.375310968195e+02 -9.501243873851e+02 -2.375310968409e+02 0.000000000000e+00 -2.754386878516e-03 
0.000000000000e+00 -8.578764946731e-01 0.000000000000e+00 -2.375310968212e+02 -9.501243873777e+02 -2.375310968398e+02 0.000000000000e+00 -4.051050251592e-03 
0.000000000000e+00 -8.141871026671e-01 0.000000000000e+00 -2.375310968181e+02 -9.501243873754e+02 -2.375310968387e+02 0.000000000000e+00 -5.296360956037e-03 
0.000000000000e+00 -7.722376567817e-01 0.000000000000e+00 -2.375310968097e+02 -9.501243873409e+02 -2.375310968301e+02 0.000000000000e+00 -6.492076703206e-03 
0.000000000000e+00 -7.319023284412e-01 0.000000000000e+00 -2.375310967750e+02 -9.501243872584e+02 -2.375310968067e+02 0.000000000000e+00 -7.641784077007e-03 
0.000000000000e+00 -6.931783144525e-01 0.000000000000e+00 -2.375310966635e+02 -9.501243870230e+02 -2.375310967373e+02 0.000000000000e+00 -8.745562978808e-03 
0.000000000000e+00 -6.559765085227e-01 0.000000000000e+00 -2.375310964267e+02 -9.501243864378e+02 -2.375310965729e+02 0.000000000000e+00 -9.805953270239e-03 
0.000000000000e+00 -6.202541854239e-01 0.000000000000e+00 -2.375310964708e+02 -9.501243854059e+02 -2.375310963753e+02 0.000000000000e+00 -1.082417277940e-02 
0.000000000000e+00 -5.859254847404e-01 0.000000000000e+00 -2.375310962896e+02 -9.501243849447e+02 -2.375310962469e+02 0.000000000000e+00 -1.180266884805e-02 
0.000000000000e+00 -5.529651305953e-01 0.000000000000e+00 -2.375310960432e+02 -9.501243847971e+02 -2.375310961680e+02 0.000000000000e+00 -1.274216193445e-02 
0.000000000000e+00 -5.212997813718e-01 0.000000000000e+00 -2.375310959836e+02 -9.501243843091e+02 -2.375310960585e+02 0.000000000000e+00 -1.364474254780e-02 
0.000000000000e+00 -4.908798744802e-01 0.000000000000e+00 -2.375310958643e+02 -9.501243836030e+02 -2.375310958935e+02 0.000000000000e+00 -1.451182340672e-02 
0.000000000000e+00 -4.616595392039e-01 0.000000000000e+00 -2.375310957548e+02 -9.501243829612e+02 -2.375310957432e+02 0.000000000000e+00 -1.534471199777e-02 
0.000000000000e+00 -4.336013132129e-01 0.000000000000e+00 -2.375310956419e+02 -9.501243823968e+02 -2.375310956077e+02 0.000000000000e+00 -1.614447613726e-02 
0.000000000000e+00 -4.066333808964e-01 0.000000000000e+00 -2.375310955996e+02 -9.501243820474e+02 -2.375310955294e+02 0.000000000000e+00 -1.691316283821e-02 
5.004338622634e-02 -4.224088684799e-01 0.000000000000e+00 -2.375310955062e+02 -9.501243821656e+02 -2.375310955344e+02 -3.508013708417e-14 -1.646350257643e-02 
5.008792076171e-02 -4.761562843354e-01 0.000000000000e+00 -2.375310958392e+02 -9.501243833022e+02 -2.375310958283e+02 3.658768248549e-15 -1.493150066705e-02 
5.006173506594e-02 -5.371347226804e-01 0.000000000000e+00 -2.375310961549e+02 -9.501243845929e+02 -2.375310961496e+02 1.576298689612e-13 -1.319338763199e-02 
5.005598078520e-02 -6.030075791828e-01 0.000000000000e+00 -2.375310967002e+02 -9.501243853010e+02 -2.375310964002e+02 5.289840197074e-13 -1.131576541388e-02 
5.008345235811e-02 -6.744505768430e-01 0.000000000000e+00 -2.375310966877e+02 -9.501243867921e+02 -2.375310966959e+02 1.408404923928e-13 -9.279373385154e-03 
5.006913214781e-02 -7.520111988761e-01 0.000000000000e+00 -2.375310968295e+02 -9.501243873098e+02 -2.375310968279e+02 2.499608527262e-14 -7.068606230965e-03 
5.005245558618e-02 -8.359504089462e-01 0.000000000000e+00 -2.375310968470e+02 -9.501243873897e+02 -2.375310968474e+02 2.051641117471e-14 -4.676025514660e-03 
6.944556402011e-02 -3.968201233631e-01 0.000000000000e+00 -2.375310953973e+02 -9.501243816564e+02 -2.375310954107e+02 3.740984537512e-14 -1.719287729554e-02 
6.938741587335e-02 -4.492665666015e-01 0.000000000000e+00 -2.375310956512e+02 -9.501243827051e+02 -2.375310956713e+02 -1.918776433978e-14 -1.569795796120e-02 
5.007750042915e-02 -9.269884316941e-01 0.000000000000e+00 -2.375310968949e+02 -9.501243873202e+02 -2.375310968430e+02 -1.699013124732e-14 -2.081102146911e-03 
3.079310721189e-02 -4.492985454339e-01 0.000000000000e+00 -2.375310957109e+02 -9.501243827458e+02 -2.375310956913e+02 -2.278573965657e-14 -1.569704644511e-02 
3.221669410502e-02 -5.066378347700e-01 0.000000000000e+00 -2.375310959759e+02 -9.501243840145e+02 -2.375310959981e+02 5.505881660800e-14 -1.406266273742e-02 
6.786784203733e-02 -5.066531442817e-01 0.000000000000e+00 -2.375310960369e+02 -9.501243839824e+02 -2.375310960039e+02 4.780256754334e-14 -1.406222635929e-02 
3.339642373282e-02 -5.700696953954e-01 0.000000000000e+00 -2.375310959149e+02 -9.501243850599e+02 -2.375310961950e+02 2.817603214240e-13 -1.225461801117e-02 
6.525807751313e-02 -6.387232377182e-01 0.000000000000e+00 -2.375310967255e+02 -9.501243861586e+02 -2.375310965768e+02 2.691062147950e-13 -1.029773587006e-02 
5.008827505125e-02 -9.806018183701e-01 0.000000000000e+00 -2.375310968386e+02 -9.501243867034e+02 -2.375310967084e+02 1.566949790025e-14 -5.529205623738e-04 
6.875407163887e-02 -5.693536686703e-01 0.000000000000e+00 -2.375310964826e+02 -9.501243850484e+02 -2.375310963062e+02 2.532527201683e-13 -1.227502744495e-02 
3.664624163484e-02 -7.132284082360e-01 0.000000000000e+00 -2.375310967755e+02 -9.501243871545e+02 -2.375310967860e+02 4.566816769953e-14 -8.174060486752e-03 
6.148490449038e-02 -7.939830735880e-01 0.000000000000e+00 -2.375310968526e+02 -9.501243873777e+02 -2.375310968461e+02 2.074147345471e-14 -5.872251178577e-03 
4.100384574845e-02 -8.814719130658e-01 0.000000000000e+00 -2.375310968543e+02 -9.501243873876e+02 -2.375310968484e+02 1.079073255779e-14 -3.378492778221e-03 
3.022970257450e-02 -6.380821728272e-01 0.000000000000e+00 -2.375310961174e+02 -9.501243861490e+02 -2.375310964533e+02 2.511606071102e-13 -1.031600861185e-02 
2.375340220851e-02 -4.221482437035e-01 0.000000000000e+00 -2.375310956027e+02 -9.501243822636e+02 -2.375310955733e+02 -3.565930005392e-14 -1.647093135507e-02 
7.632731958147e-02 -4.221881213587e-01 0.000000000000e+00 -2.375310954761e+02 -9.501243821028e+02 -2.375310955158e+02 2.138684633579e-16 -1.646979469308e-02 
2.293783770176e-02 -4.762423539471e-01 0.000000000000e+00 -2.375310958188e+02 -9.501243833076e+02 -2.375310958253e+02 7.523736659766e-15 -1.492904736191e-02 
7.721888027343e-02 -4.761946882435e-01 0.000000000000e+00 -2.375310958154e+02 -9.501243832757e+02 -2.375310958182e+02 -7.240420648936e-16 -1.493040601240e-02 
7.129547302367e-02 -7.125259253720e-01 0.000000000000e+00 -2.375310968110e+02 -9.501243871301e+02 -2.375310967882e+02 4.115041170916e-14 -8.194083869725e-03 
7.757437444143e-02 -5.370973525672e-01 0.000000000000e+00 -2.375310962631e+02 -9.501243845808e+02 -2.375310961688e+02 9.847257156392e-14 -1.319445281976e-02 
2.255445764899e-02 -5.371289046437e-01 0.000000000000e+00 -2.375310960283e+02 -9.501243846137e+02 -2.375310961284e+02 9.791851033124e-14 -1.319355346765e-02 
2.720299568724e-02 -7.931304852765e-01 0.000000000000e+00 -2.375310968277e+02 -9.501243873682e+02 -2.375310968392e+02 1.737089348707e-14 -5.896553126991e-03 
7.798696120885e-02 -6.030216482613e-01 0.000000000000e+00 -2.375310967093e+02 -9.501243855666e+02 -2.375310964552e+02 2.253037254118e-13 -1.131536439264e-02 
2.212749701135e-02 -6.030477024067e-01 0.000000000000e+00 -2.375310948585e+02 -9.501243841642e+02 -2.375310958045e+02 2.460534848952e-13 -1.131462175227e-02 
3.066487977987e-02 -3.967816778596e-01 0.000000000000e+00 -2.375310954136e+02 -9.501243818319e+02 -2.375310954491e+02 -8.060283661050e-15 -1.719397313595e-02 
5.009415947708e-02 -3.711929596105e-01 0.000000000000e+00 -2.375310956661e+02 -9.501243829529e+02 -2.375310957238e+02 1.533516534619e-13 -1.792334708950e-02 
1.000000000000e-01 -3.807449903129e-01 0.000000000000e+00 -2.375310956169e+02 -9.501243821915e+02 -2.375310955617e+02 0.000000000000e+00 -1.765107857119e-02 
0.000000000000e+00 -3.807449903129e-01 0.000000000000e+00 -2.375310955624e+02 -9.501243825595e+02 -2.375310956244e+02 0.000000000000e+00 -1.765107857155e-02 
7.605350107748e-02 -3.708957544133e-01 0.000000000000e+00 -2.375310960018e+02 -9.501243831624e+02 -2.375310958328e+02 8.080427780669e-14 -1.793181854657e-02 
25  26  39  25
11  12  39  11
16  17  54  16
35  43  45  35
41  16  54  41
11  39  49  11
39  26  55  39
23  24  40  23
13  14  40  13
25  39  52  25
43  36  45  43
39  12  60  39
17  44  54  17
40  24  52  40
21  22  41  21
46  36  47  46
15  16  41  15
13  40  60  13
40  14  53  40
23  40  63  23
19  44  50  19
44  18  50  44
37  46  47  37
32  33  45  32
4  5  43  4
48  37  51  48
15  41  53  15
21  41  54  21
30  31  46  30
6  7  47  6
19  20  44  19
17  18  44  17
41  22  63  41
42  3  57  42
38  48  51  38
45  33  56  45
2  19  50  2
4  43  57  4
18  1  50  18
28  29  48  28
38  49  55  38
35  42  57  35
35  45  56  35
43  35  57  43
6  47  59  6
46  31  58  46
47  36  59  47
36  46  58  36
44  20  54  44
49  39  55  49
10  11  49  10
52  39  60  52
8  9  51  8
24  25  52  24
48  29  62  48
43  5  59  43
32  45  58  32
37  48  62  37
51  37  61  51
30  46  62  30
36  43  59  36
45  36  58  45
47  7  61  47
40  52  60  40
14  15  53  14
40  53  63  40
46  37  62  46
37  47  61  37
38  55  65  38
38  51  64  38
10  49  64  10
49  38  64  49
20  21  54  20
53  41  63  53
33  34  56  33
3  4  57  3
28  48  65  28
8  51  61  8
48  38  65  48
51  9  64  51
26  27  55  26
31  32  58  31
5  6  59  5
55  27  65  55
12  13  60  12
7  8  61  7
29  30  62  29
22  23  63  22
9  10  64  9
27  28  65  27
1  2  50  1
66  67  42  66
35  66  42  35
68  3  42  68
34  69  66  34
68  42  70  68
42  67  70  42
34  66  56  34
66  35  56  66
