VARIABLES  = "X","Y","Z", "STRESS_XX", "STRESS_YY", "STRESS_ZZ", "DISPLACEMENT_X1", "DISPLACEMENT_Y1"
ZONE T="0.000000000000e+00s", N=74, E=114, F=FEPOINT, ET=QUADRILATERAL
STRANDID=1, SOLUTIONTIME=0.000000000000e+00
1.000000000000e-01 -1.717986916992e-01 0.000000000000e+00 0.000000000000e+00 0.000000000000e+00 0.000000000000e+00 0.000000000000e+00 0.000000000000e+00 
1.000000000000e-01 -1.891202423411e-01 0.000000000000e+00 0.000000000000e+00 0.000000000000e+00 0.000000000000e+00 0.000000000000e+00 0.000000000000e+00 
1.000000000000e-01 -2.071452132758e-01 0.000000000000e+00 0.000000000000e+00 0.000000000000e+00 0.000000000000e+00 0.000000000000e+00 0.000000000000e+00 
1.000000000000e-01 -2.259159003327e-01 0.000000000000e+00 0.000000000000e+00 0.000000000000e+00 0.000000000000e+00 0.000000000000e+00 0.000000000000e+00 
1.000000000000e-01 -2.454553372135e-01 0.000000000000e+00 0.000000000000e+00 0.000000000000e+00 0.000000000000e+00 0.000000000000e+00 0.000000000000e+00 
1.000000000000e-01 -2.657958002743e-01 0.000000000000e+00 0.000000000000e+00 0.000000000000e+00 0.000000000000e+00 0.000000000000e+00 0.000000000000e+00 
1.000000000000e-01 -2.869820737070e-01 0.000000000000e+00 0.000000000000e+00 0.000000000000e+00 0.000000000000e+00 0.000000000000e+00 0.000000000000e+00 
1.000000000000e-01 -3.090302591577e-01 0.000000000000e+00 0.000000000000e+00 0.000000000000e+00 0.000000000000e+00 0.000000000000e+00 0.000000000000e+00 
1.000000000000e-01 -3.319808966566e-01 0.000000000000e+00 0.000000000000e+00 0.000000000000e+00 0.000000000000e+00 0.000000000000e+00 0.000000000000e+00 
1.000000000000e-01 -3.558736196309e-01 0.000000000000e+00 0.000000000000e+00 0.000000000000e+00 0.000000000000e+00 0.000000000000e+00 0.000000000000e+00 
1.000000000000e-01 -3.807449903129e-01 0.000000000000e+00 0.000000000000e+00 0.000000000000e+00 0.000000000000e+00 0.000000000000e+00 0.000000000000e+00 
0.000000000000e+00 -3.807449903129e-01 0.000000000000e+00 0.000000000000e+00 0.000000000000e+00 0.000000000000e+00 0.000000000000e+00 0.000000000000e+00 
0.000000000000e+00 -3.558736196309e-01 0.000000000000e+00 0.000000000000e+00 0.000000000000e+00 0.000000000000e+00 0.000000000000e+00 0.000000000000e+00 
0.000000000000e+00 -3.319808966566e-01 0.000000000000e+00 0.000000000000e+00 0.000000000000e+00 0.000000000000e+00 0.000000000000e+00 0.000000000000e+00 
0.000000000000e+00 -3.090302591577e-01 0.000000000000e+00 0.000000000000e+00 0.000000000000e+00 0.000000000000e+00 0.000000000000e+00 0.000000000000e+00 
0.000000000000e+00 -2.869820737070e-01 0.000000000000e+00 0.000000000000e+00 0.000000000000e+00 0.000000000000e+00 0.000000000000e+00 0.000000000000e+00 
0.000000000000e+00 -2.657958002743e-01 0.000000000000e+00 0.000000000000e+00 0.000000000000e+00 0.000000000000e+00 0.000000000000e+00 0.000000000000e+00 
0.000000000000e+00 -2.454553372135e-01 0.000000000000e+00 0.000000000000e+00 0.000000000000e+00 0.000000000000e+00 0.000000000000e+00 0.000000000000e+00 
0.000000000000e+00 -2.259159003327e-01 0.000000000000e+00 0.000000000000e+00 0.000000000000e+00 0.000000000000e+00 0.000000000000e+00 0.000000000000e+00 
0.000000000000e+00 -2.071452132758e-01 0.000000000000e+00 0.000000000000e+00 0.000000000000e+00 0.000000000000e+00 0.000000000000e+00 0.000000000000e+00 
5.004842734123e-02 -2.021418171447e-01 0.000000000000e+00 0.000000000000e+00 0.000000000000e+00 0.000000000000e+00 0.000000000000e+00 0.000000000000e+00 
5.005908986205e-02 -2.553771826632e-01 0.000000000000e+00 0.000000000000e+00 0.000000000000e+00 0.000000000000e+00 0.000000000000e+00 0.000000000000e+00 
5.008292036290e-02 -3.203087963123e-01 0.000000000000e+00 0.000000000000e+00 0.000000000000e+00 0.000000000000e+00 0.000000000000e+00 0.000000000000e+00 
5.009415947708e-02 -3.711929596105e-01 0.000000000000e+00 0.000000000000e+00 0.000000000000e+00 0.000000000000e+00 0.000000000000e+00 0.000000000000e+00 
6.904394191688e-02 -1.770178073307e-01 0.000000000000e+00 0.000000000000e+00 0.000000000000e+00 0.000000000000e+00 0.000000000000e+00 0.000000000000e+00 
6.807698165746e-02 -2.287558900294e-01 0.000000000000e+00 0.000000000000e+00 0.000000000000e+00 0.000000000000e+00 0.000000000000e+00 0.000000000000e+00 
3.206062782805e-02 -2.287631037513e-01 0.000000000000e+00 0.000000000000e+00 0.000000000000e+00 0.000000000000e+00 0.000000000000e+00 0.000000000000e+00 
3.557354364095e-02 -2.878483101898e-01 0.000000000000e+00 0.000000000000e+00 0.000000000000e+00 0.000000000000e+00 0.000000000000e+00 0.000000000000e+00 
6.776223739581e-02 -2.827412570156e-01 0.000000000000e+00 0.000000000000e+00 0.000000000000e+00 0.000000000000e+00 0.000000000000e+00 0.000000000000e+00 
7.535103115493e-02 -2.015293853660e-01 0.000000000000e+00 0.000000000000e+00 0.000000000000e+00 0.000000000000e+00 0.000000000000e+00 0.000000000000e+00 
2.474920969922e-02 -2.015432236000e-01 0.000000000000e+00 0.000000000000e+00 0.000000000000e+00 0.000000000000e+00 0.000000000000e+00 0.000000000000e+00 
3.050691695726e-02 -3.457552030811e-01 0.000000000000e+00 0.000000000000e+00 0.000000000000e+00 0.000000000000e+00 0.000000000000e+00 0.000000000000e+00 
6.961191317484e-02 -3.457465657077e-01 0.000000000000e+00 0.000000000000e+00 0.000000000000e+00 0.000000000000e+00 0.000000000000e+00 0.000000000000e+00 
2.403213634881e-02 -2.555147969150e-01 0.000000000000e+00 0.000000000000e+00 0.000000000000e+00 0.000000000000e+00 0.000000000000e+00 0.000000000000e+00 
7.607779023971e-02 -2.554704032576e-01 0.000000000000e+00 0.000000000000e+00 0.000000000000e+00 0.000000000000e+00 0.000000000000e+00 0.000000000000e+00 
3.066487977987e-02 -3.967816778596e-01 0.000000000000e+00 0.000000000000e+00 0.000000000000e+00 0.000000000000e+00 0.000000000000e+00 0.000000000000e+00 
7.369529764403e-02 -3.084770811070e-01 0.000000000000e+00 0.000000000000e+00 0.000000000000e+00 0.000000000000e+00 0.000000000000e+00 0.000000000000e+00 
2.378951418650e-02 -3.203343384072e-01 0.000000000000e+00 0.000000000000e+00 0.000000000000e+00 0.000000000000e+00 0.000000000000e+00 0.000000000000e+00 
7.605350107748e-02 -3.708957544133e-01 0.000000000000e+00 0.000000000000e+00 0.000000000000e+00 0.000000000000e+00 0.000000000000e+00 0.000000000000e+00 
2.414696816088e-02 -3.709124382382e-01 0.000000000000e+00 0.000000000000e+00 0.000000000000e+00 0.000000000000e+00 0.000000000000e+00 0.000000000000e+00 
5.006735922148e-02 -2.215423617712e-01 0.000000000000e+00 0.000000000000e+00 0.000000000000e+00 0.000000000000e+00 0.000000000000e+00 0.000000000000e+00 
1.850317579946e-02 -2.757149546133e-01 0.000000000000e+00 0.000000000000e+00 0.000000000000e+00 0.000000000000e+00 0.000000000000e+00 0.000000000000e+00 
8.327052267209e-02 -2.182301684835e-01 0.000000000000e+00 0.000000000000e+00 0.000000000000e+00 0.000000000000e+00 0.000000000000e+00 0.000000000000e+00 
1.689528006222e-02 -2.182447195749e-01 0.000000000000e+00 0.000000000000e+00 0.000000000000e+00 0.000000000000e+00 0.000000000000e+00 0.000000000000e+00 
5.386538030076e-02 -2.991451045652e-01 0.000000000000e+00 0.000000000000e+00 0.000000000000e+00 0.000000000000e+00 0.000000000000e+00 0.000000000000e+00 
8.325780581963e-02 -1.864276587827e-01 0.000000000000e+00 0.000000000000e+00 0.000000000000e+00 0.000000000000e+00 0.000000000000e+00 0.000000000000e+00 
1.887456660158e-02 -3.001711909616e-01 0.000000000000e+00 0.000000000000e+00 0.000000000000e+00 0.000000000000e+00 0.000000000000e+00 0.000000000000e+00 
5.599679480673e-02 -1.868962244425e-01 0.000000000000e+00 0.000000000000e+00 0.000000000000e+00 0.000000000000e+00 0.000000000000e+00 0.000000000000e+00 
1.562509704916e-02 -2.362679114654e-01 0.000000000000e+00 0.000000000000e+00 0.000000000000e+00 0.000000000000e+00 0.000000000000e+00 0.000000000000e+00 
8.450980591300e-02 -2.362475890693e-01 0.000000000000e+00 0.000000000000e+00 0.000000000000e+00 0.000000000000e+00 0.000000000000e+00 0.000000000000e+00 
5.000597776251e-02 -2.748200932242e-01 0.000000000000e+00 0.000000000000e+00 0.000000000000e+00 0.000000000000e+00 0.000000000000e+00 0.000000000000e+00 
3.763666536168e-02 -1.917900581297e-01 0.000000000000e+00 0.000000000000e+00 0.000000000000e+00 0.000000000000e+00 0.000000000000e+00 0.000000000000e+00 
7.990076033980e-02 -3.280154126230e-01 0.000000000000e+00 0.000000000000e+00 0.000000000000e+00 0.000000000000e+00 0.000000000000e+00 0.000000000000e+00 
5.374039812767e-02 -2.384606709325e-01 0.000000000000e+00 0.000000000000e+00 0.000000000000e+00 0.000000000000e+00 0.000000000000e+00 0.000000000000e+00 
8.295584548888e-02 -2.724709261564e-01 0.000000000000e+00 0.000000000000e+00 0.000000000000e+00 0.000000000000e+00 0.000000000000e+00 0.000000000000e+00 
3.621311007526e-02 -2.130558380742e-01 0.000000000000e+00 0.000000000000e+00 0.000000000000e+00 0.000000000000e+00 0.000000000000e+00 0.000000000000e+00 
6.391474833037e-02 -2.130589258886e-01 0.000000000000e+00 0.000000000000e+00 0.000000000000e+00 0.000000000000e+00 0.000000000000e+00 0.000000000000e+00 
5.005826476111e-02 -3.405429735745e-01 0.000000000000e+00 0.000000000000e+00 0.000000000000e+00 0.000000000000e+00 0.000000000000e+00 0.000000000000e+00 
3.698944467363e-02 -2.448228664997e-01 0.000000000000e+00 0.000000000000e+00 0.000000000000e+00 0.000000000000e+00 0.000000000000e+00 0.000000000000e+00 
3.662161907618e-02 -3.066087827684e-01 0.000000000000e+00 0.000000000000e+00 0.000000000000e+00 0.000000000000e+00 0.000000000000e+00 0.000000000000e+00 
8.289028355298e-02 -2.928054893704e-01 0.000000000000e+00 0.000000000000e+00 0.000000000000e+00 0.000000000000e+00 0.000000000000e+00 0.000000000000e+00 
3.408000067884e-02 -2.691217269938e-01 0.000000000000e+00 0.000000000000e+00 0.000000000000e+00 0.000000000000e+00 0.000000000000e+00 0.000000000000e+00 
6.944556402011e-02 -3.968201233631e-01 0.000000000000e+00 0.000000000000e+00 0.000000000000e+00 0.000000000000e+00 0.000000000000e+00 0.000000000000e+00 
5.004338622634e-02 -4.224088684799e-01 0.000000000000e+00 0.000000000000e+00 0.000000000000e+00 0.000000000000e+00 0.000000000000e+00 0.000000000000e+00 
1.687036367023e-02 -1.864550581470e-01 0.000000000000e+00 0.000000000000e+00 0.000000000000e+00 0.000000000000e+00 0.000000000000e+00 0.000000000000e+00 
0.000000000000e+00 -1.891202423411e-01 0.000000000000e+00 0.000000000000e+00 0.000000000000e+00 0.000000000000e+00 0.000000000000e+00 0.000000000000e+00 
1.000000000000e-01 -4.066333808964e-01 0.000000000000e+00 0.000000000000e+00 0.000000000000e+00 0.000000000000e+00 0.000000000000e+00 0.000000000000e+00 
0.000000000000e+00 -4.066333808964e-01 0.000000000000e+00 0.000000000000e+00 0.000000000000e+00 0.000000000000e+00 0.000000000000e+00 0.000000000000e+00 
3.104608478085e-02 -1.770328565743e-01 0.000000000000e+00 0.000000000000e+00 0.000000000000e+00 0.000000000000e+00 0.000000000000e+00 0.000000000000e+00 
5.004288552848e-02 -1.716527951481e-01 0.000000000000e+00 0.000000000000e+00 0.000000000000e+00 0.000000000000e+00 0.000000000000e+00 0.000000000000e+00 
8.326930466579e-02 -1.667726886397e-01 0.000000000000e+00 0.000000000000e+00 0.000000000000e+00 0.000000000000e+00 0.000000000000e+00 0.000000000000e+00 
1.000000000000e-01 -1.551674274464e-01 0.000000000000e+00 0.000000000000e+00 0.000000000000e+00 0.000000000000e+00 0.000000000000e+00 0.000000000000e+00 
2.375340220851e-02 -4.221482437035e-01 0.000000000000e+00 0.000000000000e+00 0.000000000000e+00 0.000000000000e+00 0.000000000000e+00 0.000000000000e+00 
6.303932844440e-02 -1.619539551222e-01 0.000000000000e+00 0.000000000000e+00 0.000000000000e+00 0.000000000000e+00 0.000000000000e+00 0.000000000000e+00 
35  29  51  35
22  35  51  22
3  30  46  3
2  3  46  2
25  30  48  25
26  35  54  26
13  14  32  13
10  33  53  10
9  10  53  9
30  21  48  30
32  14  38  32
30  25  46  30
35  22  54  35
33  23  53  33
23  33  58  23
38  23  58  38
32  38  58  32
35  26  50  35
21  30  57  21
29  35  55  29
20  31  44  20
30  3  43  30
17  18  34  17
5  6  35  5
13  32  40  13
33  10  39  33
24  32  58  24
36  12  40  36
33  24  58  33
23  37  53  23
32  24  40  32
24  33  39  24
24  36  40  24
1  2  46  1
34  18  49  34
5  35  50  5
17  34  42  17
37  8  53  37
14  15  38  14
35  6  55  35
29  37  45  29
27  41  54  27
12  13  40  12
16  42  47  16
10  11  39  10
8  9  53  8
27  54  59  27
59  22  62  59
8  37  61  8
37  23  45  37
34  49  59  34
37  29  61  37
34  59  62  34
52  21  56  52
42  28  47  42
29  45  51  29
45  28  51  45
38  15  47  38
31  52  56  31
19  20  44  19
49  27  59  49
3  4  43  3
16  17  42  16
15  16  47  15
23  38  60  23
30  43  57  30
44  31  56  44
6  7  55  6
7  8  61  7
43  26  57  43
27  44  56  27
48  21  52  48
41  21  57  41
18  19  49  18
21  41  56  21
4  5  50  4
43  4  50  43
19  44  49  19
55  7  61  55
26  43  50  26
44  27  49  44
41  26  54  41
22  51  62  22
41  27  56  41
26  41  57  26
28  45  60  28
28  42  62  28
42  34  62  42
29  55  61  29
45  23  60  45
47  28  60  47
54  22  59  54
51  28  62  51
38  47  60  38
36  24  63  36
64  36  63  64
31  20  65  31
20  66  65  20
11  67  63  11
68  12  36  68
69  70  52  69
70  48  52  70
11  63  39  11
71  1  46  71
63  24  39  63
72  1  71  72
68  36  73  68
71  25  74  71
36  64  73  36
65  69  52  65
31  65  52  31
25  71  46  25
25  70  74  25
70  25  48  70
VARIABLES  = "X","Y","Z", "STRESS_XX", "STRESS_YY", "STRESS_ZZ", "DISPLACEMENT_X1", "DISPLACEMENT_Y1"
ZONE T="1.000000000000e+01s", N=74, E=114, F=FEPOINT, ET=QUADRILATERAL
STRANDID=1, SOLUTIONTIME=1.000000000000e+01
1.000000000000e-01 -1.717986916992e-01 0.000000000000e+00 -2.381355454444e+02 -9.525330161856e+02 -2.381337123260e+02 0.000000000000e+00 -2.366285286591e-02 
1.000000000000e-01 -1.891202423411e-01 0.000000000000e+00 -2.381138804611e+02 -9.524441622158e+02 -2.381116085354e+02 0.000000000000e+00 -2.316789150409e-02 
1.000000000000e-01 -2.071452132758e-01 0.000000000000e+00 -2.381015676919e+02 -9.524022150338e+02 -2.381007565451e+02 0.000000000000e+00 -2.265286840228e-02 
1.000000000000e-01 -2.259159003327e-01 0.000000000000e+00 -2.380962539414e+02 -9.523842703292e+02 -2.380961048541e+02 0.000000000000e+00 -2.211655622937e-02 
1.000000000000e-01 -2.454553372135e-01 0.000000000000e+00 -2.380946149263e+02 -9.523782747111e+02 -2.380945779275e+02 0.000000000000e+00 -2.155828618979e-02 
1.000000000000e-01 -2.657958002743e-01 0.000000000000e+00 -2.380940367024e+02 -9.523759378623e+02 -2.380939949129e+02 0.000000000000e+00 -2.097713238966e-02 
1.000000000000e-01 -2.869820737070e-01 0.000000000000e+00 -2.380938243553e+02 -9.523752707897e+02 -2.380938190290e+02 0.000000000000e+00 -2.037181366295e-02 
1.000000000000e-01 -3.090302591577e-01 0.000000000000e+00 -2.380937722915e+02 -9.523750673002e+02 -2.380937679183e+02 0.000000000000e+00 -1.974186932597e-02 
1.000000000000e-01 -3.319808966566e-01 0.000000000000e+00 -2.380937564346e+02 -9.523750136056e+02 -2.380937540080e+02 0.000000000000e+00 -1.908614089620e-02 
1.000000000000e-01 -3.558736196309e-01 0.000000000000e+00 -2.380937514994e+02 -9.523750019735e+02 -2.380937506946e+02 0.000000000000e+00 -1.840349592883e-02 
1.000000000000e-01 -3.807449903129e-01 0.000000000000e+00 -2.380937502974e+02 -9.523750001870e+02 -2.380937500969e+02 0.000000000000e+00 -1.769288977856e-02 
0.000000000000e+00 -3.807449903129e-01 0.000000000000e+00 -2.380937499644e+02 -9.523750008983e+02 -2.380937501726e+02 0.000000000000e+00 -1.769288977914e-02 
0.000000000000e+00 -3.558736196309e-01 0.000000000000e+00 -2.380937503055e+02 -9.523750046421e+02 -2.380937509895e+02 0.000000000000e+00 -1.840349593049e-02 
0.000000000000e+00 -3.319808966566e-01 0.000000000000e+00 -2.380937534949e+02 -9.523750227459e+02 -2.380937552482e+02 0.000000000000e+00 -1.908614090019e-02 
0.000000000000e+00 -3.090302591577e-01 0.000000000000e+00 -2.380937695685e+02 -9.523750930897e+02 -2.380937725316e+02 0.000000000000e+00 -1.974186933567e-02 
0.000000000000e+00 -2.869820737070e-01 0.000000000000e+00 -2.380938254107e+02 -9.523753625862e+02 -2.380938375994e+02 0.000000000000e+00 -2.037181368623e-02 
0.000000000000e+00 -2.657958002743e-01 0.000000000000e+00 -2.380940236178e+02 -9.523762535785e+02 -2.380940554393e+02 0.000000000000e+00 -2.097713245285e-02 
0.000000000000e+00 -2.454553372135e-01 0.000000000000e+00 -2.380946839744e+02 -9.523789897462e+02 -2.380947347441e+02 0.000000000000e+00 -2.155828634536e-02 
0.000000000000e+00 -2.259159003327e-01 0.000000000000e+00 -2.380964382404e+02 -9.523861446177e+02 -2.380965165716e+02 0.000000000000e+00 -2.211655650182e-02 
0.000000000000e+00 -2.071452132758e-01 0.000000000000e+00 -2.381017348268e+02 -9.524052910666e+02 -2.381014051787e+02 0.000000000000e+00 -2.265286901908e-02 
5.004842734123e-02 -2.021418171447e-01 0.000000000000e+00 -2.381029576863e+02 -9.524122575778e+02 -2.381030430528e+02 3.920241427544e-10 -2.279582782458e-02 
5.005908986205e-02 -2.553771826632e-01 0.000000000000e+00 -2.380942816814e+02 -9.523770453337e+02 -2.380942654030e+02 4.032988452189e-11 -2.127480586699e-02 
5.008292036290e-02 -3.203087963123e-01 0.000000000000e+00 -2.380937600311e+02 -9.523750359704e+02 -2.380937592003e+02 2.405856534925e-12 -1.941962740507e-02 
5.009415947708e-02 -3.711929596105e-01 0.000000000000e+00 -2.380937502879e+02 -9.523750008293e+02 -2.380937502234e+02 3.801497204587e-13 -1.796580323616e-02 
6.904394191688e-02 -1.770178073307e-01 0.000000000000e+00 -2.381257694291e+02 -9.525060891225e+02 -2.381263717103e+02 1.021149666760e-09 -2.351371191154e-02 
6.807698165746e-02 -2.287558900294e-01 0.000000000000e+00 -2.380960217970e+02 -9.523839264507e+02 -2.380959896495e+02 9.556584187268e-11 -2.203541342979e-02 
3.206062782805e-02 -2.287631037513e-01 0.000000000000e+00 -2.380958901779e+02 -9.523841872111e+02 -2.380960154778e+02 8.742672469853e-11 -2.203520743633e-02 
3.557354364095e-02 -2.878483101898e-01 0.000000000000e+00 -2.380938205654e+02 -9.523753199949e+02 -2.380938281121e+02 1.047698668053e-11 -2.034706420775e-02 
6.776223739581e-02 -2.827412570156e-01 0.000000000000e+00 -2.380938446893e+02 -9.523753681282e+02 -2.380938425635e+02 7.033983132357e-12 -2.049297914521e-02 
7.535103115493e-02 -2.015293853660e-01 0.000000000000e+00 -2.381037613975e+02 -9.524133770288e+02 -2.381034276853e+02 3.478999490013e-10 -2.281332584384e-02 
2.474920969922e-02 -2.015432236000e-01 0.000000000000e+00 -2.381033027000e+02 -9.524163438209e+02 -2.381039293042e+02 -9.761952042593e-11 -2.281293127974e-02 
3.050691695726e-02 -3.457552030811e-01 0.000000000000e+00 -2.380937517315e+02 -9.523750083825e+02 -2.380937520228e+02 9.366573491488e-13 -1.869259174083e-02 
6.961191317484e-02 -3.457465657077e-01 0.000000000000e+00 -2.380937516813e+02 -9.523750062814e+02 -2.380937515925e+02 7.182670565459e-13 -1.869283852032e-02 
2.403213634881e-02 -2.555147969150e-01 0.000000000000e+00 -2.380942724202e+02 -9.523772876746e+02 -2.380943120189e+02 3.487387447931e-11 -2.127087408568e-02 
7.607779023971e-02 -2.554704032576e-01 0.000000000000e+00 -2.380942338168e+02 -9.523768070989e+02 -2.380942081831e+02 5.050180393876e-12 -2.127214236828e-02 
3.066487977987e-02 -3.967816778596e-01 0.000000000000e+00 -2.380937499302e+02 -9.523750002079e+02 -2.380937500276e+02 1.121519366763e-13 -1.723470156968e-02 
7.369529764403e-02 -3.084770811070e-01 0.000000000000e+00 -2.380937726538e+02 -9.523750756060e+02 -2.380937696519e+02 2.753061128021e-12 -1.975767431706e-02 
2.378951418650e-02 -3.203343384072e-01 0.000000000000e+00 -2.380937589674e+02 -9.523750436115e+02 -2.380937605158e+02 2.151508739654e-12 -1.941889763801e-02 
7.605350107748e-02 -3.708957544133e-01 0.000000000000e+00 -2.380937505199e+02 -9.523750007602e+02 -2.380937502560e+02 2.522533921069e-13 -1.797429475994e-02 
2.414696816088e-02 -3.709124382382e-01 0.000000000000e+00 -2.380937500452e+02 -9.523750012987e+02 -2.380937502688e+02 3.151248234204e-13 -1.797381808283e-02 
5.006735922148e-02 -2.215423617712e-01 0.000000000000e+00 -2.380973242797e+02 -9.523883089475e+02 -2.380971266454e+02 1.491779097689e-10 -2.224151548847e-02 
1.850317579946e-02 -2.757149546133e-01 0.000000000000e+00 -2.380939030053e+02 -9.523756589216e+02 -2.380939123854e+02 1.328413283135e-11 -2.069372952992e-02 
8.327052267209e-02 -2.182301684835e-01 0.000000000000e+00 -2.380974829305e+02 -9.523895307228e+02 -2.380974027307e+02 1.208699619541e-10 -2.233615031111e-02 
1.689528006222e-02 -2.182447195749e-01 0.000000000000e+00 -2.380978206031e+02 -9.523914676097e+02 -2.380978576426e+02 5.242882031005e-11 -2.233573484877e-02 
5.386538030076e-02 -2.991451045652e-01 0.000000000000e+00 -2.380937901379e+02 -9.523751369079e+02 -2.380937854092e+02 4.151894745485e-12 -2.002430058626e-02 
8.325780581963e-02 -1.864276587827e-01 0.000000000000e+00 -2.381145371961e+02 -9.524584158990e+02 -2.381145906190e+02 7.957466779475e-10 -2.324482878214e-02 
1.887456660158e-02 -3.001711909616e-01 0.000000000000e+00 -2.380937816838e+02 -9.523751428925e+02 -2.380937849153e+02 4.360143770412e-12 -1.999498401812e-02 
5.599679480673e-02 -1.868962244425e-01 0.000000000000e+00 -2.381119974730e+02 -9.524537807559e+02 -2.381131556458e+02 5.498111059788e-10 -2.323144098557e-02 
1.562509704916e-02 -2.362679114654e-01 0.000000000000e+00 -2.380952246005e+02 -9.523810886645e+02 -2.380952626530e+02 3.964654050059e-11 -2.182078395277e-02 
8.450980591300e-02 -2.362475890693e-01 0.000000000000e+00 -2.380952754180e+02 -9.523809874481e+02 -2.380952525732e+02 2.463596389731e-11 -2.182136442491e-02 
5.000597776251e-02 -2.748200932242e-01 0.000000000000e+00 -2.380939187299e+02 -9.523755802199e+02 -2.380938997900e+02 1.360153370469e-11 -2.071929682749e-02 
3.763666536168e-02 -1.917900581297e-01 0.000000000000e+00 -2.381082169544e+02 -9.524357503238e+02 -2.381087934556e+02 2.766367592661e-10 -2.309160675097e-02 
7.990076033980e-02 -3.280154126230e-01 0.000000000000e+00 -2.380937555069e+02 -9.523750209779e+02 -2.380937552970e+02 1.361003183509e-12 -1.919943973485e-02 
5.374039812767e-02 -2.384606709325e-01 0.000000000000e+00 -2.380950196577e+02 -9.523801055718e+02 -2.380950250459e+02 7.659487442797e-11 -2.175813360897e-02 
8.295584548888e-02 -2.724709261564e-01 0.000000000000e+00 -2.380939253476e+02 -9.523757484309e+02 -2.380939347557e+02 3.561537425457e-12 -2.078641552448e-02 
3.621311007526e-02 -2.130558380742e-01 0.000000000000e+00 -2.380987760395e+02 -9.523961779043e+02 -2.380989907888e+02 1.623816485423e-10 -2.248399074015e-02 
6.391474833037e-02 -2.130589258886e-01 0.000000000000e+00 -2.380987999062e+02 -9.523965294396e+02 -2.380990658691e+02 1.655850812579e-10 -2.248390236276e-02 
5.005826476111e-02 -3.405429735745e-01 0.000000000000e+00 -2.380937526679e+02 -9.523750098180e+02 -2.380937524972e+02 1.139946698616e-12 -1.884151165407e-02 
3.698944467363e-02 -2.448228664997e-01 0.000000000000e+00 -2.380946542197e+02 -9.523786530235e+02 -2.380946614486e+02 5.894373972107e-11 -2.157635686235e-02 
3.662161907618e-02 -3.066087827684e-01 0.000000000000e+00 -2.380937751337e+02 -9.523750914751e+02 -2.380937733218e+02 4.418041421346e-12 -1.981105394516e-02 
8.289028355298e-02 -2.928054893704e-01 0.000000000000e+00 -2.380938114064e+02 -9.523752092899e+02 -2.380938041393e+02 3.786119222966e-12 -2.020543134938e-02 
3.408000067884e-02 -2.691217269938e-01 0.000000000000e+00 -2.380939789535e+02 -9.523758798857e+02 -2.380939717678e+02 2.655884779981e-11 -2.088210643278e-02 
6.944556402011e-02 -3.968201233631e-01 0.000000000000e+00 -2.380937500834e+02 -9.523750000256e+02 -2.380937500218e+02 1.489998899505e-13 -1.723360313340e-02 
5.004338622634e-02 -4.224088684799e-01 0.000000000000e+00 -2.380937500566e+02 -9.523750003594e+02 -2.380937500832e+02 6.196789597352e-14 -1.650250069940e-02 
1.687036367023e-02 -1.864550581470e-01 0.000000000000e+00 -2.381137276514e+02 -9.524583200919e+02 -2.381144095487e+02 -5.579111074985e-10 -2.324404622077e-02 
0.000000000000e+00 -1.891202423411e-01 0.000000000000e+00 -2.381160993843e+02 -9.524533587194e+02 -2.381138916207e+02 0.000000000000e+00 -2.316789197239e-02 
1.000000000000e-01 -4.066333808964e-01 0.000000000000e+00 -2.380937502219e+02 -9.523750001330e+02 -2.380937500710e+02 0.000000000000e+00 -1.695322609903e-02 
0.000000000000e+00 -4.066333808964e-01 0.000000000000e+00 -2.380937500459e+02 -9.523750003844e+02 -2.380937500861e+02 0.000000000000e+00 -1.695322609926e-02 
3.104608478085e-02 -1.770328565743e-01 0.000000000000e+00 -2.381246686207e+02 -9.525061679272e+02 -2.381261673096e+02 -2.276174985291e-11 -2.351328173321e-02 
5.004288552848e-02 -1.716527951481e-01 0.000000000000e+00 -2.381334077804e+02 -9.525364141319e+02 -2.381339643825e+02 4.062151254741e-10 -2.366702175577e-02 
8.326930466579e-02 -1.667726886397e-01 0.000000000000e+00 -2.381469303303e+02 -9.525799764523e+02 -2.381453813565e+02 8.679381992952e-10 -2.380648187398e-02 
1.000000000000e-01 -1.551674274464e-01 0.000000000000e+00 -2.381790020594e+02 -9.527185829673e+02 -2.381795170053e+02 0.000000000000e+00 -2.413816389568e-02 
2.375340220851e-02 -4.221482437035e-01 0.000000000000e+00 -2.380937500741e+02 -9.523750004644e+02 -2.380937501077e+02 3.262274823190e-14 -1.650994707508e-02 
6.303932844440e-02 -1.619539551222e-01 0.000000000000e+00 -2.381567761588e+02 -9.526397323200e+02 -2.381593016958e+02 8.643275711781e-10 -2.394419449077e-02 
35  29  51  35
22  35  51  22
3  30  46  3
2  3  46  2
25  30  48  25
26  35  54  26
13  14  32  13
10  33  53  10
9  10  53  9
30  21  48  30
32  14  38  32
30  25  46  30
35  22  54  35
33  23  53  33
23  33  58  23
38  23  58  38
32  38  58  32
35  26  50  35
21  30  57  21
29  35  55  29
20  31  44  20
30  3  43  30
17  18  34  17
5  6  35  5
13  32  40  13
33  10  39  33
24  32  58  24
36  12  40  36
33  24  58  33
23  37  53  23
32  24  40  32
24  33  39  24
24  36  40  24
1  2  46  1
34  18  49  34
5  35  50  5
17  34  42  17
37  8  53  37
14  15  38  14
35  6  55  35
29  37  45  29
27  41  54  27
12  13  40  12
16  42  47  16
10  11  39  10
8  9  53  8
27  54  59  27
59  22  62  59
8  37  61  8
37  23  45  37
34  49  59  34
37  29  61  37
34  59  62  34
52  21  56  52
42  28  47  42
29  45  51  29
45  28  51  45
38  15  47  38
31  52  56  31
19  20  44  19
49  27  59  49
3  4  43  3
16  17  42  16
15  16  47  15
23  38  60  23
30  43  57  30
44  31  56  44
6  7  55  6
7  8  61  7
43  26  57  43
27  44  56  27
48  21  52  48
41  21  57  41
18  19  49  18
21  41  56  21
4  5  50  4
43  4  50  43
19  44  49  19
55  7  61  55
26  43  50  26
44  27  49  44
41  26  54  41
22  51  62  22
41  27  56  41
26  41  57  26
28  45  60  28
28  42  62  28
42  34  62  42
29  55  61  29
45  23  60  45
47  28  60  47
54  22  59  54
51  28  62  51
38  47  60  38
36  24  63  36
64  36  63  64
31  20  65  31
20  66  65  20
11  67  63  11
68  12  36  68
69  70  52  69
70  48  52  70
11  63  39  11
71  1  46  71
63  24  39  63
72  1  71  72
68  36  73  68
71  25  74  71
36  64  73  36
65  69  52  65
31  65  52  31
25  71  46  25
25  70  74  25
70  25  48  70
