VARIABLES  = "X","Y","Z", "PRESSURE1"
ZONE T="0.000000000000e+00s", N=70, E=99, F=FEPOINT, ET=QUADRILATERAL
STRANDID=1, SOLUTIONTIME=0.000000000000e+00
1.000000000000e-01 -1.000000000000e+00 0.000000000000e+00 0.000000000000e+00 
0.000000000000e+00 -1.000000000000e+00 0.000000000000e+00 0.000000000000e+00 
1.000000000000e-01 -4.066333808964e-01 0.000000000000e+00 0.000000000000e+00 
1.000000000000e-01 -4.336013132129e-01 0.000000000000e+00 0.000000000000e+00 
1.000000000000e-01 -4.616595392039e-01 0.000000000000e+00 0.000000000000e+00 
1.000000000000e-01 -4.908798744802e-01 0.000000000000e+00 0.000000000000e+00 
1.000000000000e-01 -5.212997813718e-01 0.000000000000e+00 0.000000000000e+00 
1.000000000000e-01 -5.529651305953e-01 0.000000000000e+00 0.000000000000e+00 
1.000000000000e-01 -5.859254847404e-01 0.000000000000e+00 0.000000000000e+00 
1.000000000000e-01 -6.202541854239e-01 0.000000000000e+00 0.000000000000e+00 
1.000000000000e-01 -6.559765085227e-01 0.000000000000e+00 0.000000000000e+00 
1.000000000000e-01 -6.931783144525e-01 0.000000000000e+00 0.000000000000e+00 
1.000000000000e-01 -7.319023284412e-01 0.000000000000e+00 0.000000000000e+00 
1.000000000000e-01 -7.722376567817e-01 0.000000000000e+00 0.000000000000e+00 
1.000000000000e-01 -8.141871026671e-01 0.000000000000e+00 0.000000000000e+00 
1.000000000000e-01 -8.578764946731e-01 0.000000000000e+00 0.000000000000e+00 
1.000000000000e-01 -9.033674988086e-01 0.000000000000e+00 0.000000000000e+00 
1.000000000000e-01 -9.507169705327e-01 0.000000000000e+00 0.000000000000e+00 
0.000000000000e+00 -9.507169705327e-01 0.000000000000e+00 0.000000000000e+00 
0.000000000000e+00 -9.033674988086e-01 0.000000000000e+00 0.000000000000e+00 
0.000000000000e+00 -8.578764946731e-01 0.000000000000e+00 0.000000000000e+00 
0.000000000000e+00 -8.141871026671e-01 0.000000000000e+00 0.000000000000e+00 
0.000000000000e+00 -7.722376567817e-01 0.000000000000e+00 0.000000000000e+00 
0.000000000000e+00 -7.319023284412e-01 0.000000000000e+00 0.000000000000e+00 
0.000000000000e+00 -6.931783144525e-01 0.000000000000e+00 0.000000000000e+00 
0.000000000000e+00 -6.559765085227e-01 0.000000000000e+00 0.000000000000e+00 
0.000000000000e+00 -6.202541854239e-01 0.000000000000e+00 0.000000000000e+00 
0.000000000000e+00 -5.859254847404e-01 0.000000000000e+00 0.000000000000e+00 
0.000000000000e+00 -5.529651305953e-01 0.000000000000e+00 0.000000000000e+00 
0.000000000000e+00 -5.212997813718e-01 0.000000000000e+00 0.000000000000e+00 
0.000000000000e+00 -4.908798744802e-01 0.000000000000e+00 0.000000000000e+00 
0.000000000000e+00 -4.616595392039e-01 0.000000000000e+00 0.000000000000e+00 
0.000000000000e+00 -4.336013132129e-01 0.000000000000e+00 0.000000000000e+00 
0.000000000000e+00 -4.066333808964e-01 0.000000000000e+00 0.000000000000e+00 
5.004338622634e-02 -4.224088684799e-01 0.000000000000e+00 0.000000000000e+00 
5.008792076171e-02 -4.761562843354e-01 0.000000000000e+00 0.000000000000e+00 
5.006173506594e-02 -5.371347226804e-01 0.000000000000e+00 0.000000000000e+00 
5.005598078520e-02 -6.030075791828e-01 0.000000000000e+00 0.000000000000e+00 
5.008345235811e-02 -6.744505768430e-01 0.000000000000e+00 0.000000000000e+00 
5.006913214781e-02 -7.520111988761e-01 0.000000000000e+00 0.000000000000e+00 
5.005245558618e-02 -8.359504089462e-01 0.000000000000e+00 0.000000000000e+00 
6.944556402011e-02 -3.968201233631e-01 0.000000000000e+00 0.000000000000e+00 
6.938741587335e-02 -4.492665666015e-01 0.000000000000e+00 0.000000000000e+00 
5.007750042915e-02 -9.269884316941e-01 0.000000000000e+00 0.000000000000e+00 
3.079310721189e-02 -4.492985454339e-01 0.000000000000e+00 0.000000000000e+00 
3.221669410502e-02 -5.066378347700e-01 0.000000000000e+00 0.000000000000e+00 
6.786784203733e-02 -5.066531442817e-01 0.000000000000e+00 0.000000000000e+00 
3.339642373282e-02 -5.700696953954e-01 0.000000000000e+00 0.000000000000e+00 
6.525807751313e-02 -6.387232377182e-01 0.000000000000e+00 0.000000000000e+00 
5.008827505125e-02 -9.806018183701e-01 0.000000000000e+00 0.000000000000e+00 
6.875407163887e-02 -5.693536686703e-01 0.000000000000e+00 0.000000000000e+00 
3.664624163484e-02 -7.132284082360e-01 0.000000000000e+00 0.000000000000e+00 
6.148490449038e-02 -7.939830735880e-01 0.000000000000e+00 0.000000000000e+00 
4.100384574845e-02 -8.814719130658e-01 0.000000000000e+00 0.000000000000e+00 
3.022970257450e-02 -6.380821728272e-01 0.000000000000e+00 0.000000000000e+00 
2.375340220851e-02 -4.221482437035e-01 0.000000000000e+00 0.000000000000e+00 
7.632731958147e-02 -4.221881213587e-01 0.000000000000e+00 0.000000000000e+00 
2.293783770176e-02 -4.762423539471e-01 0.000000000000e+00 0.000000000000e+00 
7.721888027343e-02 -4.761946882435e-01 0.000000000000e+00 0.000000000000e+00 
7.129547302367e-02 -7.125259253720e-01 0.000000000000e+00 0.000000000000e+00 
7.757437444143e-02 -5.370973525672e-01 0.000000000000e+00 0.000000000000e+00 
2.255445764899e-02 -5.371289046437e-01 0.000000000000e+00 0.000000000000e+00 
2.720299568724e-02 -7.931304852765e-01 0.000000000000e+00 0.000000000000e+00 
7.798696120885e-02 -6.030216482613e-01 0.000000000000e+00 0.000000000000e+00 
2.212749701135e-02 -6.030477024067e-01 0.000000000000e+00 0.000000000000e+00 
3.066487977987e-02 -3.967816778596e-01 0.000000000000e+00 0.000000000000e+00 
5.009415947708e-02 -3.711929596105e-01 0.000000000000e+00 0.000000000000e+00 
1.000000000000e-01 -3.807449903129e-01 0.000000000000e+00 0.000000000000e+00 
0.000000000000e+00 -3.807449903129e-01 0.000000000000e+00 0.000000000000e+00 
7.605350107748e-02 -3.708957544133e-01 0.000000000000e+00 0.000000000000e+00 
25  26  39  25
11  12  39  11
16  17  54  16
35  43  45  35
41  16  54  41
11  39  49  11
39  26  55  39
23  24  40  23
13  14  40  13
25  39  52  25
43  36  45  43
39  12  60  39
17  44  54  17
40  24  52  40
21  22  41  21
46  36  47  46
15  16  41  15
13  40  60  13
40  14  53  40
23  40  63  23
19  44  50  19
44  18  50  44
37  46  47  37
32  33  45  32
4  5  43  4
48  37  51  48
15  41  53  15
21  41  54  21
30  31  46  30
6  7  47  6
19  20  44  19
17  18  44  17
41  22  63  41
42  3  57  42
38  48  51  38
45  33  56  45
2  19  50  2
4  43  57  4
18  1  50  18
28  29  48  28
38  49  55  38
35  42  57  35
35  45  56  35
43  35  57  43
6  47  59  6
46  31  58  46
47  36  59  47
36  46  58  36
44  20  54  44
49  39  55  49
10  11  49  10
52  39  60  52
8  9  51  8
24  25  52  24
48  29  62  48
43  5  59  43
32  45  58  32
37  48  62  37
51  37  61  51
30  46  62  30
36  43  59  36
45  36  58  45
47  7  61  47
40  52  60  40
14  15  53  14
40  53  63  40
46  37  62  46
37  47  61  37
38  55  65  38
38  51  64  38
10  49  64  10
49  38  64  49
20  21  54  20
53  41  63  53
33  34  56  33
3  4  57  3
28  48  65  28
8  51  61  8
48  38  65  48
51  9  64  51
26  27  55  26
31  32  58  31
5  6  59  5
55  27  65  55
12  13  60  12
7  8  61  7
29  30  62  29
22  23  63  22
9  10  64  9
27  28  65  27
1  2  50  1
66  67  42  66
35  66  42  35
68  3  42  68
34  69  66  34
68  42  70  68
42  67  70  42
34  66  56  34
66  35  56  66
VARIABLES  = "X","Y","Z", "PRESSURE1"
ZONE T="1.000000000000e+01s", N=70, E=99, F=FEPOINT, ET=QUADRILATERAL
STRANDID=1, SOLUTIONTIME=1.000000000000e+01
1.000000000000e-01 -1.000000000000e+00 0.000000000000e+00 4.762499045168e+01 
0.000000000000e+00 -1.000000000000e+00 0.000000000000e+00 4.762499077219e+01 
1.000000000000e-01 -4.066333808964e-01 0.000000000000e+00 4.762499803170e+01 
1.000000000000e-01 -4.336013132129e-01 0.000000000000e+00 4.762499767717e+01 
1.000000000000e-01 -4.616595392039e-01 0.000000000000e+00 4.762499714113e+01 
1.000000000000e-01 -4.908798744802e-01 0.000000000000e+00 4.762499643274e+01 
1.000000000000e-01 -5.212997813718e-01 0.000000000000e+00 4.762499567926e+01 
1.000000000000e-01 -5.529651305953e-01 0.000000000000e+00 4.762499487632e+01 
1.000000000000e-01 -5.859254847404e-01 0.000000000000e+00 4.762499412494e+01 
1.000000000000e-01 -6.202541854239e-01 0.000000000000e+00 4.762499333136e+01 
1.000000000000e-01 -6.559765085227e-01 0.000000000000e+00 4.762499253767e+01 
1.000000000000e-01 -6.931783144525e-01 0.000000000000e+00 4.762499182299e+01 
1.000000000000e-01 -7.319023284412e-01 0.000000000000e+00 4.762499123011e+01 
1.000000000000e-01 -7.722376567817e-01 0.000000000000e+00 4.762499069892e+01 
1.000000000000e-01 -8.141871026671e-01 0.000000000000e+00 4.762499029378e+01 
1.000000000000e-01 -8.578764946731e-01 0.000000000000e+00 4.762498998639e+01 
1.000000000000e-01 -9.033674988086e-01 0.000000000000e+00 4.762498980917e+01 
1.000000000000e-01 -9.507169705327e-01 0.000000000000e+00 4.762498993557e+01 
0.000000000000e+00 -9.507169705327e-01 0.000000000000e+00 4.762498975565e+01 
0.000000000000e+00 -9.033674988086e-01 0.000000000000e+00 4.762498985194e+01 
0.000000000000e+00 -8.578764946731e-01 0.000000000000e+00 4.762499006526e+01 
0.000000000000e+00 -8.141871026671e-01 0.000000000000e+00 4.762499034347e+01 
0.000000000000e+00 -7.722376567817e-01 0.000000000000e+00 4.762499075314e+01 
0.000000000000e+00 -7.319023284412e-01 0.000000000000e+00 4.762499122087e+01 
0.000000000000e+00 -6.931783144525e-01 0.000000000000e+00 4.762499186225e+01 
0.000000000000e+00 -6.559765085227e-01 0.000000000000e+00 4.762499280845e+01 
0.000000000000e+00 -6.202541854239e-01 0.000000000000e+00 4.762499418980e+01 
0.000000000000e+00 -5.859254847404e-01 0.000000000000e+00 4.762499499105e+01 
0.000000000000e+00 -5.529651305953e-01 0.000000000000e+00 4.762499524234e+01 
0.000000000000e+00 -5.212997813718e-01 0.000000000000e+00 4.762499578582e+01 
0.000000000000e+00 -4.908798744802e-01 0.000000000000e+00 4.762499650774e+01 
0.000000000000e+00 -4.616595392039e-01 0.000000000000e+00 4.762499712781e+01 
0.000000000000e+00 -4.336013132129e-01 0.000000000000e+00 4.762499762140e+01 
0.000000000000e+00 -4.066333808964e-01 0.000000000000e+00 4.762499789818e+01 
5.004338622634e-02 -4.224088684799e-01 0.000000000000e+00 4.762499786119e+01 
5.008792076171e-02 -4.761562843354e-01 0.000000000000e+00 4.762499679148e+01 
5.006173506594e-02 -5.371347226804e-01 0.000000000000e+00 4.762499534810e+01 
5.005598078520e-02 -6.030075791828e-01 0.000000000000e+00 4.762499417891e+01 
5.008345235811e-02 -6.744505768430e-01 0.000000000000e+00 4.762499221152e+01 
5.006913214781e-02 -7.520111988761e-01 0.000000000000e+00 4.762499095161e+01 
5.005245558618e-02 -8.359504089462e-01 0.000000000000e+00 4.762499016216e+01 
6.944556402011e-02 -3.968201233631e-01 0.000000000000e+00 4.762499834070e+01 
6.938741587335e-02 -4.492665666015e-01 0.000000000000e+00 4.762499737729e+01 
5.007750042915e-02 -9.269884316941e-01 0.000000000000e+00 4.762498972550e+01 
3.079310721189e-02 -4.492985454339e-01 0.000000000000e+00 4.762499734623e+01 
3.221669410502e-02 -5.066378347700e-01 0.000000000000e+00 4.762499607422e+01 
6.786784203733e-02 -5.066531442817e-01 0.000000000000e+00 4.762499602947e+01 
3.339642373282e-02 -5.700696953954e-01 0.000000000000e+00 4.762499494943e+01 
6.525807751313e-02 -6.387232377182e-01 0.000000000000e+00 4.762499302078e+01 
5.008827505125e-02 -9.806018183701e-01 0.000000000000e+00 4.762498988390e+01 
6.875407163887e-02 -5.693536686703e-01 0.000000000000e+00 4.762499458740e+01 
3.664624163484e-02 -7.132284082360e-01 0.000000000000e+00 4.762499149353e+01 
6.148490449038e-02 -7.939830735880e-01 0.000000000000e+00 4.762499048846e+01 
4.100384574845e-02 -8.814719130658e-01 0.000000000000e+00 4.762498991801e+01 
3.022970257450e-02 -6.380821728272e-01 0.000000000000e+00 4.762499337689e+01 
2.375340220851e-02 -4.221482437035e-01 0.000000000000e+00 4.762499775063e+01 
7.632731958147e-02 -4.221881213587e-01 0.000000000000e+00 4.762499791396e+01 
2.293783770176e-02 -4.762423539471e-01 0.000000000000e+00 4.762499683582e+01 
7.721888027343e-02 -4.761946882435e-01 0.000000000000e+00 4.762499681315e+01 
7.129547302367e-02 -7.125259253720e-01 0.000000000000e+00 4.762499151499e+01 
7.757437444143e-02 -5.370973525672e-01 0.000000000000e+00 4.762499530122e+01 
2.255445764899e-02 -5.371289046437e-01 0.000000000000e+00 4.762499546536e+01 
2.720299568724e-02 -7.931304852765e-01 0.000000000000e+00 4.762499052207e+01 
7.798696120885e-02 -6.030216482613e-01 0.000000000000e+00 4.762499381936e+01 
2.212749701135e-02 -6.030477024067e-01 0.000000000000e+00 4.762499564352e+01 
3.066487977987e-02 -3.967816778596e-01 0.000000000000e+00 4.762499823802e+01 
5.009415947708e-02 -3.711929596105e-01 0.000000000000e+00 4.762499777499e+01 
1.000000000000e-01 -3.807449903129e-01 0.000000000000e+00 4.762499808788e+01 
0.000000000000e+00 -3.807449903129e-01 0.000000000000e+00 4.762499778292e+01 
7.605350107748e-02 -3.708957544133e-01 0.000000000000e+00 4.762499745516e+01 
25  26  39  25
11  12  39  11
16  17  54  16
35  43  45  35
41  16  54  41
11  39  49  11
39  26  55  39
23  24  40  23
13  14  40  13
25  39  52  25
43  36  45  43
39  12  60  39
17  44  54  17
40  24  52  40
21  22  41  21
46  36  47  46
15  16  41  15
13  40  60  13
40  14  53  40
23  40  63  23
19  44  50  19
44  18  50  44
37  46  47  37
32  33  45  32
4  5  43  4
48  37  51  48
15  41  53  15
21  41  54  21
30  31  46  30
6  7  47  6
19  20  44  19
17  18  44  17
41  22  63  41
42  3  57  42
38  48  51  38
45  33  56  45
2  19  50  2
4  43  57  4
18  1  50  18
28  29  48  28
38  49  55  38
35  42  57  35
35  45  56  35
43  35  57  43
6  47  59  6
46  31  58  46
47  36  59  47
36  46  58  36
44  20  54  44
49  39  55  49
10  11  49  10
52  39  60  52
8  9  51  8
24  25  52  24
48  29  62  48
43  5  59  43
32  45  58  32
37  48  62  37
51  37  61  51
30  46  62  30
36  43  59  36
45  36  58  45
47  7  61  47
40  52  60  40
14  15  53  14
40  53  63  40
46  37  62  46
37  47  61  37
38  55  65  38
38  51  64  38
10  49  64  10
49  38  64  49
20  21  54  20
53  41  63  53
33  34  56  33
3  4  57  3
28  48  65  28
8  51  61  8
48  38  65  48
51  9  64  51
26  27  55  26
31  32  58  31
5  6  59  5
55  27  65  55
12  13  60  12
7  8  61  7
29  30  62  29
22  23  63  22
9  10  64  9
27  28  65  27
1  2  50  1
66  67  42  66
35  66  42  35
68  3  42  68
34  69  66  34
68  42  70  68
42  67  70  42
34  66  56  34
66  35  56  66
