VARIABLES  = "X","Y","Z", "STRESS_XX", "STRESS_YY", "STRESS_ZZ", "DISPLACEMENT_X1", "DISPLACEMENT_Y1"
ZONE T="0.000000000000e+00s", N=78, E=121, F=FEPOINT, ET=QUADRILATERAL
STRANDID=1, SOLUTIONTIME=0.000000000000e+00
1.000000000000e-01 -4.365795665274e-02 0.000000000000e+00 0.000000000000e+00 0.000000000000e+00 0.000000000000e+00 0.000000000000e+00 0.000000000000e+00 
1.000000000000e-01 -5.571534163644e-02 0.000000000000e+00 0.000000000000e+00 0.000000000000e+00 0.000000000000e+00 0.000000000000e+00 0.000000000000e+00 
1.000000000000e-01 -6.826783355915e-02 0.000000000000e+00 0.000000000000e+00 0.000000000000e+00 0.000000000000e+00 0.000000000000e+00 0.000000000000e+00 
1.000000000000e-01 -8.133192903590e-02 0.000000000000e+00 0.000000000000e+00 0.000000000000e+00 0.000000000000e+00 0.000000000000e+00 0.000000000000e+00 
1.000000000000e-01 -9.493635849425e-02 0.000000000000e+00 0.000000000000e+00 0.000000000000e+00 0.000000000000e+00 0.000000000000e+00 0.000000000000e+00 
1.000000000000e-01 -1.090948080906e-01 0.000000000000e+00 0.000000000000e+00 0.000000000000e+00 0.000000000000e+00 0.000000000000e+00 0.000000000000e+00 
1.000000000000e-01 -1.238407989588e-01 0.000000000000e+00 0.000000000000e+00 0.000000000000e+00 0.000000000000e+00 0.000000000000e+00 0.000000000000e+00 
1.000000000000e-01 -1.391895614642e-01 0.000000000000e+00 0.000000000000e+00 0.000000000000e+00 0.000000000000e+00 0.000000000000e+00 0.000000000000e+00 
1.000000000000e-01 -1.551674274464e-01 0.000000000000e+00 0.000000000000e+00 0.000000000000e+00 0.000000000000e+00 0.000000000000e+00 0.000000000000e+00 
0.000000000000e+00 -1.891202423411e-01 0.000000000000e+00 0.000000000000e+00 0.000000000000e+00 0.000000000000e+00 0.000000000000e+00 0.000000000000e+00 
0.000000000000e+00 -1.717986916992e-01 0.000000000000e+00 0.000000000000e+00 0.000000000000e+00 0.000000000000e+00 0.000000000000e+00 0.000000000000e+00 
0.000000000000e+00 -1.551674274464e-01 0.000000000000e+00 0.000000000000e+00 0.000000000000e+00 0.000000000000e+00 0.000000000000e+00 0.000000000000e+00 
0.000000000000e+00 -1.391895614642e-01 0.000000000000e+00 0.000000000000e+00 0.000000000000e+00 0.000000000000e+00 0.000000000000e+00 0.000000000000e+00 
0.000000000000e+00 -1.238407989588e-01 0.000000000000e+00 0.000000000000e+00 0.000000000000e+00 0.000000000000e+00 0.000000000000e+00 0.000000000000e+00 
0.000000000000e+00 -1.090948080907e-01 0.000000000000e+00 0.000000000000e+00 0.000000000000e+00 0.000000000000e+00 0.000000000000e+00 0.000000000000e+00 
0.000000000000e+00 -9.493635849425e-02 0.000000000000e+00 0.000000000000e+00 0.000000000000e+00 0.000000000000e+00 0.000000000000e+00 0.000000000000e+00 
5.003429380367e-02 -1.017798692890e-01 0.000000000000e+00 0.000000000000e+00 0.000000000000e+00 0.000000000000e+00 0.000000000000e+00 0.000000000000e+00 
5.002853232124e-02 -1.519088519355e-01 0.000000000000e+00 0.000000000000e+00 0.000000000000e+00 0.000000000000e+00 0.000000000000e+00 0.000000000000e+00 
6.860613435721e-02 -7.587479770767e-02 0.000000000000e+00 0.000000000000e+00 0.000000000000e+00 0.000000000000e+00 0.000000000000e+00 0.000000000000e+00 
6.888280446269e-02 -1.268465272623e-01 0.000000000000e+00 0.000000000000e+00 0.000000000000e+00 0.000000000000e+00 0.000000000000e+00 0.000000000000e+00 
3.121957414972e-02 -1.268421985082e-01 0.000000000000e+00 0.000000000000e+00 0.000000000000e+00 0.000000000000e+00 0.000000000000e+00 0.000000000000e+00 
7.556622015059e-02 -5.213930935979e-02 0.000000000000e+00 0.000000000000e+00 0.000000000000e+00 0.000000000000e+00 0.000000000000e+00 0.000000000000e+00 
3.104608478085e-02 -1.770328565743e-01 0.000000000000e+00 0.000000000000e+00 0.000000000000e+00 0.000000000000e+00 0.000000000000e+00 0.000000000000e+00 
7.554701895293e-02 -1.019679427391e-01 0.000000000000e+00 0.000000000000e+00 0.000000000000e+00 0.000000000000e+00 0.000000000000e+00 0.000000000000e+00 
2.453145878902e-02 -1.018531985808e-01 0.000000000000e+00 0.000000000000e+00 0.000000000000e+00 0.000000000000e+00 0.000000000000e+00 0.000000000000e+00 
2.486640359495e-02 -1.511994000693e-01 0.000000000000e+00 0.000000000000e+00 0.000000000000e+00 0.000000000000e+00 0.000000000000e+00 0.000000000000e+00 
7.519018389267e-02 -1.512146935932e-01 0.000000000000e+00 0.000000000000e+00 0.000000000000e+00 0.000000000000e+00 0.000000000000e+00 0.000000000000e+00 
8.318938762240e-02 -6.726290804214e-02 0.000000000000e+00 0.000000000000e+00 0.000000000000e+00 0.000000000000e+00 0.000000000000e+00 0.000000000000e+00 
5.005181660085e-02 -1.213864546544e-01 0.000000000000e+00 0.000000000000e+00 0.000000000000e+00 0.000000000000e+00 0.000000000000e+00 0.000000000000e+00 
8.304311980566e-02 -8.600422434734e-02 0.000000000000e+00 0.000000000000e+00 0.000000000000e+00 0.000000000000e+00 0.000000000000e+00 0.000000000000e+00 
4.512057632941e-02 -8.568062374441e-02 0.000000000000e+00 0.000000000000e+00 0.000000000000e+00 0.000000000000e+00 0.000000000000e+00 0.000000000000e+00 
6.206074805899e-02 -5.978173210899e-02 0.000000000000e+00 0.000000000000e+00 0.000000000000e+00 0.000000000000e+00 0.000000000000e+00 0.000000000000e+00 
6.286808215727e-02 -9.137086788006e-02 0.000000000000e+00 0.000000000000e+00 0.000000000000e+00 0.000000000000e+00 0.000000000000e+00 0.000000000000e+00 
1.640712137365e-02 -1.174171270781e-01 0.000000000000e+00 0.000000000000e+00 0.000000000000e+00 0.000000000000e+00 0.000000000000e+00 0.000000000000e+00 
8.372537541237e-02 -1.174905373863e-01 0.000000000000e+00 0.000000000000e+00 0.000000000000e+00 0.000000000000e+00 0.000000000000e+00 0.000000000000e+00 
5.004288552848e-02 -1.716527951481e-01 0.000000000000e+00 0.000000000000e+00 0.000000000000e+00 0.000000000000e+00 0.000000000000e+00 0.000000000000e+00 
3.731099137938e-02 -1.115945408716e-01 0.000000000000e+00 0.000000000000e+00 0.000000000000e+00 0.000000000000e+00 0.000000000000e+00 0.000000000000e+00 
6.271916567743e-02 -1.115718330784e-01 0.000000000000e+00 0.000000000000e+00 0.000000000000e+00 0.000000000000e+00 0.000000000000e+00 0.000000000000e+00 
1.686902144853e-02 -1.361062558984e-01 0.000000000000e+00 0.000000000000e+00 0.000000000000e+00 0.000000000000e+00 0.000000000000e+00 0.000000000000e+00 
8.320724439706e-02 -1.361392086212e-01 0.000000000000e+00 0.000000000000e+00 0.000000000000e+00 0.000000000000e+00 0.000000000000e+00 0.000000000000e+00 
8.827644021441e-02 -5.068271212769e-02 0.000000000000e+00 0.000000000000e+00 0.000000000000e+00 0.000000000000e+00 0.000000000000e+00 0.000000000000e+00 
5.583260035578e-02 -1.366520720980e-01 0.000000000000e+00 0.000000000000e+00 0.000000000000e+00 0.000000000000e+00 0.000000000000e+00 0.000000000000e+00 
8.326930466579e-02 -1.667726886397e-01 0.000000000000e+00 0.000000000000e+00 0.000000000000e+00 0.000000000000e+00 0.000000000000e+00 0.000000000000e+00 
1.683000258849e-02 -1.667776624401e-01 0.000000000000e+00 0.000000000000e+00 0.000000000000e+00 0.000000000000e+00 0.000000000000e+00 0.000000000000e+00 
3.176003359910e-02 -8.986364252605e-02 0.000000000000e+00 0.000000000000e+00 0.000000000000e+00 0.000000000000e+00 0.000000000000e+00 0.000000000000e+00 
3.772961003605e-02 -1.415473931669e-01 0.000000000000e+00 0.000000000000e+00 0.000000000000e+00 0.000000000000e+00 0.000000000000e+00 0.000000000000e+00 
3.703325374415e-02 -1.619447957644e-01 0.000000000000e+00 0.000000000000e+00 0.000000000000e+00 0.000000000000e+00 0.000000000000e+00 0.000000000000e+00 
6.303932844440e-02 -1.619539551222e-01 0.000000000000e+00 0.000000000000e+00 0.000000000000e+00 0.000000000000e+00 0.000000000000e+00 0.000000000000e+00 
1.687036367023e-02 -1.864550581470e-01 0.000000000000e+00 0.000000000000e+00 0.000000000000e+00 0.000000000000e+00 0.000000000000e+00 0.000000000000e+00 
5.675176755435e-02 -8.029564380893e-02 0.000000000000e+00 0.000000000000e+00 0.000000000000e+00 0.000000000000e+00 0.000000000000e+00 0.000000000000e+00 
1.125853509499e-02 -1.018913627337e-01 0.000000000000e+00 0.000000000000e+00 0.000000000000e+00 0.000000000000e+00 0.000000000000e+00 0.000000000000e+00 
8.881871162219e-02 -1.019661470517e-01 0.000000000000e+00 0.000000000000e+00 0.000000000000e+00 0.000000000000e+00 0.000000000000e+00 0.000000000000e+00 
7.207066164269e-02 -6.508809647676e-02 0.000000000000e+00 0.000000000000e+00 0.000000000000e+00 0.000000000000e+00 0.000000000000e+00 0.000000000000e+00 
8.958901145892e-02 -7.668408325171e-02 0.000000000000e+00 0.000000000000e+00 0.000000000000e+00 0.000000000000e+00 0.000000000000e+00 0.000000000000e+00 
3.832908703950e-02 -9.976005802934e-02 0.000000000000e+00 0.000000000000e+00 0.000000000000e+00 0.000000000000e+00 0.000000000000e+00 0.000000000000e+00 
1.169884814581e-02 -1.485111206917e-01 0.000000000000e+00 0.000000000000e+00 0.000000000000e+00 0.000000000000e+00 0.000000000000e+00 0.000000000000e+00 
8.835347874980e-02 -1.485454048835e-01 0.000000000000e+00 0.000000000000e+00 0.000000000000e+00 0.000000000000e+00 0.000000000000e+00 0.000000000000e+00 
6.851377528847e-02 -1.399424198909e-01 0.000000000000e+00 0.000000000000e+00 0.000000000000e+00 0.000000000000e+00 0.000000000000e+00 0.000000000000e+00 
9.100272279741e-02 -6.058966642700e-02 0.000000000000e+00 0.000000000000e+00 0.000000000000e+00 0.000000000000e+00 0.000000000000e+00 0.000000000000e+00 
7.224986561191e-02 -8.603444691608e-02 0.000000000000e+00 0.000000000000e+00 0.000000000000e+00 0.000000000000e+00 0.000000000000e+00 0.000000000000e+00 
6.027993180190e-02 -6.988363285687e-02 0.000000000000e+00 0.000000000000e+00 0.000000000000e+00 0.000000000000e+00 0.000000000000e+00 0.000000000000e+00 
1.000000000000e-01 -3.207786985738e-02 0.000000000000e+00 0.000000000000e+00 0.000000000000e+00 0.000000000000e+00 0.000000000000e+00 0.000000000000e+00 
8.454242557621e-02 -3.844635220127e-02 0.000000000000e+00 0.000000000000e+00 0.000000000000e+00 0.000000000000e+00 0.000000000000e+00 0.000000000000e+00 
2.474920969922e-02 -2.015432236000e-01 0.000000000000e+00 0.000000000000e+00 0.000000000000e+00 0.000000000000e+00 0.000000000000e+00 0.000000000000e+00 
0.000000000000e+00 -2.071452132758e-01 0.000000000000e+00 0.000000000000e+00 0.000000000000e+00 0.000000000000e+00 0.000000000000e+00 0.000000000000e+00 
0.000000000000e+00 -8.133192903590e-02 0.000000000000e+00 0.000000000000e+00 0.000000000000e+00 0.000000000000e+00 0.000000000000e+00 0.000000000000e+00 
1.698701460171e-02 -8.593339913784e-02 0.000000000000e+00 0.000000000000e+00 0.000000000000e+00 0.000000000000e+00 0.000000000000e+00 0.000000000000e+00 
7.049571814535e-02 -4.034466657971e-02 0.000000000000e+00 0.000000000000e+00 0.000000000000e+00 0.000000000000e+00 0.000000000000e+00 0.000000000000e+00 
3.763666536168e-02 -1.917900581297e-01 0.000000000000e+00 0.000000000000e+00 0.000000000000e+00 0.000000000000e+00 0.000000000000e+00 0.000000000000e+00 
3.144484460580e-02 -7.586712852882e-02 0.000000000000e+00 0.000000000000e+00 0.000000000000e+00 0.000000000000e+00 0.000000000000e+00 0.000000000000e+00 
5.599679480673e-02 -1.868962244425e-01 0.000000000000e+00 0.000000000000e+00 0.000000000000e+00 0.000000000000e+00 0.000000000000e+00 0.000000000000e+00 
1.000000000000e-01 -1.717986916992e-01 0.000000000000e+00 0.000000000000e+00 0.000000000000e+00 0.000000000000e+00 0.000000000000e+00 0.000000000000e+00 
8.325780581963e-02 -1.864276587827e-01 0.000000000000e+00 0.000000000000e+00 0.000000000000e+00 0.000000000000e+00 0.000000000000e+00 0.000000000000e+00 
6.163087269112e-02 -4.804641620450e-02 0.000000000000e+00 0.000000000000e+00 0.000000000000e+00 0.000000000000e+00 0.000000000000e+00 0.000000000000e+00 
5.002678796997e-02 -6.957908922559e-02 0.000000000000e+00 0.000000000000e+00 0.000000000000e+00 0.000000000000e+00 0.000000000000e+00 0.000000000000e+00 
3.977027004405e-02 -6.986979884634e-02 0.000000000000e+00 0.000000000000e+00 0.000000000000e+00 0.000000000000e+00 0.000000000000e+00 0.000000000000e+00 
6.904394191688e-02 -1.770178073307e-01 0.000000000000e+00 0.000000000000e+00 0.000000000000e+00 0.000000000000e+00 0.000000000000e+00 0.000000000000e+00 
5.204798323580e-02 -5.977244273485e-02 0.000000000000e+00 0.000000000000e+00 0.000000000000e+00 0.000000000000e+00 0.000000000000e+00 0.000000000000e+00 
19  28  30  19
21  29  46  21
29  42  46  29
30  28  54  30
24  35  38  24
34  25  37  34
35  20  38  35
21  34  37  21
48  18  58  48
17  33  38  17
33  24  38  33
4  5  30  4
35  7  40  35
14  34  39  14
17  31  33  17
28  22  59  28
22  41  59  22
27  48  58  27
30  5  52  30
19  30  60  19
39  21  46  39
17  29  37  17
29  17  38  29
26  39  46  26
18  42  58  18
7  8  40  7
13  14  39  13
33  31  50  33
20  29  38  20
29  21  37  29
22  28  53  22
11  44  49  11
34  21  39  34
20  35  40  20
24  30  52  24
29  20  42  29
6  7  35  6
14  15  34  14
4  30  54  4
28  19  53  28
10  11  49  10
6  35  52  6
34  15  51  34
30  24  60  30
27  43  48  27
44  26  47  44
46  18  47  46
26  46  47  26
32  22  53  32
3  54  59  3
11  12  44  11
25  34  51  25
44  12  56  44
35  24  52  35
9  43  57  9
23  44  47  23
54  28  59  54
31  17  55  31
42  18  46  42
24  33  60  24
1  2  41  1
36  18  48  36
18  36  47  18
50  19  60  50
33  50  60  33
44  23  49  44
36  23  47  36
26  44  56  26
43  27  57  43
45  31  55  45
37  25  55  37
20  40  58  20
40  8  57  40
13  39  56  13
40  27  58  40
17  37  55  17
3  4  54  3
15  16  51  15
5  6  52  5
25  45  55  25
39  26  56  39
27  40  57  27
42  20  58  42
8  9  57  8
12  13  56  12
2  3  59  2
41  2  59  41
32  53  61  32
53  19  61  53
19  50  61  19
62  1  63  62
64  65  49  64
65  10  49  65
16  66  67  16
63  22  68  63
63  1  41  63
16  67  51  16
22  63  41  22
23  36  69  23
67  70  45  67
36  71  69  36
43  72  73  43
67  25  51  67
22  32  74  22
75  31  76  75
31  70  76  31
25  67  45  25
70  31  45  70
31  75  50  31
9  72  43  9
43  77  48  43
68  22  74  68
74  32  78  74
49  23  69  49
64  49  69  64
77  43  73  77
77  36  48  77
36  77  71  36
78  32  61  78
75  78  61  75
50  75  61  50
VARIABLES  = "X","Y","Z", "STRESS_XX", "STRESS_YY", "STRESS_ZZ", "DISPLACEMENT_X1", "DISPLACEMENT_Y1"
ZONE T="1.000000000000e+01s", N=78, E=121, F=FEPOINT, ET=QUADRILATERAL
STRANDID=1, SOLUTIONTIME=1.000000000000e+01
1.000000000000e-01 -4.365795665274e-02 0.000000000000e+00 -2.430212943702e+02 -9.721058119104e+02 -2.430254212561e+02 0.000000000000e+00 -2.734393691023e-02 
1.000000000000e-01 -5.571534163644e-02 0.000000000000e+00 -2.417092541437e+02 -9.667853362187e+02 -2.416989180725e+02 0.000000000000e+00 -2.699311478754e-02 
1.000000000000e-01 -6.826783355915e-02 0.000000000000e+00 -2.406326841506e+02 -9.625635159113e+02 -2.406392400124e+02 0.000000000000e+00 -2.662974554582e-02 
1.000000000000e-01 -8.133192903590e-02 0.000000000000e+00 -2.397892268151e+02 -9.590734752173e+02 -2.397725404065e+02 0.000000000000e+00 -2.625311417442e-02 
1.000000000000e-01 -9.493635849425e-02 0.000000000000e+00 -2.391289754230e+02 -9.565236181864e+02 -2.391305187219e+02 0.000000000000e+00 -2.586214389037e-02 
1.000000000000e-01 -1.090948080906e-01 0.000000000000e+00 -2.387123709490e+02 -9.548660033682e+02 -2.387156748634e+02 0.000000000000e+00 -2.545616549245e-02 
1.000000000000e-01 -1.238407989588e-01 0.000000000000e+00 -2.384302361102e+02 -9.537296707123e+02 -2.384319813645e+02 0.000000000000e+00 -2.503397258930e-02 
1.000000000000e-01 -1.391895614642e-01 0.000000000000e+00 -2.382781748037e+02 -9.530835824022e+02 -2.382723514412e+02 0.000000000000e+00 -2.459493814105e-02 
1.000000000000e-01 -1.551674274464e-01 0.000000000000e+00 -2.381832972563e+02 -9.527317731501e+02 -2.381830140813e+02 0.000000000000e+00 -2.413816395253e-02 
0.000000000000e+00 -1.891202423411e-01 0.000000000000e+00 -2.381163770500e+02 -9.524548805946e+02 -2.381142515289e+02 0.000000000000e+00 -2.316789202800e-02 
0.000000000000e+00 -1.717986916992e-01 0.000000000000e+00 -2.381394751733e+02 -9.525505025884e+02 -2.381379955523e+02 0.000000000000e+00 -2.366285277733e-02 
0.000000000000e+00 -1.551674274464e-01 0.000000000000e+00 -2.381944963245e+02 -9.527720702340e+02 -2.381933133117e+02 0.000000000000e+00 -2.413816296810e-02 
0.000000000000e+00 -1.391895614642e-01 0.000000000000e+00 -2.382932378772e+02 -9.531498732578e+02 -2.382886222270e+02 0.000000000000e+00 -2.459493697816e-02 
0.000000000000e+00 -1.238407989588e-01 0.000000000000e+00 -2.384590736457e+02 -9.538546250091e+02 -2.384627397309e+02 0.000000000000e+00 -2.503397309648e-02 
0.000000000000e+00 -1.090948080907e-01 0.000000000000e+00 -2.387631751567e+02 -9.550674677307e+02 -2.387661285775e+02 0.000000000000e+00 -2.545616628384e-02 
0.000000000000e+00 -9.493635849425e-02 0.000000000000e+00 -2.392093990960e+02 -9.568427663924e+02 -2.392104330977e+02 0.000000000000e+00 -2.586214339951e-02 
5.003429380367e-02 -1.017798692890e-01 0.000000000000e+00 -2.389291709372e+02 -9.557317325461e+02 -2.389321806967e+02 3.801331608686e-10 -2.566582154952e-02 
5.002853232124e-02 -1.519088519355e-01 0.000000000000e+00 -2.382010342566e+02 -9.528118215716e+02 -2.382025711656e+02 9.557020388060e-10 -2.423130412156e-02 
6.860613435721e-02 -7.587479770767e-02 0.000000000000e+00 -2.401127673641e+02 -9.605027395176e+02 -2.401231013763e+02 3.054876285090e-09 -2.641027620785e-02 
6.888280446269e-02 -1.268465272623e-01 0.000000000000e+00 -2.384066647286e+02 -9.536443457642e+02 -2.384102020986e+02 -7.834622009158e-10 -2.494796900705e-02 
3.121957414972e-02 -1.268421985082e-01 0.000000000000e+00 -2.384166854879e+02 -9.536680238846e+02 -2.384169418745e+02 1.361041440829e-09 -2.494809194458e-02 
7.556622015059e-02 -5.213930935979e-02 0.000000000000e+00 -2.421224384719e+02 -9.684991418551e+02 -2.421243160654e+02 -2.321174628708e-09 -2.709695824146e-02 
3.104608478085e-02 -1.770328565743e-01 0.000000000000e+00 -2.381257114661e+02 -9.525108987902e+02 -2.381273220513e+02 -2.221795573509e-11 -2.351328178937e-02 
7.554701895293e-02 -1.019679427391e-01 0.000000000000e+00 -2.389375031970e+02 -9.557699151663e+02 -2.389414836727e+02 -1.641749011518e-09 -2.566042579838e-02 
2.453145878902e-02 -1.018531985808e-01 0.000000000000e+00 -2.389409901753e+02 -9.557832351154e+02 -2.389448450581e+02 6.183325358265e-10 -2.566371754996e-02 
2.486640359495e-02 -1.511994000693e-01 0.000000000000e+00 -2.382017244325e+02 -9.528247483287e+02 -2.382052945522e+02 -6.423007845099e-10 -2.425158440265e-02 
7.519018389267e-02 -1.512146935932e-01 0.000000000000e+00 -2.382058616947e+02 -9.528354572707e+02 -2.382082637931e+02 1.190513013928e-10 -2.425114811048e-02 
8.318938762240e-02 -6.726290804214e-02 0.000000000000e+00 -2.407646630468e+02 -9.630841513429e+02 -2.407697628779e+02 9.556594449603e-10 -2.665877679376e-02 
5.005181660085e-02 -1.213864546544e-01 0.000000000000e+00 -2.384867216748e+02 -9.539266720532e+02 -2.384826787456e+02 -1.748595847444e-09 -2.510420704322e-02 
8.304311980566e-02 -8.600422434734e-02 0.000000000000e+00 -2.395415902645e+02 -9.581715403580e+02 -2.395426261245e+02 -3.068429266722e-09 -2.611872185075e-02 
4.512057632941e-02 -8.568062374441e-02 0.000000000000e+00 -2.395884923112e+02 -9.583333837450e+02 -2.395843752112e+02 -2.005996243744e-09 -2.612802775502e-02 
6.206074805899e-02 -5.978173210899e-02 0.000000000000e+00 -2.413759122435e+02 -9.654508541390e+02 -2.413653532765e+02 2.906731083524e-11 -2.687520414455e-02 
6.286808215727e-02 -9.137086788006e-02 0.000000000000e+00 -2.393406828732e+02 -9.573459811821e+02 -2.393373328111e+02 9.012548549426e-10 -2.596452265985e-02 
1.640712137365e-02 -1.174171270781e-01 0.000000000000e+00 -2.385679240248e+02 -9.542697760994e+02 -2.385675400248e+02 1.186519941487e-09 -2.521782731764e-02 
8.372537541237e-02 -1.174905373863e-01 0.000000000000e+00 -2.385543626753e+02 -9.542033639487e+02 -2.385515453248e+02 -7.033435452768e-10 -2.521572395296e-02 
5.004288552848e-02 -1.716527951481e-01 0.000000000000e+00 -2.381357277276e+02 -9.525402535586e+02 -2.381351962573e+02 4.069317568486e-10 -2.366702181205e-02 
3.731099137938e-02 -1.115945408716e-01 0.000000000000e+00 -2.386862281553e+02 -9.547580033392e+02 -2.386888462989e+02 1.350160293585e-09 -2.538455818361e-02 
6.271916567743e-02 -1.115718330784e-01 0.000000000000e+00 -2.386780613486e+02 -9.546859796213e+02 -2.386728081940e+02 -8.992026037925e-10 -2.538520257907e-02 
1.686902144853e-02 -1.361062558984e-01 0.000000000000e+00 -2.383065314819e+02 -9.532269298407e+02 -2.383066922645e+02 -2.563405726525e-10 -2.468310658195e-02 
8.320724439706e-02 -1.361392086212e-01 0.000000000000e+00 -2.382998728567e+02 -9.531979487400e+02 -2.382995643193e+02 3.675216745625e-10 -2.468216578873e-02 
8.827644021441e-02 -5.068271212769e-02 0.000000000000e+00 -2.422788706716e+02 -9.691413640147e+02 -2.422840469373e+02 -2.428501665491e-09 -2.713930450454e-02 
5.583260035578e-02 -1.366520720980e-01 0.000000000000e+00 -2.383008520751e+02 -9.532003637086e+02 -2.383002431568e+02 -1.081124141310e-09 -2.466749985744e-02 
8.326930466579e-02 -1.667726886397e-01 0.000000000000e+00 -2.381494386021e+02 -9.525880366829e+02 -2.381474950570e+02 8.683305082537e-10 -2.380648193022e-02 
1.683000258849e-02 -1.667776624401e-01 0.000000000000e+00 -2.381502651637e+02 -9.525976931704e+02 -2.381495916668e+02 -7.025736114096e-10 -2.380633978794e-02 
3.176003359910e-02 -8.986364252605e-02 0.000000000000e+00 -2.394092227996e+02 -9.575724994450e+02 -2.393963444489e+02 7.824106010382e-10 -2.600780574697e-02 
3.772961003605e-02 -1.415473931669e-01 0.000000000000e+00 -2.382578359851e+02 -9.530278031471e+02 -2.382571278265e+02 1.158188498670e-09 -2.452751786119e-02 
3.703325374415e-02 -1.619447957644e-01 0.000000000000e+00 -2.381594176422e+02 -9.526436960491e+02 -2.381606227383e+02 4.010010644682e-10 -2.394445718165e-02 
6.303932844440e-02 -1.619539551222e-01 0.000000000000e+00 -2.381640224027e+02 -9.526524222203e+02 -2.381632889246e+02 8.650979390178e-10 -2.394419454746e-02 
1.687036367023e-02 -1.864550581470e-01 0.000000000000e+00 -2.381139185622e+02 -9.524579117671e+02 -2.381143660658e+02 -5.576291441043e-10 -2.324404627648e-02 
5.675176755435e-02 -8.029564380893e-02 0.000000000000e+00 -2.399039927002e+02 -9.596819287891e+02 -2.399171842979e+02 -9.652778200319e-10 -2.628294631901e-02 
1.125853509499e-02 -1.018913627337e-01 0.000000000000e+00 -2.389290123444e+02 -9.557295500616e+02 -2.389317124812e+02 2.586894578682e-09 -2.566262361468e-02 
8.881871162219e-02 -1.019661470517e-01 0.000000000000e+00 -2.389256207782e+02 -9.557280927134e+02 -2.389307426983e+02 -3.300518581762e-09 -2.566047911444e-02 
7.207066164269e-02 -6.508809647676e-02 0.000000000000e+00 -2.408901975041e+02 -9.635392818395e+02 -2.408858958687e+02 1.942894966129e-09 -2.672163164192e-02 
8.958901145892e-02 -7.668408325171e-02 0.000000000000e+00 -2.401320995838e+02 -9.605699145383e+02 -2.401404028244e+02 8.255708063977e-10 -2.638694899309e-02 
3.832908703950e-02 -9.976005802934e-02 0.000000000000e+00 -2.390105316496e+02 -9.560194649186e+02 -2.390059993136e+02 1.901960474862e-09 -2.572374459287e-02 
1.169884814581e-02 -1.485111206917e-01 0.000000000000e+00 -2.382189005522e+02 -9.528797690641e+02 -2.382197339233e+02 -4.104842750608e-10 -2.432843145750e-02 
8.835347874980e-02 -1.485454048835e-01 0.000000000000e+00 -2.382175719306e+02 -9.528820475740e+02 -2.382199239009e+02 5.527358609306e-12 -2.432745284399e-02 
6.851377528847e-02 -1.399424198909e-01 0.000000000000e+00 -2.382772025616e+02 -9.531001721620e+02 -2.382754749447e+02 -6.125609603325e-10 -2.457341247352e-02 
9.100272279741e-02 -6.058966642700e-02 0.000000000000e+00 -2.413223642532e+02 -9.652894116046e+02 -2.413223551716e+02 1.136272931096e-09 -2.685181421981e-02 
7.224986561191e-02 -8.603444691608e-02 0.000000000000e+00 -2.395773307980e+02 -9.582346722275e+02 -2.395624006051e+02 1.685358411759e-09 -2.611785735663e-02 
6.027993180190e-02 -6.988363285687e-02 0.000000000000e+00 -2.405545322881e+02 -9.622354226226e+02 -2.405579909821e+02 1.065576798143e-09 -2.658308104510e-02 
1.000000000000e-01 -3.207786985738e-02 0.000000000000e+00 -2.445033771355e+02 -9.780246811523e+02 -2.445056116576e+02 0.000000000000e+00 -2.768290379595e-02 
8.454242557621e-02 -3.844635220127e-02 0.000000000000e+00 -2.436946323375e+02 -9.748221785520e+02 -2.437033621779e+02 -4.954457504146e-09 -2.749622166664e-02 
2.474920969922e-02 -2.015432236000e-01 0.000000000000e+00 -2.381039075175e+02 -9.524186508746e+02 -2.381045116784e+02 -9.732485592413e-11 -2.281293133455e-02 
0.000000000000e+00 -2.071452132758e-01 0.000000000000e+00 -2.381026725997e+02 -9.524077869340e+02 -2.381020919067e+02 0.000000000000e+00 -2.265286907365e-02 
0.000000000000e+00 -8.133192903590e-02 0.000000000000e+00 -2.398558664733e+02 -9.593602355787e+02 -2.398432204104e+02 0.000000000000e+00 -2.625311429877e-02 
1.698701460171e-02 -8.593339913784e-02 0.000000000000e+00 -2.395446742581e+02 -9.582182082138e+02 -2.395525764944e+02 3.133044192206e-09 -2.612075595365e-02 
7.049571814535e-02 -4.034466657971e-02 0.000000000000e+00 -2.434106272223e+02 -9.736464816865e+02 -2.434114217818e+02 -5.665815191998e-09 -2.744069996311e-02 
3.763666536168e-02 -1.917900581297e-01 0.000000000000e+00 -2.381086039751e+02 -9.524376394792e+02 -2.381092486909e+02 2.771041682018e-10 -2.309160680622e-02 
3.144484460580e-02 -7.586712852882e-02 0.000000000000e+00 -2.401289788642e+02 -9.605375270354e+02 -2.401333011799e+02 -1.154988680023e-09 -2.641050303409e-02 
5.599679480673e-02 -1.868962244425e-01 0.000000000000e+00 -2.381116095312e+02 -9.524525722788e+02 -2.381128363620e+02 5.503516269506e-10 -2.323144104092e-02 
1.000000000000e-01 -1.717986916992e-01 0.000000000000e+00 -2.381360107147e+02 -9.525345094101e+02 -2.381341040250e+02 0.000000000000e+00 -2.366285292181e-02 
8.325780581963e-02 -1.864276587827e-01 0.000000000000e+00 -2.381154825652e+02 -9.524579561485e+02 -2.381146877427e+02 7.960248962909e-10 -2.324482883730e-02 
6.163087269112e-02 -4.804641620450e-02 0.000000000000e+00 -2.425205499574e+02 -9.699950123151e+02 -2.425031124545e+02 -5.424546146548e-09 -2.721601358600e-02 
5.002678796997e-02 -6.957908922559e-02 0.000000000000e+00 -2.405807315857e+02 -9.623612011527e+02 -2.405883865477e+02 -1.518366276088e-09 -2.659187863966e-02 
3.977027004405e-02 -6.986979884634e-02 0.000000000000e+00 -2.405482449519e+02 -9.621475424403e+02 -2.405391574784e+02 -2.579879456574e-10 -2.658348781250e-02 
6.904394191688e-02 -1.770178073307e-01 0.000000000000e+00 -2.381262515405e+02 -9.525096918513e+02 -2.381271886784e+02 1.021690838321e-09 -2.351371196731e-02 
5.204798323580e-02 -5.977244273485e-02 0.000000000000e+00 -2.413369997129e+02 -9.653691187631e+02 -2.413412236952e+02 3.304765930623e-09 -2.687547345868e-02 
19  28  30  19
21  29  46  21
29  42  46  29
30  28  54  30
24  35  38  24
34  25  37  34
35  20  38  35
21  34  37  21
48  18  58  48
17  33  38  17
33  24  38  33
4  5  30  4
35  7  40  35
14  34  39  14
17  31  33  17
28  22  59  28
22  41  59  22
27  48  58  27
30  5  52  30
19  30  60  19
39  21  46  39
17  29  37  17
29  17  38  29
26  39  46  26
18  42  58  18
7  8  40  7
13  14  39  13
33  31  50  33
20  29  38  20
29  21  37  29
22  28  53  22
11  44  49  11
34  21  39  34
20  35  40  20
24  30  52  24
29  20  42  29
6  7  35  6
14  15  34  14
4  30  54  4
28  19  53  28
10  11  49  10
6  35  52  6
34  15  51  34
30  24  60  30
27  43  48  27
44  26  47  44
46  18  47  46
26  46  47  26
32  22  53  32
3  54  59  3
11  12  44  11
25  34  51  25
44  12  56  44
35  24  52  35
9  43  57  9
23  44  47  23
54  28  59  54
31  17  55  31
42  18  46  42
24  33  60  24
1  2  41  1
36  18  48  36
18  36  47  18
50  19  60  50
33  50  60  33
44  23  49  44
36  23  47  36
26  44  56  26
43  27  57  43
45  31  55  45
37  25  55  37
20  40  58  20
40  8  57  40
13  39  56  13
40  27  58  40
17  37  55  17
3  4  54  3
15  16  51  15
5  6  52  5
25  45  55  25
39  26  56  39
27  40  57  27
42  20  58  42
8  9  57  8
12  13  56  12
2  3  59  2
41  2  59  41
32  53  61  32
53  19  61  53
19  50  61  19
62  1  63  62
64  65  49  64
65  10  49  65
16  66  67  16
63  22  68  63
63  1  41  63
16  67  51  16
22  63  41  22
23  36  69  23
67  70  45  67
36  71  69  36
43  72  73  43
67  25  51  67
22  32  74  22
75  31  76  75
31  70  76  31
25  67  45  25
70  31  45  70
31  75  50  31
9  72  43  9
43  77  48  43
68  22  74  68
74  32  78  74
49  23  69  49
64  49  69  64
77  43  73  77
77  36  48  77
36  77  71  36
78  32  61  78
75  78  61  75
50  75  61  50
