VARIABLES  = "X","Y","Z", "STRESS_XX", "STRESS_YY", "STRESS_ZZ", "DISPLACEMENT_X1", "DISPLACEMENT_Y1"
ZONE T="0.000000000000e+00s", N=70, E=99, F=FEPOINT, ET=QUADRILATERAL
STRANDID=1, SOLUTIONTIME=0.000000000000e+00
1.000000000000e-01 -1.000000000000e+00 0.000000000000e+00 0.000000000000e+00 0.000000000000e+00 0.000000000000e+00 0.000000000000e+00 0.000000000000e+00 
0.000000000000e+00 -1.000000000000e+00 0.000000000000e+00 0.000000000000e+00 0.000000000000e+00 0.000000000000e+00 0.000000000000e+00 0.000000000000e+00 
1.000000000000e-01 -4.066333808964e-01 0.000000000000e+00 0.000000000000e+00 0.000000000000e+00 0.000000000000e+00 0.000000000000e+00 0.000000000000e+00 
1.000000000000e-01 -4.336013132129e-01 0.000000000000e+00 0.000000000000e+00 0.000000000000e+00 0.000000000000e+00 0.000000000000e+00 0.000000000000e+00 
1.000000000000e-01 -4.616595392039e-01 0.000000000000e+00 0.000000000000e+00 0.000000000000e+00 0.000000000000e+00 0.000000000000e+00 0.000000000000e+00 
1.000000000000e-01 -4.908798744802e-01 0.000000000000e+00 0.000000000000e+00 0.000000000000e+00 0.000000000000e+00 0.000000000000e+00 0.000000000000e+00 
1.000000000000e-01 -5.212997813718e-01 0.000000000000e+00 0.000000000000e+00 0.000000000000e+00 0.000000000000e+00 0.000000000000e+00 0.000000000000e+00 
1.000000000000e-01 -5.529651305953e-01 0.000000000000e+00 0.000000000000e+00 0.000000000000e+00 0.000000000000e+00 0.000000000000e+00 0.000000000000e+00 
1.000000000000e-01 -5.859254847404e-01 0.000000000000e+00 0.000000000000e+00 0.000000000000e+00 0.000000000000e+00 0.000000000000e+00 0.000000000000e+00 
1.000000000000e-01 -6.202541854239e-01 0.000000000000e+00 0.000000000000e+00 0.000000000000e+00 0.000000000000e+00 0.000000000000e+00 0.000000000000e+00 
1.000000000000e-01 -6.559765085227e-01 0.000000000000e+00 0.000000000000e+00 0.000000000000e+00 0.000000000000e+00 0.000000000000e+00 0.000000000000e+00 
1.000000000000e-01 -6.931783144525e-01 0.000000000000e+00 0.000000000000e+00 0.000000000000e+00 0.000000000000e+00 0.000000000000e+00 0.000000000000e+00 
1.000000000000e-01 -7.319023284412e-01 0.000000000000e+00 0.000000000000e+00 0.000000000000e+00 0.000000000000e+00 0.000000000000e+00 0.000000000000e+00 
1.000000000000e-01 -7.722376567817e-01 0.000000000000e+00 0.000000000000e+00 0.000000000000e+00 0.000000000000e+00 0.000000000000e+00 0.000000000000e+00 
1.000000000000e-01 -8.141871026671e-01 0.000000000000e+00 0.000000000000e+00 0.000000000000e+00 0.000000000000e+00 0.000000000000e+00 0.000000000000e+00 
1.000000000000e-01 -8.578764946731e-01 0.000000000000e+00 0.000000000000e+00 0.000000000000e+00 0.000000000000e+00 0.000000000000e+00 0.000000000000e+00 
1.000000000000e-01 -9.033674988086e-01 0.000000000000e+00 0.000000000000e+00 0.000000000000e+00 0.000000000000e+00 0.000000000000e+00 0.000000000000e+00 
1.000000000000e-01 -9.507169705327e-01 0.000000000000e+00 0.000000000000e+00 0.000000000000e+00 0.000000000000e+00 0.000000000000e+00 0.000000000000e+00 
0.000000000000e+00 -9.507169705327e-01 0.000000000000e+00 0.000000000000e+00 0.000000000000e+00 0.000000000000e+00 0.000000000000e+00 0.000000000000e+00 
0.000000000000e+00 -9.033674988086e-01 0.000000000000e+00 0.000000000000e+00 0.000000000000e+00 0.000000000000e+00 0.000000000000e+00 0.000000000000e+00 
0.000000000000e+00 -8.578764946731e-01 0.000000000000e+00 0.000000000000e+00 0.000000000000e+00 0.000000000000e+00 0.000000000000e+00 0.000000000000e+00 
0.000000000000e+00 -8.141871026671e-01 0.000000000000e+00 0.000000000000e+00 0.000000000000e+00 0.000000000000e+00 0.000000000000e+00 0.000000000000e+00 
0.000000000000e+00 -7.722376567817e-01 0.000000000000e+00 0.000000000000e+00 0.000000000000e+00 0.000000000000e+00 0.000000000000e+00 0.000000000000e+00 
0.000000000000e+00 -7.319023284412e-01 0.000000000000e+00 0.000000000000e+00 0.000000000000e+00 0.000000000000e+00 0.000000000000e+00 0.000000000000e+00 
0.000000000000e+00 -6.931783144525e-01 0.000000000000e+00 0.000000000000e+00 0.000000000000e+00 0.000000000000e+00 0.000000000000e+00 0.000000000000e+00 
0.000000000000e+00 -6.559765085227e-01 0.000000000000e+00 0.000000000000e+00 0.000000000000e+00 0.000000000000e+00 0.000000000000e+00 0.000000000000e+00 
0.000000000000e+00 -6.202541854239e-01 0.000000000000e+00 0.000000000000e+00 0.000000000000e+00 0.000000000000e+00 0.000000000000e+00 0.000000000000e+00 
0.000000000000e+00 -5.859254847404e-01 0.000000000000e+00 0.000000000000e+00 0.000000000000e+00 0.000000000000e+00 0.000000000000e+00 0.000000000000e+00 
0.000000000000e+00 -5.529651305953e-01 0.000000000000e+00 0.000000000000e+00 0.000000000000e+00 0.000000000000e+00 0.000000000000e+00 0.000000000000e+00 
0.000000000000e+00 -5.212997813718e-01 0.000000000000e+00 0.000000000000e+00 0.000000000000e+00 0.000000000000e+00 0.000000000000e+00 0.000000000000e+00 
0.000000000000e+00 -4.908798744802e-01 0.000000000000e+00 0.000000000000e+00 0.000000000000e+00 0.000000000000e+00 0.000000000000e+00 0.000000000000e+00 
0.000000000000e+00 -4.616595392039e-01 0.000000000000e+00 0.000000000000e+00 0.000000000000e+00 0.000000000000e+00 0.000000000000e+00 0.000000000000e+00 
0.000000000000e+00 -4.336013132129e-01 0.000000000000e+00 0.000000000000e+00 0.000000000000e+00 0.000000000000e+00 0.000000000000e+00 0.000000000000e+00 
0.000000000000e+00 -4.066333808964e-01 0.000000000000e+00 0.000000000000e+00 0.000000000000e+00 0.000000000000e+00 0.000000000000e+00 0.000000000000e+00 
5.004338622634e-02 -4.224088684799e-01 0.000000000000e+00 0.000000000000e+00 0.000000000000e+00 0.000000000000e+00 0.000000000000e+00 0.000000000000e+00 
5.008792076171e-02 -4.761562843354e-01 0.000000000000e+00 0.000000000000e+00 0.000000000000e+00 0.000000000000e+00 0.000000000000e+00 0.000000000000e+00 
5.006173506594e-02 -5.371347226804e-01 0.000000000000e+00 0.000000000000e+00 0.000000000000e+00 0.000000000000e+00 0.000000000000e+00 0.000000000000e+00 
5.005598078520e-02 -6.030075791828e-01 0.000000000000e+00 0.000000000000e+00 0.000000000000e+00 0.000000000000e+00 0.000000000000e+00 0.000000000000e+00 
5.008345235811e-02 -6.744505768430e-01 0.000000000000e+00 0.000000000000e+00 0.000000000000e+00 0.000000000000e+00 0.000000000000e+00 0.000000000000e+00 
5.006913214781e-02 -7.520111988761e-01 0.000000000000e+00 0.000000000000e+00 0.000000000000e+00 0.000000000000e+00 0.000000000000e+00 0.000000000000e+00 
5.005245558618e-02 -8.359504089462e-01 0.000000000000e+00 0.000000000000e+00 0.000000000000e+00 0.000000000000e+00 0.000000000000e+00 0.000000000000e+00 
6.944556402011e-02 -3.968201233631e-01 0.000000000000e+00 0.000000000000e+00 0.000000000000e+00 0.000000000000e+00 0.000000000000e+00 0.000000000000e+00 
6.938741587335e-02 -4.492665666015e-01 0.000000000000e+00 0.000000000000e+00 0.000000000000e+00 0.000000000000e+00 0.000000000000e+00 0.000000000000e+00 
5.007750042915e-02 -9.269884316941e-01 0.000000000000e+00 0.000000000000e+00 0.000000000000e+00 0.000000000000e+00 0.000000000000e+00 0.000000000000e+00 
3.079310721189e-02 -4.492985454339e-01 0.000000000000e+00 0.000000000000e+00 0.000000000000e+00 0.000000000000e+00 0.000000000000e+00 0.000000000000e+00 
3.221669410502e-02 -5.066378347700e-01 0.000000000000e+00 0.000000000000e+00 0.000000000000e+00 0.000000000000e+00 0.000000000000e+00 0.000000000000e+00 
6.786784203733e-02 -5.066531442817e-01 0.000000000000e+00 0.000000000000e+00 0.000000000000e+00 0.000000000000e+00 0.000000000000e+00 0.000000000000e+00 
3.339642373282e-02 -5.700696953954e-01 0.000000000000e+00 0.000000000000e+00 0.000000000000e+00 0.000000000000e+00 0.000000000000e+00 0.000000000000e+00 
6.525807751313e-02 -6.387232377182e-01 0.000000000000e+00 0.000000000000e+00 0.000000000000e+00 0.000000000000e+00 0.000000000000e+00 0.000000000000e+00 
5.008827505125e-02 -9.806018183701e-01 0.000000000000e+00 0.000000000000e+00 0.000000000000e+00 0.000000000000e+00 0.000000000000e+00 0.000000000000e+00 
6.875407163887e-02 -5.693536686703e-01 0.000000000000e+00 0.000000000000e+00 0.000000000000e+00 0.000000000000e+00 0.000000000000e+00 0.000000000000e+00 
3.664624163484e-02 -7.132284082360e-01 0.000000000000e+00 0.000000000000e+00 0.000000000000e+00 0.000000000000e+00 0.000000000000e+00 0.000000000000e+00 
6.148490449038e-02 -7.939830735880e-01 0.000000000000e+00 0.000000000000e+00 0.000000000000e+00 0.000000000000e+00 0.000000000000e+00 0.000000000000e+00 
4.100384574845e-02 -8.814719130658e-01 0.000000000000e+00 0.000000000000e+00 0.000000000000e+00 0.000000000000e+00 0.000000000000e+00 0.000000000000e+00 
3.022970257450e-02 -6.380821728272e-01 0.000000000000e+00 0.000000000000e+00 0.000000000000e+00 0.000000000000e+00 0.000000000000e+00 0.000000000000e+00 
2.375340220851e-02 -4.221482437035e-01 0.000000000000e+00 0.000000000000e+00 0.000000000000e+00 0.000000000000e+00 0.000000000000e+00 0.000000000000e+00 
7.632731958147e-02 -4.221881213587e-01 0.000000000000e+00 0.000000000000e+00 0.000000000000e+00 0.000000000000e+00 0.000000000000e+00 0.000000000000e+00 
2.293783770176e-02 -4.762423539471e-01 0.000000000000e+00 0.000000000000e+00 0.000000000000e+00 0.000000000000e+00 0.000000000000e+00 0.000000000000e+00 
7.721888027343e-02 -4.761946882435e-01 0.000000000000e+00 0.000000000000e+00 0.000000000000e+00 0.000000000000e+00 0.000000000000e+00 0.000000000000e+00 
7.129547302367e-02 -7.125259253720e-01 0.000000000000e+00 0.000000000000e+00 0.000000000000e+00 0.000000000000e+00 0.000000000000e+00 0.000000000000e+00 
7.757437444143e-02 -5.370973525672e-01 0.000000000000e+00 0.000000000000e+00 0.000000000000e+00 0.000000000000e+00 0.000000000000e+00 0.000000000000e+00 
2.255445764899e-02 -5.371289046437e-01 0.000000000000e+00 0.000000000000e+00 0.000000000000e+00 0.000000000000e+00 0.000000000000e+00 0.000000000000e+00 
2.720299568724e-02 -7.931304852765e-01 0.000000000000e+00 0.000000000000e+00 0.000000000000e+00 0.000000000000e+00 0.000000000000e+00 0.000000000000e+00 
7.798696120885e-02 -6.030216482613e-01 0.000000000000e+00 0.000000000000e+00 0.000000000000e+00 0.000000000000e+00 0.000000000000e+00 0.000000000000e+00 
2.212749701135e-02 -6.030477024067e-01 0.000000000000e+00 0.000000000000e+00 0.000000000000e+00 0.000000000000e+00 0.000000000000e+00 0.000000000000e+00 
3.066487977987e-02 -3.967816778596e-01 0.000000000000e+00 0.000000000000e+00 0.000000000000e+00 0.000000000000e+00 0.000000000000e+00 0.000000000000e+00 
5.009415947708e-02 -3.711929596105e-01 0.000000000000e+00 0.000000000000e+00 0.000000000000e+00 0.000000000000e+00 0.000000000000e+00 0.000000000000e+00 
1.000000000000e-01 -3.807449903129e-01 0.000000000000e+00 0.000000000000e+00 0.000000000000e+00 0.000000000000e+00 0.000000000000e+00 0.000000000000e+00 
0.000000000000e+00 -3.807449903129e-01 0.000000000000e+00 0.000000000000e+00 0.000000000000e+00 0.000000000000e+00 0.000000000000e+00 0.000000000000e+00 
7.605350107748e-02 -3.708957544133e-01 0.000000000000e+00 0.000000000000e+00 0.000000000000e+00 0.000000000000e+00 0.000000000000e+00 0.000000000000e+00 
25  26  39  25
11  12  39  11
16  17  54  16
35  43  45  35
41  16  54  41
11  39  49  11
39  26  55  39
23  24  40  23
13  14  40  13
25  39  52  25
43  36  45  43
39  12  60  39
17  44  54  17
40  24  52  40
21  22  41  21
46  36  47  46
15  16  41  15
13  40  60  13
40  14  53  40
23  40  63  23
19  44  50  19
44  18  50  44
37  46  47  37
32  33  45  32
4  5  43  4
48  37  51  48
15  41  53  15
21  41  54  21
30  31  46  30
6  7  47  6
19  20  44  19
17  18  44  17
41  22  63  41
42  3  57  42
38  48  51  38
45  33  56  45
2  19  50  2
4  43  57  4
18  1  50  18
28  29  48  28
38  49  55  38
35  42  57  35
35  45  56  35
43  35  57  43
6  47  59  6
46  31  58  46
47  36  59  47
36  46  58  36
44  20  54  44
49  39  55  49
10  11  49  10
52  39  60  52
8  9  51  8
24  25  52  24
48  29  62  48
43  5  59  43
32  45  58  32
37  48  62  37
51  37  61  51
30  46  62  30
36  43  59  36
45  36  58  45
47  7  61  47
40  52  60  40
14  15  53  14
40  53  63  40
46  37  62  46
37  47  61  37
38  55  65  38
38  51  64  38
10  49  64  10
49  38  64  49
20  21  54  20
53  41  63  53
33  34  56  33
3  4  57  3
28  48  65  28
8  51  61  8
48  38  65  48
51  9  64  51
26  27  55  26
31  32  58  31
5  6  59  5
55  27  65  55
12  13  60  12
7  8  61  7
29  30  62  29
22  23  63  22
9  10  64  9
27  28  65  27
1  2  50  1
66  67  42  66
35  66  42  35
68  3  42  68
34  69  66  34
68  42  70  68
42  67  70  42
34  66  56  34
66  35  56  66
VARIABLES  = "X","Y","Z", "STRESS_XX", "STRESS_YY", "STRESS_ZZ", "DISPLACEMENT_X1", "DISPLACEMENT_Y1"
ZONE T="1.000000000000e+01s", N=70, E=99, F=FEPOINT, ET=QUADRILATERAL
STRANDID=1, SOLUTIONTIME=1.000000000000e+01
1.000000000000e-01 -1.000000000000e+00 0.000000000000e+00 -2.380937523764e+02 -9.523750094624e+02 -2.380937523678e+02 0.000000000000e+00 0.000000000000e+00 
0.000000000000e+00 -1.000000000000e+00 0.000000000000e+00 -2.380937522525e+02 -9.523750092956e+02 -2.380937523096e+02 0.000000000000e+00 0.000000000000e+00 
1.000000000000e-01 -4.066333808964e-01 0.000000000000e+00 -2.380937505914e+02 -9.523750017773e+02 -2.380937504738e+02 0.000000000000e+00 -1.695322614410e-02 
1.000000000000e-01 -4.336013132129e-01 0.000000000000e+00 -2.380937506002e+02 -9.523750022241e+02 -2.380937505649e+02 0.000000000000e+00 -1.618271860633e-02 
1.000000000000e-01 -4.616595392039e-01 0.000000000000e+00 -2.380937507219e+02 -9.523750027985e+02 -2.380937507041e+02 0.000000000000e+00 -1.538106001491e-02 
1.000000000000e-01 -4.908798744802e-01 0.000000000000e+00 -2.380937509148e+02 -9.523750034731e+02 -2.380937508776e+02 0.000000000000e+00 -1.454619850795e-02 
1.000000000000e-01 -5.212997813718e-01 0.000000000000e+00 -2.380937511549e+02 -9.523750041990e+02 -2.380937510708e+02 0.000000000000e+00 -1.367706373973e-02 
1.000000000000e-01 -5.529651305953e-01 0.000000000000e+00 -2.380937514357e+02 -9.523750048809e+02 -2.380937512633e+02 0.000000000000e+00 -1.277234512650e-02 
1.000000000000e-01 -5.859254847404e-01 0.000000000000e+00 -2.380937517232e+02 -9.523750055631e+02 -2.380937514573e+02 0.000000000000e+00 -1.183062660309e-02 
1.000000000000e-01 -6.202541854239e-01 0.000000000000e+00 -2.380937519005e+02 -9.523750063409e+02 -2.380937516483e+02 0.000000000000e+00 -1.084981270772e-02 
1.000000000000e-01 -6.559765085227e-01 0.000000000000e+00 -2.380937519873e+02 -9.523750072436e+02 -2.380937518462e+02 0.000000000000e+00 -9.829181276722e-03 
1.000000000000e-01 -6.931783144525e-01 0.000000000000e+00 -2.380937520883e+02 -9.523750080607e+02 -2.380937520298e+02 0.000000000000e+00 -8.766279170604e-03 
1.000000000000e-01 -7.319023284412e-01 0.000000000000e+00 -2.380937521895e+02 -9.523750086715e+02 -2.380937521722e+02 0.000000000000e+00 -7.659885676263e-03 
1.000000000000e-01 -7.722376567817e-01 0.000000000000e+00 -2.380937523230e+02 -9.523750092102e+02 -2.380937523066e+02 0.000000000000e+00 -6.507454915643e-03 
1.000000000000e-01 -8.141871026671e-01 0.000000000000e+00 -2.380937524216e+02 -9.523750095918e+02 -2.380937524027e+02 0.000000000000e+00 -5.308906798097e-03 
1.000000000000e-01 -8.578764946731e-01 0.000000000000e+00 -2.380937524983e+02 -9.523750099002e+02 -2.380937524797e+02 0.000000000000e+00 -4.060646244006e-03 
1.000000000000e-01 -9.033674988086e-01 0.000000000000e+00 -2.380937525129e+02 -9.523750100877e+02 -2.380937525201e+02 0.000000000000e+00 -2.760911378480e-03 
1.000000000000e-01 -9.507169705327e-01 0.000000000000e+00 -2.380937524258e+02 -9.523750100014e+02 -2.380937524854e+02 0.000000000000e+00 -1.408077770167e-03 
0.000000000000e+00 -9.507169705327e-01 0.000000000000e+00 -2.380937525034e+02 -9.523750101914e+02 -2.380937525390e+02 0.000000000000e+00 -1.408077770136e-03 
0.000000000000e+00 -9.033674988086e-01 0.000000000000e+00 -2.380937524861e+02 -9.523750100419e+02 -2.380937525056e+02 0.000000000000e+00 -2.760911378516e-03 
0.000000000000e+00 -8.578764946731e-01 0.000000000000e+00 -2.380937524344e+02 -9.523750098312e+02 -2.380937524531e+02 0.000000000000e+00 -4.060646244015e-03 
0.000000000000e+00 -8.141871026671e-01 0.000000000000e+00 -2.380937523601e+02 -9.523750095344e+02 -2.380937523789e+02 0.000000000000e+00 -5.308906798096e-03 
0.000000000000e+00 -7.722376567817e-01 0.000000000000e+00 -2.380937522581e+02 -9.523750091319e+02 -2.380937522780e+02 0.000000000000e+00 -6.507454915641e-03 
0.000000000000e+00 -7.319023284412e-01 0.000000000000e+00 -2.380937521293e+02 -9.523750086468e+02 -2.380937521552e+02 0.000000000000e+00 -7.659885676297e-03 
0.000000000000e+00 -6.931783144525e-01 0.000000000000e+00 -2.380937519291e+02 -9.523750080489e+02 -2.380937519956e+02 0.000000000000e+00 -8.766279170736e-03 
0.000000000000e+00 -6.559765085227e-01 0.000000000000e+00 -2.380937515833e+02 -9.523750071539e+02 -2.380937517474e+02 0.000000000000e+00 -9.829181277012e-03 
0.000000000000e+00 -6.202541854239e-01 0.000000000000e+00 -2.380937512350e+02 -9.523750057008e+02 -2.380937513872e+02 0.000000000000e+00 -1.084981270798e-02 
0.000000000000e+00 -5.859254847404e-01 0.000000000000e+00 -2.380937510394e+02 -9.523750049972e+02 -2.380937512073e+02 0.000000000000e+00 -1.183062660284e-02 
0.000000000000e+00 -5.529651305953e-01 0.000000000000e+00 -2.380937509840e+02 -9.523750047985e+02 -2.380937511565e+02 0.000000000000e+00 -1.277234512622e-02 
0.000000000000e+00 -5.212997813718e-01 0.000000000000e+00 -2.380937509265e+02 -9.523750041721e+02 -2.380937510197e+02 0.000000000000e+00 -1.367706373956e-02 
0.000000000000e+00 -4.908798744802e-01 0.000000000000e+00 -2.380937507812e+02 -9.523750033915e+02 -2.380937508345e+02 0.000000000000e+00 -1.454619850786e-02 
0.000000000000e+00 -4.616595392039e-01 0.000000000000e+00 -2.380937506642e+02 -9.523750027714e+02 -2.380937506871e+02 0.000000000000e+00 -1.538106001487e-02 
0.000000000000e+00 -4.336013132129e-01 0.000000000000e+00 -2.380937505486e+02 -9.523750022737e+02 -2.380937505644e+02 0.000000000000e+00 -1.618271860636e-02 
0.000000000000e+00 -4.066333808964e-01 0.000000000000e+00 -2.380937504906e+02 -9.523750019955e+02 -2.380937504972e+02 0.000000000000e+00 -1.695322614430e-02 
5.004338622634e-02 -4.224088684799e-01 0.000000000000e+00 -2.380937504913e+02 -9.523750020662e+02 -2.380937505115e+02 2.986387633650e-14 -1.650250074367e-02 
5.008792076171e-02 -4.761562843354e-01 0.000000000000e+00 -2.380937507909e+02 -9.523750030959e+02 -2.380937507774e+02 3.662484640339e-14 -1.496686988428e-02 
5.006173506594e-02 -5.371347226804e-01 0.000000000000e+00 -2.380937511455e+02 -9.523750045124e+02 -2.380937511316e+02 1.647959237529e-13 -1.322463967072e-02 
5.005598078520e-02 -6.030075791828e-01 0.000000000000e+00 -2.380937515735e+02 -9.523750055398e+02 -2.380937514227e+02 4.492991872120e-13 -1.134256980939e-02 
5.008345235811e-02 -6.744505768430e-01 0.000000000000e+00 -2.380937519124e+02 -9.523750076650e+02 -2.380937519155e+02 1.265917527223e-13 -9.301354048249e-03 
5.006913214781e-02 -7.520111988761e-01 0.000000000000e+00 -2.380937522352e+02 -9.523750089317e+02 -2.380937522334e+02 2.092504111403e-14 -7.085350106563e-03 
5.005245558618e-02 -8.359504089462e-01 0.000000000000e+00 -2.380937524297e+02 -9.523750097262e+02 -2.380937524312e+02 2.140340419919e-14 -4.687101927273e-03 
6.944556402011e-02 -3.968201233631e-01 0.000000000000e+00 -2.380937504340e+02 -9.523750015664e+02 -2.380937504001e+02 1.126001775513e-13 -1.723360317893e-02 
6.938741587335e-02 -4.492665666015e-01 0.000000000000e+00 -2.380937506386e+02 -9.523750025382e+02 -2.380937506354e+02 1.636720676991e-14 -1.573514273436e-02 
5.007750042915e-02 -9.269884316941e-01 0.000000000000e+00 -2.380937525669e+02 -9.523750101180e+02 -2.380937525370e+02 -6.667755212575e-15 -2.086031792649e-03 
3.079310721189e-02 -4.492985454339e-01 0.000000000000e+00 -2.380937506409e+02 -9.523750025765e+02 -2.380937506435e+02 1.603927047310e-14 -1.573422905913e-02 
3.221669410502e-02 -5.066378347700e-01 0.000000000000e+00 -2.380937509218e+02 -9.523750038360e+02 -2.380937509516e+02 7.398312404575e-14 -1.409597388322e-02 
6.786784203733e-02 -5.066531442817e-01 0.000000000000e+00 -2.380937510056e+02 -9.523750038101e+02 -2.380937509632e+02 6.320517354595e-14 -1.409553647140e-02 
3.339642373282e-02 -5.700696953954e-01 0.000000000000e+00 -2.380937510523e+02 -9.523750050920e+02 -2.380937512289e+02 2.793790237000e-13 -1.228364632668e-02 
6.525807751313e-02 -6.387232377182e-01 0.000000000000e+00 -2.380937518460e+02 -9.523750067441e+02 -2.380937517180e+02 2.455954199894e-13 -1.032212879385e-02 
5.008827505125e-02 -9.806018183701e-01 0.000000000000e+00 -2.380937525665e+02 -9.523750099061e+02 -2.380937524945e+02 1.802678774865e-14 -5.542303024721e-04 
6.875407163887e-02 -5.693536686703e-01 0.000000000000e+00 -2.380937514907e+02 -9.523750051356e+02 -2.380937513253e+02 2.433489629328e-13 -1.230410410554e-02 
3.664624163484e-02 -7.132284082360e-01 0.000000000000e+00 -2.380937520809e+02 -9.523750083608e+02 -2.380937520883e+02 3.784183278181e-14 -8.193422923735e-03 
6.148490449038e-02 -7.939830735880e-01 0.000000000000e+00 -2.380937523624e+02 -9.523750094182e+02 -2.380937523561e+02 2.029308826941e-14 -5.886161169662e-03 
4.100384574845e-02 -8.814719130658e-01 0.000000000000e+00 -2.380937524944e+02 -9.523750099704e+02 -2.380937524929e+02 1.454010674067e-14 -3.386495639242e-03 
3.022970257450e-02 -6.380821728272e-01 0.000000000000e+00 -2.380937513959e+02 -9.523750066605e+02 -2.380937516113e+02 2.422842453197e-13 -1.034044481943e-02 
2.375340220851e-02 -4.221482437035e-01 0.000000000000e+00 -2.380937505275e+02 -9.523750021646e+02 -2.380937505384e+02 1.160606819884e-14 -1.650994711936e-02 
7.632731958147e-02 -4.221881213587e-01 0.000000000000e+00 -2.380937505003e+02 -9.523750019941e+02 -2.380937504989e+02 3.956244084330e-14 -1.650880776483e-02 
2.293783770176e-02 -4.762423539471e-01 0.000000000000e+00 -2.380937507386e+02 -9.523750030958e+02 -2.380937507669e+02 3.058587866056e-14 -1.496441076785e-02 
7.721888027343e-02 -4.761946882435e-01 0.000000000000e+00 -2.380937507884e+02 -9.523750030741e+02 -2.380937507725e+02 2.000501358406e-14 -1.496577263664e-02 
7.129547302367e-02 -7.125259253720e-01 0.000000000000e+00 -2.380937521106e+02 -9.523750083521e+02 -2.380937520925e+02 3.387471184055e-14 -8.213493737398e-03 
7.757437444143e-02 -5.370973525672e-01 0.000000000000e+00 -2.380937512439e+02 -9.523750045022e+02 -2.380937511492e+02 9.975664709660e-14 -1.322570738166e-02 
2.255445764899e-02 -5.371289046437e-01 0.000000000000e+00 -2.380937510038e+02 -9.523750045365e+02 -2.380937511080e+02 1.098221413541e-13 -1.322480589921e-02 
2.720299568724e-02 -7.931304852765e-01 0.000000000000e+00 -2.380937523311e+02 -9.523750093762e+02 -2.380937523415e+02 1.607229324748e-14 -5.910520683699e-03 
7.798696120885e-02 -6.030216482613e-01 0.000000000000e+00 -2.380937517752e+02 -9.523750058106e+02 -2.380937515172e+02 2.276931570213e-13 -1.134216783822e-02 
2.212749701135e-02 -6.030477024067e-01 0.000000000000e+00 -2.380937504935e+02 -9.523750048532e+02 -2.380937510693e+02 2.592438117328e-13 -1.134142343872e-02 
3.066487977987e-02 -3.967816778596e-01 0.000000000000e+00 -2.380937503482e+02 -9.523750017743e+02 -2.380937504245e+02 7.558055378510e-14 -1.723470161520e-02 
5.009415947708e-02 -3.711929596105e-01 0.000000000000e+00 -2.380937505090e+02 -9.523750021732e+02 -2.380937505364e+02 3.268471640709e-13 -1.796580328285e-02 
1.000000000000e-01 -3.807449903129e-01 0.000000000000e+00 -2.380937506349e+02 -9.523750017025e+02 -2.380937504675e+02 0.000000000000e+00 -1.769288982483e-02 
0.000000000000e+00 -3.807449903129e-01 0.000000000000e+00 -2.380937503658e+02 -9.523750022107e+02 -2.380937505153e+02 0.000000000000e+00 -1.769288982540e-02 
7.605350107748e-02 -3.708957544133e-01 0.000000000000e+00 -2.380937508391e+02 -9.523750021925e+02 -2.380937506063e+02 2.164154838168e-13 -1.797429480665e-02 
25  26  39  25
11  12  39  11
16  17  54  16
35  43  45  35
41  16  54  41
11  39  49  11
39  26  55  39
23  24  40  23
13  14  40  13
25  39  52  25
43  36  45  43
39  12  60  39
17  44  54  17
40  24  52  40
21  22  41  21
46  36  47  46
15  16  41  15
13  40  60  13
40  14  53  40
23  40  63  23
19  44  50  19
44  18  50  44
37  46  47  37
32  33  45  32
4  5  43  4
48  37  51  48
15  41  53  15
21  41  54  21
30  31  46  30
6  7  47  6
19  20  44  19
17  18  44  17
41  22  63  41
42  3  57  42
38  48  51  38
45  33  56  45
2  19  50  2
4  43  57  4
18  1  50  18
28  29  48  28
38  49  55  38
35  42  57  35
35  45  56  35
43  35  57  43
6  47  59  6
46  31  58  46
47  36  59  47
36  46  58  36
44  20  54  44
49  39  55  49
10  11  49  10
52  39  60  52
8  9  51  8
24  25  52  24
48  29  62  48
43  5  59  43
32  45  58  32
37  48  62  37
51  37  61  51
30  46  62  30
36  43  59  36
45  36  58  45
47  7  61  47
40  52  60  40
14  15  53  14
40  53  63  40
46  37  62  46
37  47  61  37
38  55  65  38
38  51  64  38
10  49  64  10
49  38  64  49
20  21  54  20
53  41  63  53
33  34  56  33
3  4  57  3
28  48  65  28
8  51  61  8
48  38  65  48
51  9  64  51
26  27  55  26
31  32  58  31
5  6  59  5
55  27  65  55
12  13  60  12
7  8  61  7
29  30  62  29
22  23  63  22
9  10  64  9
27  28  65  27
1  2  50  1
66  67  42  66
35  66  42  35
68  3  42  68
34  69  66  34
68  42  70  68
42  67  70  42
34  66  56  34
66  35  56  66
