VARIABLES  = "X","Y","Z", "STRESS_XX", "STRESS_YY", "STRESS_ZZ", "DISPLACEMENT_X1", "DISPLACEMENT_Y1"
ZONE T="0.000000000000e+00s", N=75, E=117, F=FEPOINT, ET=QUADRILATERAL
STRANDID=1, SOLUTIONTIME=0.000000000000e+00
0.000000000000e+00 0.000000000000e+00 0.000000000000e+00 0.000000000000e+00 0.000000000000e+00 0.000000000000e+00 0.000000000000e+00 0.000000000000e+00 
1.000000000000e-01 0.000000000000e+00 0.000000000000e+00 0.000000000000e+00 0.000000000000e+00 0.000000000000e+00 0.000000000000e+00 0.000000000000e+00 
1.111111111111e-02 0.000000000000e+00 0.000000000000e+00 0.000000000000e+00 0.000000000000e+00 0.000000000000e+00 0.000000000000e+00 0.000000000000e+00 
2.222222222222e-02 0.000000000000e+00 0.000000000000e+00 0.000000000000e+00 0.000000000000e+00 0.000000000000e+00 0.000000000000e+00 0.000000000000e+00 
3.333333333333e-02 0.000000000000e+00 0.000000000000e+00 0.000000000000e+00 0.000000000000e+00 0.000000000000e+00 0.000000000000e+00 0.000000000000e+00 
4.444444444444e-02 0.000000000000e+00 0.000000000000e+00 0.000000000000e+00 0.000000000000e+00 0.000000000000e+00 0.000000000000e+00 0.000000000000e+00 
5.555555555555e-02 0.000000000000e+00 0.000000000000e+00 0.000000000000e+00 0.000000000000e+00 0.000000000000e+00 0.000000000000e+00 0.000000000000e+00 
6.666666666666e-02 0.000000000000e+00 0.000000000000e+00 0.000000000000e+00 0.000000000000e+00 0.000000000000e+00 0.000000000000e+00 0.000000000000e+00 
7.777777777778e-02 0.000000000000e+00 0.000000000000e+00 0.000000000000e+00 0.000000000000e+00 0.000000000000e+00 0.000000000000e+00 0.000000000000e+00 
8.888888888889e-02 0.000000000000e+00 0.000000000000e+00 0.000000000000e+00 0.000000000000e+00 0.000000000000e+00 0.000000000000e+00 0.000000000000e+00 
1.000000000000e-01 -1.027078831439e-02 0.000000000000e+00 0.000000000000e+00 0.000000000000e+00 0.000000000000e+00 0.000000000000e+00 0.000000000000e+00 
1.000000000000e-01 -2.095579726046e-02 0.000000000000e+00 0.000000000000e+00 0.000000000000e+00 0.000000000000e+00 0.000000000000e+00 0.000000000000e+00 
1.000000000000e-01 -3.207786985738e-02 0.000000000000e+00 0.000000000000e+00 0.000000000000e+00 0.000000000000e+00 0.000000000000e+00 0.000000000000e+00 
0.000000000000e+00 -8.133192903590e-02 0.000000000000e+00 0.000000000000e+00 0.000000000000e+00 0.000000000000e+00 0.000000000000e+00 0.000000000000e+00 
0.000000000000e+00 -6.826783355915e-02 0.000000000000e+00 0.000000000000e+00 0.000000000000e+00 0.000000000000e+00 0.000000000000e+00 0.000000000000e+00 
0.000000000000e+00 -5.571534163644e-02 0.000000000000e+00 0.000000000000e+00 0.000000000000e+00 0.000000000000e+00 0.000000000000e+00 0.000000000000e+00 
0.000000000000e+00 -4.365795665274e-02 0.000000000000e+00 0.000000000000e+00 0.000000000000e+00 0.000000000000e+00 0.000000000000e+00 0.000000000000e+00 
0.000000000000e+00 -3.207786985738e-02 0.000000000000e+00 0.000000000000e+00 0.000000000000e+00 0.000000000000e+00 0.000000000000e+00 0.000000000000e+00 
0.000000000000e+00 -2.095579726046e-02 0.000000000000e+00 0.000000000000e+00 0.000000000000e+00 0.000000000000e+00 0.000000000000e+00 0.000000000000e+00 
0.000000000000e+00 -1.027078831439e-02 0.000000000000e+00 0.000000000000e+00 0.000000000000e+00 0.000000000000e+00 0.000000000000e+00 0.000000000000e+00 
5.004498772813e-02 -4.996206278841e-02 0.000000000000e+00 0.000000000000e+00 0.000000000000e+00 0.000000000000e+00 0.000000000000e+00 0.000000000000e+00 
7.225358222233e-02 -2.762721782684e-02 0.000000000000e+00 0.000000000000e+00 0.000000000000e+00 0.000000000000e+00 0.000000000000e+00 0.000000000000e+00 
2.775548582498e-02 -2.745540160687e-02 0.000000000000e+00 0.000000000000e+00 0.000000000000e+00 0.000000000000e+00 0.000000000000e+00 0.000000000000e+00 
3.144484460580e-02 -7.586712852882e-02 0.000000000000e+00 0.000000000000e+00 0.000000000000e+00 0.000000000000e+00 0.000000000000e+00 0.000000000000e+00 
5.002530677431e-02 -2.216144592127e-02 0.000000000000e+00 0.000000000000e+00 0.000000000000e+00 0.000000000000e+00 0.000000000000e+00 0.000000000000e+00 
2.456481525732e-02 -5.204499879856e-02 0.000000000000e+00 0.000000000000e+00 0.000000000000e+00 0.000000000000e+00 0.000000000000e+00 0.000000000000e+00 
8.415554875855e-02 -1.593261949054e-02 0.000000000000e+00 0.000000000000e+00 0.000000000000e+00 0.000000000000e+00 0.000000000000e+00 0.000000000000e+00 
1.584570179876e-02 -1.589435702197e-02 0.000000000000e+00 0.000000000000e+00 0.000000000000e+00 0.000000000000e+00 0.000000000000e+00 0.000000000000e+00 
5.002678796997e-02 -6.957908922559e-02 0.000000000000e+00 0.000000000000e+00 0.000000000000e+00 0.000000000000e+00 0.000000000000e+00 0.000000000000e+00 
6.357480821475e-02 -1.499016162324e-02 0.000000000000e+00 0.000000000000e+00 0.000000000000e+00 0.000000000000e+00 0.000000000000e+00 0.000000000000e+00 
3.653928432153e-02 -1.491811755562e-02 0.000000000000e+00 0.000000000000e+00 0.000000000000e+00 0.000000000000e+00 0.000000000000e+00 0.000000000000e+00 
4.156694993639e-02 -3.606774926499e-02 0.000000000000e+00 0.000000000000e+00 0.000000000000e+00 0.000000000000e+00 0.000000000000e+00 0.000000000000e+00 
8.454242557621e-02 -3.844635220127e-02 0.000000000000e+00 0.000000000000e+00 0.000000000000e+00 0.000000000000e+00 0.000000000000e+00 0.000000000000e+00 
1.557815204777e-02 -3.837711259674e-02 0.000000000000e+00 0.000000000000e+00 0.000000000000e+00 0.000000000000e+00 0.000000000000e+00 0.000000000000e+00 
5.839491143928e-02 -3.605583620800e-02 0.000000000000e+00 0.000000000000e+00 0.000000000000e+00 0.000000000000e+00 0.000000000000e+00 0.000000000000e+00 
1.693000682173e-02 -6.715456475858e-02 0.000000000000e+00 0.000000000000e+00 0.000000000000e+00 0.000000000000e+00 0.000000000000e+00 0.000000000000e+00 
1.698701460171e-02 -8.593339913784e-02 0.000000000000e+00 0.000000000000e+00 0.000000000000e+00 0.000000000000e+00 0.000000000000e+00 0.000000000000e+00 
3.802067276118e-02 -5.975942885331e-02 0.000000000000e+00 0.000000000000e+00 0.000000000000e+00 0.000000000000e+00 0.000000000000e+00 0.000000000000e+00 
5.005728778040e-02 -1.036531727070e-02 0.000000000000e+00 0.000000000000e+00 0.000000000000e+00 0.000000000000e+00 0.000000000000e+00 0.000000000000e+00 
7.049571814535e-02 -4.034466657971e-02 0.000000000000e+00 0.000000000000e+00 0.000000000000e+00 0.000000000000e+00 0.000000000000e+00 0.000000000000e+00 
2.941632652166e-02 -4.017271159170e-02 0.000000000000e+00 0.000000000000e+00 0.000000000000e+00 0.000000000000e+00 0.000000000000e+00 0.000000000000e+00 
8.897479783189e-02 -2.710999574393e-02 0.000000000000e+00 0.000000000000e+00 0.000000000000e+00 0.000000000000e+00 0.000000000000e+00 0.000000000000e+00 
1.113464613131e-02 -2.708126415819e-02 0.000000000000e+00 0.000000000000e+00 0.000000000000e+00 0.000000000000e+00 0.000000000000e+00 0.000000000000e+00 
2.597015323725e-02 -1.069324664278e-02 0.000000000000e+00 0.000000000000e+00 0.000000000000e+00 0.000000000000e+00 0.000000000000e+00 0.000000000000e+00 
7.408283873696e-02 -1.070827713528e-02 0.000000000000e+00 0.000000000000e+00 0.000000000000e+00 0.000000000000e+00 0.000000000000e+00 0.000000000000e+00 
1.181905148011e-02 -5.063704677617e-02 0.000000000000e+00 0.000000000000e+00 0.000000000000e+00 0.000000000000e+00 0.000000000000e+00 0.000000000000e+00 
3.837716410809e-02 -4.791954238685e-02 0.000000000000e+00 0.000000000000e+00 0.000000000000e+00 0.000000000000e+00 0.000000000000e+00 0.000000000000e+00 
3.962016499175e-02 -2.535813545822e-02 0.000000000000e+00 0.000000000000e+00 0.000000000000e+00 0.000000000000e+00 0.000000000000e+00 0.000000000000e+00 
6.040098105514e-02 -2.537942735538e-02 0.000000000000e+00 0.000000000000e+00 0.000000000000e+00 0.000000000000e+00 0.000000000000e+00 0.000000000000e+00 
6.163087269112e-02 -4.804641620450e-02 0.000000000000e+00 0.000000000000e+00 0.000000000000e+00 0.000000000000e+00 0.000000000000e+00 0.000000000000e+00 
9.069229804381e-02 -9.171850869289e-03 0.000000000000e+00 0.000000000000e+00 0.000000000000e+00 0.000000000000e+00 0.000000000000e+00 0.000000000000e+00 
9.354468020660e-03 -9.152635551513e-03 0.000000000000e+00 0.000000000000e+00 0.000000000000e+00 0.000000000000e+00 0.000000000000e+00 0.000000000000e+00 
2.804557775330e-02 -6.508329529637e-02 0.000000000000e+00 0.000000000000e+00 0.000000000000e+00 0.000000000000e+00 0.000000000000e+00 0.000000000000e+00 
1.044096559141e-02 -7.656376756274e-02 0.000000000000e+00 0.000000000000e+00 0.000000000000e+00 0.000000000000e+00 0.000000000000e+00 0.000000000000e+00 
6.112116579903e-02 -6.644401917176e-03 0.000000000000e+00 0.000000000000e+00 0.000000000000e+00 0.000000000000e+00 0.000000000000e+00 0.000000000000e+00 
3.895159902251e-02 -6.578247738084e-03 0.000000000000e+00 0.000000000000e+00 0.000000000000e+00 0.000000000000e+00 0.000000000000e+00 0.000000000000e+00 
1.789231550313e-02 -7.427897760453e-03 0.000000000000e+00 0.000000000000e+00 0.000000000000e+00 0.000000000000e+00 0.000000000000e+00 0.000000000000e+00 
4.997781314446e-02 -3.165806160767e-02 0.000000000000e+00 0.000000000000e+00 0.000000000000e+00 0.000000000000e+00 0.000000000000e+00 0.000000000000e+00 
8.218065868343e-02 -7.482707021761e-03 0.000000000000e+00 0.000000000000e+00 0.000000000000e+00 0.000000000000e+00 0.000000000000e+00 0.000000000000e+00 
7.593146034688e-02 -1.946650689593e-02 0.000000000000e+00 0.000000000000e+00 0.000000000000e+00 0.000000000000e+00 0.000000000000e+00 0.000000000000e+00 
9.097483185567e-03 -6.052866285240e-02 0.000000000000e+00 0.000000000000e+00 0.000000000000e+00 0.000000000000e+00 0.000000000000e+00 0.000000000000e+00 
2.403235587872e-02 -1.937579604224e-02 0.000000000000e+00 0.000000000000e+00 0.000000000000e+00 0.000000000000e+00 0.000000000000e+00 0.000000000000e+00 
5.204798323580e-02 -5.977244273485e-02 0.000000000000e+00 0.000000000000e+00 0.000000000000e+00 0.000000000000e+00 0.000000000000e+00 0.000000000000e+00 
3.977027004405e-02 -6.986979884634e-02 0.000000000000e+00 0.000000000000e+00 0.000000000000e+00 0.000000000000e+00 0.000000000000e+00 0.000000000000e+00 
1.000000000000e-01 -4.365795665274e-02 0.000000000000e+00 0.000000000000e+00 0.000000000000e+00 0.000000000000e+00 0.000000000000e+00 0.000000000000e+00 
0.000000000000e+00 -9.493635849425e-02 0.000000000000e+00 0.000000000000e+00 0.000000000000e+00 0.000000000000e+00 0.000000000000e+00 0.000000000000e+00 
7.556622015059e-02 -5.213930935979e-02 0.000000000000e+00 0.000000000000e+00 0.000000000000e+00 0.000000000000e+00 0.000000000000e+00 0.000000000000e+00 
8.827644021441e-02 -5.068271212769e-02 0.000000000000e+00 0.000000000000e+00 0.000000000000e+00 0.000000000000e+00 0.000000000000e+00 0.000000000000e+00 
1.125853509499e-02 -1.018913627337e-01 0.000000000000e+00 0.000000000000e+00 0.000000000000e+00 0.000000000000e+00 0.000000000000e+00 0.000000000000e+00 
3.176003359910e-02 -8.986364252605e-02 0.000000000000e+00 0.000000000000e+00 0.000000000000e+00 0.000000000000e+00 0.000000000000e+00 0.000000000000e+00 
2.453145878902e-02 -1.018531985808e-01 0.000000000000e+00 0.000000000000e+00 0.000000000000e+00 0.000000000000e+00 0.000000000000e+00 0.000000000000e+00 
6.206074805899e-02 -5.978173210899e-02 0.000000000000e+00 0.000000000000e+00 0.000000000000e+00 0.000000000000e+00 0.000000000000e+00 0.000000000000e+00 
4.512057632941e-02 -8.568062374441e-02 0.000000000000e+00 0.000000000000e+00 0.000000000000e+00 0.000000000000e+00 0.000000000000e+00 0.000000000000e+00 
5.675176755435e-02 -8.029564380893e-02 0.000000000000e+00 0.000000000000e+00 0.000000000000e+00 0.000000000000e+00 0.000000000000e+00 0.000000000000e+00 
6.027993180190e-02 -6.988363285687e-02 0.000000000000e+00 0.000000000000e+00 0.000000000000e+00 0.000000000000e+00 0.000000000000e+00 0.000000000000e+00 
33  22  42  33
23  34  43  23
21  32  58  21
35  21  58  35
36  24  37  36
12  27  51  12
28  19  52  28
27  12  42  27
19  28  43  19
17  18  34  17
36  37  54  36
42  22  60  42
30  25  39  30
25  31  39  25
23  43  62  23
22  33  40  22
34  23  41  34
13  33  42  13
34  18  43  34
26  36  61  26
23  32  41  23
35  22  40  35
46  26  61  46
32  23  48  32
26  34  41  26
22  35  49  22
17  34  46  17
25  30  49  25
11  12  51  11
31  25  48  31
19  20  52  19
31  23  62  31
30  22  49  30
22  30  60  22
23  31  48  23
34  26  46  34
32  21  47  32
21  35  50  21
27  42  60  27
43  28  62  43
44  5  56  44
8  45  55  8
36  26  53  36
30  39  55  30
39  31  56  39
4  5  44  4
8  9  45  8
38  26  47  38
37  14  54  37
24  36  53  24
10  2  51  10
31  44  56  31
45  30  55  45
6  7  39  6
1  3  52  1
26  38  53  26
2  11  51  2
38  21  63  38
20  1  52  20
21  38  47  21
54  15  61  54
26  41  47  26
36  54  61  36
44  31  62  44
29  38  63  29
12  13  42  12
18  19  43  18
30  45  60  30
38  29  64  38
21  50  63  21
16  17  46  16
6  39  56  6
39  7  55  39
35  40  50  35
41  32  47  41
3  4  57  3
9  10  59  9
25  49  58  25
48  25  58  48
49  35  58  49
32  48  58  32
5  6  56  5
14  15  54  14
7  8  55  7
4  44  57  4
45  9  59  45
44  28  57  44
28  44  62  28
45  27  60  45
27  45  59  27
16  46  61  16
15  16  61  15
10  51  59  10
52  3  57  52
53  38  64  53
24  53  64  24
28  52  57  28
51  27  59  51
13  65  33  13
66  14  37  66
33  67  40  33
33  65  68  33
66  37  69  66
67  33  68  67
37  24  70  37
37  71  69  37
67  72  50  67
29  73  64  29
73  24  64  73
71  37  70  71
24  73  70  24
73  29  74  73
40  67  50  40
50  72  63  50
63  72  75  63
29  63  75  29
74  29  75  74
VARIABLES  = "X","Y","Z", "STRESS_XX", "STRESS_YY", "STRESS_ZZ", "DISPLACEMENT_X1", "DISPLACEMENT_Y1"
ZONE T="1.000000000000e+01s", N=75, E=117, F=FEPOINT, ET=QUADRILATERAL
STRANDID=1, SOLUTIONTIME=1.000000000000e+01
0.000000000000e+00 0.000000000000e+00 0.000000000000e+00 -2.499454878935e+02 -9.997637404655e+02 -2.499418456718e+02 0.000000000000e+00 -2.863478469474e-02 
1.000000000000e-01 0.000000000000e+00 0.000000000000e+00 -2.497971730617e+02 -9.991680459191e+02 -2.497930437962e+02 0.000000000000e+00 -2.863478412041e-02 
1.111111111111e-02 0.000000000000e+00 0.000000000000e+00 -2.499233827391e+02 -9.997122062495e+02 -2.499271177977e+02 -6.035394250475e-11 -2.863478310159e-02 
2.222222222222e-02 0.000000000000e+00 0.000000000000e+00 -2.498248490643e+02 -9.992987300960e+02 -2.498247158321e+02 1.336558672660e-09 -2.863478402956e-02 
3.333333333333e-02 0.000000000000e+00 0.000000000000e+00 -2.499367170313e+02 -9.997449846019e+02 -2.499363403266e+02 4.067202169522e-10 -2.863478463725e-02 
4.444444444444e-02 0.000000000000e+00 0.000000000000e+00 -2.498390199875e+02 -9.993440883827e+02 -2.498366216741e+02 6.357918692903e-10 -2.863478538245e-02 
5.555555555555e-02 0.000000000000e+00 0.000000000000e+00 -2.499377931629e+02 -9.997427232869e+02 -2.499361032900e+02 -1.493572854845e-09 -2.863478516430e-02 
6.666666666666e-02 0.000000000000e+00 0.000000000000e+00 -2.498314023729e+02 -9.993283491539e+02 -2.498319503054e+02 -9.995478053260e-10 -2.863478409719e-02 
7.777777777778e-02 0.000000000000e+00 0.000000000000e+00 -2.499269555453e+02 -9.997100654680e+02 -2.499274042027e+02 -1.633771847612e-09 -2.863478343178e-02 
8.888888888889e-02 0.000000000000e+00 0.000000000000e+00 -2.498337446396e+02 -9.993548882558e+02 -2.498377265791e+02 -6.801108175637e-11 -2.863478252651e-02 
1.000000000000e-01 -1.027078831439e-02 0.000000000000e+00 -2.480886624699e+02 -9.923303249118e+02 -2.480837974763e+02 0.000000000000e+00 -2.832776115381e-02 
1.000000000000e-01 -2.095579726046e-02 0.000000000000e+00 -2.463893898853e+02 -9.855762508252e+02 -2.463931281421e+02 0.000000000000e+00 -2.801064684610e-02 
1.000000000000e-01 -3.207786985738e-02 0.000000000000e+00 -2.446097455962e+02 -9.784568639199e+02 -2.446133219032e+02 0.000000000000e+00 -2.768290373084e-02 
0.000000000000e+00 -8.133192903590e-02 0.000000000000e+00 -2.398906975288e+02 -9.594769513255e+02 -2.398735297708e+02 0.000000000000e+00 -2.625311423792e-02 
0.000000000000e+00 -6.826783355915e-02 0.000000000000e+00 -2.407744964219e+02 -9.631413022098e+02 -2.407831597263e+02 0.000000000000e+00 -2.662974613393e-02 
0.000000000000e+00 -5.571534163644e-02 0.000000000000e+00 -2.418755245244e+02 -9.674473763647e+02 -2.418645801778e+02 0.000000000000e+00 -2.699311483308e-02 
0.000000000000e+00 -4.365795665274e-02 0.000000000000e+00 -2.432196256261e+02 -9.729032415829e+02 -2.432245734418e+02 0.000000000000e+00 -2.734393643540e-02 
0.000000000000e+00 -3.207786985738e-02 0.000000000000e+00 -2.448435456346e+02 -9.793877557034e+02 -2.448462602676e+02 0.000000000000e+00 -2.768290353806e-02 
0.000000000000e+00 -2.095579726046e-02 0.000000000000e+00 -2.465353782980e+02 -9.861601173350e+02 -2.465390991266e+02 0.000000000000e+00 -2.801064708234e-02 
0.000000000000e+00 -1.027078831439e-02 0.000000000000e+00 -2.483876731364e+02 -9.935241547282e+02 -2.483823655729e+02 0.000000000000e+00 -2.832776164658e-02 
5.004498772813e-02 -4.996206278841e-02 0.000000000000e+00 -2.424521985241e+02 -9.697592226944e+02 -2.424422842437e+02 1.281367854331e-09 -2.716025209636e-02 
7.225358222233e-02 -2.762721782684e-02 0.000000000000e+00 -2.453682428563e+02 -9.814778569245e+02 -2.453692199562e+02 -5.440989939084e-09 -2.781378762345e-02 
2.775548582498e-02 -2.745540160687e-02 0.000000000000e+00 -2.453970754994e+02 -9.815879405999e+02 -2.453970032199e+02 5.400506836818e-09 -2.781884761428e-02 
3.144484460580e-02 -7.586712852882e-02 0.000000000000e+00 -2.401513644846e+02 -9.606463321345e+02 -2.401595393238e+02 -1.156663594150e-09 -2.641050297292e-02 
5.002530677431e-02 -2.216144592127e-02 0.000000000000e+00 -2.462319844827e+02 -9.849291770020e+02 -2.462322322969e+02 -3.995425073622e-10 -2.797501485960e-02 
2.456481525732e-02 -5.204499879856e-02 0.000000000000e+00 -2.421590981556e+02 -9.686451453317e+02 -2.421608486975e+02 1.660130048191e-09 -2.709969768177e-02 
8.415554875855e-02 -1.593261949054e-02 0.000000000000e+00 -2.472289928292e+02 -9.889148576348e+02 -2.472287700928e+02 -6.539760598495e-10 -2.815944436276e-02 
1.584570179876e-02 -1.589435702197e-02 0.000000000000e+00 -2.473170052353e+02 -9.892674783315e+02 -2.473168967134e+02 5.662723070793e-10 -2.816058013745e-02 
5.002678796997e-02 -6.957908922559e-02 0.000000000000e+00 -2.405870889279e+02 -9.623850266960e+02 -2.405944231248e+02 -1.520392121005e-09 -2.659187857794e-02 
6.357480821475e-02 -1.499016162324e-02 0.000000000000e+00 -2.474041380454e+02 -9.896073879108e+02 -2.474023051912e+02 -1.443172908548e-09 -2.818742128679e-02 
3.653928432153e-02 -1.491811755562e-02 0.000000000000e+00 -2.473989086490e+02 -9.895826230699e+02 -2.473963063438e+02 9.848109887634e-10 -2.818956078135e-02 
4.156694993639e-02 -3.606774926499e-02 0.000000000000e+00 -2.441795221826e+02 -9.767080620565e+02 -2.441775168478e+02 4.731960950823e-09 -2.756587173486e-02 
8.454242557621e-02 -3.844635220127e-02 0.000000000000e+00 -2.437665473578e+02 -9.751176015737e+02 -2.437768297863e+02 -4.955336715302e-09 -2.749622160216e-02 
1.557815204777e-02 -3.837711259674e-02 0.000000000000e+00 -2.438495834472e+02 -9.754530450810e+02 -2.438605257056e+02 5.168185645815e-09 -2.749824710727e-02 
5.839491143928e-02 -3.605583620800e-02 0.000000000000e+00 -2.441188025834e+02 -9.764682927753e+02 -2.441174190717e+02 -5.419755381227e-09 -2.756622105576e-02 
1.693000682173e-02 -6.715456475858e-02 0.000000000000e+00 -2.407216584779e+02 -9.629079665835e+02 -2.407259250123e+02 -1.001462095756e-09 -2.666190876708e-02 
1.698701460171e-02 -8.593339913784e-02 0.000000000000e+00 -2.395434377555e+02 -9.581861410297e+02 -2.395459157570e+02 3.132057541923e-09 -2.612075589283e-02 
3.802067276118e-02 -5.975942885331e-02 0.000000000000e+00 -2.414060245891e+02 -9.656316698162e+02 -2.414075388810e+02 2.776853622374e-10 -2.687585137076e-02 
5.005728778040e-02 -1.036531727070e-02 0.000000000000e+00 -2.482338555347e+02 -9.929024672696e+02 -2.482272645608e+02 -3.675212523296e-10 -2.832495028472e-02 
7.049571814535e-02 -4.034466657971e-02 0.000000000000e+00 -2.434818141277e+02 -9.739280409308e+02 -2.434819710117e+02 -5.667336377260e-09 -2.744069989932e-02 
2.941632652166e-02 -4.017271159170e-02 0.000000000000e+00 -2.436397632806e+02 -9.745532532598e+02 -2.436386033081e+02 6.075156977527e-09 -2.744572582113e-02 
8.897479783189e-02 -2.710999574393e-02 0.000000000000e+00 -2.454343536685e+02 -9.817524896802e+02 -2.454373686697e+02 -2.860170035155e-09 -2.782901443229e-02 
1.113464613131e-02 -2.708126415819e-02 0.000000000000e+00 -2.455440664761e+02 -9.821887928363e+02 -2.455465718625e+02 2.954541179301e-09 -2.782986077739e-02 
2.597015323725e-02 -1.069324664278e-02 0.000000000000e+00 -2.481346627364e+02 -9.925420506314e+02 -2.481353426736e+02 7.651576923030e-10 -2.831518126870e-02 
7.408283873696e-02 -1.070827713528e-02 0.000000000000e+00 -2.481308832793e+02 -9.925288371076e+02 -2.481319440774e+02 -1.047047932178e-09 -2.831473314394e-02 
1.181905148011e-02 -5.063704677617e-02 0.000000000000e+00 -2.423057439796e+02 -9.692546378514e+02 -2.423120763662e+02 2.197250930772e-09 -2.714063204202e-02 
3.837716410809e-02 -4.791954238685e-02 0.000000000000e+00 -2.426608502424e+02 -9.705841934902e+02 -2.426490087465e+02 5.458416432859e-09 -2.721970497483e-02 
3.962016499175e-02 -2.535813545822e-02 0.000000000000e+00 -2.457861505172e+02 -9.830662359245e+02 -2.457704772883e+02 1.199921835591e-09 -2.788065435030e-02 
6.040098105514e-02 -2.537942735538e-02 0.000000000000e+00 -2.456417388989e+02 -9.824990136743e+02 -2.456281505146e+02 -1.756874041952e-09 -2.788002621032e-02 
6.163087269112e-02 -4.804641620450e-02 0.000000000000e+00 -2.425830441384e+02 -9.702555991642e+02 -2.425677286605e+02 -5.426370993907e-09 -2.721601352300e-02 
9.069229804381e-02 -9.171850869289e-03 0.000000000000e+00 -2.483277116602e+02 -9.933352927869e+02 -2.483326008894e+02 3.241085101364e-10 -2.836050616532e-02 
9.354468020660e-03 -9.152635551513e-03 0.000000000000e+00 -2.484833366570e+02 -9.939590737650e+02 -2.484884820844e+02 -4.071349721313e-10 -2.836107948311e-02 
2.804557775330e-02 -6.508329529637e-02 0.000000000000e+00 -2.409740061609e+02 -9.638629264446e+02 -2.409673865211e+02 -2.744681870856e-09 -2.672177366326e-02 
1.044096559141e-02 -7.656376756274e-02 0.000000000000e+00 -2.401368864348e+02 -9.605884428420e+02 -2.401450658554e+02 -2.730599434126e-10 -2.639041647499e-02 
6.112116579903e-02 -6.644401917176e-03 0.000000000000e+00 -2.488387117881e+02 -9.953594213383e+02 -2.488396266253e+02 -1.218446286348e-09 -2.843591469899e-02 
3.895159902251e-02 -6.578247738084e-03 0.000000000000e+00 -2.488506922195e+02 -9.954054547351e+02 -2.488512293909e+02 6.046733872085e-10 -2.843789061358e-02 
1.789231550313e-02 -7.427897760453e-03 0.000000000000e+00 -2.487054318032e+02 -9.948174317125e+02 -2.487045727031e+02 5.563860771161e-10 -2.841252358634e-02 
4.997781314446e-02 -3.165806160767e-02 0.000000000000e+00 -2.447803174576e+02 -9.790662327352e+02 -2.447693100386e+02 -3.678281920388e-10 -2.769524427045e-02 
8.218065868343e-02 -7.482707021761e-03 0.000000000000e+00 -2.486954813984e+02 -9.947791613595e+02 -2.486949285516e+02 -7.511576086617e-10 -2.841088725037e-02 
7.593146034688e-02 -1.946650689593e-02 0.000000000000e+00 -2.466614336209e+02 -9.866926566814e+02 -2.466708180604e+02 -2.587312977753e-09 -2.805471428605e-02 
9.097483185567e-03 -6.052866285240e-02 0.000000000000e+00 -2.413269169920e+02 -9.653083279199e+02 -2.413270489824e+02 -1.484094093409e-09 -2.685358136961e-02 
2.403235587872e-02 -1.937579604224e-02 0.000000000000e+00 -2.466771807232e+02 -9.867530900913e+02 -2.466860541629e+02 2.417705091137e-09 -2.805739992340e-02 
5.204798323580e-02 -5.977244273485e-02 0.000000000000e+00 -2.413917308347e+02 -9.656014624162e+02 -2.413986386502e+02 3.302754817134e-09 -2.687547339655e-02 
3.977027004405e-02 -6.986979884634e-02 0.000000000000e+00 -2.405612533597e+02 -9.622325665254e+02 -2.405587639770e+02 -2.599090241856e-10 -2.658348775104e-02 
1.000000000000e-01 -4.365795665274e-02 0.000000000000e+00 -2.430510069143e+02 -9.722251282751e+02 -2.430552270379e+02 0.000000000000e+00 -2.734393684584e-02 
0.000000000000e+00 -9.493635849425e-02 0.000000000000e+00 -2.392236124158e+02 -9.568936609736e+02 -2.392234546779e+02 0.000000000000e+00 -2.586214333893e-02 
7.556622015059e-02 -5.213930935979e-02 0.000000000000e+00 -2.421554411201e+02 -9.686570382706e+02 -2.421624958781e+02 -2.322549018858e-09 -2.709695817808e-02 
8.827644021441e-02 -5.068271212769e-02 0.000000000000e+00 -2.423676303486e+02 -9.694836690502e+02 -2.423702598797e+02 -2.429211174647e-09 -2.713930444074e-02 
1.125853509499e-02 -1.018913627337e-01 0.000000000000e+00 -2.389177274666e+02 -9.556732462079e+02 -2.389181947349e+02 2.586283935508e-09 -2.566262355431e-02 
3.176003359910e-02 -8.986364252605e-02 0.000000000000e+00 -2.394213287185e+02 -9.576013212746e+02 -2.394045299986e+02 7.808095679747e-10 -2.600780568618e-02 
2.453145878902e-02 -1.018531985808e-01 0.000000000000e+00 -2.389476031884e+02 -9.557939703174e+02 -2.389483147012e+02 6.171044265958e-10 -2.566371748960e-02 
6.206074805899e-02 -5.978173210899e-02 0.000000000000e+00 -2.413805124064e+02 -9.654377591188e+02 -2.413636543050e+02 2.719364524672e-11 -2.687520408205e-02 
4.512057632941e-02 -8.568062374441e-02 0.000000000000e+00 -2.396221916303e+02 -9.584443488472e+02 -2.396133080955e+02 -2.007916894597e-09 -2.612802769399e-02 
5.675176755435e-02 -8.029564380893e-02 0.000000000000e+00 -2.399555375088e+02 -9.599114349582e+02 -2.399733944934e+02 -9.672184639688e-10 -2.628294625761e-02 
6.027993180190e-02 -6.988363285687e-02 0.000000000000e+00 -2.406045118959e+02 -9.623988549949e+02 -2.406006733782e+02 1.063654204524e-09 -2.658308098313e-02 
33  22  42  33
23  34  43  23
21  32  58  21
35  21  58  35
36  24  37  36
12  27  51  12
28  19  52  28
27  12  42  27
19  28  43  19
17  18  34  17
36  37  54  36
42  22  60  42
30  25  39  30
25  31  39  25
23  43  62  23
22  33  40  22
34  23  41  34
13  33  42  13
34  18  43  34
26  36  61  26
23  32  41  23
35  22  40  35
46  26  61  46
32  23  48  32
26  34  41  26
22  35  49  22
17  34  46  17
25  30  49  25
11  12  51  11
31  25  48  31
19  20  52  19
31  23  62  31
30  22  49  30
22  30  60  22
23  31  48  23
34  26  46  34
32  21  47  32
21  35  50  21
27  42  60  27
43  28  62  43
44  5  56  44
8  45  55  8
36  26  53  36
30  39  55  30
39  31  56  39
4  5  44  4
8  9  45  8
38  26  47  38
37  14  54  37
24  36  53  24
10  2  51  10
31  44  56  31
45  30  55  45
6  7  39  6
1  3  52  1
26  38  53  26
2  11  51  2
38  21  63  38
20  1  52  20
21  38  47  21
54  15  61  54
26  41  47  26
36  54  61  36
44  31  62  44
29  38  63  29
12  13  42  12
18  19  43  18
30  45  60  30
38  29  64  38
21  50  63  21
16  17  46  16
6  39  56  6
39  7  55  39
35  40  50  35
41  32  47  41
3  4  57  3
9  10  59  9
25  49  58  25
48  25  58  48
49  35  58  49
32  48  58  32
5  6  56  5
14  15  54  14
7  8  55  7
4  44  57  4
45  9  59  45
44  28  57  44
28  44  62  28
45  27  60  45
27  45  59  27
16  46  61  16
15  16  61  15
10  51  59  10
52  3  57  52
53  38  64  53
24  53  64  24
28  52  57  28
51  27  59  51
13  65  33  13
66  14  37  66
33  67  40  33
33  65  68  33
66  37  69  66
67  33  68  67
37  24  70  37
37  71  69  37
67  72  50  67
29  73  64  29
73  24  64  73
71  37  70  71
24  73  70  24
73  29  74  73
40  67  50  40
50  72  63  50
63  72  75  63
29  63  75  29
74  29  75  74
