VARIABLES  = "X","Y","Z", "STRESS_XX", "STRESS_YY", "STRESS_ZZ", "DISPLACEMENT_X1", "DISPLACEMENT_Y1"
ZONE T="0.000000000000e+00s", N=74, E=114, F=FEPOINT, ET=QUADRILATERAL
STRANDID=1, SOLUTIONTIME=0.000000000000e+00
1.000000000000e-01 -1.717986916992e-01 0.000000000000e+00 0.000000000000e+00 0.000000000000e+00 0.000000000000e+00 0.000000000000e+00 0.000000000000e+00 
1.000000000000e-01 -1.891202423411e-01 0.000000000000e+00 0.000000000000e+00 0.000000000000e+00 0.000000000000e+00 0.000000000000e+00 0.000000000000e+00 
1.000000000000e-01 -2.071452132758e-01 0.000000000000e+00 0.000000000000e+00 0.000000000000e+00 0.000000000000e+00 0.000000000000e+00 0.000000000000e+00 
1.000000000000e-01 -2.259159003327e-01 0.000000000000e+00 0.000000000000e+00 0.000000000000e+00 0.000000000000e+00 0.000000000000e+00 0.000000000000e+00 
1.000000000000e-01 -2.454553372135e-01 0.000000000000e+00 0.000000000000e+00 0.000000000000e+00 0.000000000000e+00 0.000000000000e+00 0.000000000000e+00 
1.000000000000e-01 -2.657958002743e-01 0.000000000000e+00 0.000000000000e+00 0.000000000000e+00 0.000000000000e+00 0.000000000000e+00 0.000000000000e+00 
1.000000000000e-01 -2.869820737070e-01 0.000000000000e+00 0.000000000000e+00 0.000000000000e+00 0.000000000000e+00 0.000000000000e+00 0.000000000000e+00 
1.000000000000e-01 -3.090302591577e-01 0.000000000000e+00 0.000000000000e+00 0.000000000000e+00 0.000000000000e+00 0.000000000000e+00 0.000000000000e+00 
1.000000000000e-01 -3.319808966566e-01 0.000000000000e+00 0.000000000000e+00 0.000000000000e+00 0.000000000000e+00 0.000000000000e+00 0.000000000000e+00 
1.000000000000e-01 -3.558736196309e-01 0.000000000000e+00 0.000000000000e+00 0.000000000000e+00 0.000000000000e+00 0.000000000000e+00 0.000000000000e+00 
1.000000000000e-01 -3.807449903129e-01 0.000000000000e+00 0.000000000000e+00 0.000000000000e+00 0.000000000000e+00 0.000000000000e+00 0.000000000000e+00 
0.000000000000e+00 -3.807449903129e-01 0.000000000000e+00 0.000000000000e+00 0.000000000000e+00 0.000000000000e+00 0.000000000000e+00 0.000000000000e+00 
0.000000000000e+00 -3.558736196309e-01 0.000000000000e+00 0.000000000000e+00 0.000000000000e+00 0.000000000000e+00 0.000000000000e+00 0.000000000000e+00 
0.000000000000e+00 -3.319808966566e-01 0.000000000000e+00 0.000000000000e+00 0.000000000000e+00 0.000000000000e+00 0.000000000000e+00 0.000000000000e+00 
0.000000000000e+00 -3.090302591577e-01 0.000000000000e+00 0.000000000000e+00 0.000000000000e+00 0.000000000000e+00 0.000000000000e+00 0.000000000000e+00 
0.000000000000e+00 -2.869820737070e-01 0.000000000000e+00 0.000000000000e+00 0.000000000000e+00 0.000000000000e+00 0.000000000000e+00 0.000000000000e+00 
0.000000000000e+00 -2.657958002743e-01 0.000000000000e+00 0.000000000000e+00 0.000000000000e+00 0.000000000000e+00 0.000000000000e+00 0.000000000000e+00 
0.000000000000e+00 -2.454553372135e-01 0.000000000000e+00 0.000000000000e+00 0.000000000000e+00 0.000000000000e+00 0.000000000000e+00 0.000000000000e+00 
0.000000000000e+00 -2.259159003327e-01 0.000000000000e+00 0.000000000000e+00 0.000000000000e+00 0.000000000000e+00 0.000000000000e+00 0.000000000000e+00 
0.000000000000e+00 -2.071452132758e-01 0.000000000000e+00 0.000000000000e+00 0.000000000000e+00 0.000000000000e+00 0.000000000000e+00 0.000000000000e+00 
5.004842734123e-02 -2.021418171447e-01 0.000000000000e+00 0.000000000000e+00 0.000000000000e+00 0.000000000000e+00 0.000000000000e+00 0.000000000000e+00 
5.005908986205e-02 -2.553771826632e-01 0.000000000000e+00 0.000000000000e+00 0.000000000000e+00 0.000000000000e+00 0.000000000000e+00 0.000000000000e+00 
5.008292036290e-02 -3.203087963123e-01 0.000000000000e+00 0.000000000000e+00 0.000000000000e+00 0.000000000000e+00 0.000000000000e+00 0.000000000000e+00 
5.009415947708e-02 -3.711929596105e-01 0.000000000000e+00 0.000000000000e+00 0.000000000000e+00 0.000000000000e+00 0.000000000000e+00 0.000000000000e+00 
6.904394191688e-02 -1.770178073307e-01 0.000000000000e+00 0.000000000000e+00 0.000000000000e+00 0.000000000000e+00 0.000000000000e+00 0.000000000000e+00 
6.807698165746e-02 -2.287558900294e-01 0.000000000000e+00 0.000000000000e+00 0.000000000000e+00 0.000000000000e+00 0.000000000000e+00 0.000000000000e+00 
3.206062782805e-02 -2.287631037513e-01 0.000000000000e+00 0.000000000000e+00 0.000000000000e+00 0.000000000000e+00 0.000000000000e+00 0.000000000000e+00 
3.557354364095e-02 -2.878483101898e-01 0.000000000000e+00 0.000000000000e+00 0.000000000000e+00 0.000000000000e+00 0.000000000000e+00 0.000000000000e+00 
6.776223739581e-02 -2.827412570156e-01 0.000000000000e+00 0.000000000000e+00 0.000000000000e+00 0.000000000000e+00 0.000000000000e+00 0.000000000000e+00 
7.535103115493e-02 -2.015293853660e-01 0.000000000000e+00 0.000000000000e+00 0.000000000000e+00 0.000000000000e+00 0.000000000000e+00 0.000000000000e+00 
2.474920969922e-02 -2.015432236000e-01 0.000000000000e+00 0.000000000000e+00 0.000000000000e+00 0.000000000000e+00 0.000000000000e+00 0.000000000000e+00 
3.050691695726e-02 -3.457552030811e-01 0.000000000000e+00 0.000000000000e+00 0.000000000000e+00 0.000000000000e+00 0.000000000000e+00 0.000000000000e+00 
6.961191317484e-02 -3.457465657077e-01 0.000000000000e+00 0.000000000000e+00 0.000000000000e+00 0.000000000000e+00 0.000000000000e+00 0.000000000000e+00 
2.403213634881e-02 -2.555147969150e-01 0.000000000000e+00 0.000000000000e+00 0.000000000000e+00 0.000000000000e+00 0.000000000000e+00 0.000000000000e+00 
7.607779023971e-02 -2.554704032576e-01 0.000000000000e+00 0.000000000000e+00 0.000000000000e+00 0.000000000000e+00 0.000000000000e+00 0.000000000000e+00 
3.066487977987e-02 -3.967816778596e-01 0.000000000000e+00 0.000000000000e+00 0.000000000000e+00 0.000000000000e+00 0.000000000000e+00 0.000000000000e+00 
7.369529764403e-02 -3.084770811070e-01 0.000000000000e+00 0.000000000000e+00 0.000000000000e+00 0.000000000000e+00 0.000000000000e+00 0.000000000000e+00 
2.378951418650e-02 -3.203343384072e-01 0.000000000000e+00 0.000000000000e+00 0.000000000000e+00 0.000000000000e+00 0.000000000000e+00 0.000000000000e+00 
7.605350107748e-02 -3.708957544133e-01 0.000000000000e+00 0.000000000000e+00 0.000000000000e+00 0.000000000000e+00 0.000000000000e+00 0.000000000000e+00 
2.414696816088e-02 -3.709124382382e-01 0.000000000000e+00 0.000000000000e+00 0.000000000000e+00 0.000000000000e+00 0.000000000000e+00 0.000000000000e+00 
5.006735922148e-02 -2.215423617712e-01 0.000000000000e+00 0.000000000000e+00 0.000000000000e+00 0.000000000000e+00 0.000000000000e+00 0.000000000000e+00 
1.850317579946e-02 -2.757149546133e-01 0.000000000000e+00 0.000000000000e+00 0.000000000000e+00 0.000000000000e+00 0.000000000000e+00 0.000000000000e+00 
8.327052267209e-02 -2.182301684835e-01 0.000000000000e+00 0.000000000000e+00 0.000000000000e+00 0.000000000000e+00 0.000000000000e+00 0.000000000000e+00 
1.689528006222e-02 -2.182447195749e-01 0.000000000000e+00 0.000000000000e+00 0.000000000000e+00 0.000000000000e+00 0.000000000000e+00 0.000000000000e+00 
5.386538030076e-02 -2.991451045652e-01 0.000000000000e+00 0.000000000000e+00 0.000000000000e+00 0.000000000000e+00 0.000000000000e+00 0.000000000000e+00 
8.325780581963e-02 -1.864276587827e-01 0.000000000000e+00 0.000000000000e+00 0.000000000000e+00 0.000000000000e+00 0.000000000000e+00 0.000000000000e+00 
1.887456660158e-02 -3.001711909616e-01 0.000000000000e+00 0.000000000000e+00 0.000000000000e+00 0.000000000000e+00 0.000000000000e+00 0.000000000000e+00 
5.599679480673e-02 -1.868962244425e-01 0.000000000000e+00 0.000000000000e+00 0.000000000000e+00 0.000000000000e+00 0.000000000000e+00 0.000000000000e+00 
1.562509704916e-02 -2.362679114654e-01 0.000000000000e+00 0.000000000000e+00 0.000000000000e+00 0.000000000000e+00 0.000000000000e+00 0.000000000000e+00 
8.450980591300e-02 -2.362475890693e-01 0.000000000000e+00 0.000000000000e+00 0.000000000000e+00 0.000000000000e+00 0.000000000000e+00 0.000000000000e+00 
5.000597776251e-02 -2.748200932242e-01 0.000000000000e+00 0.000000000000e+00 0.000000000000e+00 0.000000000000e+00 0.000000000000e+00 0.000000000000e+00 
3.763666536168e-02 -1.917900581297e-01 0.000000000000e+00 0.000000000000e+00 0.000000000000e+00 0.000000000000e+00 0.000000000000e+00 0.000000000000e+00 
7.990076033980e-02 -3.280154126230e-01 0.000000000000e+00 0.000000000000e+00 0.000000000000e+00 0.000000000000e+00 0.000000000000e+00 0.000000000000e+00 
5.374039812767e-02 -2.384606709325e-01 0.000000000000e+00 0.000000000000e+00 0.000000000000e+00 0.000000000000e+00 0.000000000000e+00 0.000000000000e+00 
8.295584548888e-02 -2.724709261564e-01 0.000000000000e+00 0.000000000000e+00 0.000000000000e+00 0.000000000000e+00 0.000000000000e+00 0.000000000000e+00 
3.621311007526e-02 -2.130558380742e-01 0.000000000000e+00 0.000000000000e+00 0.000000000000e+00 0.000000000000e+00 0.000000000000e+00 0.000000000000e+00 
6.391474833037e-02 -2.130589258886e-01 0.000000000000e+00 0.000000000000e+00 0.000000000000e+00 0.000000000000e+00 0.000000000000e+00 0.000000000000e+00 
5.005826476111e-02 -3.405429735745e-01 0.000000000000e+00 0.000000000000e+00 0.000000000000e+00 0.000000000000e+00 0.000000000000e+00 0.000000000000e+00 
3.698944467363e-02 -2.448228664997e-01 0.000000000000e+00 0.000000000000e+00 0.000000000000e+00 0.000000000000e+00 0.000000000000e+00 0.000000000000e+00 
3.662161907618e-02 -3.066087827684e-01 0.000000000000e+00 0.000000000000e+00 0.000000000000e+00 0.000000000000e+00 0.000000000000e+00 0.000000000000e+00 
8.289028355298e-02 -2.928054893704e-01 0.000000000000e+00 0.000000000000e+00 0.000000000000e+00 0.000000000000e+00 0.000000000000e+00 0.000000000000e+00 
3.408000067884e-02 -2.691217269938e-01 0.000000000000e+00 0.000000000000e+00 0.000000000000e+00 0.000000000000e+00 0.000000000000e+00 0.000000000000e+00 
6.944556402011e-02 -3.968201233631e-01 0.000000000000e+00 0.000000000000e+00 0.000000000000e+00 0.000000000000e+00 0.000000000000e+00 0.000000000000e+00 
5.004338622634e-02 -4.224088684799e-01 0.000000000000e+00 0.000000000000e+00 0.000000000000e+00 0.000000000000e+00 0.000000000000e+00 0.000000000000e+00 
1.687036367023e-02 -1.864550581470e-01 0.000000000000e+00 0.000000000000e+00 0.000000000000e+00 0.000000000000e+00 0.000000000000e+00 0.000000000000e+00 
0.000000000000e+00 -1.891202423411e-01 0.000000000000e+00 0.000000000000e+00 0.000000000000e+00 0.000000000000e+00 0.000000000000e+00 0.000000000000e+00 
1.000000000000e-01 -4.066333808964e-01 0.000000000000e+00 0.000000000000e+00 0.000000000000e+00 0.000000000000e+00 0.000000000000e+00 0.000000000000e+00 
0.000000000000e+00 -4.066333808964e-01 0.000000000000e+00 0.000000000000e+00 0.000000000000e+00 0.000000000000e+00 0.000000000000e+00 0.000000000000e+00 
3.104608478085e-02 -1.770328565743e-01 0.000000000000e+00 0.000000000000e+00 0.000000000000e+00 0.000000000000e+00 0.000000000000e+00 0.000000000000e+00 
5.004288552848e-02 -1.716527951481e-01 0.000000000000e+00 0.000000000000e+00 0.000000000000e+00 0.000000000000e+00 0.000000000000e+00 0.000000000000e+00 
8.326930466579e-02 -1.667726886397e-01 0.000000000000e+00 0.000000000000e+00 0.000000000000e+00 0.000000000000e+00 0.000000000000e+00 0.000000000000e+00 
1.000000000000e-01 -1.551674274464e-01 0.000000000000e+00 0.000000000000e+00 0.000000000000e+00 0.000000000000e+00 0.000000000000e+00 0.000000000000e+00 
2.375340220851e-02 -4.221482437035e-01 0.000000000000e+00 0.000000000000e+00 0.000000000000e+00 0.000000000000e+00 0.000000000000e+00 0.000000000000e+00 
6.303932844440e-02 -1.619539551222e-01 0.000000000000e+00 0.000000000000e+00 0.000000000000e+00 0.000000000000e+00 0.000000000000e+00 0.000000000000e+00 
35  29  51  35
22  35  51  22
3  30  46  3
2  3  46  2
25  30  48  25
26  35  54  26
13  14  32  13
10  33  53  10
9  10  53  9
30  21  48  30
32  14  38  32
30  25  46  30
35  22  54  35
33  23  53  33
23  33  58  23
38  23  58  38
32  38  58  32
35  26  50  35
21  30  57  21
29  35  55  29
20  31  44  20
30  3  43  30
17  18  34  17
5  6  35  5
13  32  40  13
33  10  39  33
24  32  58  24
36  12  40  36
33  24  58  33
23  37  53  23
32  24  40  32
24  33  39  24
24  36  40  24
1  2  46  1
34  18  49  34
5  35  50  5
17  34  42  17
37  8  53  37
14  15  38  14
35  6  55  35
29  37  45  29
27  41  54  27
12  13  40  12
16  42  47  16
10  11  39  10
8  9  53  8
27  54  59  27
59  22  62  59
8  37  61  8
37  23  45  37
34  49  59  34
37  29  61  37
34  59  62  34
52  21  56  52
42  28  47  42
29  45  51  29
45  28  51  45
38  15  47  38
31  52  56  31
19  20  44  19
49  27  59  49
3  4  43  3
16  17  42  16
15  16  47  15
23  38  60  23
30  43  57  30
44  31  56  44
6  7  55  6
7  8  61  7
43  26  57  43
27  44  56  27
48  21  52  48
41  21  57  41
18  19  49  18
21  41  56  21
4  5  50  4
43  4  50  43
19  44  49  19
55  7  61  55
26  43  50  26
44  27  49  44
41  26  54  41
22  51  62  22
41  27  56  41
26  41  57  26
28  45  60  28
28  42  62  28
42  34  62  42
29  55  61  29
45  23  60  45
47  28  60  47
54  22  59  54
51  28  62  51
38  47  60  38
36  24  63  36
64  36  63  64
31  20  65  31
20  66  65  20
11  67  63  11
68  12  36  68
69  70  52  69
70  48  52  70
11  63  39  11
71  1  46  71
63  24  39  63
72  1  71  72
68  36  73  68
71  25  74  71
36  64  73  36
65  69  52  65
31  65  52  31
25  71  46  25
25  70  74  25
70  25  48  70
VARIABLES  = "X","Y","Z", "STRESS_XX", "STRESS_YY", "STRESS_ZZ", "DISPLACEMENT_X1", "DISPLACEMENT_Y1"
ZONE T="1.000000000000e+01s", N=74, E=114, F=FEPOINT, ET=QUADRILATERAL
STRANDID=1, SOLUTIONTIME=1.000000000000e+01
1.000000000000e-01 -1.717986916992e-01 0.000000000000e+00 -2.381355466443e+02 -9.525330182042e+02 -2.381337129697e+02 0.000000000000e+00 -2.366285292181e-02 
1.000000000000e-01 -1.891202423411e-01 0.000000000000e+00 -2.381138814393e+02 -9.524441640871e+02 -2.381116091053e+02 0.000000000000e+00 -2.316789155906e-02 
1.000000000000e-01 -2.071452132758e-01 0.000000000000e+00 -2.381015685017e+02 -9.524022167845e+02 -2.381007570572e+02 0.000000000000e+00 -2.265286845634e-02 
1.000000000000e-01 -2.259159003327e-01 0.000000000000e+00 -2.380962545897e+02 -9.523842719709e+02 -2.380961053121e+02 0.000000000000e+00 -2.211655628251e-02 
1.000000000000e-01 -2.454553372135e-01 0.000000000000e+00 -2.380946154625e+02 -9.523782762896e+02 -2.380945783504e+02 0.000000000000e+00 -2.155828624201e-02 
1.000000000000e-01 -2.657958002743e-01 0.000000000000e+00 -2.380940371514e+02 -9.523759393920e+02 -2.380939953087e+02 0.000000000000e+00 -2.097713244095e-02 
1.000000000000e-01 -2.869820737070e-01 0.000000000000e+00 -2.380938247362e+02 -9.523752722774e+02 -2.380938194027e+02 0.000000000000e+00 -2.037181371328e-02 
1.000000000000e-01 -3.090302591577e-01 0.000000000000e+00 -2.380937726258e+02 -9.523750687448e+02 -2.380937682741e+02 0.000000000000e+00 -1.974186937533e-02 
1.000000000000e-01 -3.319808966566e-01 0.000000000000e+00 -2.380937567419e+02 -9.523750150182e+02 -2.380937543520e+02 0.000000000000e+00 -1.908614094457e-02 
1.000000000000e-01 -3.558736196309e-01 0.000000000000e+00 -2.380937517928e+02 -9.523750033778e+02 -2.380937510341e+02 0.000000000000e+00 -1.840349597618e-02 
1.000000000000e-01 -3.807449903129e-01 0.000000000000e+00 -2.380937506167e+02 -9.523750016583e+02 -2.380937504550e+02 0.000000000000e+00 -1.769288982483e-02 
0.000000000000e+00 -3.807449903129e-01 0.000000000000e+00 -2.380937503964e+02 -9.523750024110e+02 -2.380937505615e+02 0.000000000000e+00 -1.769288982540e-02 
0.000000000000e+00 -3.558736196309e-01 0.000000000000e+00 -2.380937507306e+02 -9.523750061223e+02 -2.380937513706e+02 0.000000000000e+00 -1.840349597785e-02 
0.000000000000e+00 -3.319808966566e-01 0.000000000000e+00 -2.380937539226e+02 -9.523750242533e+02 -2.380937556352e+02 0.000000000000e+00 -1.908614094860e-02 
0.000000000000e+00 -3.090302591577e-01 0.000000000000e+00 -2.380937699854e+02 -9.523750946467e+02 -2.380937729264e+02 0.000000000000e+00 -1.974186938513e-02 
0.000000000000e+00 -2.869820737070e-01 0.000000000000e+00 -2.380938257946e+02 -9.523753641876e+02 -2.380938379964e+02 0.000000000000e+00 -2.037181373673e-02 
0.000000000000e+00 -2.657958002743e-01 0.000000000000e+00 -2.380940239506e+02 -9.523762552125e+02 -2.380940558326e+02 0.000000000000e+00 -2.097713250438e-02 
0.000000000000e+00 -2.454553372135e-01 0.000000000000e+00 -2.380946842368e+02 -9.523789914035e+02 -2.380947351281e+02 0.000000000000e+00 -2.155828639792e-02 
0.000000000000e+00 -2.259159003327e-01 0.000000000000e+00 -2.380964384085e+02 -9.523861463119e+02 -2.380965169441e+02 0.000000000000e+00 -2.211655655538e-02 
0.000000000000e+00 -2.071452132758e-01 0.000000000000e+00 -2.381017348737e+02 -9.524052928222e+02 -2.381014055392e+02 0.000000000000e+00 -2.265286907365e-02 
5.004842734123e-02 -2.021418171447e-01 0.000000000000e+00 -2.381029581315e+02 -9.524122593495e+02 -2.381030434962e+02 3.924371982364e-10 -2.279582787916e-02 
5.005908986205e-02 -2.553771826632e-01 0.000000000000e+00 -2.380942820829e+02 -9.523770469358e+02 -2.380942658037e+02 4.043757780219e-11 -2.127480591890e-02 
5.008292036290e-02 -3.203087963123e-01 0.000000000000e+00 -2.380937603991e+02 -9.523750374443e+02 -2.380937595687e+02 2.368131787669e-12 -1.941962745398e-02 
5.009415947708e-02 -3.711929596105e-01 0.000000000000e+00 -2.380937506513e+02 -9.523750022899e+02 -2.380937505882e+02 3.268471640709e-13 -1.796580328285e-02 
6.904394191688e-02 -1.770178073307e-01 0.000000000000e+00 -2.381257702773e+02 -9.525060910747e+02 -2.381263722704e+02 1.021690838321e-09 -2.351371196731e-02 
6.807698165746e-02 -2.287558900294e-01 0.000000000000e+00 -2.380960223308e+02 -9.523839281011e+02 -2.380959900864e+02 9.576057845076e-11 -2.203541348289e-02 
3.206062782805e-02 -2.287631037513e-01 0.000000000000e+00 -2.380958904812e+02 -9.523841888824e+02 -2.380960158727e+02 8.762520629530e-11 -2.203520748965e-02 
3.557354364095e-02 -2.878483101898e-01 0.000000000000e+00 -2.380938209524e+02 -9.523753215604e+02 -2.380938285026e+02 1.048873597753e-11 -2.034706425817e-02 
6.776223739581e-02 -2.827412570156e-01 0.000000000000e+00 -2.380938450818e+02 -9.523753696521e+02 -2.380938429468e+02 7.055205210518e-12 -2.049297919578e-02 
7.535103115493e-02 -2.015293853660e-01 0.000000000000e+00 -2.381037621450e+02 -9.524133788168e+02 -2.381034281924e+02 3.481920531628e-10 -2.281332589826e-02 
2.474920969922e-02 -2.015432236000e-01 0.000000000000e+00 -2.381033028497e+02 -9.524163455953e+02 -2.381039296890e+02 -9.732485592413e-11 -2.281293133455e-02 
3.050691695726e-02 -3.457552030811e-01 0.000000000000e+00 -2.380937521311e+02 -9.523750098525e+02 -2.380937523967e+02 8.929245203697e-13 -1.869259178863e-02 
6.961191317484e-02 -3.457465657077e-01 0.000000000000e+00 -2.380937520045e+02 -9.523750077017e+02 -2.380937519412e+02 6.756416202429e-13 -1.869283856811e-02 
2.403213634881e-02 -2.555147969150e-01 0.000000000000e+00 -2.380942727479e+02 -9.523772893098e+02 -2.380943124115e+02 3.494656220320e-11 -2.127087413768e-02 
7.607779023971e-02 -2.554704032576e-01 0.000000000000e+00 -2.380942342838e+02 -9.523768086666e+02 -2.380942085901e+02 5.122933704424e-12 -2.127214242008e-02 
3.066487977987e-02 -3.967816778596e-01 0.000000000000e+00 -2.380937503486e+02 -9.523750017727e+02 -2.380937504243e+02 7.558055378510e-14 -1.723470161520e-02 
7.369529764403e-02 -3.084770811070e-01 0.000000000000e+00 -2.380937730035e+02 -9.523750770709e+02 -2.380937700149e+02 2.736285949157e-12 -1.975767436646e-02 
2.378951418650e-02 -3.203343384072e-01 0.000000000000e+00 -2.380937593757e+02 -9.523750451305e+02 -2.380937609012e+02 2.124792338739e-12 -1.941889768695e-02 
7.605350107748e-02 -3.708957544133e-01 0.000000000000e+00 -2.380937508400e+02 -9.523750021987e+02 -2.380937506077e+02 2.164154838168e-13 -1.797429480665e-02 
2.414696816088e-02 -3.709124382382e-01 0.000000000000e+00 -2.380937504568e+02 -9.523750027835e+02 -2.380937506481e+02 2.776357352864e-13 -1.797381812953e-02 
5.006735922148e-02 -2.215423617712e-01 0.000000000000e+00 -2.380973247036e+02 -9.523883106348e+02 -2.380971270677e+02 1.494517382187e-10 -2.224151554205e-02 
1.850317579946e-02 -2.757149546133e-01 0.000000000000e+00 -2.380939033745e+02 -9.523756605313e+02 -2.380939127812e+02 1.330906804830e-11 -2.069372958095e-02 
8.327052267209e-02 -2.182301684835e-01 0.000000000000e+00 -2.380974835982e+02 -9.523895324043e+02 -2.380974032005e+02 1.210181829210e-10 -2.233615036466e-02 
1.689528006222e-02 -2.182447195749e-01 0.000000000000e+00 -2.380978207821e+02 -9.523914693222e+02 -2.380978580209e+02 5.258190177349e-11 -2.233573490272e-02 
5.386538030076e-02 -2.991451045652e-01 0.000000000000e+00 -2.380937905132e+02 -9.523751384210e+02 -2.380937857868e+02 4.142554438930e-12 -2.002430063611e-02 
8.325780581963e-02 -1.864276587827e-01 0.000000000000e+00 -2.381145381508e+02 -9.524584177990e+02 -2.381145911900e+02 7.960248962909e-10 -2.324482883730e-02 
1.887456660158e-02 -3.001711909616e-01 0.000000000000e+00 -2.380937820854e+02 -9.523751444550e+02 -2.380937853081e+02 4.353002282500e-12 -1.999498406799e-02 
5.599679480673e-02 -1.868962244425e-01 0.000000000000e+00 -2.381119980334e+02 -9.524537826195e+02 -2.381131561306e+02 5.503516269506e-10 -2.323144104092e-02 
1.562509704916e-02 -2.362679114654e-01 0.000000000000e+00 -2.380952248492e+02 -9.523810903313e+02 -2.380952630361e+02 3.973821607312e-11 -2.182078400578e-02 
8.450980591300e-02 -2.362475890693e-01 0.000000000000e+00 -2.380952759909e+02 -9.523809890615e+02 -2.380952530105e+02 2.472636250501e-11 -2.182136447759e-02 
5.000597776251e-02 -2.748200932242e-01 0.000000000000e+00 -2.380939191171e+02 -9.523755817882e+02 -2.380939001811e+02 1.364653180394e-11 -2.071929687848e-02 
3.763666536168e-02 -1.917900581297e-01 0.000000000000e+00 -2.381082172252e+02 -9.524357521407e+02 -2.381087938732e+02 2.771041682018e-10 -2.309160680622e-02 
7.990076033980e-02 -3.280154126230e-01 0.000000000000e+00 -2.380937558243e+02 -9.523750224023e+02 -2.380937556453e+02 1.335677712043e-12 -1.919943978339e-02 
5.374039812767e-02 -2.384606709325e-01 0.000000000000e+00 -2.380950200917e+02 -9.523801072035e+02 -2.380950254590e+02 7.677373407504e-11 -2.175813366168e-02 
8.295584548888e-02 -2.724709261564e-01 0.000000000000e+00 -2.380939257686e+02 -9.523757499569e+02 -2.380939351451e+02 3.587880831630e-12 -2.078641557548e-02 
3.621311007526e-02 -2.130558380742e-01 0.000000000000e+00 -2.380987763342e+02 -9.523961796277e+02 -2.380989911924e+02 1.626832087871e-10 -2.248399079426e-02 
6.391474833037e-02 -2.130589258886e-01 0.000000000000e+00 -2.380988004748e+02 -9.523965311582e+02 -2.380990663266e+02 1.658835435301e-10 -2.248390241667e-02 
5.005826476111e-02 -3.405429735745e-01 0.000000000000e+00 -2.380937530296e+02 -9.523750112675e+02 -2.380937528594e+02 1.088291227855e-12 -1.884151170209e-02 
3.698944467363e-02 -2.448228664997e-01 0.000000000000e+00 -2.380946545710e+02 -9.523786546579e+02 -2.380946618458e+02 5.908269660641e-11 -2.157635691483e-02 
3.662161907618e-02 -3.066087827684e-01 0.000000000000e+00 -2.380937755219e+02 -9.523750930019e+02 -2.380937737048e+02 4.397687333857e-12 -1.981105399470e-02 
8.289028355298e-02 -2.928054893704e-01 0.000000000000e+00 -2.380938117797e+02 -9.523752107753e+02 -2.380938045110e+02 3.787189854602e-12 -2.020543139947e-02 
3.408000067884e-02 -2.691217269938e-01 0.000000000000e+00 -2.380939793257e+02 -9.523758814852e+02 -2.380939721622e+02 2.661364530730e-11 -2.088210648409e-02 
6.944556402011e-02 -3.968201233631e-01 0.000000000000e+00 -2.380937504418e+02 -9.523750015647e+02 -2.380937504013e+02 1.126001775513e-13 -1.723360317893e-02 
5.004338622634e-02 -4.224088684799e-01 0.000000000000e+00 -2.380937504817e+02 -9.523750020451e+02 -2.380937505054e+02 2.986387633650e-14 -1.650250074367e-02 
1.687036367023e-02 -1.864550581470e-01 0.000000000000e+00 -2.381137276353e+02 -9.524583219177e+02 -2.381144099106e+02 -5.576291441043e-10 -2.324404627648e-02 
0.000000000000e+00 -1.891202423411e-01 0.000000000000e+00 -2.381160992959e+02 -9.524533605409e+02 -2.381138919674e+02 0.000000000000e+00 -2.316789202800e-02 
1.000000000000e-01 -4.066333808964e-01 0.000000000000e+00 -2.380937505835e+02 -9.523750017280e+02 -2.380937504623e+02 0.000000000000e+00 -1.695322614410e-02 
0.000000000000e+00 -4.066333808964e-01 0.000000000000e+00 -2.380937504908e+02 -9.523750020007e+02 -2.380937504983e+02 0.000000000000e+00 -1.695322614430e-02 
3.104608478085e-02 -1.770328565743e-01 0.000000000000e+00 -2.381246687506e+02 -9.525061697942e+02 -2.381261677090e+02 -2.221795573509e-11 -2.351328178937e-02 
5.004288552848e-02 -1.716527951481e-01 0.000000000000e+00 -2.381334082736e+02 -9.525364160567e+02 -2.381339648661e+02 4.069317568486e-10 -2.366702181205e-02 
8.326930466579e-02 -1.667726886397e-01 0.000000000000e+00 -2.381469314984e+02 -9.525799785080e+02 -2.381453820013e+02 8.683305082537e-10 -2.380648193022e-02 
1.000000000000e-01 -1.551674274464e-01 0.000000000000e+00 -2.381790034955e+02 -9.527185851414e+02 -2.381795177274e+02 0.000000000000e+00 -2.413816395253e-02 
2.375340220851e-02 -4.221482437035e-01 0.000000000000e+00 -2.380937505232e+02 -9.523750021656e+02 -2.380937505378e+02 1.160606819884e-14 -1.650994711936e-02 
6.303932844440e-02 -1.619539551222e-01 0.000000000000e+00 -2.381567769672e+02 -9.526397343433e+02 -2.381593022621e+02 8.650979390178e-10 -2.394419454746e-02 
35  29  51  35
22  35  51  22
3  30  46  3
2  3  46  2
25  30  48  25
26  35  54  26
13  14  32  13
10  33  53  10
9  10  53  9
30  21  48  30
32  14  38  32
30  25  46  30
35  22  54  35
33  23  53  33
23  33  58  23
38  23  58  38
32  38  58  32
35  26  50  35
21  30  57  21
29  35  55  29
20  31  44  20
30  3  43  30
17  18  34  17
5  6  35  5
13  32  40  13
33  10  39  33
24  32  58  24
36  12  40  36
33  24  58  33
23  37  53  23
32  24  40  32
24  33  39  24
24  36  40  24
1  2  46  1
34  18  49  34
5  35  50  5
17  34  42  17
37  8  53  37
14  15  38  14
35  6  55  35
29  37  45  29
27  41  54  27
12  13  40  12
16  42  47  16
10  11  39  10
8  9  53  8
27  54  59  27
59  22  62  59
8  37  61  8
37  23  45  37
34  49  59  34
37  29  61  37
34  59  62  34
52  21  56  52
42  28  47  42
29  45  51  29
45  28  51  45
38  15  47  38
31  52  56  31
19  20  44  19
49  27  59  49
3  4  43  3
16  17  42  16
15  16  47  15
23  38  60  23
30  43  57  30
44  31  56  44
6  7  55  6
7  8  61  7
43  26  57  43
27  44  56  27
48  21  52  48
41  21  57  41
18  19  49  18
21  41  56  21
4  5  50  4
43  4  50  43
19  44  49  19
55  7  61  55
26  43  50  26
44  27  49  44
41  26  54  41
22  51  62  22
41  27  56  41
26  41  57  26
28  45  60  28
28  42  62  28
42  34  62  42
29  55  61  29
45  23  60  45
47  28  60  47
54  22  59  54
51  28  62  51
38  47  60  38
36  24  63  36
64  36  63  64
31  20  65  31
20  66  65  20
11  67  63  11
68  12  36  68
69  70  52  69
70  48  52  70
11  63  39  11
71  1  46  71
63  24  39  63
72  1  71  72
68  36  73  68
71  25  74  71
36  64  73  36
65  69  52  65
31  65  52  31
25  71  46  25
25  70  74  25
70  25  48  70
