VARIABLES  = "X","Y","Z", "PRESSURE1"
ZONE T="0.000000000000e+00s", N=78, E=121, F=FEPOINT, ET=QUADRILATERAL
STRANDID=1, SOLUTIONTIME=0.000000000000e+00
1.000000000000e-01 -4.365795665274e-02 0.000000000000e+00 0.000000000000e+00 
1.000000000000e-01 -5.571534163644e-02 0.000000000000e+00 0.000000000000e+00 
1.000000000000e-01 -6.826783355915e-02 0.000000000000e+00 0.000000000000e+00 
1.000000000000e-01 -8.133192903590e-02 0.000000000000e+00 0.000000000000e+00 
1.000000000000e-01 -9.493635849425e-02 0.000000000000e+00 0.000000000000e+00 
1.000000000000e-01 -1.090948080906e-01 0.000000000000e+00 0.000000000000e+00 
1.000000000000e-01 -1.238407989588e-01 0.000000000000e+00 0.000000000000e+00 
1.000000000000e-01 -1.391895614642e-01 0.000000000000e+00 0.000000000000e+00 
1.000000000000e-01 -1.551674274464e-01 0.000000000000e+00 0.000000000000e+00 
0.000000000000e+00 -1.891202423411e-01 0.000000000000e+00 0.000000000000e+00 
0.000000000000e+00 -1.717986916992e-01 0.000000000000e+00 0.000000000000e+00 
0.000000000000e+00 -1.551674274464e-01 0.000000000000e+00 0.000000000000e+00 
0.000000000000e+00 -1.391895614642e-01 0.000000000000e+00 0.000000000000e+00 
0.000000000000e+00 -1.238407989588e-01 0.000000000000e+00 0.000000000000e+00 
0.000000000000e+00 -1.090948080907e-01 0.000000000000e+00 0.000000000000e+00 
0.000000000000e+00 -9.493635849425e-02 0.000000000000e+00 0.000000000000e+00 
5.003429380367e-02 -1.017798692890e-01 0.000000000000e+00 0.000000000000e+00 
5.002853232124e-02 -1.519088519355e-01 0.000000000000e+00 0.000000000000e+00 
6.860613435721e-02 -7.587479770767e-02 0.000000000000e+00 0.000000000000e+00 
6.888280446269e-02 -1.268465272623e-01 0.000000000000e+00 0.000000000000e+00 
3.121957414972e-02 -1.268421985082e-01 0.000000000000e+00 0.000000000000e+00 
7.556622015059e-02 -5.213930935979e-02 0.000000000000e+00 0.000000000000e+00 
3.104608478085e-02 -1.770328565743e-01 0.000000000000e+00 0.000000000000e+00 
7.554701895293e-02 -1.019679427391e-01 0.000000000000e+00 0.000000000000e+00 
2.453145878902e-02 -1.018531985808e-01 0.000000000000e+00 0.000000000000e+00 
2.486640359495e-02 -1.511994000693e-01 0.000000000000e+00 0.000000000000e+00 
7.519018389267e-02 -1.512146935932e-01 0.000000000000e+00 0.000000000000e+00 
8.318938762240e-02 -6.726290804214e-02 0.000000000000e+00 0.000000000000e+00 
5.005181660085e-02 -1.213864546544e-01 0.000000000000e+00 0.000000000000e+00 
8.304311980566e-02 -8.600422434734e-02 0.000000000000e+00 0.000000000000e+00 
4.512057632941e-02 -8.568062374441e-02 0.000000000000e+00 0.000000000000e+00 
6.206074805899e-02 -5.978173210899e-02 0.000000000000e+00 0.000000000000e+00 
6.286808215727e-02 -9.137086788006e-02 0.000000000000e+00 0.000000000000e+00 
1.640712137365e-02 -1.174171270781e-01 0.000000000000e+00 0.000000000000e+00 
8.372537541237e-02 -1.174905373863e-01 0.000000000000e+00 0.000000000000e+00 
5.004288552848e-02 -1.716527951481e-01 0.000000000000e+00 0.000000000000e+00 
3.731099137938e-02 -1.115945408716e-01 0.000000000000e+00 0.000000000000e+00 
6.271916567743e-02 -1.115718330784e-01 0.000000000000e+00 0.000000000000e+00 
1.686902144853e-02 -1.361062558984e-01 0.000000000000e+00 0.000000000000e+00 
8.320724439706e-02 -1.361392086212e-01 0.000000000000e+00 0.000000000000e+00 
8.827644021441e-02 -5.068271212769e-02 0.000000000000e+00 0.000000000000e+00 
5.583260035578e-02 -1.366520720980e-01 0.000000000000e+00 0.000000000000e+00 
8.326930466579e-02 -1.667726886397e-01 0.000000000000e+00 0.000000000000e+00 
1.683000258849e-02 -1.667776624401e-01 0.000000000000e+00 0.000000000000e+00 
3.176003359910e-02 -8.986364252605e-02 0.000000000000e+00 0.000000000000e+00 
3.772961003605e-02 -1.415473931669e-01 0.000000000000e+00 0.000000000000e+00 
3.703325374415e-02 -1.619447957644e-01 0.000000000000e+00 0.000000000000e+00 
6.303932844440e-02 -1.619539551222e-01 0.000000000000e+00 0.000000000000e+00 
1.687036367023e-02 -1.864550581470e-01 0.000000000000e+00 0.000000000000e+00 
5.675176755435e-02 -8.029564380893e-02 0.000000000000e+00 0.000000000000e+00 
1.125853509499e-02 -1.018913627337e-01 0.000000000000e+00 0.000000000000e+00 
8.881871162219e-02 -1.019661470517e-01 0.000000000000e+00 0.000000000000e+00 
7.207066164269e-02 -6.508809647676e-02 0.000000000000e+00 0.000000000000e+00 
8.958901145892e-02 -7.668408325171e-02 0.000000000000e+00 0.000000000000e+00 
3.832908703950e-02 -9.976005802934e-02 0.000000000000e+00 0.000000000000e+00 
1.169884814581e-02 -1.485111206917e-01 0.000000000000e+00 0.000000000000e+00 
8.835347874980e-02 -1.485454048835e-01 0.000000000000e+00 0.000000000000e+00 
6.851377528847e-02 -1.399424198909e-01 0.000000000000e+00 0.000000000000e+00 
9.100272279741e-02 -6.058966642700e-02 0.000000000000e+00 0.000000000000e+00 
7.224986561191e-02 -8.603444691608e-02 0.000000000000e+00 0.000000000000e+00 
6.027993180190e-02 -6.988363285687e-02 0.000000000000e+00 0.000000000000e+00 
1.000000000000e-01 -3.207786985738e-02 0.000000000000e+00 0.000000000000e+00 
8.454242557621e-02 -3.844635220127e-02 0.000000000000e+00 0.000000000000e+00 
2.474920969922e-02 -2.015432236000e-01 0.000000000000e+00 0.000000000000e+00 
0.000000000000e+00 -2.071452132758e-01 0.000000000000e+00 0.000000000000e+00 
0.000000000000e+00 -8.133192903590e-02 0.000000000000e+00 0.000000000000e+00 
1.698701460171e-02 -8.593339913784e-02 0.000000000000e+00 0.000000000000e+00 
7.049571814535e-02 -4.034466657971e-02 0.000000000000e+00 0.000000000000e+00 
3.763666536168e-02 -1.917900581297e-01 0.000000000000e+00 0.000000000000e+00 
3.144484460580e-02 -7.586712852882e-02 0.000000000000e+00 0.000000000000e+00 
5.599679480673e-02 -1.868962244425e-01 0.000000000000e+00 0.000000000000e+00 
1.000000000000e-01 -1.717986916992e-01 0.000000000000e+00 0.000000000000e+00 
8.325780581963e-02 -1.864276587827e-01 0.000000000000e+00 0.000000000000e+00 
6.163087269112e-02 -4.804641620450e-02 0.000000000000e+00 0.000000000000e+00 
5.002678796997e-02 -6.957908922559e-02 0.000000000000e+00 0.000000000000e+00 
3.977027004405e-02 -6.986979884634e-02 0.000000000000e+00 0.000000000000e+00 
6.904394191688e-02 -1.770178073307e-01 0.000000000000e+00 0.000000000000e+00 
5.204798323580e-02 -5.977244273485e-02 0.000000000000e+00 0.000000000000e+00 
19  28  30  19
21  29  46  21
29  42  46  29
30  28  54  30
24  35  38  24
34  25  37  34
35  20  38  35
21  34  37  21
48  18  58  48
17  33  38  17
33  24  38  33
4  5  30  4
35  7  40  35
14  34  39  14
17  31  33  17
28  22  59  28
22  41  59  22
27  48  58  27
30  5  52  30
19  30  60  19
39  21  46  39
17  29  37  17
29  17  38  29
26  39  46  26
18  42  58  18
7  8  40  7
13  14  39  13
33  31  50  33
20  29  38  20
29  21  37  29
22  28  53  22
11  44  49  11
34  21  39  34
20  35  40  20
24  30  52  24
29  20  42  29
6  7  35  6
14  15  34  14
4  30  54  4
28  19  53  28
10  11  49  10
6  35  52  6
34  15  51  34
30  24  60  30
27  43  48  27
44  26  47  44
46  18  47  46
26  46  47  26
32  22  53  32
3  54  59  3
11  12  44  11
25  34  51  25
44  12  56  44
35  24  52  35
9  43  57  9
23  44  47  23
54  28  59  54
31  17  55  31
42  18  46  42
24  33  60  24
1  2  41  1
36  18  48  36
18  36  47  18
50  19  60  50
33  50  60  33
44  23  49  44
36  23  47  36
26  44  56  26
43  27  57  43
45  31  55  45
37  25  55  37
20  40  58  20
40  8  57  40
13  39  56  13
40  27  58  40
17  37  55  17
3  4  54  3
15  16  51  15
5  6  52  5
25  45  55  25
39  26  56  39
27  40  57  27
42  20  58  42
8  9  57  8
12  13  56  12
2  3  59  2
41  2  59  41
32  53  61  32
53  19  61  53
19  50  61  19
62  1  63  62
64  65  49  64
65  10  49  65
16  66  67  16
63  22  68  63
63  1  41  63
16  67  51  16
22  63  41  22
23  36  69  23
67  70  45  67
36  71  69  36
43  72  73  43
67  25  51  67
22  32  74  22
75  31  76  75
31  70  76  31
25  67  45  25
70  31  45  70
31  75  50  31
9  72  43  9
43  77  48  43
68  22  74  68
74  32  78  74
49  23  69  49
64  49  69  64
77  43  73  77
77  36  48  77
36  77  71  36
78  32  61  78
75  78  61  75
50  75  61  50
VARIABLES  = "X","Y","Z", "PRESSURE1"
ZONE T="1.000000000000e+01s", N=78, E=121, F=FEPOINT, ET=QUADRILATERAL
STRANDID=1, SOLUTIONTIME=1.000000000000e+01
1.000000000000e-01 -4.365795665274e-02 0.000000000000e+00 2.739308331696e+01 
1.000000000000e-01 -5.571534163644e-02 0.000000000000e+00 3.283195148345e+01 
1.000000000000e-01 -6.826783355915e-02 0.000000000000e+00 3.723267245731e+01 
1.000000000000e-01 -8.133192903590e-02 0.000000000000e+00 4.074051732184e+01 
1.000000000000e-01 -9.493635849425e-02 0.000000000000e+00 4.330678630389e+01 
1.000000000000e-01 -1.090948080906e-01 0.000000000000e+00 4.505984514031e+01 
1.000000000000e-01 -1.238407989588e-01 0.000000000000e+00 4.619039236559e+01 
1.000000000000e-01 -1.391895614642e-01 0.000000000000e+00 4.686684674831e+01 
1.000000000000e-01 -1.551674274464e-01 0.000000000000e+00 4.725022915134e+01 
0.000000000000e+00 -1.891202423411e-01 0.000000000000e+00 4.754915357174e+01 
0.000000000000e+00 -1.717986916992e-01 0.000000000000e+00 4.745335717721e+01 
0.000000000000e+00 -1.551674274464e-01 0.000000000000e+00 4.725115521514e+01 
0.000000000000e+00 -1.391895614642e-01 0.000000000000e+00 4.686531198740e+01 
0.000000000000e+00 -1.238407989588e-01 0.000000000000e+00 4.618888547288e+01 
0.000000000000e+00 -1.090948080907e-01 0.000000000000e+00 4.506094503340e+01 
0.000000000000e+00 -9.493635849425e-02 0.000000000000e+00 4.330781461847e+01 
5.003429380367e-02 -1.017798692890e-01 0.000000000000e+00 4.426478548917e+01 
5.002853232124e-02 -1.519088519355e-01 0.000000000000e+00 4.719410144241e+01 
6.860613435721e-02 -7.587479770767e-02 0.000000000000e+00 3.942148918298e+01 
6.888280446269e-02 -1.268465272623e-01 0.000000000000e+00 4.636083654459e+01 
3.121957414972e-02 -1.268421985082e-01 0.000000000000e+00 4.634589108445e+01 
7.556622015059e-02 -5.213930935979e-02 0.000000000000e+00 3.138573378867e+01 
3.104608478085e-02 -1.770328565743e-01 0.000000000000e+00 4.749263807783e+01 
7.554701895293e-02 -1.019679427391e-01 0.000000000000e+00 4.427789478539e+01 
2.453145878902e-02 -1.018531985808e-01 0.000000000000e+00 4.428195304938e+01 
2.486640359495e-02 -1.511994000693e-01 0.000000000000e+00 4.718256009419e+01 
7.519018389267e-02 -1.512146935932e-01 0.000000000000e+00 4.717278389439e+01 
8.318938762240e-02 -6.726290804214e-02 0.000000000000e+00 3.700721399771e+01 
5.005181660085e-02 -1.213864546544e-01 0.000000000000e+00 4.606766264492e+01 
8.304311980566e-02 -8.600422434734e-02 0.000000000000e+00 4.181942063622e+01 
4.512057632941e-02 -8.568062374441e-02 0.000000000000e+00 4.172492986504e+01 
6.206074805899e-02 -5.978173210899e-02 0.000000000000e+00 3.435865879448e+01 
6.286808215727e-02 -9.137086788006e-02 0.000000000000e+00 4.274038390816e+01 
1.640712137365e-02 -1.174171270781e-01 0.000000000000e+00 4.578233549849e+01 
8.372537541237e-02 -1.174905373863e-01 0.000000000000e+00 4.578936701350e+01 
5.004288552848e-02 -1.716527951481e-01 0.000000000000e+00 4.745960646768e+01 
3.731099137938e-02 -1.115945408716e-01 0.000000000000e+00 4.527969091455e+01 
6.271916567743e-02 -1.115718330784e-01 0.000000000000e+00 4.530813909829e+01 
1.686902144853e-02 -1.361062558984e-01 0.000000000000e+00 4.677196680500e+01 
8.320724439706e-02 -1.361392086212e-01 0.000000000000e+00 4.677925939093e+01 
8.827644021441e-02 -5.068271212769e-02 0.000000000000e+00 3.067956352998e+01 
5.583260035578e-02 -1.366520720980e-01 0.000000000000e+00 4.677959402734e+01 
8.326930466579e-02 -1.667726886397e-01 0.000000000000e+00 4.740965690123e+01 
1.683000258849e-02 -1.667776624401e-01 0.000000000000e+00 4.741147355408e+01 
3.176003359910e-02 -8.986364252605e-02 0.000000000000e+00 4.244405905686e+01 
3.772961003605e-02 -1.415473931669e-01 0.000000000000e+00 4.696099011083e+01 
3.703325374415e-02 -1.619447957644e-01 0.000000000000e+00 4.735755157633e+01 
6.303932844440e-02 -1.619539551222e-01 0.000000000000e+00 4.735879684110e+01 
1.687036367023e-02 -1.864550581470e-01 0.000000000000e+00 4.754424476595e+01 
5.675176755435e-02 -8.029564380893e-02 0.000000000000e+00 4.051372281437e+01 
1.125853509499e-02 -1.018913627337e-01 0.000000000000e+00 4.427439061639e+01 
8.881871162219e-02 -1.019661470517e-01 0.000000000000e+00 4.427968990124e+01 
7.207066164269e-02 -6.508809647676e-02 0.000000000000e+00 3.623510357273e+01 
8.958901145892e-02 -7.668408325171e-02 0.000000000000e+00 3.961686695245e+01 
3.832908703950e-02 -9.976005802934e-02 0.000000000000e+00 4.397429984814e+01 
1.169884814581e-02 -1.485111206917e-01 0.000000000000e+00 4.712162170002e+01 
8.835347874980e-02 -1.485454048835e-01 0.000000000000e+00 4.712107858378e+01 
6.851377528847e-02 -1.399424198909e-01 0.000000000000e+00 4.689837109981e+01 
9.100272279741e-02 -6.058966642700e-02 0.000000000000e+00 3.470989694172e+01 
7.224986561191e-02 -8.603444691608e-02 0.000000000000e+00 4.174905414905e+01 
6.027993180190e-02 -6.988363285687e-02 0.000000000000e+00 3.776912596519e+01 
1.000000000000e-01 -3.207786985738e-02 0.000000000000e+00 2.114734740485e+01 
8.454242557621e-02 -3.844635220127e-02 0.000000000000e+00 2.473720554091e+01 
2.474920969922e-02 -2.015432236000e-01 0.000000000000e+00 4.758583611374e+01 
0.000000000000e+00 -2.071452132758e-01 0.000000000000e+00 4.759749365467e+01 
0.000000000000e+00 -8.133192903590e-02 0.000000000000e+00 4.073919509598e+01 
1.698701460171e-02 -8.593339913784e-02 0.000000000000e+00 4.179781758257e+01 
7.049571814535e-02 -4.034466657971e-02 0.000000000000e+00 2.567879058704e+01 
3.763666536168e-02 -1.917900581297e-01 0.000000000000e+00 4.756376705769e+01 
3.144484460580e-02 -7.586712852882e-02 0.000000000000e+00 3.941297955731e+01 
5.599679480673e-02 -1.868962244425e-01 0.000000000000e+00 4.754266128419e+01 
1.000000000000e-01 -1.717986916992e-01 0.000000000000e+00 4.745204111999e+01 
8.325780581963e-02 -1.864276587827e-01 0.000000000000e+00 4.754186037028e+01 
6.163087269112e-02 -4.804641620450e-02 0.000000000000e+00 2.948018218187e+01 
5.002678796997e-02 -6.957908922559e-02 0.000000000000e+00 3.771304698573e+01 
3.977027004405e-02 -6.986979884634e-02 0.000000000000e+00 3.776745518454e+01 
6.904394191688e-02 -1.770178073307e-01 0.000000000000e+00 4.749552190125e+01 
5.204798323580e-02 -5.977244273485e-02 0.000000000000e+00 3.440488270854e+01 
19  28  30  19
21  29  46  21
29  42  46  29
30  28  54  30
24  35  38  24
34  25  37  34
35  20  38  35
21  34  37  21
48  18  58  48
17  33  38  17
33  24  38  33
4  5  30  4
35  7  40  35
14  34  39  14
17  31  33  17
28  22  59  28
22  41  59  22
27  48  58  27
30  5  52  30
19  30  60  19
39  21  46  39
17  29  37  17
29  17  38  29
26  39  46  26
18  42  58  18
7  8  40  7
13  14  39  13
33  31  50  33
20  29  38  20
29  21  37  29
22  28  53  22
11  44  49  11
34  21  39  34
20  35  40  20
24  30  52  24
29  20  42  29
6  7  35  6
14  15  34  14
4  30  54  4
28  19  53  28
10  11  49  10
6  35  52  6
34  15  51  34
30  24  60  30
27  43  48  27
44  26  47  44
46  18  47  46
26  46  47  26
32  22  53  32
3  54  59  3
11  12  44  11
25  34  51  25
44  12  56  44
35  24  52  35
9  43  57  9
23  44  47  23
54  28  59  54
31  17  55  31
42  18  46  42
24  33  60  24
1  2  41  1
36  18  48  36
18  36  47  18
50  19  60  50
33  50  60  33
44  23  49  44
36  23  47  36
26  44  56  26
43  27  57  43
45  31  55  45
37  25  55  37
20  40  58  20
40  8  57  40
13  39  56  13
40  27  58  40
17  37  55  17
3  4  54  3
15  16  51  15
5  6  52  5
25  45  55  25
39  26  56  39
27  40  57  27
42  20  58  42
8  9  57  8
12  13  56  12
2  3  59  2
41  2  59  41
32  53  61  32
53  19  61  53
19  50  61  19
62  1  63  62
64  65  49  64
65  10  49  65
16  66  67  16
63  22  68  63
63  1  41  63
16  67  51  16
22  63  41  22
23  36  69  23
67  70  45  67
36  71  69  36
43  72  73  43
67  25  51  67
22  32  74  22
75  31  76  75
31  70  76  31
25  67  45  25
70  31  45  70
31  75  50  31
9  72  43  9
43  77  48  43
68  22  74  68
74  32  78  74
49  23  69  49
64  49  69  64
77  43  73  77
77  36  48  77
36  77  71  36
78  32  61  78
75  78  61  75
50  75  61  50
