VARIABLES  = "X","Y","Z", "STRESS_XX", "STRESS_YY", "STRESS_ZZ", "DISPLACEMENT_X1", "DISPLACEMENT_Y1"
ZONE T="0.000000000000e+00s", N=70, E=99, F=FEPOINT, ET=QUADRILATERAL
STRANDID=1, SOLUTIONTIME=0.000000000000e+00
1.000000000000e-01 -1.000000000000e+00 0.000000000000e+00 0.000000000000e+00 0.000000000000e+00 0.000000000000e+00 0.000000000000e+00 0.000000000000e+00 
0.000000000000e+00 -1.000000000000e+00 0.000000000000e+00 0.000000000000e+00 0.000000000000e+00 0.000000000000e+00 0.000000000000e+00 0.000000000000e+00 
1.000000000000e-01 -4.066333808964e-01 0.000000000000e+00 0.000000000000e+00 0.000000000000e+00 0.000000000000e+00 0.000000000000e+00 0.000000000000e+00 
1.000000000000e-01 -4.336013132129e-01 0.000000000000e+00 0.000000000000e+00 0.000000000000e+00 0.000000000000e+00 0.000000000000e+00 0.000000000000e+00 
1.000000000000e-01 -4.616595392039e-01 0.000000000000e+00 0.000000000000e+00 0.000000000000e+00 0.000000000000e+00 0.000000000000e+00 0.000000000000e+00 
1.000000000000e-01 -4.908798744802e-01 0.000000000000e+00 0.000000000000e+00 0.000000000000e+00 0.000000000000e+00 0.000000000000e+00 0.000000000000e+00 
1.000000000000e-01 -5.212997813718e-01 0.000000000000e+00 0.000000000000e+00 0.000000000000e+00 0.000000000000e+00 0.000000000000e+00 0.000000000000e+00 
1.000000000000e-01 -5.529651305953e-01 0.000000000000e+00 0.000000000000e+00 0.000000000000e+00 0.000000000000e+00 0.000000000000e+00 0.000000000000e+00 
1.000000000000e-01 -5.859254847404e-01 0.000000000000e+00 0.000000000000e+00 0.000000000000e+00 0.000000000000e+00 0.000000000000e+00 0.000000000000e+00 
1.000000000000e-01 -6.202541854239e-01 0.000000000000e+00 0.000000000000e+00 0.000000000000e+00 0.000000000000e+00 0.000000000000e+00 0.000000000000e+00 
1.000000000000e-01 -6.559765085227e-01 0.000000000000e+00 0.000000000000e+00 0.000000000000e+00 0.000000000000e+00 0.000000000000e+00 0.000000000000e+00 
1.000000000000e-01 -6.931783144525e-01 0.000000000000e+00 0.000000000000e+00 0.000000000000e+00 0.000000000000e+00 0.000000000000e+00 0.000000000000e+00 
1.000000000000e-01 -7.319023284412e-01 0.000000000000e+00 0.000000000000e+00 0.000000000000e+00 0.000000000000e+00 0.000000000000e+00 0.000000000000e+00 
1.000000000000e-01 -7.722376567817e-01 0.000000000000e+00 0.000000000000e+00 0.000000000000e+00 0.000000000000e+00 0.000000000000e+00 0.000000000000e+00 
1.000000000000e-01 -8.141871026671e-01 0.000000000000e+00 0.000000000000e+00 0.000000000000e+00 0.000000000000e+00 0.000000000000e+00 0.000000000000e+00 
1.000000000000e-01 -8.578764946731e-01 0.000000000000e+00 0.000000000000e+00 0.000000000000e+00 0.000000000000e+00 0.000000000000e+00 0.000000000000e+00 
1.000000000000e-01 -9.033674988086e-01 0.000000000000e+00 0.000000000000e+00 0.000000000000e+00 0.000000000000e+00 0.000000000000e+00 0.000000000000e+00 
1.000000000000e-01 -9.507169705327e-01 0.000000000000e+00 0.000000000000e+00 0.000000000000e+00 0.000000000000e+00 0.000000000000e+00 0.000000000000e+00 
0.000000000000e+00 -9.507169705327e-01 0.000000000000e+00 0.000000000000e+00 0.000000000000e+00 0.000000000000e+00 0.000000000000e+00 0.000000000000e+00 
0.000000000000e+00 -9.033674988086e-01 0.000000000000e+00 0.000000000000e+00 0.000000000000e+00 0.000000000000e+00 0.000000000000e+00 0.000000000000e+00 
0.000000000000e+00 -8.578764946731e-01 0.000000000000e+00 0.000000000000e+00 0.000000000000e+00 0.000000000000e+00 0.000000000000e+00 0.000000000000e+00 
0.000000000000e+00 -8.141871026671e-01 0.000000000000e+00 0.000000000000e+00 0.000000000000e+00 0.000000000000e+00 0.000000000000e+00 0.000000000000e+00 
0.000000000000e+00 -7.722376567817e-01 0.000000000000e+00 0.000000000000e+00 0.000000000000e+00 0.000000000000e+00 0.000000000000e+00 0.000000000000e+00 
0.000000000000e+00 -7.319023284412e-01 0.000000000000e+00 0.000000000000e+00 0.000000000000e+00 0.000000000000e+00 0.000000000000e+00 0.000000000000e+00 
0.000000000000e+00 -6.931783144525e-01 0.000000000000e+00 0.000000000000e+00 0.000000000000e+00 0.000000000000e+00 0.000000000000e+00 0.000000000000e+00 
0.000000000000e+00 -6.559765085227e-01 0.000000000000e+00 0.000000000000e+00 0.000000000000e+00 0.000000000000e+00 0.000000000000e+00 0.000000000000e+00 
0.000000000000e+00 -6.202541854239e-01 0.000000000000e+00 0.000000000000e+00 0.000000000000e+00 0.000000000000e+00 0.000000000000e+00 0.000000000000e+00 
0.000000000000e+00 -5.859254847404e-01 0.000000000000e+00 0.000000000000e+00 0.000000000000e+00 0.000000000000e+00 0.000000000000e+00 0.000000000000e+00 
0.000000000000e+00 -5.529651305953e-01 0.000000000000e+00 0.000000000000e+00 0.000000000000e+00 0.000000000000e+00 0.000000000000e+00 0.000000000000e+00 
0.000000000000e+00 -5.212997813718e-01 0.000000000000e+00 0.000000000000e+00 0.000000000000e+00 0.000000000000e+00 0.000000000000e+00 0.000000000000e+00 
0.000000000000e+00 -4.908798744802e-01 0.000000000000e+00 0.000000000000e+00 0.000000000000e+00 0.000000000000e+00 0.000000000000e+00 0.000000000000e+00 
0.000000000000e+00 -4.616595392039e-01 0.000000000000e+00 0.000000000000e+00 0.000000000000e+00 0.000000000000e+00 0.000000000000e+00 0.000000000000e+00 
0.000000000000e+00 -4.336013132129e-01 0.000000000000e+00 0.000000000000e+00 0.000000000000e+00 0.000000000000e+00 0.000000000000e+00 0.000000000000e+00 
0.000000000000e+00 -4.066333808964e-01 0.000000000000e+00 0.000000000000e+00 0.000000000000e+00 0.000000000000e+00 0.000000000000e+00 0.000000000000e+00 
5.004338622634e-02 -4.224088684799e-01 0.000000000000e+00 0.000000000000e+00 0.000000000000e+00 0.000000000000e+00 0.000000000000e+00 0.000000000000e+00 
5.008792076171e-02 -4.761562843354e-01 0.000000000000e+00 0.000000000000e+00 0.000000000000e+00 0.000000000000e+00 0.000000000000e+00 0.000000000000e+00 
5.006173506594e-02 -5.371347226804e-01 0.000000000000e+00 0.000000000000e+00 0.000000000000e+00 0.000000000000e+00 0.000000000000e+00 0.000000000000e+00 
5.005598078520e-02 -6.030075791828e-01 0.000000000000e+00 0.000000000000e+00 0.000000000000e+00 0.000000000000e+00 0.000000000000e+00 0.000000000000e+00 
5.008345235811e-02 -6.744505768430e-01 0.000000000000e+00 0.000000000000e+00 0.000000000000e+00 0.000000000000e+00 0.000000000000e+00 0.000000000000e+00 
5.006913214781e-02 -7.520111988761e-01 0.000000000000e+00 0.000000000000e+00 0.000000000000e+00 0.000000000000e+00 0.000000000000e+00 0.000000000000e+00 
5.005245558618e-02 -8.359504089462e-01 0.000000000000e+00 0.000000000000e+00 0.000000000000e+00 0.000000000000e+00 0.000000000000e+00 0.000000000000e+00 
6.944556402011e-02 -3.968201233631e-01 0.000000000000e+00 0.000000000000e+00 0.000000000000e+00 0.000000000000e+00 0.000000000000e+00 0.000000000000e+00 
6.938741587335e-02 -4.492665666015e-01 0.000000000000e+00 0.000000000000e+00 0.000000000000e+00 0.000000000000e+00 0.000000000000e+00 0.000000000000e+00 
5.007750042915e-02 -9.269884316941e-01 0.000000000000e+00 0.000000000000e+00 0.000000000000e+00 0.000000000000e+00 0.000000000000e+00 0.000000000000e+00 
3.079310721189e-02 -4.492985454339e-01 0.000000000000e+00 0.000000000000e+00 0.000000000000e+00 0.000000000000e+00 0.000000000000e+00 0.000000000000e+00 
3.221669410502e-02 -5.066378347700e-01 0.000000000000e+00 0.000000000000e+00 0.000000000000e+00 0.000000000000e+00 0.000000000000e+00 0.000000000000e+00 
6.786784203733e-02 -5.066531442817e-01 0.000000000000e+00 0.000000000000e+00 0.000000000000e+00 0.000000000000e+00 0.000000000000e+00 0.000000000000e+00 
3.339642373282e-02 -5.700696953954e-01 0.000000000000e+00 0.000000000000e+00 0.000000000000e+00 0.000000000000e+00 0.000000000000e+00 0.000000000000e+00 
6.525807751313e-02 -6.387232377182e-01 0.000000000000e+00 0.000000000000e+00 0.000000000000e+00 0.000000000000e+00 0.000000000000e+00 0.000000000000e+00 
5.008827505125e-02 -9.806018183701e-01 0.000000000000e+00 0.000000000000e+00 0.000000000000e+00 0.000000000000e+00 0.000000000000e+00 0.000000000000e+00 
6.875407163887e-02 -5.693536686703e-01 0.000000000000e+00 0.000000000000e+00 0.000000000000e+00 0.000000000000e+00 0.000000000000e+00 0.000000000000e+00 
3.664624163484e-02 -7.132284082360e-01 0.000000000000e+00 0.000000000000e+00 0.000000000000e+00 0.000000000000e+00 0.000000000000e+00 0.000000000000e+00 
6.148490449038e-02 -7.939830735880e-01 0.000000000000e+00 0.000000000000e+00 0.000000000000e+00 0.000000000000e+00 0.000000000000e+00 0.000000000000e+00 
4.100384574845e-02 -8.814719130658e-01 0.000000000000e+00 0.000000000000e+00 0.000000000000e+00 0.000000000000e+00 0.000000000000e+00 0.000000000000e+00 
3.022970257450e-02 -6.380821728272e-01 0.000000000000e+00 0.000000000000e+00 0.000000000000e+00 0.000000000000e+00 0.000000000000e+00 0.000000000000e+00 
2.375340220851e-02 -4.221482437035e-01 0.000000000000e+00 0.000000000000e+00 0.000000000000e+00 0.000000000000e+00 0.000000000000e+00 0.000000000000e+00 
7.632731958147e-02 -4.221881213587e-01 0.000000000000e+00 0.000000000000e+00 0.000000000000e+00 0.000000000000e+00 0.000000000000e+00 0.000000000000e+00 
2.293783770176e-02 -4.762423539471e-01 0.000000000000e+00 0.000000000000e+00 0.000000000000e+00 0.000000000000e+00 0.000000000000e+00 0.000000000000e+00 
7.721888027343e-02 -4.761946882435e-01 0.000000000000e+00 0.000000000000e+00 0.000000000000e+00 0.000000000000e+00 0.000000000000e+00 0.000000000000e+00 
7.129547302367e-02 -7.125259253720e-01 0.000000000000e+00 0.000000000000e+00 0.000000000000e+00 0.000000000000e+00 0.000000000000e+00 0.000000000000e+00 
7.757437444143e-02 -5.370973525672e-01 0.000000000000e+00 0.000000000000e+00 0.000000000000e+00 0.000000000000e+00 0.000000000000e+00 0.000000000000e+00 
2.255445764899e-02 -5.371289046437e-01 0.000000000000e+00 0.000000000000e+00 0.000000000000e+00 0.000000000000e+00 0.000000000000e+00 0.000000000000e+00 
2.720299568724e-02 -7.931304852765e-01 0.000000000000e+00 0.000000000000e+00 0.000000000000e+00 0.000000000000e+00 0.000000000000e+00 0.000000000000e+00 
7.798696120885e-02 -6.030216482613e-01 0.000000000000e+00 0.000000000000e+00 0.000000000000e+00 0.000000000000e+00 0.000000000000e+00 0.000000000000e+00 
2.212749701135e-02 -6.030477024067e-01 0.000000000000e+00 0.000000000000e+00 0.000000000000e+00 0.000000000000e+00 0.000000000000e+00 0.000000000000e+00 
3.066487977987e-02 -3.967816778596e-01 0.000000000000e+00 0.000000000000e+00 0.000000000000e+00 0.000000000000e+00 0.000000000000e+00 0.000000000000e+00 
5.009415947708e-02 -3.711929596105e-01 0.000000000000e+00 0.000000000000e+00 0.000000000000e+00 0.000000000000e+00 0.000000000000e+00 0.000000000000e+00 
1.000000000000e-01 -3.807449903129e-01 0.000000000000e+00 0.000000000000e+00 0.000000000000e+00 0.000000000000e+00 0.000000000000e+00 0.000000000000e+00 
0.000000000000e+00 -3.807449903129e-01 0.000000000000e+00 0.000000000000e+00 0.000000000000e+00 0.000000000000e+00 0.000000000000e+00 0.000000000000e+00 
7.605350107748e-02 -3.708957544133e-01 0.000000000000e+00 0.000000000000e+00 0.000000000000e+00 0.000000000000e+00 0.000000000000e+00 0.000000000000e+00 
25  26  39  25
11  12  39  11
16  17  54  16
35  43  45  35
41  16  54  41
11  39  49  11
39  26  55  39
23  24  40  23
13  14  40  13
25  39  52  25
43  36  45  43
39  12  60  39
17  44  54  17
40  24  52  40
21  22  41  21
46  36  47  46
15  16  41  15
13  40  60  13
40  14  53  40
23  40  63  23
19  44  50  19
44  18  50  44
37  46  47  37
32  33  45  32
4  5  43  4
48  37  51  48
15  41  53  15
21  41  54  21
30  31  46  30
6  7  47  6
19  20  44  19
17  18  44  17
41  22  63  41
42  3  57  42
38  48  51  38
45  33  56  45
2  19  50  2
4  43  57  4
18  1  50  18
28  29  48  28
38  49  55  38
35  42  57  35
35  45  56  35
43  35  57  43
6  47  59  6
46  31  58  46
47  36  59  47
36  46  58  36
44  20  54  44
49  39  55  49
10  11  49  10
52  39  60  52
8  9  51  8
24  25  52  24
48  29  62  48
43  5  59  43
32  45  58  32
37  48  62  37
51  37  61  51
30  46  62  30
36  43  59  36
45  36  58  45
47  7  61  47
40  52  60  40
14  15  53  14
40  53  63  40
46  37  62  46
37  47  61  37
38  55  65  38
38  51  64  38
10  49  64  10
49  38  64  49
20  21  54  20
53  41  63  53
33  34  56  33
3  4  57  3
28  48  65  28
8  51  61  8
48  38  65  48
51  9  64  51
26  27  55  26
31  32  58  31
5  6  59  5
55  27  65  55
12  13  60  12
7  8  61  7
29  30  62  29
22  23  63  22
9  10  64  9
27  28  65  27
1  2  50  1
66  67  42  66
35  66  42  35
68  3  42  68
34  69  66  34
68  42  70  68
42  67  70  42
34  66  56  34
66  35  56  66
VARIABLES  = "X","Y","Z", "STRESS_XX", "STRESS_YY", "STRESS_ZZ", "DISPLACEMENT_X1", "DISPLACEMENT_Y1"
ZONE T="1.000000000000e+01s", N=70, E=99, F=FEPOINT, ET=QUADRILATERAL
STRANDID=1, SOLUTIONTIME=1.000000000000e+01
1.000000000000e-01 -1.000000000000e+00 0.000000000000e+00 -2.380937515897e+02 -9.523750063249e+02 -2.380937515829e+02 0.000000000000e+00 0.000000000000e+00 
0.000000000000e+00 -1.000000000000e+00 0.000000000000e+00 -2.380937514758e+02 -9.523750061674e+02 -2.380937515286e+02 0.000000000000e+00 0.000000000000e+00 
1.000000000000e-01 -4.066333808964e-01 0.000000000000e+00 -2.380937502290e+02 -9.523750001693e+02 -2.380937500797e+02 0.000000000000e+00 -1.695322609903e-02 
1.000000000000e-01 -4.336013132129e-01 0.000000000000e+00 -2.380937501814e+02 -9.523750004537e+02 -2.380937501270e+02 0.000000000000e+00 -1.618271856262e-02 
1.000000000000e-01 -4.616595392039e-01 0.000000000000e+00 -2.380937502582e+02 -9.523750008847e+02 -2.380937502286e+02 0.000000000000e+00 -1.538105997275e-02 
1.000000000000e-01 -4.908798744802e-01 0.000000000000e+00 -2.380937504171e+02 -9.523750014677e+02 -2.380937503770e+02 0.000000000000e+00 -1.454619846751e-02 
1.000000000000e-01 -5.212997813718e-01 0.000000000000e+00 -2.380937506456e+02 -9.523750021298e+02 -2.380937505551e+02 0.000000000000e+00 -1.367706370114e-02 
1.000000000000e-01 -5.529651305953e-01 0.000000000000e+00 -2.380937509111e+02 -9.523750027468e+02 -2.380937507316e+02 0.000000000000e+00 -1.277234508991e-02 
1.000000000000e-01 -5.859254847404e-01 0.000000000000e+00 -2.380937511773e+02 -9.523750033148e+02 -2.380937508984e+02 0.000000000000e+00 -1.183062656866e-02 
1.000000000000e-01 -6.202541854239e-01 0.000000000000e+00 -2.380937513144e+02 -9.523750039266e+02 -2.380937510482e+02 0.000000000000e+00 -1.084981267568e-02 
1.000000000000e-01 -6.559765085227e-01 0.000000000000e+00 -2.380937513525e+02 -9.523750046368e+02 -2.380937511978e+02 0.000000000000e+00 -9.829181247371e-03 
1.000000000000e-01 -6.931783144525e-01 0.000000000000e+00 -2.380937514126e+02 -9.523750053002e+02 -2.380937513426e+02 0.000000000000e+00 -8.766279144244e-03 
1.000000000000e-01 -7.319023284412e-01 0.000000000000e+00 -2.380937514890e+02 -9.523750058480e+02 -2.380937514674e+02 0.000000000000e+00 -7.659885653150e-03 
1.000000000000e-01 -7.722376567817e-01 0.000000000000e+00 -2.380937516278e+02 -9.523750064210e+02 -2.380937516098e+02 0.000000000000e+00 -6.507454895933e-03 
1.000000000000e-01 -8.141871026671e-01 0.000000000000e+00 -2.380937517370e+02 -9.523750068598e+02 -2.380937517194e+02 0.000000000000e+00 -5.308906781864e-03 
1.000000000000e-01 -8.578764946731e-01 0.000000000000e+00 -2.380937518069e+02 -9.523750071451e+02 -2.380937517904e+02 0.000000000000e+00 -4.060646231360e-03 
1.000000000000e-01 -9.033674988086e-01 0.000000000000e+00 -2.380937517862e+02 -9.523750071928e+02 -2.380937517958e+02 0.000000000000e+00 -2.760911369676e-03 
1.000000000000e-01 -9.507169705327e-01 0.000000000000e+00 -2.380937516547e+02 -9.523750069346e+02 -2.380937517179e+02 0.000000000000e+00 -1.408077765586e-03 
0.000000000000e+00 -9.507169705327e-01 0.000000000000e+00 -2.380937517443e+02 -9.523750071429e+02 -2.380937517774e+02 0.000000000000e+00 -1.408077765554e-03 
0.000000000000e+00 -9.033674988086e-01 0.000000000000e+00 -2.380937517706e+02 -9.523750071680e+02 -2.380937517877e+02 0.000000000000e+00 -2.760911369709e-03 
0.000000000000e+00 -8.578764946731e-01 0.000000000000e+00 -2.380937517507e+02 -9.523750070876e+02 -2.380937517677e+02 0.000000000000e+00 -4.060646231367e-03 
0.000000000000e+00 -8.141871026671e-01 0.000000000000e+00 -2.380937516773e+02 -9.523750068008e+02 -2.380937516956e+02 0.000000000000e+00 -5.308906781860e-03 
0.000000000000e+00 -7.722376567817e-01 0.000000000000e+00 -2.380937515590e+02 -9.523750063407e+02 -2.380937515799e+02 0.000000000000e+00 -6.507454895933e-03 
0.000000000000e+00 -7.319023284412e-01 0.000000000000e+00 -2.380937514162e+02 -9.523750058254e+02 -2.380937514483e+02 0.000000000000e+00 -7.659885653193e-03 
0.000000000000e+00 -6.931783144525e-01 0.000000000000e+00 -2.380937512276e+02 -9.523750052935e+02 -2.380937513042e+02 0.000000000000e+00 -8.766279144388e-03 
0.000000000000e+00 -6.559765085227e-01 0.000000000000e+00 -2.380937509142e+02 -9.523750045517e+02 -2.380937510932e+02 0.000000000000e+00 -9.829181247667e-03 
0.000000000000e+00 -6.202541854239e-01 0.000000000000e+00 -2.380937506121e+02 -9.523750032913e+02 -2.380937507807e+02 0.000000000000e+00 -1.084981267594e-02 
0.000000000000e+00 -5.859254847404e-01 0.000000000000e+00 -2.380937504645e+02 -9.523750027505e+02 -2.380937506430e+02 0.000000000000e+00 -1.183062656840e-02 
0.000000000000e+00 -5.529651305953e-01 0.000000000000e+00 -2.380937504423e+02 -9.523750026742e+02 -2.380937506233e+02 0.000000000000e+00 -1.277234508961e-02 
0.000000000000e+00 -5.212997813718e-01 0.000000000000e+00 -2.380937504100e+02 -9.523750021197e+02 -2.380937505060e+02 0.000000000000e+00 -1.367706370097e-02 
0.000000000000e+00 -4.908798744802e-01 0.000000000000e+00 -2.380937502772e+02 -9.523750014073e+02 -2.380937503369e+02 0.000000000000e+00 -1.454619846743e-02 
0.000000000000e+00 -4.616595392039e-01 0.000000000000e+00 -2.380937501785e+02 -9.523750008784e+02 -2.380937502114e+02 0.000000000000e+00 -1.538105997273e-02 
0.000000000000e+00 -4.336013132129e-01 0.000000000000e+00 -2.380937500814e+02 -9.523750005138e+02 -2.380937501190e+02 0.000000000000e+00 -1.618271856269e-02 
0.000000000000e+00 -4.066333808964e-01 0.000000000000e+00 -2.380937500466e+02 -9.523750003751e+02 -2.380937500843e+02 0.000000000000e+00 -1.695322609926e-02 
5.004338622634e-02 -4.224088684799e-01 0.000000000000e+00 -2.380937500660e+02 -9.523750003661e+02 -2.380937500864e+02 6.196789597352e-14 -1.650250069940e-02 
5.008792076171e-02 -4.761562843354e-01 0.000000000000e+00 -2.380937503009e+02 -9.523750011389e+02 -2.380937502880e+02 4.562557005715e-14 -1.496686984297e-02 
5.006173506594e-02 -5.371347226804e-01 0.000000000000e+00 -2.380937506227e+02 -9.523750024236e+02 -2.380937506093e+02 1.727290096554e-13 -1.322463963312e-02 
5.005598078520e-02 -6.030075791828e-01 0.000000000000e+00 -2.380937509936e+02 -9.523750032135e+02 -2.380937508414e+02 4.672058793775e-13 -1.134256977612e-02 
5.008345235811e-02 -6.744505768430e-01 0.000000000000e+00 -2.380937512393e+02 -9.523750049746e+02 -2.380937512428e+02 1.405938739773e-13 -9.301354020368e-03 
5.006913214781e-02 -7.520111988761e-01 0.000000000000e+00 -2.380937515310e+02 -9.523750061161e+02 -2.380937515294e+02 2.496834845896e-14 -7.085350085153e-03 
5.005245558618e-02 -8.359504089462e-01 0.000000000000e+00 -2.380937517485e+02 -9.523750070010e+02 -2.380937517499e+02 2.020993058350e-14 -4.687101912824e-03 
6.944556402011e-02 -3.968201233631e-01 0.000000000000e+00 -2.380937500760e+02 -9.523750000214e+02 -2.380937500195e+02 1.489998899505e-13 -1.723360313340e-02 
6.938741587335e-02 -4.492665666015e-01 0.000000000000e+00 -2.380937501868e+02 -9.523750006890e+02 -2.380937501752e+02 3.144713081965e-14 -1.573514269151e-02 
5.007750042915e-02 -9.269884316941e-01 0.000000000000e+00 -2.380937518228e+02 -9.523750071410e+02 -2.380937517928e+02 -9.592171186872e-15 -2.086031785922e-03 
3.079310721189e-02 -4.492985454339e-01 0.000000000000e+00 -2.380937501670e+02 -9.523750007286e+02 -2.380937501791e+02 3.221815276463e-14 -1.573422901629e-02 
3.221669410502e-02 -5.066378347700e-01 0.000000000000e+00 -2.380937504124e+02 -9.523750018096e+02 -2.380937504444e+02 7.833675068817e-14 -1.409597384373e-02 
6.786784203733e-02 -5.066531442817e-01 0.000000000000e+00 -2.380937505005e+02 -9.523750017776e+02 -2.380937504556e+02 6.787870296551e-14 -1.409553643191e-02 
3.339642373282e-02 -5.700696953954e-01 0.000000000000e+00 -2.380937504998e+02 -9.523750029090e+02 -2.380937506818e+02 2.895041305524e-13 -1.228364629119e-02 
6.525807751313e-02 -6.387232377182e-01 0.000000000000e+00 -2.380937512253e+02 -9.523750042325e+02 -2.380937510916e+02 2.612516975262e-13 -1.032212876318e-02 
5.008827505125e-02 -9.806018183701e-01 0.000000000000e+00 -2.380937517851e+02 -9.523750067875e+02 -2.380937517145e+02 1.468607784815e-14 -5.542303006534e-04 
6.875407163887e-02 -5.693536686703e-01 0.000000000000e+00 -2.380937509542e+02 -9.523750029601e+02 -2.380937507829e+02 2.533737776675e-13 -1.230410407000e-02 
3.664624163484e-02 -7.132284082360e-01 0.000000000000e+00 -2.380937513777e+02 -9.523750055602e+02 -2.380937513876e+02 4.672330263785e-14 -8.193422899055e-03 
6.148490449038e-02 -7.939830735880e-01 0.000000000000e+00 -2.380937516736e+02 -9.523750066639e+02 -2.380937516675e+02 2.077516062704e-14 -5.886161151764e-03 
4.100384574845e-02 -8.814719130658e-01 0.000000000000e+00 -2.380937517935e+02 -9.523750071633e+02 -2.380937517913e+02 1.251309484224e-14 -3.386495628565e-03 
3.022970257450e-02 -6.380821728272e-01 0.000000000000e+00 -2.380937507550e+02 -9.523750041466e+02 -2.380937509803e+02 2.567025090648e-13 -1.034044478872e-02 
2.375340220851e-02 -4.221482437035e-01 0.000000000000e+00 -2.380937500775e+02 -9.523750004582e+02 -2.380937501071e+02 3.262274823190e-14 -1.650994707508e-02 
7.632731958147e-02 -4.221881213587e-01 0.000000000000e+00 -2.380937501014e+02 -9.523750002994e+02 -2.380937500802e+02 6.121674088332e-14 -1.650880772053e-02 
2.293783770176e-02 -4.762423539471e-01 0.000000000000e+00 -2.380937502446e+02 -9.523750011437e+02 -2.380937502777e+02 3.670467393030e-14 -1.496441072655e-02 
7.721888027343e-02 -4.761946882435e-01 0.000000000000e+00 -2.380937503050e+02 -9.523750011147e+02 -2.380937502839e+02 2.619982137059e-14 -1.496577259532e-02 
7.129547302367e-02 -7.125259253720e-01 0.000000000000e+00 -2.380937514146e+02 -9.523750055505e+02 -2.380937513930e+02 4.049322942010e-14 -8.213493712655e-03 
7.757437444143e-02 -5.370973525672e-01 0.000000000000e+00 -2.380937507264e+02 -9.523750024074e+02 -2.380937506268e+02 1.053711960279e-13 -1.322570734406e-02 
2.255445764899e-02 -5.371289046437e-01 0.000000000000e+00 -2.380937504758e+02 -9.523750024454e+02 -2.380937505843e+02 1.149018469579e-13 -1.322480586161e-02 
2.720299568724e-02 -7.931304852765e-01 0.000000000000e+00 -2.380937516418e+02 -9.523750066199e+02 -2.380937516523e+02 1.617190195529e-14 -5.910520665730e-03 
7.798696120885e-02 -6.030216482613e-01 0.000000000000e+00 -2.380937512091e+02 -9.523750034921e+02 -2.380937509402e+02 2.385821499690e-13 -1.134216780496e-02 
2.212749701135e-02 -6.030477024067e-01 0.000000000000e+00 -2.380937498957e+02 -9.523750025210e+02 -2.380937504834e+02 2.715843886176e-13 -1.134142340546e-02 
3.066487977987e-02 -3.967816778596e-01 0.000000000000e+00 -2.380937499322e+02 -9.523750002057e+02 -2.380937500276e+02 1.121519366763e-13 -1.723470156968e-02 
5.009415947708e-02 -3.711929596105e-01 0.000000000000e+00 -2.380937501519e+02 -9.523750007126e+02 -2.380937501729e+02 3.801497204587e-13 -1.796580323616e-02 
1.000000000000e-01 -3.807449903129e-01 0.000000000000e+00 -2.380937503149e+02 -9.523750002243e+02 -2.380937501078e+02 0.000000000000e+00 -1.769288977856e-02 
0.000000000000e+00 -3.807449903129e-01 0.000000000000e+00 -2.380937499370e+02 -9.523750006918e+02 -2.380937501257e+02 0.000000000000e+00 -1.769288977914e-02 
7.605350107748e-02 -3.708957544133e-01 0.000000000000e+00 -2.380937505180e+02 -9.523750007486e+02 -2.380937502533e+02 2.522533921069e-13 -1.797429475994e-02 
25  26  39  25
11  12  39  11
16  17  54  16
35  43  45  35
41  16  54  41
11  39  49  11
39  26  55  39
23  24  40  23
13  14  40  13
25  39  52  25
43  36  45  43
39  12  60  39
17  44  54  17
40  24  52  40
21  22  41  21
46  36  47  46
15  16  41  15
13  40  60  13
40  14  53  40
23  40  63  23
19  44  50  19
44  18  50  44
37  46  47  37
32  33  45  32
4  5  43  4
48  37  51  48
15  41  53  15
21  41  54  21
30  31  46  30
6  7  47  6
19  20  44  19
17  18  44  17
41  22  63  41
42  3  57  42
38  48  51  38
45  33  56  45
2  19  50  2
4  43  57  4
18  1  50  18
28  29  48  28
38  49  55  38
35  42  57  35
35  45  56  35
43  35  57  43
6  47  59  6
46  31  58  46
47  36  59  47
36  46  58  36
44  20  54  44
49  39  55  49
10  11  49  10
52  39  60  52
8  9  51  8
24  25  52  24
48  29  62  48
43  5  59  43
32  45  58  32
37  48  62  37
51  37  61  51
30  46  62  30
36  43  59  36
45  36  58  45
47  7  61  47
40  52  60  40
14  15  53  14
40  53  63  40
46  37  62  46
37  47  61  37
38  55  65  38
38  51  64  38
10  49  64  10
49  38  64  49
20  21  54  20
53  41  63  53
33  34  56  33
3  4  57  3
28  48  65  28
8  51  61  8
48  38  65  48
51  9  64  51
26  27  55  26
31  32  58  31
5  6  59  5
55  27  65  55
12  13  60  12
7  8  61  7
29  30  62  29
22  23  63  22
9  10  64  9
27  28  65  27
1  2  50  1
66  67  42  66
35  66  42  35
68  3  42  68
34  69  66  34
68  42  70  68
42  67  70  42
34  66  56  34
66  35  56  66
