VARIABLES  = "X","Y","Z", "STRESS_XX", "STRESS_YY", "STRESS_ZZ", "DISPLACEMENT_X1", "DISPLACEMENT_Y1"
ZONE T="0.000000000000e+00s", N=75, E=117, F=FEPOINT, ET=QUADRILATERAL
STRANDID=1, SOLUTIONTIME=0.000000000000e+00
0.000000000000e+00 0.000000000000e+00 0.000000000000e+00 0.000000000000e+00 0.000000000000e+00 0.000000000000e+00 0.000000000000e+00 0.000000000000e+00 
1.000000000000e-01 0.000000000000e+00 0.000000000000e+00 0.000000000000e+00 0.000000000000e+00 0.000000000000e+00 0.000000000000e+00 0.000000000000e+00 
1.111111111111e-02 0.000000000000e+00 0.000000000000e+00 0.000000000000e+00 0.000000000000e+00 0.000000000000e+00 0.000000000000e+00 0.000000000000e+00 
2.222222222222e-02 0.000000000000e+00 0.000000000000e+00 0.000000000000e+00 0.000000000000e+00 0.000000000000e+00 0.000000000000e+00 0.000000000000e+00 
3.333333333333e-02 0.000000000000e+00 0.000000000000e+00 0.000000000000e+00 0.000000000000e+00 0.000000000000e+00 0.000000000000e+00 0.000000000000e+00 
4.444444444444e-02 0.000000000000e+00 0.000000000000e+00 0.000000000000e+00 0.000000000000e+00 0.000000000000e+00 0.000000000000e+00 0.000000000000e+00 
5.555555555555e-02 0.000000000000e+00 0.000000000000e+00 0.000000000000e+00 0.000000000000e+00 0.000000000000e+00 0.000000000000e+00 0.000000000000e+00 
6.666666666666e-02 0.000000000000e+00 0.000000000000e+00 0.000000000000e+00 0.000000000000e+00 0.000000000000e+00 0.000000000000e+00 0.000000000000e+00 
7.777777777778e-02 0.000000000000e+00 0.000000000000e+00 0.000000000000e+00 0.000000000000e+00 0.000000000000e+00 0.000000000000e+00 0.000000000000e+00 
8.888888888889e-02 0.000000000000e+00 0.000000000000e+00 0.000000000000e+00 0.000000000000e+00 0.000000000000e+00 0.000000000000e+00 0.000000000000e+00 
1.000000000000e-01 -1.027078831439e-02 0.000000000000e+00 0.000000000000e+00 0.000000000000e+00 0.000000000000e+00 0.000000000000e+00 0.000000000000e+00 
1.000000000000e-01 -2.095579726046e-02 0.000000000000e+00 0.000000000000e+00 0.000000000000e+00 0.000000000000e+00 0.000000000000e+00 0.000000000000e+00 
1.000000000000e-01 -3.207786985738e-02 0.000000000000e+00 0.000000000000e+00 0.000000000000e+00 0.000000000000e+00 0.000000000000e+00 0.000000000000e+00 
0.000000000000e+00 -8.133192903590e-02 0.000000000000e+00 0.000000000000e+00 0.000000000000e+00 0.000000000000e+00 0.000000000000e+00 0.000000000000e+00 
0.000000000000e+00 -6.826783355915e-02 0.000000000000e+00 0.000000000000e+00 0.000000000000e+00 0.000000000000e+00 0.000000000000e+00 0.000000000000e+00 
0.000000000000e+00 -5.571534163644e-02 0.000000000000e+00 0.000000000000e+00 0.000000000000e+00 0.000000000000e+00 0.000000000000e+00 0.000000000000e+00 
0.000000000000e+00 -4.365795665274e-02 0.000000000000e+00 0.000000000000e+00 0.000000000000e+00 0.000000000000e+00 0.000000000000e+00 0.000000000000e+00 
0.000000000000e+00 -3.207786985738e-02 0.000000000000e+00 0.000000000000e+00 0.000000000000e+00 0.000000000000e+00 0.000000000000e+00 0.000000000000e+00 
0.000000000000e+00 -2.095579726046e-02 0.000000000000e+00 0.000000000000e+00 0.000000000000e+00 0.000000000000e+00 0.000000000000e+00 0.000000000000e+00 
0.000000000000e+00 -1.027078831439e-02 0.000000000000e+00 0.000000000000e+00 0.000000000000e+00 0.000000000000e+00 0.000000000000e+00 0.000000000000e+00 
5.004498772813e-02 -4.996206278841e-02 0.000000000000e+00 0.000000000000e+00 0.000000000000e+00 0.000000000000e+00 0.000000000000e+00 0.000000000000e+00 
7.225358222233e-02 -2.762721782684e-02 0.000000000000e+00 0.000000000000e+00 0.000000000000e+00 0.000000000000e+00 0.000000000000e+00 0.000000000000e+00 
2.775548582498e-02 -2.745540160687e-02 0.000000000000e+00 0.000000000000e+00 0.000000000000e+00 0.000000000000e+00 0.000000000000e+00 0.000000000000e+00 
3.144484460580e-02 -7.586712852882e-02 0.000000000000e+00 0.000000000000e+00 0.000000000000e+00 0.000000000000e+00 0.000000000000e+00 0.000000000000e+00 
5.002530677431e-02 -2.216144592127e-02 0.000000000000e+00 0.000000000000e+00 0.000000000000e+00 0.000000000000e+00 0.000000000000e+00 0.000000000000e+00 
2.456481525732e-02 -5.204499879856e-02 0.000000000000e+00 0.000000000000e+00 0.000000000000e+00 0.000000000000e+00 0.000000000000e+00 0.000000000000e+00 
8.415554875855e-02 -1.593261949054e-02 0.000000000000e+00 0.000000000000e+00 0.000000000000e+00 0.000000000000e+00 0.000000000000e+00 0.000000000000e+00 
1.584570179876e-02 -1.589435702197e-02 0.000000000000e+00 0.000000000000e+00 0.000000000000e+00 0.000000000000e+00 0.000000000000e+00 0.000000000000e+00 
5.002678796997e-02 -6.957908922559e-02 0.000000000000e+00 0.000000000000e+00 0.000000000000e+00 0.000000000000e+00 0.000000000000e+00 0.000000000000e+00 
6.357480821475e-02 -1.499016162324e-02 0.000000000000e+00 0.000000000000e+00 0.000000000000e+00 0.000000000000e+00 0.000000000000e+00 0.000000000000e+00 
3.653928432153e-02 -1.491811755562e-02 0.000000000000e+00 0.000000000000e+00 0.000000000000e+00 0.000000000000e+00 0.000000000000e+00 0.000000000000e+00 
4.156694993639e-02 -3.606774926499e-02 0.000000000000e+00 0.000000000000e+00 0.000000000000e+00 0.000000000000e+00 0.000000000000e+00 0.000000000000e+00 
8.454242557621e-02 -3.844635220127e-02 0.000000000000e+00 0.000000000000e+00 0.000000000000e+00 0.000000000000e+00 0.000000000000e+00 0.000000000000e+00 
1.557815204777e-02 -3.837711259674e-02 0.000000000000e+00 0.000000000000e+00 0.000000000000e+00 0.000000000000e+00 0.000000000000e+00 0.000000000000e+00 
5.839491143928e-02 -3.605583620800e-02 0.000000000000e+00 0.000000000000e+00 0.000000000000e+00 0.000000000000e+00 0.000000000000e+00 0.000000000000e+00 
1.693000682173e-02 -6.715456475858e-02 0.000000000000e+00 0.000000000000e+00 0.000000000000e+00 0.000000000000e+00 0.000000000000e+00 0.000000000000e+00 
1.698701460171e-02 -8.593339913784e-02 0.000000000000e+00 0.000000000000e+00 0.000000000000e+00 0.000000000000e+00 0.000000000000e+00 0.000000000000e+00 
3.802067276118e-02 -5.975942885331e-02 0.000000000000e+00 0.000000000000e+00 0.000000000000e+00 0.000000000000e+00 0.000000000000e+00 0.000000000000e+00 
5.005728778040e-02 -1.036531727070e-02 0.000000000000e+00 0.000000000000e+00 0.000000000000e+00 0.000000000000e+00 0.000000000000e+00 0.000000000000e+00 
7.049571814535e-02 -4.034466657971e-02 0.000000000000e+00 0.000000000000e+00 0.000000000000e+00 0.000000000000e+00 0.000000000000e+00 0.000000000000e+00 
2.941632652166e-02 -4.017271159170e-02 0.000000000000e+00 0.000000000000e+00 0.000000000000e+00 0.000000000000e+00 0.000000000000e+00 0.000000000000e+00 
8.897479783189e-02 -2.710999574393e-02 0.000000000000e+00 0.000000000000e+00 0.000000000000e+00 0.000000000000e+00 0.000000000000e+00 0.000000000000e+00 
1.113464613131e-02 -2.708126415819e-02 0.000000000000e+00 0.000000000000e+00 0.000000000000e+00 0.000000000000e+00 0.000000000000e+00 0.000000000000e+00 
2.597015323725e-02 -1.069324664278e-02 0.000000000000e+00 0.000000000000e+00 0.000000000000e+00 0.000000000000e+00 0.000000000000e+00 0.000000000000e+00 
7.408283873696e-02 -1.070827713528e-02 0.000000000000e+00 0.000000000000e+00 0.000000000000e+00 0.000000000000e+00 0.000000000000e+00 0.000000000000e+00 
1.181905148011e-02 -5.063704677617e-02 0.000000000000e+00 0.000000000000e+00 0.000000000000e+00 0.000000000000e+00 0.000000000000e+00 0.000000000000e+00 
3.837716410809e-02 -4.791954238685e-02 0.000000000000e+00 0.000000000000e+00 0.000000000000e+00 0.000000000000e+00 0.000000000000e+00 0.000000000000e+00 
3.962016499175e-02 -2.535813545822e-02 0.000000000000e+00 0.000000000000e+00 0.000000000000e+00 0.000000000000e+00 0.000000000000e+00 0.000000000000e+00 
6.040098105514e-02 -2.537942735538e-02 0.000000000000e+00 0.000000000000e+00 0.000000000000e+00 0.000000000000e+00 0.000000000000e+00 0.000000000000e+00 
6.163087269112e-02 -4.804641620450e-02 0.000000000000e+00 0.000000000000e+00 0.000000000000e+00 0.000000000000e+00 0.000000000000e+00 0.000000000000e+00 
9.069229804381e-02 -9.171850869289e-03 0.000000000000e+00 0.000000000000e+00 0.000000000000e+00 0.000000000000e+00 0.000000000000e+00 0.000000000000e+00 
9.354468020660e-03 -9.152635551513e-03 0.000000000000e+00 0.000000000000e+00 0.000000000000e+00 0.000000000000e+00 0.000000000000e+00 0.000000000000e+00 
2.804557775330e-02 -6.508329529637e-02 0.000000000000e+00 0.000000000000e+00 0.000000000000e+00 0.000000000000e+00 0.000000000000e+00 0.000000000000e+00 
1.044096559141e-02 -7.656376756274e-02 0.000000000000e+00 0.000000000000e+00 0.000000000000e+00 0.000000000000e+00 0.000000000000e+00 0.000000000000e+00 
6.112116579903e-02 -6.644401917176e-03 0.000000000000e+00 0.000000000000e+00 0.000000000000e+00 0.000000000000e+00 0.000000000000e+00 0.000000000000e+00 
3.895159902251e-02 -6.578247738084e-03 0.000000000000e+00 0.000000000000e+00 0.000000000000e+00 0.000000000000e+00 0.000000000000e+00 0.000000000000e+00 
1.789231550313e-02 -7.427897760453e-03 0.000000000000e+00 0.000000000000e+00 0.000000000000e+00 0.000000000000e+00 0.000000000000e+00 0.000000000000e+00 
4.997781314446e-02 -3.165806160767e-02 0.000000000000e+00 0.000000000000e+00 0.000000000000e+00 0.000000000000e+00 0.000000000000e+00 0.000000000000e+00 
8.218065868343e-02 -7.482707021761e-03 0.000000000000e+00 0.000000000000e+00 0.000000000000e+00 0.000000000000e+00 0.000000000000e+00 0.000000000000e+00 
7.593146034688e-02 -1.946650689593e-02 0.000000000000e+00 0.000000000000e+00 0.000000000000e+00 0.000000000000e+00 0.000000000000e+00 0.000000000000e+00 
9.097483185567e-03 -6.052866285240e-02 0.000000000000e+00 0.000000000000e+00 0.000000000000e+00 0.000000000000e+00 0.000000000000e+00 0.000000000000e+00 
2.403235587872e-02 -1.937579604224e-02 0.000000000000e+00 0.000000000000e+00 0.000000000000e+00 0.000000000000e+00 0.000000000000e+00 0.000000000000e+00 
5.204798323580e-02 -5.977244273485e-02 0.000000000000e+00 0.000000000000e+00 0.000000000000e+00 0.000000000000e+00 0.000000000000e+00 0.000000000000e+00 
3.977027004405e-02 -6.986979884634e-02 0.000000000000e+00 0.000000000000e+00 0.000000000000e+00 0.000000000000e+00 0.000000000000e+00 0.000000000000e+00 
1.000000000000e-01 -4.365795665274e-02 0.000000000000e+00 0.000000000000e+00 0.000000000000e+00 0.000000000000e+00 0.000000000000e+00 0.000000000000e+00 
0.000000000000e+00 -9.493635849425e-02 0.000000000000e+00 0.000000000000e+00 0.000000000000e+00 0.000000000000e+00 0.000000000000e+00 0.000000000000e+00 
7.556622015059e-02 -5.213930935979e-02 0.000000000000e+00 0.000000000000e+00 0.000000000000e+00 0.000000000000e+00 0.000000000000e+00 0.000000000000e+00 
8.827644021441e-02 -5.068271212769e-02 0.000000000000e+00 0.000000000000e+00 0.000000000000e+00 0.000000000000e+00 0.000000000000e+00 0.000000000000e+00 
1.125853509499e-02 -1.018913627337e-01 0.000000000000e+00 0.000000000000e+00 0.000000000000e+00 0.000000000000e+00 0.000000000000e+00 0.000000000000e+00 
3.176003359910e-02 -8.986364252605e-02 0.000000000000e+00 0.000000000000e+00 0.000000000000e+00 0.000000000000e+00 0.000000000000e+00 0.000000000000e+00 
2.453145878902e-02 -1.018531985808e-01 0.000000000000e+00 0.000000000000e+00 0.000000000000e+00 0.000000000000e+00 0.000000000000e+00 0.000000000000e+00 
6.206074805899e-02 -5.978173210899e-02 0.000000000000e+00 0.000000000000e+00 0.000000000000e+00 0.000000000000e+00 0.000000000000e+00 0.000000000000e+00 
4.512057632941e-02 -8.568062374441e-02 0.000000000000e+00 0.000000000000e+00 0.000000000000e+00 0.000000000000e+00 0.000000000000e+00 0.000000000000e+00 
5.675176755435e-02 -8.029564380893e-02 0.000000000000e+00 0.000000000000e+00 0.000000000000e+00 0.000000000000e+00 0.000000000000e+00 0.000000000000e+00 
6.027993180190e-02 -6.988363285687e-02 0.000000000000e+00 0.000000000000e+00 0.000000000000e+00 0.000000000000e+00 0.000000000000e+00 0.000000000000e+00 
33  22  42  33
23  34  43  23
21  32  58  21
35  21  58  35
36  24  37  36
12  27  51  12
28  19  52  28
27  12  42  27
19  28  43  19
17  18  34  17
36  37  54  36
42  22  60  42
30  25  39  30
25  31  39  25
23  43  62  23
22  33  40  22
34  23  41  34
13  33  42  13
34  18  43  34
26  36  61  26
23  32  41  23
35  22  40  35
46  26  61  46
32  23  48  32
26  34  41  26
22  35  49  22
17  34  46  17
25  30  49  25
11  12  51  11
31  25  48  31
19  20  52  19
31  23  62  31
30  22  49  30
22  30  60  22
23  31  48  23
34  26  46  34
32  21  47  32
21  35  50  21
27  42  60  27
43  28  62  43
44  5  56  44
8  45  55  8
36  26  53  36
30  39  55  30
39  31  56  39
4  5  44  4
8  9  45  8
38  26  47  38
37  14  54  37
24  36  53  24
10  2  51  10
31  44  56  31
45  30  55  45
6  7  39  6
1  3  52  1
26  38  53  26
2  11  51  2
38  21  63  38
20  1  52  20
21  38  47  21
54  15  61  54
26  41  47  26
36  54  61  36
44  31  62  44
29  38  63  29
12  13  42  12
18  19  43  18
30  45  60  30
38  29  64  38
21  50  63  21
16  17  46  16
6  39  56  6
39  7  55  39
35  40  50  35
41  32  47  41
3  4  57  3
9  10  59  9
25  49  58  25
48  25  58  48
49  35  58  49
32  48  58  32
5  6  56  5
14  15  54  14
7  8  55  7
4  44  57  4
45  9  59  45
44  28  57  44
28  44  62  28
45  27  60  45
27  45  59  27
16  46  61  16
15  16  61  15
10  51  59  10
52  3  57  52
53  38  64  53
24  53  64  24
28  52  57  28
51  27  59  51
13  65  33  13
66  14  37  66
33  67  40  33
33  65  68  33
66  37  69  66
67  33  68  67
37  24  70  37
37  71  69  37
67  72  50  67
29  73  64  29
73  24  64  73
71  37  70  71
24  73  70  24
73  29  74  73
40  67  50  40
50  72  63  50
63  72  75  63
29  63  75  29
74  29  75  74
VARIABLES  = "X","Y","Z", "STRESS_XX", "STRESS_YY", "STRESS_ZZ", "DISPLACEMENT_X1", "DISPLACEMENT_Y1"
ZONE T="1.000000000000e+01s", N=75, E=117, F=FEPOINT, ET=QUADRILATERAL
STRANDID=1, SOLUTIONTIME=1.000000000000e+01
0.000000000000e+00 0.000000000000e+00 0.000000000000e+00 -2.499454851391e+02 -9.997637404120e+02 -2.499418451102e+02 0.000000000000e+00 -2.863478475475e-02 
1.000000000000e-01 0.000000000000e+00 0.000000000000e+00 -2.497971757830e+02 -9.991680460594e+02 -2.497930443685e+02 0.000000000000e+00 -2.863478418629e-02 
1.111111111111e-02 0.000000000000e+00 0.000000000000e+00 -2.499233801468e+02 -9.997122062066e+02 -2.499271172707e+02 -5.936971629764e-11 -2.863478316177e-02 
2.222222222222e-02 0.000000000000e+00 0.000000000000e+00 -2.498248469852e+02 -9.992987300351e+02 -2.498247154041e+02 1.338414908572e-09 -2.863478409025e-02 
3.333333333333e-02 0.000000000000e+00 0.000000000000e+00 -2.499367157001e+02 -9.997449845908e+02 -2.499363400582e+02 4.092146131860e-10 -2.863478469873e-02 
4.444444444444e-02 0.000000000000e+00 0.000000000000e+00 -2.498390195751e+02 -9.993440883852e+02 -2.498366215921e+02 6.386282811572e-10 -2.863478544490e-02 
5.555555555555e-02 0.000000000000e+00 0.000000000000e+00 -2.499377937228e+02 -9.997427233148e+02 -2.499361034075e+02 -1.490739966100e-09 -2.863478522778e-02 
6.666666666666e-02 0.000000000000e+00 0.000000000000e+00 -2.498314038259e+02 -9.993283492329e+02 -2.498319506118e+02 -9.970649408601e-10 -2.863478416162e-02 
7.777777777778e-02 0.000000000000e+00 0.000000000000e+00 -2.499269577101e+02 -9.997100655255e+02 -2.499274046471e+02 -1.631929325854e-09 -2.863478349698e-02 
8.888888888889e-02 0.000000000000e+00 0.000000000000e+00 -2.498337472375e+02 -9.993548883632e+02 -2.498377271201e+02 -6.703444671578e-11 -2.863478259223e-02 
1.000000000000e-01 -1.027078831439e-02 0.000000000000e+00 -2.480886648679e+02 -9.923303259755e+02 -2.480837981687e+02 0.000000000000e+00 -2.832776121973e-02 
1.000000000000e-01 -2.095579726046e-02 0.000000000000e+00 -2.463893922147e+02 -9.855762526538e+02 -2.463931289737e+02 0.000000000000e+00 -2.801064691174e-02 
1.000000000000e-01 -3.207786985738e-02 0.000000000000e+00 -2.446097480361e+02 -9.784568663284e+02 -2.446133228729e+02 0.000000000000e+00 -2.768290379595e-02 
0.000000000000e+00 -8.133192903590e-02 0.000000000000e+00 -2.398906955066e+02 -9.594769511621e+02 -2.398735293337e+02 0.000000000000e+00 -2.625311429877e-02 
0.000000000000e+00 -6.826783355915e-02 0.000000000000e+00 -2.407744942373e+02 -9.631413015272e+02 -2.407831591529e+02 0.000000000000e+00 -2.662974619485e-02 
0.000000000000e+00 -5.571534163644e-02 0.000000000000e+00 -2.418755222882e+02 -9.674473752998e+02 -2.418645795176e+02 0.000000000000e+00 -2.699311489388e-02 
0.000000000000e+00 -4.365795665274e-02 0.000000000000e+00 -2.432196234119e+02 -9.729032402891e+02 -2.432245727402e+02 0.000000000000e+00 -2.734393649597e-02 
0.000000000000e+00 -3.207786985738e-02 0.000000000000e+00 -2.448435434550e+02 -9.793877543608e+02 -2.448462595632e+02 0.000000000000e+00 -2.768290359835e-02 
0.000000000000e+00 -2.095579726046e-02 0.000000000000e+00 -2.465353761243e+02 -9.861601162140e+02 -2.465390984677e+02 0.000000000000e+00 -2.801064714238e-02 
0.000000000000e+00 -1.027078831439e-02 0.000000000000e+00 -2.483876707674e+02 -9.935241541004e+02 -2.483823649736e+02 0.000000000000e+00 -2.832776170650e-02 
5.004498772813e-02 -4.996206278841e-02 0.000000000000e+00 -2.424521987381e+02 -9.697592235394e+02 -2.424422844555e+02 1.283333638629e-09 -2.716025215870e-02 
7.225358222233e-02 -2.762721782684e-02 0.000000000000e+00 -2.453682444401e+02 -9.814778584972e+02 -2.453692205875e+02 -5.439565176711e-09 -2.781378768788e-02 
2.775548582498e-02 -2.745540160687e-02 0.000000000000e+00 -2.453970741383e+02 -9.815879399308e+02 -2.453970028138e+02 5.401931287458e-09 -2.781884767539e-02 
3.144484460580e-02 -7.586712852882e-02 0.000000000000e+00 -2.401513634898e+02 -9.606463325386e+02 -2.401595392057e+02 -1.154988680023e-09 -2.641050303409e-02 
5.002530677431e-02 -2.216144592127e-02 0.000000000000e+00 -2.462319845898e+02 -9.849291773843e+02 -2.462322323948e+02 -3.976469858858e-10 -2.797501492245e-02 
2.456481525732e-02 -5.204499879856e-02 0.000000000000e+00 -2.421590966087e+02 -9.686451447617e+02 -2.421608482741e+02 1.661506373861e-09 -2.709969774295e-02 
8.415554875855e-02 -1.593261949054e-02 0.000000000000e+00 -2.472289948852e+02 -9.889148589707e+02 -2.472287707712e+02 -6.530213537137e-10 -2.815944442822e-02 
1.584570179876e-02 -1.589435702197e-02 0.000000000000e+00 -2.473170032967e+02 -9.892674775283e+02 -2.473168961650e+02 5.672303863361e-10 -2.816058019777e-02 
5.002678796997e-02 -6.957908922559e-02 0.000000000000e+00 -2.405870892330e+02 -9.623850279109e+02 -2.405944234288e+02 -1.518366276088e-09 -2.659187863966e-02 
6.357480821475e-02 -1.499016162324e-02 0.000000000000e+00 -2.474041390445e+02 -9.896073886426e+02 -2.474023055374e+02 -1.441325114196e-09 -2.818742135091e-02 
3.653928432153e-02 -1.491811755562e-02 0.000000000000e+00 -2.473989077609e+02 -9.895826228289e+02 -2.473963061180e+02 9.866649113104e-10 -2.818956084305e-02 
4.156694993639e-02 -3.606774926499e-02 0.000000000000e+00 -2.441795217181e+02 -9.767080621489e+02 -2.441775167734e+02 4.733771213086e-09 -2.756587179690e-02 
8.454242557621e-02 -3.844635220127e-02 0.000000000000e+00 -2.437665496193e+02 -9.751176039826e+02 -2.437768307204e+02 -4.954457504146e-09 -2.749622166664e-02 
1.557815204777e-02 -3.837711259674e-02 0.000000000000e+00 -2.438495815164e+02 -9.754530439655e+02 -2.438605250964e+02 5.169071966234e-09 -2.749824716796e-02 
5.839491143928e-02 -3.605583620800e-02 0.000000000000e+00 -2.441188033628e+02 -9.764682939161e+02 -2.441174194558e+02 -5.417941672149e-09 -2.756622111898e-02 
1.693000682173e-02 -6.715456475858e-02 0.000000000000e+00 -2.407216566567e+02 -9.629079661845e+02 -2.407259245682e+02 -1.000432890868e-09 -2.666190882812e-02 
1.698701460171e-02 -8.593339913784e-02 0.000000000000e+00 -2.395434361535e+02 -9.581861412901e+02 -2.395459154887e+02 3.133044192206e-09 -2.612075595365e-02 
3.802067276118e-02 -5.975942885331e-02 0.000000000000e+00 -2.414060239552e+02 -9.656316701522e+02 -2.414075388215e+02 2.795560910520e-10 -2.687585143237e-02 
5.005728778040e-02 -1.036531727070e-02 0.000000000000e+00 -2.482338555616e+02 -9.929024674112e+02 -2.482272645946e+02 -3.653300787628e-10 -2.832495034767e-02 
7.049571814535e-02 -4.034466657971e-02 0.000000000000e+00 -2.434818157576e+02 -9.739280428374e+02 -2.434819717190e+02 -5.665815191998e-09 -2.744069996311e-02 
2.941632652166e-02 -4.017271159170e-02 0.000000000000e+00 -2.436397620693e+02 -9.745532527713e+02 -2.436386029681e+02 6.076671993138e-09 -2.744572588244e-02 
8.897479783189e-02 -2.710999574393e-02 0.000000000000e+00 -2.454343558900e+02 -9.817524917412e+02 -2.454373695262e+02 -2.859538307792e-09 -2.782901449751e-02 
1.113464613131e-02 -2.708126415819e-02 0.000000000000e+00 -2.455440644507e+02 -9.821887916573e+02 -2.455465712216e+02 2.955179207860e-09 -2.782986083772e-02 
2.597015323725e-02 -1.069324664278e-02 0.000000000000e+00 -2.481346611879e+02 -9.925420502009e+02 -2.481353422778e+02 7.667458229187e-10 -2.831518132957e-02 
7.408283873696e-02 -1.070827713528e-02 0.000000000000e+00 -2.481308849498e+02 -9.925288378890e+02 -2.481319445678e+02 -1.045467331638e-09 -2.831473320893e-02 
1.181905148011e-02 -5.063704677617e-02 0.000000000000e+00 -2.423057419269e+02 -9.692546368442e+02 -2.423120757542e+02 2.197965037911e-09 -2.714063210284e-02 
3.837716410809e-02 -4.791954238685e-02 0.000000000000e+00 -2.426608495698e+02 -9.705841935794e+02 -2.426490086298e+02 5.460238078393e-09 -2.721970503660e-02 
3.962016499175e-02 -2.535813545822e-02 0.000000000000e+00 -2.457861499493e+02 -9.830662358520e+02 -2.457704771603e+02 1.201694081391e-09 -2.788065441225e-02 
6.040098105514e-02 -2.537942735538e-02 0.000000000000e+00 -2.456417397206e+02 -9.824990146316e+02 -2.456281508705e+02 -1.755099486982e-09 -2.788002627397e-02 
6.163087269112e-02 -4.804641620450e-02 0.000000000000e+00 -2.425830452239e+02 -9.702556007237e+02 -2.425677291895e+02 -5.424546146548e-09 -2.721601358600e-02 
9.069229804381e-02 -9.171850869289e-03 0.000000000000e+00 -2.483277139489e+02 -9.933352937135e+02 -2.483326015325e+02 3.247537258798e-10 -2.836050623114e-02 
9.354468020660e-03 -9.152635551513e-03 0.000000000000e+00 -2.484833343952e+02 -9.939590731833e+02 -2.484884815157e+02 -4.064838379964e-10 -2.836107954315e-02 
2.804557775330e-02 -6.508329529637e-02 0.000000000000e+00 -2.409740049088e+02 -9.638629264157e+02 -2.409673862649e+02 -2.743121109094e-09 -2.672177372452e-02 
1.044096559141e-02 -7.656376756274e-02 0.000000000000e+00 -2.401368844840e+02 -9.605884425859e+02 -2.401450654140e+02 -2.724138098738e-10 -2.639041653592e-02 
6.112116579903e-02 -6.644401917176e-03 0.000000000000e+00 -2.488387126769e+02 -9.953594216566e+02 -2.488396268667e+02 -1.216213038380e-09 -2.843591476298e-02 
3.895159902251e-02 -6.578247738084e-03 0.000000000000e+00 -2.488506914021e+02 -9.954054546363e+02 -2.488512292077e+02 6.069169663631e-10 -2.843789067550e-02 
1.789231550313e-02 -7.427897760453e-03 0.000000000000e+00 -2.487054297665e+02 -9.948174312820e+02 -2.487045722097e+02 5.576328345656e-10 -2.841252364672e-02 
4.997781314446e-02 -3.165806160767e-02 0.000000000000e+00 -2.447803175826e+02 -9.790662332656e+02 -2.447693101696e+02 -3.659679557820e-10 -2.769524433317e-02 
8.218065868343e-02 -7.482707021761e-03 0.000000000000e+00 -2.486954834874e+02 -9.947791620286e+02 -2.486949291032e+02 -7.499227774650e-10 -2.841088731586e-02 
7.593146034688e-02 -1.946650689593e-02 0.000000000000e+00 -2.466614353435e+02 -9.866926580243e+02 -2.466708186735e+02 -2.585990325804e-09 -2.805471435099e-02 
9.097483185567e-03 -6.052866285240e-02 0.000000000000e+00 -2.413269148617e+02 -9.653083270774e+02 -2.413270483878e+02 -1.483524375217e-09 -2.685358143053e-02 
2.403235587872e-02 -1.937579604224e-02 0.000000000000e+00 -2.466771791632e+02 -9.867530893853e+02 -2.466860537097e+02 2.419029027665e-09 -2.805739998419e-02 
5.204798323580e-02 -5.977244273485e-02 0.000000000000e+00 -2.413917312898e+02 -9.656014636113e+02 -2.413986389802e+02 3.304765930623e-09 -2.687547345868e-02 
3.977027004405e-02 -6.986979884634e-02 0.000000000000e+00 -2.405612528845e+02 -9.622325671809e+02 -2.405587640131e+02 -2.579879456574e-10 -2.658348781250e-02 
1.000000000000e-01 -4.365795665274e-02 0.000000000000e+00 -2.430510095264e+02 -9.722251310567e+02 -2.430552281166e+02 0.000000000000e+00 -2.734393691023e-02 
0.000000000000e+00 -9.493635849425e-02 0.000000000000e+00 -2.392236106669e+02 -9.568936613546e+02 -2.392234544043e+02 0.000000000000e+00 -2.586214339951e-02 
7.556622015059e-02 -5.213930935979e-02 0.000000000000e+00 -2.421554430931e+02 -9.686570406033e+02 -2.421624967393e+02 -2.321174628708e-09 -2.709695824146e-02 
8.827644021441e-02 -5.068271212769e-02 0.000000000000e+00 -2.423676328786e+02 -9.694836718069e+02 -2.423702609371e+02 -2.428501665491e-09 -2.713930450454e-02 
1.125853509499e-02 -1.018913627337e-01 0.000000000000e+00 -2.389177260460e+02 -9.556732469763e+02 -2.389181946045e+02 2.586894578682e-09 -2.566262361468e-02 
3.176003359910e-02 -8.986364252605e-02 0.000000000000e+00 -2.394213279274e+02 -9.576013221042e+02 -2.394045300063e+02 7.824106010382e-10 -2.600780574697e-02 
2.453145878902e-02 -1.018531985808e-01 0.000000000000e+00 -2.389476021647e+02 -9.557939712810e+02 -2.389483146891e+02 6.183325358265e-10 -2.566371754996e-02 
6.206074805899e-02 -5.978173210899e-02 0.000000000000e+00 -2.413805135585e+02 -9.654377608493e+02 -2.413636548816e+02 2.906731083524e-11 -2.687520414455e-02 
4.512057632941e-02 -8.568062374441e-02 0.000000000000e+00 -2.396221916318e+02 -9.584443500913e+02 -2.396133083446e+02 -2.005996243744e-09 -2.612802775502e-02 
5.675176755435e-02 -8.029564380893e-02 0.000000000000e+00 -2.399555383539e+02 -9.599114366743e+02 -2.399733950056e+02 -9.652778200319e-10 -2.628294631901e-02 
6.027993180190e-02 -6.988363285687e-02 0.000000000000e+00 -2.406045129885e+02 -9.623988567824e+02 -2.406006739542e+02 1.065576798143e-09 -2.658308104510e-02 
33  22  42  33
23  34  43  23
21  32  58  21
35  21  58  35
36  24  37  36
12  27  51  12
28  19  52  28
27  12  42  27
19  28  43  19
17  18  34  17
36  37  54  36
42  22  60  42
30  25  39  30
25  31  39  25
23  43  62  23
22  33  40  22
34  23  41  34
13  33  42  13
34  18  43  34
26  36  61  26
23  32  41  23
35  22  40  35
46  26  61  46
32  23  48  32
26  34  41  26
22  35  49  22
17  34  46  17
25  30  49  25
11  12  51  11
31  25  48  31
19  20  52  19
31  23  62  31
30  22  49  30
22  30  60  22
23  31  48  23
34  26  46  34
32  21  47  32
21  35  50  21
27  42  60  27
43  28  62  43
44  5  56  44
8  45  55  8
36  26  53  36
30  39  55  30
39  31  56  39
4  5  44  4
8  9  45  8
38  26  47  38
37  14  54  37
24  36  53  24
10  2  51  10
31  44  56  31
45  30  55  45
6  7  39  6
1  3  52  1
26  38  53  26
2  11  51  2
38  21  63  38
20  1  52  20
21  38  47  21
54  15  61  54
26  41  47  26
36  54  61  36
44  31  62  44
29  38  63  29
12  13  42  12
18  19  43  18
30  45  60  30
38  29  64  38
21  50  63  21
16  17  46  16
6  39  56  6
39  7  55  39
35  40  50  35
41  32  47  41
3  4  57  3
9  10  59  9
25  49  58  25
48  25  58  48
49  35  58  49
32  48  58  32
5  6  56  5
14  15  54  14
7  8  55  7
4  44  57  4
45  9  59  45
44  28  57  44
28  44  62  28
45  27  60  45
27  45  59  27
16  46  61  16
15  16  61  15
10  51  59  10
52  3  57  52
53  38  64  53
24  53  64  24
28  52  57  28
51  27  59  51
13  65  33  13
66  14  37  66
33  67  40  33
33  65  68  33
66  37  69  66
67  33  68  67
37  24  70  37
37  71  69  37
67  72  50  67
29  73  64  29
73  24  64  73
71  37  70  71
24  73  70  24
73  29  74  73
40  67  50  40
50  72  63  50
63  72  75  63
29  63  75  29
74  29  75  74
