VARIABLES  = "X","Y","Z", "PRESSURE1"
ZONE T="0.000000000000e+00s", N=75, E=117, F=FEPOINT, ET=QUADRILATERAL
STRANDID=1, SOLUTIONTIME=0.000000000000e+00
0.000000000000e+00 0.000000000000e+00 0.000000000000e+00 0.000000000000e+00 
1.000000000000e-01 0.000000000000e+00 0.000000000000e+00 0.000000000000e+00 
1.111111111111e-02 0.000000000000e+00 0.000000000000e+00 0.000000000000e+00 
2.222222222222e-02 0.000000000000e+00 0.000000000000e+00 0.000000000000e+00 
3.333333333333e-02 0.000000000000e+00 0.000000000000e+00 0.000000000000e+00 
4.444444444444e-02 0.000000000000e+00 0.000000000000e+00 0.000000000000e+00 
5.555555555555e-02 0.000000000000e+00 0.000000000000e+00 0.000000000000e+00 
6.666666666666e-02 0.000000000000e+00 0.000000000000e+00 0.000000000000e+00 
7.777777777778e-02 0.000000000000e+00 0.000000000000e+00 0.000000000000e+00 
8.888888888889e-02 0.000000000000e+00 0.000000000000e+00 0.000000000000e+00 
1.000000000000e-01 -1.027078831439e-02 0.000000000000e+00 0.000000000000e+00 
1.000000000000e-01 -2.095579726046e-02 0.000000000000e+00 0.000000000000e+00 
1.000000000000e-01 -3.207786985738e-02 0.000000000000e+00 0.000000000000e+00 
0.000000000000e+00 -8.133192903590e-02 0.000000000000e+00 0.000000000000e+00 
0.000000000000e+00 -6.826783355915e-02 0.000000000000e+00 0.000000000000e+00 
0.000000000000e+00 -5.571534163644e-02 0.000000000000e+00 0.000000000000e+00 
0.000000000000e+00 -4.365795665274e-02 0.000000000000e+00 0.000000000000e+00 
0.000000000000e+00 -3.207786985738e-02 0.000000000000e+00 0.000000000000e+00 
0.000000000000e+00 -2.095579726046e-02 0.000000000000e+00 0.000000000000e+00 
0.000000000000e+00 -1.027078831439e-02 0.000000000000e+00 0.000000000000e+00 
5.004498772813e-02 -4.996206278841e-02 0.000000000000e+00 0.000000000000e+00 
7.225358222233e-02 -2.762721782684e-02 0.000000000000e+00 0.000000000000e+00 
2.775548582498e-02 -2.745540160687e-02 0.000000000000e+00 0.000000000000e+00 
3.144484460580e-02 -7.586712852882e-02 0.000000000000e+00 0.000000000000e+00 
5.002530677431e-02 -2.216144592127e-02 0.000000000000e+00 0.000000000000e+00 
2.456481525732e-02 -5.204499879856e-02 0.000000000000e+00 0.000000000000e+00 
8.415554875855e-02 -1.593261949054e-02 0.000000000000e+00 0.000000000000e+00 
1.584570179876e-02 -1.589435702197e-02 0.000000000000e+00 0.000000000000e+00 
5.002678796997e-02 -6.957908922559e-02 0.000000000000e+00 0.000000000000e+00 
6.357480821475e-02 -1.499016162324e-02 0.000000000000e+00 0.000000000000e+00 
3.653928432153e-02 -1.491811755562e-02 0.000000000000e+00 0.000000000000e+00 
4.156694993639e-02 -3.606774926499e-02 0.000000000000e+00 0.000000000000e+00 
8.454242557621e-02 -3.844635220127e-02 0.000000000000e+00 0.000000000000e+00 
1.557815204777e-02 -3.837711259674e-02 0.000000000000e+00 0.000000000000e+00 
5.839491143928e-02 -3.605583620800e-02 0.000000000000e+00 0.000000000000e+00 
1.693000682173e-02 -6.715456475858e-02 0.000000000000e+00 0.000000000000e+00 
1.698701460171e-02 -8.593339913784e-02 0.000000000000e+00 0.000000000000e+00 
3.802067276118e-02 -5.975942885331e-02 0.000000000000e+00 0.000000000000e+00 
5.005728778040e-02 -1.036531727070e-02 0.000000000000e+00 0.000000000000e+00 
7.049571814535e-02 -4.034466657971e-02 0.000000000000e+00 0.000000000000e+00 
2.941632652166e-02 -4.017271159170e-02 0.000000000000e+00 0.000000000000e+00 
8.897479783189e-02 -2.710999574393e-02 0.000000000000e+00 0.000000000000e+00 
1.113464613131e-02 -2.708126415819e-02 0.000000000000e+00 0.000000000000e+00 
2.597015323725e-02 -1.069324664278e-02 0.000000000000e+00 0.000000000000e+00 
7.408283873696e-02 -1.070827713528e-02 0.000000000000e+00 0.000000000000e+00 
1.181905148011e-02 -5.063704677617e-02 0.000000000000e+00 0.000000000000e+00 
3.837716410809e-02 -4.791954238685e-02 0.000000000000e+00 0.000000000000e+00 
3.962016499175e-02 -2.535813545822e-02 0.000000000000e+00 0.000000000000e+00 
6.040098105514e-02 -2.537942735538e-02 0.000000000000e+00 0.000000000000e+00 
6.163087269112e-02 -4.804641620450e-02 0.000000000000e+00 0.000000000000e+00 
9.069229804381e-02 -9.171850869289e-03 0.000000000000e+00 0.000000000000e+00 
9.354468020660e-03 -9.152635551513e-03 0.000000000000e+00 0.000000000000e+00 
2.804557775330e-02 -6.508329529637e-02 0.000000000000e+00 0.000000000000e+00 
1.044096559141e-02 -7.656376756274e-02 0.000000000000e+00 0.000000000000e+00 
6.112116579903e-02 -6.644401917176e-03 0.000000000000e+00 0.000000000000e+00 
3.895159902251e-02 -6.578247738084e-03 0.000000000000e+00 0.000000000000e+00 
1.789231550313e-02 -7.427897760453e-03 0.000000000000e+00 0.000000000000e+00 
4.997781314446e-02 -3.165806160767e-02 0.000000000000e+00 0.000000000000e+00 
8.218065868343e-02 -7.482707021761e-03 0.000000000000e+00 0.000000000000e+00 
7.593146034688e-02 -1.946650689593e-02 0.000000000000e+00 0.000000000000e+00 
9.097483185567e-03 -6.052866285240e-02 0.000000000000e+00 0.000000000000e+00 
2.403235587872e-02 -1.937579604224e-02 0.000000000000e+00 0.000000000000e+00 
5.204798323580e-02 -5.977244273485e-02 0.000000000000e+00 0.000000000000e+00 
3.977027004405e-02 -6.986979884634e-02 0.000000000000e+00 0.000000000000e+00 
1.000000000000e-01 -4.365795665274e-02 0.000000000000e+00 0.000000000000e+00 
0.000000000000e+00 -9.493635849425e-02 0.000000000000e+00 0.000000000000e+00 
7.556622015059e-02 -5.213930935979e-02 0.000000000000e+00 0.000000000000e+00 
8.827644021441e-02 -5.068271212769e-02 0.000000000000e+00 0.000000000000e+00 
1.125853509499e-02 -1.018913627337e-01 0.000000000000e+00 0.000000000000e+00 
3.176003359910e-02 -8.986364252605e-02 0.000000000000e+00 0.000000000000e+00 
2.453145878902e-02 -1.018531985808e-01 0.000000000000e+00 0.000000000000e+00 
6.206074805899e-02 -5.978173210899e-02 0.000000000000e+00 0.000000000000e+00 
4.512057632941e-02 -8.568062374441e-02 0.000000000000e+00 0.000000000000e+00 
5.675176755435e-02 -8.029564380893e-02 0.000000000000e+00 0.000000000000e+00 
6.027993180190e-02 -6.988363285687e-02 0.000000000000e+00 0.000000000000e+00 
33  22  42  33
23  34  43  23
21  32  58  21
35  21  58  35
36  24  37  36
12  27  51  12
28  19  52  28
27  12  42  27
19  28  43  19
17  18  34  17
36  37  54  36
42  22  60  42
30  25  39  30
25  31  39  25
23  43  62  23
22  33  40  22
34  23  41  34
13  33  42  13
34  18  43  34
26  36  61  26
23  32  41  23
35  22  40  35
46  26  61  46
32  23  48  32
26  34  41  26
22  35  49  22
17  34  46  17
25  30  49  25
11  12  51  11
31  25  48  31
19  20  52  19
31  23  62  31
30  22  49  30
22  30  60  22
23  31  48  23
34  26  46  34
32  21  47  32
21  35  50  21
27  42  60  27
43  28  62  43
44  5  56  44
8  45  55  8
36  26  53  36
30  39  55  30
39  31  56  39
4  5  44  4
8  9  45  8
38  26  47  38
37  14  54  37
24  36  53  24
10  2  51  10
31  44  56  31
45  30  55  45
6  7  39  6
1  3  52  1
26  38  53  26
2  11  51  2
38  21  63  38
20  1  52  20
21  38  47  21
54  15  61  54
26  41  47  26
36  54  61  36
44  31  62  44
29  38  63  29
12  13  42  12
18  19  43  18
30  45  60  30
38  29  64  38
21  50  63  21
16  17  46  16
6  39  56  6
39  7  55  39
35  40  50  35
41  32  47  41
3  4  57  3
9  10  59  9
25  49  58  25
48  25  58  48
49  35  58  49
32  48  58  32
5  6  56  5
14  15  54  14
7  8  55  7
4  44  57  4
45  9  59  45
44  28  57  44
28  44  62  28
45  27  60  45
27  45  59  27
16  46  61  16
15  16  61  15
10  51  59  10
52  3  57  52
53  38  64  53
24  53  64  24
28  52  57  28
51  27  59  51
13  65  33  13
66  14  37  66
33  67  40  33
33  65  68  33
66  37  69  66
67  33  68  67
37  24  70  37
37  71  69  37
67  72  50  67
29  73  64  29
73  24  64  73
71  37  70  71
24  73  70  24
73  29  74  73
40  67  50  40
50  72  63  50
63  72  75  63
29  63  75  29
74  29  75  74
VARIABLES  = "X","Y","Z", "PRESSURE1"
ZONE T="1.000000000000e+01s", N=75, E=117, F=FEPOINT, ET=QUADRILATERAL
STRANDID=1, SOLUTIONTIME=1.000000000000e+01
0.000000000000e+00 0.000000000000e+00 0.000000000000e+00 0.000000000000e+00 
1.000000000000e-01 0.000000000000e+00 0.000000000000e+00 0.000000000000e+00 
1.111111111111e-02 0.000000000000e+00 0.000000000000e+00 0.000000000000e+00 
2.222222222222e-02 0.000000000000e+00 0.000000000000e+00 0.000000000000e+00 
3.333333333333e-02 0.000000000000e+00 0.000000000000e+00 0.000000000000e+00 
4.444444444444e-02 0.000000000000e+00 0.000000000000e+00 0.000000000000e+00 
5.555555555555e-02 0.000000000000e+00 0.000000000000e+00 0.000000000000e+00 
6.666666666666e-02 0.000000000000e+00 0.000000000000e+00 0.000000000000e+00 
7.777777777778e-02 0.000000000000e+00 0.000000000000e+00 0.000000000000e+00 
8.888888888889e-02 0.000000000000e+00 0.000000000000e+00 0.000000000000e+00 
1.000000000000e-01 -1.027078831439e-02 0.000000000000e+00 7.127190786607e+00 
1.000000000000e-01 -2.095579726046e-02 0.000000000000e+00 1.430495644932e+01 
1.000000000000e-01 -3.207786985738e-02 0.000000000000e+00 2.114734740485e+01 
0.000000000000e+00 -8.133192903590e-02 0.000000000000e+00 4.073919509598e+01 
0.000000000000e+00 -6.826783355915e-02 0.000000000000e+00 3.723389420708e+01 
0.000000000000e+00 -5.571534163644e-02 0.000000000000e+00 3.283301167527e+01 
0.000000000000e+00 -4.365795665274e-02 0.000000000000e+00 2.739336605111e+01 
0.000000000000e+00 -3.207786985738e-02 0.000000000000e+00 2.114644990013e+01 
0.000000000000e+00 -2.095579726046e-02 0.000000000000e+00 1.430430834294e+01 
0.000000000000e+00 -1.027078831439e-02 0.000000000000e+00 7.126543003986e+00 
5.004498772813e-02 -4.996206278841e-02 0.000000000000e+00 3.040724400418e+01 
7.225358222233e-02 -2.762721782684e-02 0.000000000000e+00 1.850884073963e+01 
2.775548582498e-02 -2.745540160687e-02 0.000000000000e+00 1.840201302461e+01 
3.144484460580e-02 -7.586712852882e-02 0.000000000000e+00 3.941297955731e+01 
5.002530677431e-02 -2.216144592127e-02 0.000000000000e+00 1.507061183272e+01 
2.456481525732e-02 -5.204499879856e-02 0.000000000000e+00 3.134845381042e+01 
8.415554875855e-02 -1.593261949054e-02 0.000000000000e+00 1.098020515743e+01 
1.584570179876e-02 -1.589435702197e-02 0.000000000000e+00 1.095382458145e+01 
5.002678796997e-02 -6.957908922559e-02 0.000000000000e+00 3.771304698573e+01 
6.357480821475e-02 -1.499016162324e-02 0.000000000000e+00 1.037181234929e+01 
3.653928432153e-02 -1.491811755562e-02 0.000000000000e+00 1.032206249290e+01 
4.156694993639e-02 -3.606774926499e-02 0.000000000000e+00 2.336786132217e+01 
8.454242557621e-02 -3.844635220127e-02 0.000000000000e+00 2.473720554091e+01 
1.557815204777e-02 -3.837711259674e-02 0.000000000000e+00 2.469917512394e+01 
5.839491143928e-02 -3.605583620800e-02 0.000000000000e+00 2.336585669920e+01 
1.693000682173e-02 -6.715456475858e-02 0.000000000000e+00 3.697749846561e+01 
1.698701460171e-02 -8.593339913784e-02 0.000000000000e+00 4.179781758257e+01 
3.802067276118e-02 -5.975942885331e-02 0.000000000000e+00 3.440805818810e+01 
5.005728778040e-02 -1.036531727070e-02 0.000000000000e+00 7.217014104155e+00 
7.049571814535e-02 -4.034466657971e-02 0.000000000000e+00 2.567879058704e+01 
2.941632652166e-02 -4.017271159170e-02 0.000000000000e+00 2.558390328250e+01 
8.897479783189e-02 -2.710999574393e-02 0.000000000000e+00 1.817613089015e+01 
1.113464613131e-02 -2.708126415819e-02 0.000000000000e+00 1.815731242891e+01 
2.597015323725e-02 -1.069324664278e-02 0.000000000000e+00 7.440781715025e+00 
7.408283873696e-02 -1.070827713528e-02 0.000000000000e+00 7.451811509430e+00 
1.181905148011e-02 -5.063704677617e-02 0.000000000000e+00 3.066076242955e+01 
3.837716410809e-02 -4.791954238685e-02 0.000000000000e+00 2.940006584165e+01 
3.962016499175e-02 -2.535813545822e-02 0.000000000000e+00 1.706505109621e+01 
6.040098105514e-02 -2.537942735538e-02 0.000000000000e+00 1.708028955742e+01 
6.163087269112e-02 -4.804641620450e-02 0.000000000000e+00 2.948018218187e+01 
9.069229804381e-02 -9.171850869289e-03 0.000000000000e+00 6.397509290824e+00 
9.354468020660e-03 -9.152635551513e-03 0.000000000000e+00 6.383802927370e+00 
2.804557775330e-02 -6.508329529637e-02 0.000000000000e+00 3.624688357030e+01 
1.044096559141e-02 -7.656376756274e-02 0.000000000000e+00 3.958417798358e+01 
6.112116579903e-02 -6.644401917176e-03 0.000000000000e+00 4.641401449949e+00 
3.895159902251e-02 -6.578247738084e-03 0.000000000000e+00 4.595096335022e+00 
1.789231550313e-02 -7.427897760453e-03 0.000000000000e+00 5.180652115886e+00 
4.997781314446e-02 -3.165806160767e-02 0.000000000000e+00 2.092291790776e+01 
8.218065868343e-02 -7.482707021761e-03 0.000000000000e+00 5.219004787981e+00 
7.593146034688e-02 -1.946650689593e-02 0.000000000000e+00 1.331728547243e+01 
9.097483185567e-03 -6.052866285240e-02 0.000000000000e+00 3.468949555862e+01 
2.403235587872e-02 -1.937579604224e-02 0.000000000000e+00 1.325724285673e+01 
5.204798323580e-02 -5.977244273485e-02 0.000000000000e+00 3.440488270854e+01 
3.977027004405e-02 -6.986979884634e-02 0.000000000000e+00 3.776745518454e+01 
1.000000000000e-01 -4.365795665274e-02 0.000000000000e+00 2.739308331696e+01 
0.000000000000e+00 -9.493635849425e-02 0.000000000000e+00 4.330781461847e+01 
7.556622015059e-02 -5.213930935979e-02 0.000000000000e+00 3.138573378867e+01 
8.827644021441e-02 -5.068271212769e-02 0.000000000000e+00 3.067956352998e+01 
1.125853509499e-02 -1.018913627337e-01 0.000000000000e+00 4.427439061639e+01 
3.176003359910e-02 -8.986364252605e-02 0.000000000000e+00 4.244405905686e+01 
2.453145878902e-02 -1.018531985808e-01 0.000000000000e+00 4.428195304938e+01 
6.206074805899e-02 -5.978173210899e-02 0.000000000000e+00 3.435865879448e+01 
4.512057632941e-02 -8.568062374441e-02 0.000000000000e+00 4.172492986504e+01 
5.675176755435e-02 -8.029564380893e-02 0.000000000000e+00 4.051372281437e+01 
6.027993180190e-02 -6.988363285687e-02 0.000000000000e+00 3.776912596519e+01 
33  22  42  33
23  34  43  23
21  32  58  21
35  21  58  35
36  24  37  36
12  27  51  12
28  19  52  28
27  12  42  27
19  28  43  19
17  18  34  17
36  37  54  36
42  22  60  42
30  25  39  30
25  31  39  25
23  43  62  23
22  33  40  22
34  23  41  34
13  33  42  13
34  18  43  34
26  36  61  26
23  32  41  23
35  22  40  35
46  26  61  46
32  23  48  32
26  34  41  26
22  35  49  22
17  34  46  17
25  30  49  25
11  12  51  11
31  25  48  31
19  20  52  19
31  23  62  31
30  22  49  30
22  30  60  22
23  31  48  23
34  26  46  34
32  21  47  32
21  35  50  21
27  42  60  27
43  28  62  43
44  5  56  44
8  45  55  8
36  26  53  36
30  39  55  30
39  31  56  39
4  5  44  4
8  9  45  8
38  26  47  38
37  14  54  37
24  36  53  24
10  2  51  10
31  44  56  31
45  30  55  45
6  7  39  6
1  3  52  1
26  38  53  26
2  11  51  2
38  21  63  38
20  1  52  20
21  38  47  21
54  15  61  54
26  41  47  26
36  54  61  36
44  31  62  44
29  38  63  29
12  13  42  12
18  19  43  18
30  45  60  30
38  29  64  38
21  50  63  21
16  17  46  16
6  39  56  6
39  7  55  39
35  40  50  35
41  32  47  41
3  4  57  3
9  10  59  9
25  49  58  25
48  25  58  48
49  35  58  49
32  48  58  32
5  6  56  5
14  15  54  14
7  8  55  7
4  44  57  4
45  9  59  45
44  28  57  44
28  44  62  28
45  27  60  45
27  45  59  27
16  46  61  16
15  16  61  15
10  51  59  10
52  3  57  52
53  38  64  53
24  53  64  24
28  52  57  28
51  27  59  51
13  65  33  13
66  14  37  66
33  67  40  33
33  65  68  33
66  37  69  66
67  33  68  67
37  24  70  37
37  71  69  37
67  72  50  67
29  73  64  29
73  24  64  73
71  37  70  71
24  73  70  24
73  29  74  73
40  67  50  40
50  72  63  50
63  72  75  63
29  63  75  29
74  29  75  74
