VARIABLES  = "X","Y","Z", "STRESS_XX", "STRESS_YY", "STRESS_ZZ", "DISPLACEMENT_X1", "DISPLACEMENT_Y1"
ZONE T="0.000000000000e+00s", N=74, E=114, F=FEPOINT, ET=QUADRILATERAL
STRANDID=1, SOLUTIONTIME=0.000000000000e+00
1.000000000000e-01 -1.717986916992e-01 0.000000000000e+00 0.000000000000e+00 0.000000000000e+00 0.000000000000e+00 0.000000000000e+00 0.000000000000e+00 
1.000000000000e-01 -1.891202423411e-01 0.000000000000e+00 0.000000000000e+00 0.000000000000e+00 0.000000000000e+00 0.000000000000e+00 0.000000000000e+00 
1.000000000000e-01 -2.071452132758e-01 0.000000000000e+00 0.000000000000e+00 0.000000000000e+00 0.000000000000e+00 0.000000000000e+00 0.000000000000e+00 
1.000000000000e-01 -2.259159003327e-01 0.000000000000e+00 0.000000000000e+00 0.000000000000e+00 0.000000000000e+00 0.000000000000e+00 0.000000000000e+00 
1.000000000000e-01 -2.454553372135e-01 0.000000000000e+00 0.000000000000e+00 0.000000000000e+00 0.000000000000e+00 0.000000000000e+00 0.000000000000e+00 
1.000000000000e-01 -2.657958002743e-01 0.000000000000e+00 0.000000000000e+00 0.000000000000e+00 0.000000000000e+00 0.000000000000e+00 0.000000000000e+00 
1.000000000000e-01 -2.869820737070e-01 0.000000000000e+00 0.000000000000e+00 0.000000000000e+00 0.000000000000e+00 0.000000000000e+00 0.000000000000e+00 
1.000000000000e-01 -3.090302591577e-01 0.000000000000e+00 0.000000000000e+00 0.000000000000e+00 0.000000000000e+00 0.000000000000e+00 0.000000000000e+00 
1.000000000000e-01 -3.319808966566e-01 0.000000000000e+00 0.000000000000e+00 0.000000000000e+00 0.000000000000e+00 0.000000000000e+00 0.000000000000e+00 
1.000000000000e-01 -3.558736196309e-01 0.000000000000e+00 0.000000000000e+00 0.000000000000e+00 0.000000000000e+00 0.000000000000e+00 0.000000000000e+00 
1.000000000000e-01 -3.807449903129e-01 0.000000000000e+00 0.000000000000e+00 0.000000000000e+00 0.000000000000e+00 0.000000000000e+00 0.000000000000e+00 
0.000000000000e+00 -3.807449903129e-01 0.000000000000e+00 0.000000000000e+00 0.000000000000e+00 0.000000000000e+00 0.000000000000e+00 0.000000000000e+00 
0.000000000000e+00 -3.558736196309e-01 0.000000000000e+00 0.000000000000e+00 0.000000000000e+00 0.000000000000e+00 0.000000000000e+00 0.000000000000e+00 
0.000000000000e+00 -3.319808966566e-01 0.000000000000e+00 0.000000000000e+00 0.000000000000e+00 0.000000000000e+00 0.000000000000e+00 0.000000000000e+00 
0.000000000000e+00 -3.090302591577e-01 0.000000000000e+00 0.000000000000e+00 0.000000000000e+00 0.000000000000e+00 0.000000000000e+00 0.000000000000e+00 
0.000000000000e+00 -2.869820737070e-01 0.000000000000e+00 0.000000000000e+00 0.000000000000e+00 0.000000000000e+00 0.000000000000e+00 0.000000000000e+00 
0.000000000000e+00 -2.657958002743e-01 0.000000000000e+00 0.000000000000e+00 0.000000000000e+00 0.000000000000e+00 0.000000000000e+00 0.000000000000e+00 
0.000000000000e+00 -2.454553372135e-01 0.000000000000e+00 0.000000000000e+00 0.000000000000e+00 0.000000000000e+00 0.000000000000e+00 0.000000000000e+00 
0.000000000000e+00 -2.259159003327e-01 0.000000000000e+00 0.000000000000e+00 0.000000000000e+00 0.000000000000e+00 0.000000000000e+00 0.000000000000e+00 
0.000000000000e+00 -2.071452132758e-01 0.000000000000e+00 0.000000000000e+00 0.000000000000e+00 0.000000000000e+00 0.000000000000e+00 0.000000000000e+00 
5.004842734123e-02 -2.021418171447e-01 0.000000000000e+00 0.000000000000e+00 0.000000000000e+00 0.000000000000e+00 0.000000000000e+00 0.000000000000e+00 
5.005908986205e-02 -2.553771826632e-01 0.000000000000e+00 0.000000000000e+00 0.000000000000e+00 0.000000000000e+00 0.000000000000e+00 0.000000000000e+00 
5.008292036290e-02 -3.203087963123e-01 0.000000000000e+00 0.000000000000e+00 0.000000000000e+00 0.000000000000e+00 0.000000000000e+00 0.000000000000e+00 
5.009415947708e-02 -3.711929596105e-01 0.000000000000e+00 0.000000000000e+00 0.000000000000e+00 0.000000000000e+00 0.000000000000e+00 0.000000000000e+00 
6.904394191688e-02 -1.770178073307e-01 0.000000000000e+00 0.000000000000e+00 0.000000000000e+00 0.000000000000e+00 0.000000000000e+00 0.000000000000e+00 
6.807698165746e-02 -2.287558900294e-01 0.000000000000e+00 0.000000000000e+00 0.000000000000e+00 0.000000000000e+00 0.000000000000e+00 0.000000000000e+00 
3.206062782805e-02 -2.287631037513e-01 0.000000000000e+00 0.000000000000e+00 0.000000000000e+00 0.000000000000e+00 0.000000000000e+00 0.000000000000e+00 
3.557354364095e-02 -2.878483101898e-01 0.000000000000e+00 0.000000000000e+00 0.000000000000e+00 0.000000000000e+00 0.000000000000e+00 0.000000000000e+00 
6.776223739581e-02 -2.827412570156e-01 0.000000000000e+00 0.000000000000e+00 0.000000000000e+00 0.000000000000e+00 0.000000000000e+00 0.000000000000e+00 
7.535103115493e-02 -2.015293853660e-01 0.000000000000e+00 0.000000000000e+00 0.000000000000e+00 0.000000000000e+00 0.000000000000e+00 0.000000000000e+00 
2.474920969922e-02 -2.015432236000e-01 0.000000000000e+00 0.000000000000e+00 0.000000000000e+00 0.000000000000e+00 0.000000000000e+00 0.000000000000e+00 
3.050691695726e-02 -3.457552030811e-01 0.000000000000e+00 0.000000000000e+00 0.000000000000e+00 0.000000000000e+00 0.000000000000e+00 0.000000000000e+00 
6.961191317484e-02 -3.457465657077e-01 0.000000000000e+00 0.000000000000e+00 0.000000000000e+00 0.000000000000e+00 0.000000000000e+00 0.000000000000e+00 
2.403213634881e-02 -2.555147969150e-01 0.000000000000e+00 0.000000000000e+00 0.000000000000e+00 0.000000000000e+00 0.000000000000e+00 0.000000000000e+00 
7.607779023971e-02 -2.554704032576e-01 0.000000000000e+00 0.000000000000e+00 0.000000000000e+00 0.000000000000e+00 0.000000000000e+00 0.000000000000e+00 
3.066487977987e-02 -3.967816778596e-01 0.000000000000e+00 0.000000000000e+00 0.000000000000e+00 0.000000000000e+00 0.000000000000e+00 0.000000000000e+00 
7.369529764403e-02 -3.084770811070e-01 0.000000000000e+00 0.000000000000e+00 0.000000000000e+00 0.000000000000e+00 0.000000000000e+00 0.000000000000e+00 
2.378951418650e-02 -3.203343384072e-01 0.000000000000e+00 0.000000000000e+00 0.000000000000e+00 0.000000000000e+00 0.000000000000e+00 0.000000000000e+00 
7.605350107748e-02 -3.708957544133e-01 0.000000000000e+00 0.000000000000e+00 0.000000000000e+00 0.000000000000e+00 0.000000000000e+00 0.000000000000e+00 
2.414696816088e-02 -3.709124382382e-01 0.000000000000e+00 0.000000000000e+00 0.000000000000e+00 0.000000000000e+00 0.000000000000e+00 0.000000000000e+00 
5.006735922148e-02 -2.215423617712e-01 0.000000000000e+00 0.000000000000e+00 0.000000000000e+00 0.000000000000e+00 0.000000000000e+00 0.000000000000e+00 
1.850317579946e-02 -2.757149546133e-01 0.000000000000e+00 0.000000000000e+00 0.000000000000e+00 0.000000000000e+00 0.000000000000e+00 0.000000000000e+00 
8.327052267209e-02 -2.182301684835e-01 0.000000000000e+00 0.000000000000e+00 0.000000000000e+00 0.000000000000e+00 0.000000000000e+00 0.000000000000e+00 
1.689528006222e-02 -2.182447195749e-01 0.000000000000e+00 0.000000000000e+00 0.000000000000e+00 0.000000000000e+00 0.000000000000e+00 0.000000000000e+00 
5.386538030076e-02 -2.991451045652e-01 0.000000000000e+00 0.000000000000e+00 0.000000000000e+00 0.000000000000e+00 0.000000000000e+00 0.000000000000e+00 
8.325780581963e-02 -1.864276587827e-01 0.000000000000e+00 0.000000000000e+00 0.000000000000e+00 0.000000000000e+00 0.000000000000e+00 0.000000000000e+00 
1.887456660158e-02 -3.001711909616e-01 0.000000000000e+00 0.000000000000e+00 0.000000000000e+00 0.000000000000e+00 0.000000000000e+00 0.000000000000e+00 
5.599679480673e-02 -1.868962244425e-01 0.000000000000e+00 0.000000000000e+00 0.000000000000e+00 0.000000000000e+00 0.000000000000e+00 0.000000000000e+00 
1.562509704916e-02 -2.362679114654e-01 0.000000000000e+00 0.000000000000e+00 0.000000000000e+00 0.000000000000e+00 0.000000000000e+00 0.000000000000e+00 
8.450980591300e-02 -2.362475890693e-01 0.000000000000e+00 0.000000000000e+00 0.000000000000e+00 0.000000000000e+00 0.000000000000e+00 0.000000000000e+00 
5.000597776251e-02 -2.748200932242e-01 0.000000000000e+00 0.000000000000e+00 0.000000000000e+00 0.000000000000e+00 0.000000000000e+00 0.000000000000e+00 
3.763666536168e-02 -1.917900581297e-01 0.000000000000e+00 0.000000000000e+00 0.000000000000e+00 0.000000000000e+00 0.000000000000e+00 0.000000000000e+00 
7.990076033980e-02 -3.280154126230e-01 0.000000000000e+00 0.000000000000e+00 0.000000000000e+00 0.000000000000e+00 0.000000000000e+00 0.000000000000e+00 
5.374039812767e-02 -2.384606709325e-01 0.000000000000e+00 0.000000000000e+00 0.000000000000e+00 0.000000000000e+00 0.000000000000e+00 0.000000000000e+00 
8.295584548888e-02 -2.724709261564e-01 0.000000000000e+00 0.000000000000e+00 0.000000000000e+00 0.000000000000e+00 0.000000000000e+00 0.000000000000e+00 
3.621311007526e-02 -2.130558380742e-01 0.000000000000e+00 0.000000000000e+00 0.000000000000e+00 0.000000000000e+00 0.000000000000e+00 0.000000000000e+00 
6.391474833037e-02 -2.130589258886e-01 0.000000000000e+00 0.000000000000e+00 0.000000000000e+00 0.000000000000e+00 0.000000000000e+00 0.000000000000e+00 
5.005826476111e-02 -3.405429735745e-01 0.000000000000e+00 0.000000000000e+00 0.000000000000e+00 0.000000000000e+00 0.000000000000e+00 0.000000000000e+00 
3.698944467363e-02 -2.448228664997e-01 0.000000000000e+00 0.000000000000e+00 0.000000000000e+00 0.000000000000e+00 0.000000000000e+00 0.000000000000e+00 
3.662161907618e-02 -3.066087827684e-01 0.000000000000e+00 0.000000000000e+00 0.000000000000e+00 0.000000000000e+00 0.000000000000e+00 0.000000000000e+00 
8.289028355298e-02 -2.928054893704e-01 0.000000000000e+00 0.000000000000e+00 0.000000000000e+00 0.000000000000e+00 0.000000000000e+00 0.000000000000e+00 
3.408000067884e-02 -2.691217269938e-01 0.000000000000e+00 0.000000000000e+00 0.000000000000e+00 0.000000000000e+00 0.000000000000e+00 0.000000000000e+00 
6.944556402011e-02 -3.968201233631e-01 0.000000000000e+00 0.000000000000e+00 0.000000000000e+00 0.000000000000e+00 0.000000000000e+00 0.000000000000e+00 
5.004338622634e-02 -4.224088684799e-01 0.000000000000e+00 0.000000000000e+00 0.000000000000e+00 0.000000000000e+00 0.000000000000e+00 0.000000000000e+00 
1.687036367023e-02 -1.864550581470e-01 0.000000000000e+00 0.000000000000e+00 0.000000000000e+00 0.000000000000e+00 0.000000000000e+00 0.000000000000e+00 
0.000000000000e+00 -1.891202423411e-01 0.000000000000e+00 0.000000000000e+00 0.000000000000e+00 0.000000000000e+00 0.000000000000e+00 0.000000000000e+00 
1.000000000000e-01 -4.066333808964e-01 0.000000000000e+00 0.000000000000e+00 0.000000000000e+00 0.000000000000e+00 0.000000000000e+00 0.000000000000e+00 
0.000000000000e+00 -4.066333808964e-01 0.000000000000e+00 0.000000000000e+00 0.000000000000e+00 0.000000000000e+00 0.000000000000e+00 0.000000000000e+00 
3.104608478085e-02 -1.770328565743e-01 0.000000000000e+00 0.000000000000e+00 0.000000000000e+00 0.000000000000e+00 0.000000000000e+00 0.000000000000e+00 
5.004288552848e-02 -1.716527951481e-01 0.000000000000e+00 0.000000000000e+00 0.000000000000e+00 0.000000000000e+00 0.000000000000e+00 0.000000000000e+00 
8.326930466579e-02 -1.667726886397e-01 0.000000000000e+00 0.000000000000e+00 0.000000000000e+00 0.000000000000e+00 0.000000000000e+00 0.000000000000e+00 
1.000000000000e-01 -1.551674274464e-01 0.000000000000e+00 0.000000000000e+00 0.000000000000e+00 0.000000000000e+00 0.000000000000e+00 0.000000000000e+00 
2.375340220851e-02 -4.221482437035e-01 0.000000000000e+00 0.000000000000e+00 0.000000000000e+00 0.000000000000e+00 0.000000000000e+00 0.000000000000e+00 
6.303932844440e-02 -1.619539551222e-01 0.000000000000e+00 0.000000000000e+00 0.000000000000e+00 0.000000000000e+00 0.000000000000e+00 0.000000000000e+00 
35  29  51  35
22  35  51  22
3  30  46  3
2  3  46  2
25  30  48  25
26  35  54  26
13  14  32  13
10  33  53  10
9  10  53  9
30  21  48  30
32  14  38  32
30  25  46  30
35  22  54  35
33  23  53  33
23  33  58  23
38  23  58  38
32  38  58  32
35  26  50  35
21  30  57  21
29  35  55  29
20  31  44  20
30  3  43  30
17  18  34  17
5  6  35  5
13  32  40  13
33  10  39  33
24  32  58  24
36  12  40  36
33  24  58  33
23  37  53  23
32  24  40  32
24  33  39  24
24  36  40  24
1  2  46  1
34  18  49  34
5  35  50  5
17  34  42  17
37  8  53  37
14  15  38  14
35  6  55  35
29  37  45  29
27  41  54  27
12  13  40  12
16  42  47  16
10  11  39  10
8  9  53  8
27  54  59  27
59  22  62  59
8  37  61  8
37  23  45  37
34  49  59  34
37  29  61  37
34  59  62  34
52  21  56  52
42  28  47  42
29  45  51  29
45  28  51  45
38  15  47  38
31  52  56  31
19  20  44  19
49  27  59  49
3  4  43  3
16  17  42  16
15  16  47  15
23  38  60  23
30  43  57  30
44  31  56  44
6  7  55  6
7  8  61  7
43  26  57  43
27  44  56  27
48  21  52  48
41  21  57  41
18  19  49  18
21  41  56  21
4  5  50  4
43  4  50  43
19  44  49  19
55  7  61  55
26  43  50  26
44  27  49  44
41  26  54  41
22  51  62  22
41  27  56  41
26  41  57  26
28  45  60  28
28  42  62  28
42  34  62  42
29  55  61  29
45  23  60  45
47  28  60  47
54  22  59  54
51  28  62  51
38  47  60  38
36  24  63  36
64  36  63  64
31  20  65  31
20  66  65  20
11  67  63  11
68  12  36  68
69  70  52  69
70  48  52  70
11  63  39  11
71  1  46  71
63  24  39  63
72  1  71  72
68  36  73  68
71  25  74  71
36  64  73  36
65  69  52  65
31  65  52  31
25  71  46  25
25  70  74  25
70  25  48  70
VARIABLES  = "X","Y","Z", "STRESS_XX", "STRESS_YY", "STRESS_ZZ", "DISPLACEMENT_X1", "DISPLACEMENT_Y1"
ZONE T="1.000000000000e+01s", N=74, E=114, F=FEPOINT, ET=QUADRILATERAL
STRANDID=1, SOLUTIONTIME=1.000000000000e+01
1.000000000000e-01 -1.717986916992e-01 0.000000000000e+00 -2.375841091355e+02 -9.503258325214e+02 -2.375819883314e+02 0.000000000000e+00 -2.360696751097e-02 
1.000000000000e-01 -1.891202423411e-01 0.000000000000e+00 -2.375572300122e+02 -9.502155009012e+02 -2.375545461827e+02 0.000000000000e+00 -2.311315773774e-02 
1.000000000000e-01 -2.071452132758e-01 0.000000000000e+00 -2.375416081983e+02 -9.501616533383e+02 -2.375406523073e+02 0.000000000000e+00 -2.259934270294e-02 
1.000000000000e-01 -2.259159003327e-01 0.000000000000e+00 -2.375346191658e+02 -9.501376325459e+02 -2.375344503423e+02 0.000000000000e+00 -2.206429393646e-02 
1.000000000000e-01 -2.454553372135e-01 0.000000000000e+00 -2.375323618116e+02 -9.501292492774e+02 -2.375323222178e+02 0.000000000000e+00 -2.150734144729e-02 
1.000000000000e-01 -2.657958002743e-01 0.000000000000e+00 -2.375315278134e+02 -9.501258526107e+02 -2.375314760848e+02 0.000000000000e+00 -2.092756032788e-02 
1.000000000000e-01 -2.869820737070e-01 0.000000000000e+00 -2.375312125058e+02 -9.501248277881e+02 -2.375312080588e+02 0.000000000000e+00 -2.032367182700e-02 
1.000000000000e-01 -3.090302591577e-01 0.000000000000e+00 -2.375311310386e+02 -9.501244992807e+02 -2.375311260639e+02 0.000000000000e+00 -1.969521607260e-02 
1.000000000000e-01 -3.319808966566e-01 0.000000000000e+00 -2.375311055085e+02 -9.501244072319e+02 -2.375311025481e+02 0.000000000000e+00 -1.904103721451e-02 
1.000000000000e-01 -3.558736196309e-01 0.000000000000e+00 -2.375310974326e+02 -9.501243858671e+02 -2.375310966599e+02 0.000000000000e+00 -1.836000544348e-02 
1.000000000000e-01 -3.807449903129e-01 0.000000000000e+00 -2.375310955811e+02 -9.501243821025e+02 -2.375310955367e+02 0.000000000000e+00 -1.765107857119e-02 
0.000000000000e+00 -3.807449903129e-01 0.000000000000e+00 -2.375310956405e+02 -9.501243828970e+02 -2.375310957075e+02 0.000000000000e+00 -1.765107857155e-02 
0.000000000000e+00 -3.558736196309e-01 0.000000000000e+00 -2.375310967002e+02 -9.501243895345e+02 -2.375310972470e+02 0.000000000000e+00 -1.836000544501e-02 
0.000000000000e+00 -3.319808966566e-01 0.000000000000e+00 -2.375311030865e+02 -9.501244205840e+02 -2.375311047341e+02 0.000000000000e+00 -1.904103721849e-02 
0.000000000000e+00 -3.090302591577e-01 0.000000000000e+00 -2.375311310874e+02 -9.501245364636e+02 -2.375311335102e+02 0.000000000000e+00 -1.969521608296e-02 
0.000000000000e+00 -2.869820737070e-01 0.000000000000e+00 -2.375312217226e+02 -9.501249593697e+02 -2.375312362185e+02 0.000000000000e+00 -2.032367185293e-02 
0.000000000000e+00 -2.657958002743e-01 0.000000000000e+00 -2.375315247066e+02 -9.501262954511e+02 -2.375315640315e+02 0.000000000000e+00 -2.092756040180e-02 
0.000000000000e+00 -2.454553372135e-01 0.000000000000e+00 -2.375324786264e+02 -9.501302311486e+02 -2.375325419550e+02 0.000000000000e+00 -2.150734163599e-02 
0.000000000000e+00 -2.259159003327e-01 0.000000000000e+00 -2.375349021192e+02 -9.501401159323e+02 -2.375350036103e+02 0.000000000000e+00 -2.206429425832e-02 
0.000000000000e+00 -2.071452132758e-01 0.000000000000e+00 -2.375418645329e+02 -9.501655886320e+02 -2.375414906330e+02 0.000000000000e+00 -2.259934343542e-02 
5.004842734123e-02 -2.021418171447e-01 0.000000000000e+00 -2.375435320819e+02 -9.501745566964e+02 -2.375436177556e+02 4.630999349928e-10 -2.274196630153e-02 
5.005908986205e-02 -2.553771826632e-01 0.000000000000e+00 -2.375318936218e+02 -9.501274549210e+02 -2.375318697086e+02 4.641128309407e-11 -2.122453062595e-02 
5.008292036290e-02 -3.203087963123e-01 0.000000000000e+00 -2.375311127264e+02 -9.501244447641e+02 -2.375311114981e+02 2.027062036421e-12 -1.937373564774e-02 
5.009415947708e-02 -3.711929596105e-01 0.000000000000e+00 -2.375310959296e+02 -9.501243831341e+02 -2.375310958127e+02 1.533516534619e-13 -1.792334708950e-02 
6.904394191688e-02 -1.770178073307e-01 0.000000000000e+00 -2.375723174774e+02 -9.502927426199e+02 -2.375730120195e+02 1.188966309731e-09 -2.345817225774e-02 
6.807698165746e-02 -2.287558900294e-01 0.000000000000e+00 -2.375343259096e+02 -9.501371043450e+02 -2.375342860509e+02 1.096869130124e-10 -2.198334254915e-02 
3.206062782805e-02 -2.287631037513e-01 0.000000000000e+00 -2.375341698275e+02 -9.501374270522e+02 -2.375343193759e+02 1.072965903871e-10 -2.198313705871e-02 
3.557354364095e-02 -2.878483101898e-01 0.000000000000e+00 -2.375312120204e+02 -9.501248964661e+02 -2.375312216973e+02 1.156343701685e-11 -2.029898085390e-02 
6.776223739581e-02 -2.827412570156e-01 0.000000000000e+00 -2.375312466571e+02 -9.501249788005e+02 -2.375312450915e+02 6.694774833550e-12 -2.044455100325e-02 
7.535103115493e-02 -2.015293853660e-01 0.000000000000e+00 -2.375445373061e+02 -9.501761585815e+02 -2.375441391775e+02 4.034022344299e-10 -2.275942309587e-02 
2.474920969922e-02 -2.015432236000e-01 0.000000000000e+00 -2.375440082777e+02 -9.501798016730e+02 -2.375447619901e+02 -1.085513997851e-10 -2.275902962154e-02 
3.050691695726e-02 -3.457552030811e-01 0.000000000000e+00 -2.375310990467e+02 -9.501243964250e+02 -2.375310990943e+02 7.509768413899e-13 -1.864841807595e-02 
6.961191317484e-02 -3.457465657077e-01 0.000000000000e+00 -2.375310980152e+02 -9.501243935472e+02 -2.375310983125e+02 4.139727599465e-13 -1.864866427252e-02 
2.403213634881e-02 -2.555147969150e-01 0.000000000000e+00 -2.375318877772e+02 -9.501278000424e+02 -2.375319375639e+02 4.287429172471e-11 -2.122060814021e-02 
7.607779023971e-02 -2.554704032576e-01 0.000000000000e+00 -2.375318215358e+02 -9.501271404009e+02 -2.375317923873e+02 2.283161855161e-13 -2.122187340274e-02 
3.066487977987e-02 -3.967816778596e-01 0.000000000000e+00 -2.375310954240e+02 -9.501243818329e+02 -2.375310954514e+02 -8.060283661050e-15 -1.719397313595e-02 
7.369529764403e-02 -3.084770811070e-01 0.000000000000e+00 -2.375311323985e+02 -9.501245126437e+02 -2.375311290084e+02 2.529969981146e-12 -1.971098371489e-02 
2.378951418650e-02 -3.203343384072e-01 0.000000000000e+00 -2.375311122959e+02 -9.501244560845e+02 -2.375311136761e+02 2.090884993823e-12 -1.937300760540e-02 
7.605350107748e-02 -3.708957544133e-01 0.000000000000e+00 -2.375310960077e+02 -9.501243832031e+02 -2.375310958422e+02 8.080427780669e-14 -1.793181854657e-02 
2.414696816088e-02 -3.709124382382e-01 0.000000000000e+00 -2.375310958272e+02 -9.501243837201e+02 -2.375310959095e+02 1.966554109570e-13 -1.793134299575e-02 
5.006735922148e-02 -2.215423617712e-01 0.000000000000e+00 -2.375360872756e+02 -9.501430622012e+02 -2.375358298954e+02 1.752968382858e-10 -2.218895858183e-02 
1.850317579946e-02 -2.757149546133e-01 0.000000000000e+00 -2.375313407691e+02 -9.501254127068e+02 -2.375313506952e+02 1.594482940283e-11 -2.064482705414e-02 
8.327052267209e-02 -2.182301684835e-01 0.000000000000e+00 -2.375363043108e+02 -9.501447697275e+02 -2.375362148077e+02 1.369234114065e-10 -2.228337033948e-02 
1.689528006222e-02 -2.182447195749e-01 0.000000000000e+00 -2.375367643133e+02 -9.501472823570e+02 -2.375368093341e+02 6.952623673383e-11 -2.228295590631e-02 
5.386538030076e-02 -2.991451045652e-01 0.000000000000e+00 -2.375311608098e+02 -9.501246117742e+02 -2.375311545168e+02 3.396520111965e-12 -1.997697992478e-02 
8.325780581963e-02 -1.864276587827e-01 0.000000000000e+00 -2.375582383567e+02 -9.502334721717e+02 -2.375583421057e+02 9.308928115098e-10 -2.318991527058e-02 
1.887456660158e-02 -3.001711909616e-01 0.000000000000e+00 -2.375311508126e+02 -9.501246180153e+02 -2.375311537656e+02 4.773317175871e-12 -1.994773263424e-02 
5.599679480673e-02 -1.868962244425e-01 0.000000000000e+00 -2.375551594725e+02 -9.502274768935e+02 -2.375565272732e+02 6.438686200261e-10 -2.317655889155e-02 
1.562509704916e-02 -2.362679114654e-01 0.000000000000e+00 -2.375332374072e+02 -9.501331796883e+02 -2.375332834191e+02 4.996562547234e-11 -2.176921954086e-02 
8.450980591300e-02 -2.362475890693e-01 0.000000000000e+00 -2.375332883668e+02 -9.501330643576e+02 -2.375332705449e+02 2.346746534654e-11 -2.176979860996e-02 
5.000597776251e-02 -2.748200932242e-01 0.000000000000e+00 -2.375313581991e+02 -9.501253033801e+02 -2.375313323158e+02 1.410512602729e-11 -2.067033393485e-02 
3.763666536168e-02 -1.917900581297e-01 0.000000000000e+00 -2.375503827947e+02 -9.502048344137e+02 -2.375510434417e+02 3.352577337444e-10 -2.303705160401e-02 
7.990076033980e-02 -3.280154126230e-01 0.000000000000e+00 -2.375311042042e+02 -9.501244199190e+02 -2.375311048246e+02 1.330646413039e-12 -1.915406831154e-02 
5.374039812767e-02 -2.384606709325e-01 0.000000000000e+00 -2.375329450362e+02 -9.501318081848e+02 -2.375329506442e+02 8.922004989386e-11 -2.170671706000e-02 
8.295584548888e-02 -2.724709261564e-01 0.000000000000e+00 -2.375313684785e+02 -9.501255577835e+02 -2.375313852524e+02 1.844777220316e-12 -2.073729405594e-02 
3.621311007526e-02 -2.130558380742e-01 0.000000000000e+00 -2.375380817091e+02 -9.501535507332e+02 -2.375383264884e+02 1.979739818167e-10 -2.243086260084e-02 
6.391474833037e-02 -2.130589258886e-01 0.000000000000e+00 -2.375380911601e+02 -9.501540117162e+02 -2.375384205753e+02 1.874954758459e-10 -2.243077440871e-02 
5.005826476111e-02 -3.405429735745e-01 0.000000000000e+00 -2.375311001614e+02 -9.501243994795e+02 -2.375310999282e+02 7.947707604295e-13 -1.879698606835e-02 
3.698944467363e-02 -2.448228664997e-01 0.000000000000e+00 -2.375324341369e+02 -9.501297549724e+02 -2.375324378219e+02 7.096838754825e-11 -2.152536947519e-02 
3.662161907618e-02 -3.066087827684e-01 0.000000000000e+00 -2.375311381064e+02 -9.501245363004e+02 -2.375311348814e+02 4.364568877845e-12 -1.976423720159e-02 
8.289028355298e-02 -2.928054893704e-01 0.000000000000e+00 -2.375311928015e+02 -9.501247297232e+02 -2.375311845049e+02 3.805631825976e-12 -2.015768267031e-02 
3.408000067884e-02 -2.691217269938e-01 0.000000000000e+00 -2.375314535276e+02 -9.501257527148e+02 -2.375314412485e+02 3.184012635728e-11 -2.083275887753e-02 
6.944556402011e-02 -3.968201233631e-01 0.000000000000e+00 -2.375310954121e+02 -9.501243816641e+02 -2.375310954152e+02 3.740984537512e-14 -1.719287729554e-02 
5.004338622634e-02 -4.224088684799e-01 0.000000000000e+00 -2.375310954963e+02 -9.501243821524e+02 -2.375310955297e+02 -3.508013708417e-14 -1.646350257643e-02 
1.687036367023e-02 -1.864550581470e-01 0.000000000000e+00 -2.375573213308e+02 -9.502333764613e+02 -2.375581395584e+02 -6.516502431224e-10 -2.318913457808e-02 
0.000000000000e+00 -1.891202423411e-01 0.000000000000e+00 -2.375600386710e+02 -9.502271123230e+02 -2.375574301988e+02 0.000000000000e+00 -2.311315827758e-02 
1.000000000000e-01 -4.066333808964e-01 0.000000000000e+00 -2.375310955465e+02 -9.501243817831e+02 -2.375310954659e+02 0.000000000000e+00 -1.691316283811e-02 
0.000000000000e+00 -4.066333808964e-01 0.000000000000e+00 -2.375310956029e+02 -9.501243820607e+02 -2.375310955327e+02 0.000000000000e+00 -1.691316283821e-02 
3.104608478085e-02 -1.770328565743e-01 0.000000000000e+00 -2.375710073102e+02 -9.502927284160e+02 -2.375727471452e+02 -1.749630095786e-11 -2.345774300562e-02 
5.004288552848e-02 -1.716527951481e-01 0.000000000000e+00 -2.375817271399e+02 -9.503301349387e+02 -2.375823724157e+02 4.584843983578e-10 -2.361112667748e-02 
8.326930466579e-02 -1.667726886397e-01 0.000000000000e+00 -2.375980335333e+02 -9.503830964198e+02 -2.375962259906e+02 1.010043855981e-09 -2.375026500130e-02 
1.000000000000e-01 -1.551674274464e-01 0.000000000000e+00 -2.376365351199e+02 -9.505489297228e+02 -2.376370929685e+02 0.000000000000e+00 -2.408118872867e-02 
2.375340220851e-02 -4.221482437035e-01 0.000000000000e+00 -2.375310955927e+02 -9.501243822724e+02 -2.375310955730e+02 -3.565930005392e-14 -1.647093135507e-02 
6.303932844440e-02 -1.619539551222e-01 0.000000000000e+00 -2.376102521333e+02 -9.504555520937e+02 -2.376131608454e+02 9.925486640273e-10 -2.388766121641e-02 
35  29  51  35
22  35  51  22
3  30  46  3
2  3  46  2
25  30  48  25
26  35  54  26
13  14  32  13
10  33  53  10
9  10  53  9
30  21  48  30
32  14  38  32
30  25  46  30
35  22  54  35
33  23  53  33
23  33  58  23
38  23  58  38
32  38  58  32
35  26  50  35
21  30  57  21
29  35  55  29
20  31  44  20
30  3  43  30
17  18  34  17
5  6  35  5
13  32  40  13
33  10  39  33
24  32  58  24
36  12  40  36
33  24  58  33
23  37  53  23
32  24  40  32
24  33  39  24
24  36  40  24
1  2  46  1
34  18  49  34
5  35  50  5
17  34  42  17
37  8  53  37
14  15  38  14
35  6  55  35
29  37  45  29
27  41  54  27
12  13  40  12
16  42  47  16
10  11  39  10
8  9  53  8
27  54  59  27
59  22  62  59
8  37  61  8
37  23  45  37
34  49  59  34
37  29  61  37
34  59  62  34
52  21  56  52
42  28  47  42
29  45  51  29
45  28  51  45
38  15  47  38
31  52  56  31
19  20  44  19
49  27  59  49
3  4  43  3
16  17  42  16
15  16  47  15
23  38  60  23
30  43  57  30
44  31  56  44
6  7  55  6
7  8  61  7
43  26  57  43
27  44  56  27
48  21  52  48
41  21  57  41
18  19  49  18
21  41  56  21
4  5  50  4
43  4  50  43
19  44  49  19
55  7  61  55
26  43  50  26
44  27  49  44
41  26  54  41
22  51  62  22
41  27  56  41
26  41  57  26
28  45  60  28
28  42  62  28
42  34  62  42
29  55  61  29
45  23  60  45
47  28  60  47
54  22  59  54
51  28  62  51
38  47  60  38
36  24  63  36
64  36  63  64
31  20  65  31
20  66  65  20
11  67  63  11
68  12  36  68
69  70  52  69
70  48  52  70
11  63  39  11
71  1  46  71
63  24  39  63
72  1  71  72
68  36  73  68
71  25  74  71
36  64  73  36
65  69  52  65
31  65  52  31
25  71  46  25
25  70  74  25
70  25  48  70
