 TITLE = "Time curves in points"
 VARIABLES = "TIME"  "DISPLACEMENT_X1"  "DISPLACEMENT_Y1"  "STRESS_XX"  "STRESS_XY"  "STRESS_YY"  "STRESS_ZZ"  "STRAIN_XX"  "STRAIN_XY"  "STRAIN_YY"  "STRAIN_ZZ"  "STRAIN_PLS"  p_(1st_Invariant)  q_(2nd_Invariant)   Effective_Strain
 ZONE T="POINT=POINT2"
0.000000000000e+00 0.000000000000e+00 0.000000000000e+00 0.000000000000e+00 0.000000000000e+00 0.000000000000e+00 0.000000000000e+00 0.000000000000e+00 0.000000000000e+00 0.000000000000e+00 0.000000000000e+00 0.000000000000e+00 -0.000000000000e+00 0.000000000000e+00  0.000000000000e+00
1.000000000000e+00 4.499999999999e-04 -2.160000000000e-02 -4.999999999999e+00 -5.337610695314e-15 -4.999999999999e+00 -1.500000000000e+01 9.999999999998e-03 -1.387778780782e-16 9.999999999998e-03 -1.200000000000e-01 0.000000000000e+00 8.333333333332e+00 9.999999999998e+00  1.300000000000e-01
2.000000000000e+00 4.514999999999e-04 -2.161200000000e-02 -4.999999999999e+00 1.984812175653e-14 -4.999999999999e+00 -1.500000000000e+01 1.003333333333e-02 5.159977895629e-16 1.003333333333e-02 -1.200666666666e-01 0.000000000000e+00 8.333333333332e+00 9.999999999998e+00  1.301000000000e-01
3.000000000000e+00 4.529999999999e-04 -2.162400000000e-02 -4.999999999999e+00 1.500492879923e-14 -4.999999999999e+00 -1.500000000000e+01 1.006666666666e-02 3.902732538906e-16 1.006666666666e-02 -1.201333333333e-01 0.000000000000e+00 8.333333333332e+00 9.999999999998e+00  1.302000000000e-01
4.000000000000e+00 4.544999999999e-04 -2.163600000000e-02 -4.999999999999e+00 1.559164635998e-14 -4.999999999999e+00 -1.500000000000e+01 1.010000000000e-02 4.056779597580e-16 1.010000000000e-02 -1.202000000000e-01 0.000000000000e+00 8.333333333332e+00 9.999999999998e+00  1.303000000000e-01
5.000000000000e+00 4.560000000002e-04 -2.164800000000e-02 -4.999999999999e+00 4.420910817758e-14 -4.999999999998e+00 -1.500000000000e+01 1.013333333333e-02 1.149887883479e-15 1.013333333334e-02 -1.202666666666e-01 0.000000000000e+00 8.333333333331e+00 9.999999999998e+00  1.304000000000e-01
6.000000000000e+00 4.574999999999e-04 -2.166000000000e-02 -4.999999999999e+00 2.163101290482e-14 -4.999999999999e+00 -1.500000000000e+01 1.016666666666e-02 5.632994974694e-16 1.016666666666e-02 -1.203333333333e-01 0.000000000000e+00 8.333333333332e+00 9.999999999998e+00  1.305000000000e-01
7.000000000000e+00 4.589999999999e-04 -2.167200000000e-02 -4.999999999999e+00 1.725513078291e-14 -4.999999999999e+00 -1.500000000000e+01 1.020000000000e-02 4.497428724287e-16 1.020000000000e-02 -1.204000000000e-01 0.000000000000e+00 8.333333333332e+00 9.999999999998e+00  1.306000000000e-01
8.000000000000e+00 4.604999999996e-04 -2.168400000000e-02 -4.999999999999e+00 -1.163324430305e-14 -5.000000000000e+00 -1.500000000000e+01 1.023333333333e-02 -3.011823284984e-16 1.023333333333e-02 -1.204666666666e-01 0.000000000000e+00 8.333333333332e+00 9.999999999998e+00  1.307000000000e-01
9.000000000000e+00 4.619999999999e-04 -2.169600000000e-02 -4.999999999999e+00 1.473467441031e-14 -4.999999999999e+00 -1.500000000000e+01 1.026666666666e-02 3.842672256059e-16 1.026666666666e-02 -1.205333333333e-01 0.000000000000e+00 8.333333333332e+00 9.999999999998e+00  1.308000000000e-01
1.000000000000e+01 4.634999999999e-04 -2.170800000000e-02 -4.999999999999e+00 1.728166046776e-14 -4.999999999999e+00 -1.500000000000e+01 1.030000000000e-02 4.506362098437e-16 1.030000000000e-02 -1.206000000000e-01 0.000000000000e+00 8.333333333332e+00 9.999999999998e+00  1.309000000000e-01
1.100000000000e+01 4.649999999999e-04 -2.172000000000e-02 -4.999999999999e+00 1.570995741427e-14 -4.999999999999e+00 -1.500000000000e+01 1.033333333333e-02 4.099447470576e-16 1.033333333333e-02 -1.206666666666e-01 0.000000000000e+00 8.333333333332e+00 9.999999999998e+00  1.310000000000e-01
1.200000000000e+01 4.664999999994e-04 -2.173200000000e-02 -4.999999999999e+00 -3.230326263461e-14 -5.000000000000e+00 -1.500000000000e+01 1.036666666667e-02 -8.382418746392e-16 1.036666666665e-02 -1.207333333333e-01 0.000000000000e+00 8.333333333332e+00 9.999999999997e+00  1.311000000000e-01
1.300000000000e+01 4.679999999999e-04 -2.174400000000e-02 -4.999999999999e+00 2.286851191101e-14 -4.999999999999e+00 -1.500000000000e+01 1.040000000000e-02 5.959012309205e-16 1.040000000000e-02 -1.208000000000e-01 0.000000000000e+00 8.333333333332e+00 9.999999999998e+00  1.312000000000e-01
1.400000000000e+01 4.694999999995e-04 -2.175599999999e-02 -4.999999999999e+00 -1.129525835902e-14 -5.000000000000e+00 -1.500000000000e+01 1.043333333333e-02 -2.921281109809e-16 1.043333333332e-02 -1.208666666666e-01 0.000000000000e+00 8.333333333332e+00 9.999999999997e+00  1.313000000000e-01
1.500000000000e+01 4.709999999999e-04 -2.176800000000e-02 -4.999999999999e+00 1.756775910960e-14 -4.999999999999e+00 -1.500000000000e+01 1.046666666666e-02 4.581973906195e-16 1.046666666666e-02 -1.209333333333e-01 0.000000000000e+00 8.333333333332e+00 9.999999999998e+00  1.314000000000e-01
1.600000000000e+01 4.724999999999e-04 -2.178000000000e-02 -4.999999999999e+00 1.571251576274e-14 -4.999999999999e+00 -1.500000000000e+01 1.050000000000e-02 4.101367411923e-16 1.050000000000e-02 -1.210000000000e-01 0.000000000000e+00 8.333333333332e+00 9.999999999998e+00  1.315000000000e-01
1.700000000000e+01 4.739999999999e-04 -2.179200000000e-02 -4.999999999999e+00 1.615561713743e-14 -4.999999999999e+00 -1.500000000000e+01 1.053333333333e-02 4.218145020918e-16 1.053333333333e-02 -1.210666666666e-01 0.000000000000e+00 8.333333333332e+00 9.999999999998e+00  1.316000000000e-01
1.800000000000e+01 4.754999999999e-04 -2.180400000000e-02 -4.999999999999e+00 1.724468219571e-14 -4.999999999999e+00 -1.500000000000e+01 1.056666666666e-02 4.502917497785e-16 1.056666666666e-02 -1.211333333333e-01 0.000000000000e+00 8.333333333332e+00 9.999999999998e+00  1.317000000000e-01
1.900000000000e+01 4.769999999999e-04 -2.181600000000e-02 -4.999999999999e+00 1.460177903067e-14 -4.999999999999e+00 -1.500000000000e+01 1.060000000000e-02 3.817487143094e-16 1.060000000000e-02 -1.212000000000e-01 0.000000000000e+00 8.333333333332e+00 9.999999999998e+00  1.318000000000e-01
2.000000000000e+01 4.784999999999e-04 -2.182800000000e-02 -4.999999999999e+00 1.589399118735e-14 -4.999999999999e+00 -1.500000000000e+01 1.063333333333e-02 4.154922481735e-16 1.063333333333e-02 -1.212666666666e-01 0.000000000000e+00 8.333333333332e+00 9.999999999998e+00  1.319000000000e-01
2.100000000000e+01 4.799999999999e-04 -2.184000000000e-02 -4.999999999999e+00 1.654256942567e-14 -4.999999999999e+00 -1.500000000000e+01 1.066666666666e-02 4.325142222815e-16 1.066666666666e-02 -1.213333333333e-01 0.000000000000e+00 8.333333333332e+00 9.999999999998e+00  1.320000000000e-01
2.200000000000e+01 4.814999999995e-04 -2.185199999999e-02 -4.999999999999e+00 -2.520118954544e-14 -5.000000000000e+00 -1.500000000000e+01 1.070000000000e-02 -6.526580852730e-16 1.069999999999e-02 -1.214000000000e-01 0.000000000000e+00 8.333333333332e+00 9.999999999997e+00  1.321000000000e-01
2.300000000000e+01 4.829999999999e-04 -2.186400000000e-02 -4.999999999999e+00 1.619861615580e-14 -4.999999999999e+00 -1.500000000000e+01 1.073333333333e-02 4.234848510638e-16 1.073333333333e-02 -1.214666666666e-01 0.000000000000e+00 8.333333333332e+00 9.999999999998e+00  1.322000000000e-01
2.400000000000e+01 4.844999999999e-04 -2.187600000000e-02 -4.999999999999e+00 1.582438268143e-14 -4.999999999999e+00 -1.500000000000e+01 1.076666666666e-02 4.139167668916e-16 1.076666666666e-02 -1.215333333333e-01 0.000000000000e+00 8.333333333332e+00 9.999999999998e+00  1.323000000000e-01
2.500000000000e+01 4.859999999999e-04 -2.188800000000e-02 -4.999999999999e+00 1.504571545732e-14 -4.999999999999e+00 -1.500000000000e+01 1.080000000000e-02 3.938296628918e-16 1.080000000000e-02 -1.216000000000e-01 0.000000000000e+00 8.333333333332e+00 9.999999999998e+00  1.324000000000e-01
2.600000000000e+01 4.874999999999e-04 -2.190000000000e-02 -4.999999999999e+00 1.638996884885e-14 -4.999999999999e+00 -1.500000000000e+01 1.083333333333e-02 4.289307082260e-16 1.083333333333e-02 -1.216666666666e-01 0.000000000000e+00 8.333333333332e+00 9.999999999998e+00  1.325000000000e-01
2.700000000000e+01 4.889999999999e-04 -2.191200000000e-02 -4.999999999999e+00 1.609211193047e-14 -4.999999999999e+00 -1.500000000000e+01 1.086666666666e-02 4.213503280367e-16 1.086666666666e-02 -1.217333333333e-01 0.000000000000e+00 8.333333333332e+00 9.999999999998e+00  1.326000000000e-01
2.800000000000e+01 4.904999999999e-04 -2.192400000000e-02 -4.999999999999e+00 4.430618989673e-15 -4.999999999999e+00 -1.500000000000e+01 1.090000000000e-02 1.183124326952e-16 1.090000000000e-02 -1.218000000000e-01 0.000000000000e+00 8.333333333332e+00 9.999999999998e+00  1.327000000000e-01
2.900000000000e+01 4.919999999999e-04 -2.193599999999e-02 -4.999999999999e+00 1.644535867107e-14 -4.999999999999e+00 -1.500000000000e+01 1.093333333333e-02 4.307399706013e-16 1.093333333333e-02 -1.218666666666e-01 0.000000000000e+00 8.333333333332e+00 9.999999999998e+00  1.328000000000e-01
3.000000000000e+01 4.934999999999e-04 -2.194800000000e-02 -4.999999999999e+00 1.437774627778e-14 -4.999999999999e+00 -1.500000000000e+01 1.096666666666e-02 3.771465019626e-16 1.096666666666e-02 -1.219333333333e-01 0.000000000000e+00 8.333333333332e+00 9.999999999998e+00  1.329000000000e-01
3.100000000000e+01 4.949999999999e-04 -2.196000000000e-02 -4.999999999999e+00 1.569419589930e-14 -4.999999999999e+00 -1.500000000000e+01 1.100000000000e-02 4.115179695850e-16 1.100000000000e-02 -1.220000000000e-01 0.000000000000e+00 8.333333333332e+00 9.999999999998e+00  1.330000000000e-01
3.200000000000e+01 4.964999999998e-04 -2.197200000000e-02 -4.999999999999e+00 1.050974773129e-14 -4.999999999999e+00 -1.500000000000e+01 1.103333333333e-02 2.768792591757e-16 1.103333333333e-02 -1.220666666666e-01 0.000000000000e+00 8.333333333332e+00 9.999999999998e+00  1.331000000000e-01
3.300000000000e+01 4.979999999998e-04 -2.198399999999e-02 -4.999999999999e+00 1.488404054378e-14 -4.999999999999e+00 -1.500000000000e+01 1.106666666666e-02 3.907159697777e-16 1.106666666666e-02 -1.221333333333e-01 0.000000000000e+00 8.333333333332e+00 9.999999999998e+00  1.332000000000e-01
3.400000000000e+01 4.994999999995e-04 -2.199599999999e-02 -4.999999999999e+00 -3.185079772133e-14 -5.000000000000e+00 -1.500000000000e+01 1.110000000000e-02 -8.242409847097e-16 1.109999999999e-02 -1.222000000000e-01 0.000000000000e+00 8.333333333332e+00 9.999999999997e+00  1.333000000000e-01
3.500000000000e+01 5.009999999999e-04 -2.200800000000e-02 -4.999999999999e+00 1.611854680520e-14 -4.999999999999e+00 -1.500000000000e+01 1.113333333333e-02 4.226434650028e-16 1.113333333333e-02 -1.222666666666e-01 0.000000000000e+00 8.333333333332e+00 9.999999999998e+00  1.334000000000e-01
3.600000000000e+01 5.024999999999e-04 -2.202000000000e-02 -4.999999999999e+00 1.740053244534e-14 -4.999999999999e+00 -1.500000000000e+01 1.116666666666e-02 4.561362771145e-16 1.116666666666e-02 -1.223333333333e-01 0.000000000000e+00 8.333333333332e+00 9.999999999998e+00  1.335000000000e-01
3.700000000000e+01 5.039999999999e-04 -2.203200000000e-02 -4.999999999999e+00 1.563288015431e-14 -4.999999999999e+00 -1.500000000000e+01 1.120000000000e-02 4.103513228723e-16 1.120000000000e-02 -1.224000000000e-01 0.000000000000e+00 8.333333333332e+00 9.999999999998e+00  1.336000000000e-01
3.800000000000e+01 5.054999999998e-04 -2.204400000000e-02 -4.999999999999e+00 1.502890568493e-14 -4.999999999999e+00 -1.500000000000e+01 1.123333333333e-02 3.948043154697e-16 1.123333333333e-02 -1.224666666666e-01 0.000000000000e+00 8.333333333332e+00 9.999999999998e+00  1.337000000000e-01
3.900000000000e+01 5.069999999998e-04 -2.205600000000e-02 -4.999999999999e+00 1.605841678607e-14 -4.999999999999e+00 -1.500000000000e+01 1.126666666666e-02 4.217218931562e-16 1.126666666666e-02 -1.225333333333e-01 0.000000000000e+00 8.333333333332e+00 9.999999999998e+00  1.338000000000e-01
4.000000000000e+01 5.084999999998e-04 -2.206800000000e-02 -4.999999999999e+00 1.566881689113e-14 -4.999999999999e+00 -1.500000000000e+01 1.130000000000e-02 4.117528800557e-16 1.130000000000e-02 -1.226000000000e-01 0.000000000000e+00 8.333333333332e+00 9.999999999998e+00  1.339000000000e-01
4.100000000000e+01 5.099999999996e-04 -2.207999999999e-02 -4.999999999999e+00 -7.804192224210e-15 -4.999999999999e+00 -1.500000000000e+01 1.133333333333e-02 -1.983886687742e-16 1.133333333333e-02 -1.226666666666e-01 0.000000000000e+00 8.333333333332e+00 9.999999999998e+00  1.340000000000e-01
4.200000000000e+01 5.114999999998e-04 -2.209200000000e-02 -4.999999999999e+00 1.485385665856e-14 -4.999999999999e+00 -1.500000000000e+01 1.136666666666e-02 3.906425602556e-16 1.136666666666e-02 -1.227333333333e-01 0.000000000000e+00 8.333333333332e+00 9.999999999998e+00  1.341000000000e-01
4.300000000000e+01 5.129999999998e-04 -2.210400000000e-02 -4.999999999999e+00 1.685613297280e-14 -4.999999999999e+00 -1.500000000000e+01 1.140000000000e-02 4.428502829925e-16 1.140000000000e-02 -1.228000000000e-01 0.000000000000e+00 8.333333333332e+00 9.999999999998e+00  1.342000000000e-01
4.400000000000e+01 5.144999999996e-04 -2.211599999999e-02 -4.999999999999e+00 -5.834804672062e-15 -4.999999999999e+00 -1.500000000000e+01 1.143333333333e-02 -1.469455344443e-16 1.143333333333e-02 -1.228666666666e-01 0.000000000000e+00 8.333333333332e+00 9.999999999998e+00  1.343000000000e-01
4.500000000000e+01 5.159999999998e-04 -2.212800000000e-02 -4.999999999999e+00 1.711425702609e-14 -4.999999999999e+00 -1.500000000000e+01 1.146666666666e-02 4.496717216611e-16 1.146666666666e-02 -1.229333333333e-01 0.000000000000e+00 8.333333333332e+00 9.999999999998e+00  1.344000000000e-01
4.600000000000e+01 5.174999999995e-04 -2.213999999999e-02 -4.999999999999e+00 -4.489118429905e-14 -5.000000000000e+00 -1.500000000000e+01 1.150000000000e-02 -1.162298610222e-15 1.149999999999e-02 -1.230000000000e-01 0.000000000000e+00 8.333333333332e+00 9.999999999997e+00  1.345000000000e-01
4.700000000000e+01 5.189999999998e-04 -2.215200000000e-02 -4.999999999999e+00 1.754923880985e-14 -4.999999999999e+00 -1.500000000000e+01 1.153333333333e-02 4.607034787661e-16 1.153333333333e-02 -1.230666666666e-01 0.000000000000e+00 8.333333333332e+00 9.999999999998e+00  1.346000000000e-01
4.800000000000e+01 5.204999999998e-04 -2.216400000000e-02 -4.999999999999e+00 1.677629350484e-14 -4.999999999999e+00 -1.500000000000e+01 1.156666666666e-02 4.407823932240e-16 1.156666666666e-02 -1.231333333333e-01 0.000000000000e+00 8.333333333332e+00 9.999999999998e+00  1.347000000000e-01
4.900000000000e+01 5.220000000001e-04 -2.217600000000e-02 -4.999999999999e+00 4.592106637145e-14 -4.999999999999e+00 -1.500000000000e+01 1.160000000000e-02 1.198714250691e-15 1.160000000000e-02 -1.232000000000e-01 0.000000000000e+00 8.333333333332e+00 9.999999999998e+00  1.348000000000e-01
5.000000000000e+01 5.234999999998e-04 -2.218800000000e-02 -4.999999999999e+00 1.659050443670e-14 -4.999999999999e+00 -1.500000000000e+01 1.163333333333e-02 4.365788510511e-16 1.163333333333e-02 -1.232666666666e-01 0.000000000000e+00 8.333333333332e+00 9.999999999998e+00  1.349000000000e-01
5.100000000000e+01 5.249999999998e-04 -2.220000000000e-02 -4.999999999999e+00 1.581045661071e-14 -4.999999999999e+00 -1.500000000000e+01 1.166666666666e-02 4.164635126197e-16 1.166666666666e-02 -1.233333333333e-01 0.000000000000e+00 8.333333333332e+00 9.999999999998e+00  1.350000000000e-01
5.200000000000e+01 5.264999999998e-04 -2.221200000000e-02 -4.999999999999e+00 1.567475790614e-14 -4.999999999999e+00 -1.500000000000e+01 1.170000000000e-02 4.130934508669e-16 1.170000000000e-02 -1.234000000000e-01 0.000000000000e+00 8.333333333332e+00 9.999999999998e+00  1.351000000000e-01
5.300000000000e+01 5.279999999993e-04 -2.222399999999e-02 -4.999999999999e+00 -4.130991751868e-14 -5.000000000000e+00 -1.500000000000e+01 1.173333333333e-02 -1.068351362599e-15 1.173333333332e-02 -1.234666666666e-01 0.000000000000e+00 8.333333333332e+00 9.999999999997e+00  1.352000000000e-01
5.400000000000e+01 5.294999999998e-04 -2.223600000000e-02 -4.999999999999e+00 1.606791085094e-14 -4.999999999999e+00 -1.500000000000e+01 1.176666666666e-02 4.230590758356e-16 1.176666666666e-02 -1.235333333333e-01 0.000000000000e+00 8.333333333332e+00 9.999999999998e+00  1.353000000000e-01
5.500000000000e+01 5.309999999998e-04 -2.224800000000e-02 -4.999999999999e+00 1.759394833043e-14 -4.999999999999e+00 -1.500000000000e+01 1.180000000000e-02 4.628967294109e-16 1.180000000000e-02 -1.236000000000e-01 0.000000000000e+00 8.333333333332e+00 9.999999999998e+00  1.354000000000e-01
5.600000000000e+01 5.324999999998e-04 -2.226000000000e-02 -4.999999999999e+00 1.726626453419e-14 -4.999999999999e+00 -1.500000000000e+01 1.183333333333e-02 4.545528901918e-16 1.183333333333e-02 -1.236666666666e-01 0.000000000000e+00 8.333333333332e+00 9.999999999998e+00  1.355000000000e-01
5.700000000000e+01 5.339999999998e-04 -2.227200000000e-02 -4.999999999999e+00 1.742972525406e-14 -4.999999999999e+00 -1.500000000000e+01 1.186666666666e-02 4.589755315537e-16 1.186666666666e-02 -1.237333333333e-01 0.000000000000e+00 8.333333333332e+00 9.999999999998e+00  1.356000000000e-01
5.800000000000e+01 5.354999999997e-04 -2.228399999999e-02 -4.999999999999e+00 2.504927179478e-14 -4.999999999999e+00 -1.500000000000e+01 1.190000000000e-02 6.572580388651e-16 1.189999999999e-02 -1.238000000000e-01 0.000000000000e+00 8.333333333332e+00 9.999999999998e+00  1.357000000000e-01
5.900000000000e+01 5.369999999998e-04 -2.229599999999e-02 -4.999999999999e+00 1.647908811865e-14 -4.999999999999e+00 -1.500000000000e+01 1.193333333333e-02 4.346837560037e-16 1.193333333333e-02 -1.238666666666e-01 0.000000000000e+00 8.333333333332e+00 9.999999999998e+00  1.358000000000e-01
6.000000000000e+01 5.384999999998e-04 -2.230799999999e-02 -4.999999999999e+00 1.708782624031e-14 -4.999999999999e+00 -1.500000000000e+01 1.196666666666e-02 4.506757380479e-16 1.196666666666e-02 -1.239333333333e-01 0.000000000000e+00 8.333333333332e+00 9.999999999998e+00  1.359000000000e-01
6.100000000000e+01 5.399999999995e-04 -2.231999999999e-02 -4.999999999999e+00 -1.653683211328e-14 -5.000000000000e+00 -1.500000000000e+01 1.200000000000e-02 -4.233945008828e-16 1.199999999999e-02 -1.240000000000e-01 0.000000000000e+00 8.333333333332e+00 9.999999999997e+00  1.360000000000e-01
6.200000000000e+01 5.414999999998e-04 -2.233199999999e-02 -4.999999999999e+00 1.521011149491e-14 -4.999999999999e+00 -1.500000000000e+01 1.203333333333e-02 4.018606646090e-16 1.203333333333e-02 -1.240666666666e-01 0.000000000000e+00 8.333333333332e+00 9.999999999998e+00  1.361000000000e-01
6.300000000000e+01 5.429999999998e-04 -2.234399999999e-02 -4.999999999999e+00 1.283543608046e-14 -4.999999999999e+00 -1.500000000000e+01 1.206666666666e-02 3.402712049482e-16 1.206666666666e-02 -1.241333333333e-01 0.000000000000e+00 8.333333333332e+00 9.999999999998e+00  1.362000000000e-01
6.400000000000e+01 5.444999999998e-04 -2.235599999999e-02 -4.999999999999e+00 1.753613661577e-14 -4.999999999999e+00 -1.500000000000e+01 1.210000000000e-02 4.626177732269e-16 1.210000000000e-02 -1.242000000000e-01 0.000000000000e+00 8.333333333332e+00 9.999999999998e+00  1.363000000000e-01
6.500000000000e+01 5.459999999996e-04 -2.236799999999e-02 -4.999999999999e+00 1.211911016941e-14 -4.999999999999e+00 -1.500000000000e+01 1.213333333333e-02 3.219504469878e-16 1.213333333333e-02 -1.242666666666e-01 0.000000000000e+00 8.333333333332e+00 9.999999999998e+00  1.364000000000e-01
6.600000000000e+01 5.474999999996e-04 -2.237999999999e-02 -4.999999999999e+00 -2.638779963803e-15 -4.999999999999e+00 -1.500000000000e+01 1.216666666666e-02 -6.163350537406e-17 1.216666666666e-02 -1.243333333333e-01 0.000000000000e+00 8.333333333332e+00 9.999999999998e+00  1.365000000000e-01
6.700000000000e+01 5.489999999994e-04 -2.239199999999e-02 -4.999999999999e+00 -3.784345152983e-14 -5.000000000000e+00 -1.500000000000e+01 1.220000000000e-02 -9.769813538903e-16 1.219999999999e-02 -1.244000000000e-01 0.000000000000e+00 8.333333333332e+00 9.999999999997e+00  1.366000000000e-01
6.800000000000e+01 5.504999999998e-04 -2.240399999999e-02 -4.999999999999e+00 1.723254553649e-14 -4.999999999999e+00 -1.500000000000e+01 1.223333333333e-02 4.546161353185e-16 1.223333333333e-02 -1.244666666666e-01 0.000000000000e+00 8.333333333332e+00 9.999999999998e+00  1.367000000000e-01
6.900000000000e+01 5.519999999998e-04 -2.241599999999e-02 -4.999999999999e+00 1.805848586513e-14 -4.999999999999e+00 -1.500000000000e+01 1.226666666666e-02 4.762629093186e-16 1.226666666666e-02 -1.245333333333e-01 0.000000000000e+00 8.333333333332e+00 9.999999999998e+00  1.368000000000e-01
7.000000000000e+01 5.534999999998e-04 -2.242799999999e-02 -4.999999999999e+00 1.777636317975e-14 -4.999999999999e+00 -1.500000000000e+01 1.230000000000e-02 4.691083043574e-16 1.230000000000e-02 -1.246000000000e-01 0.000000000000e+00 8.333333333332e+00 9.999999999998e+00  1.369000000000e-01
7.100000000000e+01 5.549999999998e-04 -2.243999999999e-02 -4.999999999999e+00 1.807576110561e-14 -4.999999999999e+00 -1.500000000000e+01 1.233333333333e-02 4.770704140616e-16 1.233333333333e-02 -1.246666666666e-01 0.000000000000e+00 8.333333333332e+00 9.999999999998e+00  1.370000000000e-01
7.200000000000e+01 5.564999999998e-04 -2.245199999999e-02 -4.999999999999e+00 1.660439751797e-14 -4.999999999999e+00 -1.500000000000e+01 1.236666666666e-02 4.389957183939e-16 1.236666666666e-02 -1.247333333333e-01 0.000000000000e+00 8.333333333332e+00 9.999999999998e+00  1.371000000000e-01
7.300000000000e+01 5.579999999998e-04 -2.246399999999e-02 -4.999999999999e+00 1.757392347923e-14 -4.999999999999e+00 -1.500000000000e+01 1.240000000000e-02 4.643694373618e-16 1.240000000000e-02 -1.248000000000e-01 0.000000000000e+00 8.333333333332e+00 9.999999999998e+00  1.372000000000e-01
7.400000000000e+01 5.594999999995e-04 -2.247599999999e-02 -4.999999999999e+00 -1.121566683362e-14 -4.999999999999e+00 -1.500000000000e+01 1.243333333333e-02 -2.839841715374e-16 1.243333333332e-02 -1.248666666666e-01 0.000000000000e+00 8.333333333332e+00 9.999999999998e+00  1.373000000000e-01
7.500000000000e+01 5.609999999998e-04 -2.248799999999e-02 -4.999999999999e+00 1.766039473657e-14 -4.999999999999e+00 -1.500000000000e+01 1.246666666666e-02 4.666812726192e-16 1.246666666666e-02 -1.249333333333e-01 0.000000000000e+00 8.333333333332e+00 9.999999999998e+00  1.374000000000e-01
7.600000000000e+01 5.624999999998e-04 -2.249999999999e-02 -4.999999999999e+00 1.712170902377e-14 -4.999999999999e+00 -1.500000000000e+01 1.250000000000e-02 4.528520480337e-16 1.250000000000e-02 -1.250000000000e-01 0.000000000000e+00 8.333333333332e+00 9.999999999998e+00  1.375000000000e-01
7.700000000000e+01 5.639999999998e-04 -2.251199999999e-02 -4.999999999999e+00 1.586711843786e-14 -4.999999999999e+00 -1.500000000000e+01 1.253333333333e-02 4.204039098903e-16 1.253333333333e-02 -1.250666666666e-01 0.000000000000e+00 8.333333333332e+00 9.999999999998e+00  1.376000000000e-01
7.800000000000e+01 5.654999999998e-04 -2.252399999999e-02 -4.999999999999e+00 1.767731496443e-14 -4.999999999999e+00 -1.500000000000e+01 1.256666666666e-02 4.676276907656e-16 1.256666666666e-02 -1.251333333333e-01 0.000000000000e+00 8.333333333332e+00 9.999999999998e+00  1.377000000000e-01
7.900000000000e+01 5.669999999998e-04 -2.253599999999e-02 -4.999999999999e+00 1.665016707760e-14 -4.999999999999e+00 -1.500000000000e+01 1.260000000000e-02 4.410986188576e-16 1.260000000000e-02 -1.252000000000e-01 0.000000000000e+00 8.333333333332e+00 9.999999999998e+00  1.378000000000e-01
8.000000000000e+01 5.684999999998e-04 -2.254799999999e-02 -4.999999999999e+00 1.721722619127e-14 -4.999999999999e+00 -1.500000000000e+01 1.263333333333e-02 4.560086574838e-16 1.263333333333e-02 -1.252666666666e-01 0.000000000000e+00 8.333333333332e+00 9.999999999998e+00  1.379000000000e-01
8.100000000000e+01 5.699999999998e-04 -2.255999999999e-02 -4.999999999999e+00 1.729808748149e-14 -4.999999999999e+00 -1.500000000000e+01 1.266666666666e-02 4.582832232915e-16 1.266666666666e-02 -1.253333333333e-01 0.000000000000e+00 8.333333333332e+00 9.999999999998e+00  1.380000000000e-01
8.200000000000e+01 5.714999999998e-04 -2.257199999999e-02 -4.999999999999e+00 1.655651383582e-14 -4.999999999999e+00 -1.500000000000e+01 1.270000000000e-02 4.391752893787e-16 1.270000000000e-02 -1.254000000000e-01 0.000000000000e+00 8.333333333332e+00 9.999999999998e+00  1.381000000000e-01
8.300000000000e+01 5.729999999995e-04 -2.258399999999e-02 -4.999999999999e+00 -1.580699045270e-14 -5.000000000000e+00 -1.500000000000e+01 1.273333333333e-02 -4.021102569842e-16 1.273333333332e-02 -1.254666666666e-01 0.000000000000e+00 8.333333333332e+00 9.999999999998e+00  1.382000000000e-01
8.400000000000e+01 5.744999999998e-04 -2.259599999999e-02 -4.999999999999e+00 1.501922997781e-14 -4.999999999999e+00 -1.500000000000e+01 1.276666666666e-02 3.992134043045e-16 1.276666666666e-02 -1.255333333333e-01 0.000000000000e+00 8.333333333332e+00 9.999999999998e+00  1.383000000000e-01
8.500000000000e+01 5.759999999998e-04 -2.260799999999e-02 -4.999999999999e+00 1.692227467573e-14 -4.999999999999e+00 -1.500000000000e+01 1.280000000000e-02 4.488427587500e-16 1.279999999999e-02 -1.256000000000e-01 0.000000000000e+00 8.333333333332e+00 9.999999999998e+00  1.384000000000e-01
8.600000000000e+01 5.774999999998e-04 -2.261999999999e-02 -4.999999999999e+00 1.662308364708e-14 -4.999999999999e+00 -1.500000000000e+01 1.283333333333e-02 4.412330147519e-16 1.283333333333e-02 -1.256666666666e-01 0.000000000000e+00 8.333333333332e+00 9.999999999998e+00  1.385000000000e-01
8.700000000000e+01 5.789999999998e-04 -2.263199999999e-02 -4.999999999999e+00 1.598940795894e-14 -4.999999999999e+00 -1.500000000000e+01 1.286666666666e-02 4.249236776968e-16 1.286666666666e-02 -1.257333333333e-01 0.000000000000e+00 8.333333333332e+00 9.999999999998e+00  1.386000000000e-01
8.800000000000e+01 5.804999999998e-04 -2.264399999999e-02 -4.999999999999e+00 1.652892115503e-14 -4.999999999999e+00 -1.500000000000e+01 1.290000000000e-02 4.391109148747e-16 1.289999999999e-02 -1.258000000000e-01 0.000000000000e+00 8.333333333332e+00 9.999999999998e+00  1.387000000000e-01
8.900000000000e+01 5.819999999998e-04 -2.265599999999e-02 -4.999999999999e+00 1.697453197080e-14 -4.999999999999e+00 -1.500000000000e+01 1.293333333333e-02 4.508620852963e-16 1.293333333333e-02 -1.258666666666e-01 0.000000000000e+00 8.333333333332e+00 9.999999999998e+00  1.388000000000e-01
9.000000000000e+01 5.834999999998e-04 -2.266799999999e-02 -4.999999999999e+00 1.689859004057e-14 -4.999999999999e+00 -1.500000000000e+01 1.296666666666e-02 4.490573404300e-16 1.296666666666e-02 -1.259333333333e-01 0.000000000000e+00 8.333333333332e+00 9.999999999998e+00  1.389000000000e-01
9.100000000000e+01 5.849999999998e-04 -2.267999999999e-02 -4.999999999999e+00 1.653638018260e-14 -4.999999999999e+00 -1.500000000000e+01 1.300000000000e-02 4.398088700233e-16 1.299999999999e-02 -1.260000000000e-01 0.000000000000e+00 8.333333333332e+00 9.999999999998e+00  1.390000000000e-01
9.200000000000e+01 5.864999999998e-04 -2.269199999999e-02 -4.999999999999e+00 1.582594018807e-14 -4.999999999999e+00 -1.500000000000e+01 1.303333333333e-02 4.215027939672e-16 1.303333333333e-02 -1.260666666666e-01 0.000000000000e+00 8.333333333332e+00 9.999999999998e+00  1.391000000000e-01
9.300000000000e+01 5.879999999998e-04 -2.270399999999e-02 -4.999999999999e+00 1.689719232173e-14 -4.999999999999e+00 -1.500000000000e+01 1.306666666666e-02 4.495136088443e-16 1.306666666666e-02 -1.261333333333e-01 0.000000000000e+00 8.333333333332e+00 9.999999999998e+00  1.392000000000e-01
9.400000000000e+01 5.894999999995e-04 -2.271599999999e-02 -4.999999999999e+00 -5.727214731851e-15 -4.999999999999e+00 -1.500000000000e+01 1.310000000000e-02 -1.385520026256e-16 1.309999999999e-02 -1.262000000000e-01 0.000000000000e+00 8.333333333332e+00 9.999999999998e+00  1.393000000000e-01
9.500000000000e+01 5.909999999997e-04 -2.272799999999e-02 -4.999999999999e+00 1.591233608669e-14 -4.999999999999e+00 -1.500000000000e+01 1.313333333333e-02 4.240190465092e-16 1.313333333333e-02 -1.262666666666e-01 0.000000000000e+00 8.333333333332e+00 9.999999999998e+00  1.394000000000e-01
9.600000000000e+01 5.924999999998e-04 -2.273999999999e-02 -4.999999999999e+00 2.516763076512e-14 -4.999999999999e+00 -1.500000000000e+01 1.316666666666e-02 6.648158315092e-16 1.316666666666e-02 -1.263333333333e-01 0.000000000000e+00 8.333333333332e+00 9.999999999998e+00  1.395000000000e-01
9.700000000000e+01 5.939999999997e-04 -2.275199999999e-02 -4.999999999999e+00 1.257803476245e-14 -4.999999999999e+00 -1.500000000000e+01 1.319999999999e-02 3.377380117473e-16 1.319999999999e-02 -1.264000000000e-01 0.000000000000e+00 8.333333333332e+00 9.999999999998e+00  1.396000000000e-01
9.800000000000e+01 5.954999999997e-04 -2.276399999999e-02 -4.999999999999e+00 1.691925795275e-14 -4.999999999999e+00 -1.500000000000e+01 1.323333333333e-02 4.507355950428e-16 1.323333333333e-02 -1.264666666666e-01 0.000000000000e+00 8.333333333332e+00 9.999999999998e+00  1.397000000000e-01
9.900000000000e+01 5.969999999994e-04 -2.277599999999e-02 -4.999999999999e+00 -2.460658921162e-14 -5.000000000000e+00 -1.500000000000e+01 1.326666666666e-02 -6.287672386513e-16 1.326666666665e-02 -1.265333333333e-01 0.000000000000e+00 8.333333333332e+00 9.999999999997e+00  1.398000000000e-01
1.000000000000e+02 5.984999999996e-04 -2.278799999999e-02 -4.999999999999e+00 7.457153763427e-14 -4.999999999999e+00 -1.500000000000e+01 1.329999999999e-02 1.949617993450e-15 1.329999999999e-02 -1.266000000000e-01 0.000000000000e+00 8.333333333332e+00 9.999999999998e+00  1.399000000000e-01
