 TITLE = "Time curves in points"
 VARIABLES = "TIME"  "DISPLACEMENT_X1"  "DISPLACEMENT_Y1"  "STRESS_XX"  "STRESS_XY"  "STRESS_YY"  "STRESS_ZZ"  "STRAIN_XX"  "STRAIN_XY"  "STRAIN_YY"  "STRAIN_ZZ"  p_(1st_Invariant)  q_(2nd_Invariant)   Effective_Strain
 ZONE T="POINT=POINT0"
0.000000000000e+00 0.000000000000e+00 0.000000000000e+00 0.000000000000e+00 0.000000000000e+00 0.000000000000e+00 0.000000000000e+00 0.000000000000e+00 0.000000000000e+00 0.000000000000e+00 0.000000000000e+00 -0.000000000000e+00 0.000000000000e+00  0.000000000000e+00
2.314800000000e-05 0.000000000000e+00 0.000000000000e+00 -4.810462284753e+05 4.728129700228e-06 -4.810462284748e+05 -1.513179358554e-03 -1.553738314600e-05 5.533269550649e-16 -1.553738314598e-05 1.565420552700e-05 3.206974861544e+05 4.810462269619e+05  3.119158867299e-05
4.629600000000e-05 0.000000000000e+00 0.000000000000e+00 -9.717000881423e+05 2.533601377512e+03 -9.702122918989e+05 2.261961615287e+03 -3.145868233915e-05 3.281375220457e-07 -3.136051661532e-05 3.171711187958e-05 6.465501394753e+05 9.732288981708e+05  6.312932707394e-05
6.944400000000e-05 0.000000000000e+00 0.000000000000e+00 -1.462862229793e+06 5.248047622578e+03 -1.459801846487e+06 4.532311021251e+03 -4.740759669421e-05 6.797682671618e-07 -4.720556657446e-05 4.780545079897e-05 9.727105884195e+05 1.465894928231e+06  9.511948055163e-05
9.259200000000e-05 0.000000000000e+00 0.000000000000e+00 -1.954430296864e+06 7.934760967810e+03 -1.949815890208e+06 6.204029253589e+03 -6.336572270978e-05 1.027901545831e-06 -6.306117358847e-05 6.388477729237e-05 1.299347385940e+06 1.958379424603e+06  1.271109681254e-04
1.157400000000e-04 0.000000000000e+00 0.000000000000e+00 -2.446392161139e+06 1.058855280004e+04 -2.440248311289e+06 7.278193571208e+03 -7.933107516599e-05 1.371877727232e-06 -7.892572846914e-05 7.995326630453e-05 1.626454092952e+06 2.450672831404e+06  1.590998004633e-04
1.388880000000e-04 0.000000000000e+00 0.000000000000e+00 -2.938748863642e+06 1.321791902811e+04 -2.931096051458e+06 7.810148844666e+03 -9.530372682684e-05 1.712810674574e-06 -9.479900830539e-05 9.601258326716e-05 1.954011588752e+06 2.942829124675e+06  1.910874813399e-04
1.620360000000e-04 0.000000000000e+00 0.000000000000e+00 -3.431498142083e+06 1.582717118374e+04 -3.422351848470e+06 7.823432376467e+03 -1.112834133312e-04 2.051269995038e-06 -1.106804060146e-04 1.120630227947e-04 2.282008852725e+06 3.434866955258e+06  2.230738392071e-04
1.851840000000e-04 0.000000000000e+00 0.000000000000e+00 -3.924652074996e+06 1.841620714255e+04 -3.914027595116e+06 7.324948476125e+03 -1.272701833698e-04 2.387231212441e-06 -1.265699556810e-04 1.281048435823e-04 2.610451573879e+06 3.926805120192e+06  2.550591513028e-04
2.083320000000e-04 0.000000000000e+00 0.000000000000e+00 -4.418224657218e+06 2.098099969052e+04 -4.406139234354e+06 6.311430123500e+03 -1.432640772322e-04 2.720156125809e-06 -1.424678292993e-04 1.441380473334e-04 2.939350820483e+06 4.418655209799e+06  2.870434977770e-04
2.314800000000e-04 0.000000000000e+00 0.000000000000e+00 -4.912229097163e+06 2.351517796015e+04 -4.898702765205e+06 4.770470792750e+03 -1.592650311099e-04 3.049201736920e-06 -1.583741526720e-04 1.601622668301e-04 3.268720463858e+06 4.910419293230e+06  3.190265103955e-04
3.981500000000e-04 0.000000000000e+00 0.000000000000e+00 -4.921658246230e+06 2.625923522169e+04 -4.906442426869e+06 -1.748446337399e+05 -1.567225311139e-04 3.399440959781e-06 -1.557236088785e-04 1.518660332686e-04 3.334315102280e+06 4.739442264309e+06  3.081465763744e-04
5.648200000000e-04 0.000000000000e+00 0.000000000000e+00 -4.922195228069e+06 2.593167348927e+04 -4.907028040789e+06 -3.552257840446e+05 -1.538548270571e-04 3.357746675815e-06 -1.528589776857e-04 1.432701154941e-04 3.394816350967e+06 4.559625995675e+06  2.966852792151e-04
7.314900000000e-04 0.000000000000e+00 0.000000000000e+00 -4.922662656018e+06 2.557281035451e+04 -4.907563729557e+06 -5.355788254545e+05 -1.509845309516e-04 3.312052417828e-06 -1.499930118352e-04 1.346723906202e-04 3.455268403677e+06 4.379777866939e+06  2.852201513344e-04
8.981600000000e-04 0.000000000000e+00 0.000000000000e+00 -4.923150810416e+06 2.520927461257e+04 -4.908120644861e+06 -7.159125947078e+05 -1.481146239532e-04 3.265758536584e-06 -1.471274692575e-04 1.260748346355e-04 3.515728016662e+06 4.199970279093e+06  2.737556607642e-04
1.064830000000e-03 0.000000000000e+00 0.000000000000e+00 -4.923660686672e+06 2.484086637090e+04 -4.908699589976e+06 -8.962321230930e+05 -1.452450630943e-04 3.218839722111e-06 -1.442622946762e-04 1.174772340126e-04 3.576197466580e+06 4.020199140204e+06  2.622915531275e-04
1.231500000000e-03 0.000000000000e+00 0.000000000000e+00 -4.924192431542e+06 2.446757977517e+04 -4.909300725763e+06 -1.076538118234e+06 -1.423758426445e-04 3.171295257472e-06 -1.413974832460e-04 1.088795534760e-04 3.636677091847e+06 3.840463947106e+06  2.508277985578e-04
1.398170000000e-03 0.000000000000e+00 0.000000000000e+00 -4.924746180580e+06 2.408941162910e+04 -4.909924204357e+06 -1.256831227420e+06 -1.395069569090e-04 3.123124756788e-06 -1.385330303153e-04 1.002817590271e-04 3.697167204119e+06 3.660764257040e+06  2.393643706584e-04
1.564840000000e-03 0.000000000000e+00 0.000000000000e+00 -4.925322077385e+06 2.370636245610e+04 -4.910570186828e+06 -1.437112047747e+06 -1.366384007270e-04 3.074328302858e-06 -1.356689318231e-04 9.168381810474e-05 3.757668103987e+06 3.481099698573e+06  2.279012476370e-04
1.731510000000e-03 0.000000000000e+00 0.000000000000e+00 -4.925920269475e+06 2.331843724981e+04 -4.911238838771e+06 -1.617381136105e+06 -1.337701691947e-04 3.024906542790e-06 -1.328051840037e-04 8.308569899193e-05 3.818180081451e+06 3.301469960787e+06  2.164384121195e-04
1.898180000000e-03 0.000000000000e+00 0.000000000000e+00 -4.926540910132e+06 2.292564601216e+04 -4.911930331977e+06 -1.797639028741e+06 -1.309022574215e-04 2.974860756395e-06 -1.299417831315e-04 7.448736995009e-05 3.878703423617e+06 3.121874780100e+06  2.049758509575e-04
2.064850000000e-03 0.000000000000e+00 0.000000000000e+00 -4.927184161433e+06 2.252800405420e+04 -4.912644847395e+06 -1.977886260356e+06 -1.280346603285e-04 2.924192894278e-06 -1.270787253154e-04 6.588879841436e-05 3.939238423061e+06 2.942313930477e+06  1.935135554702e-04
2.231520000000e-03 0.000000000000e+00 0.000000000000e+00 -4.927850196086e+06 2.212553237608e+04 -4.913382576874e+06 -2.158123372750e+06 -1.251673725799e-04 2.872905626005e-06 -1.242160064234e-04 5.728995065755e-05 3.999785381903e+06 2.762787225332e+06  1.820515227577e-04
2.398190000000e-03 0.000000000000e+00 0.000000000000e+00 -4.928539196095e+06 2.171825824237e+04 -4.914143721630e+06 -2.338350915780e+06 -1.223003885390e-04 2.821002413150e-06 -1.213536220270e-04 4.869079172249e-05 4.060344611168e+06 2.583294527564e+06  1.705897580002e-04
2.564860000000e-03 0.000000000000e+00 0.000000000000e+00 -4.929251348982e+06 2.130621590603e+04 -4.914928488229e+06 -2.518569446801e+06 -1.194337021718e-04 2.768487601259e-06 -1.184915672883e-04 4.009128534612e-05 4.120916428004e+06 2.403835764180e+06  1.591282777384e-04
2.731530000000e-03 0.000000000000e+00 0.000000000000e+00 -4.929986844049e+06 2.088944738323e+04 -4.915737084573e+06 -2.698779529267e+06 -1.165673069641e-04 2.715366518200e-06 -1.156298368604e-04 3.149139392342e-05 4.181501152630e+06 2.224410950486e+06  1.476671148191e-04
2.898200000000e-03 0.000000000000e+00 0.000000000000e+00 -4.930745867879e+06 2.046800327566e+04 -4.916569715120e+06 -2.878981731652e+06 -1.137011958093e-04 2.661645578515e-06 -1.127684247570e-04 2.289107842878e-05 4.242099104883e+06 2.045020227203e+06  1.362063258280e-04
3.064870000000e-03 0.000000000000e+00 0.000000000000e+00 -4.931528602396e+06 2.004194352961e+04 -4.917426578711e+06 -3.059176624241e+06 -1.108353610111e-04 2.607332379618e-06 -1.099073243402e-04 1.429029852317e-05 4.302710601783e+06 1.865663925720e+06  1.247460030295e-04
3.231540000000e-03 0.000000000000e+00 0.000000000000e+00 -4.932335224134e+06 1.961133808872e+04 -4.918307867687e+06 -3.239364773110e+06 -1.079697943693e-04 2.552435784369e-06 -1.070465283970e-04 5.689012840228e-06 4.363335954977e+06 1.686342678266e+06  1.132862937539e-04
3.398210000000e-03 0.000000000000e+00 0.000000000000e+00 -4.933165906064e+06 1.917626742433e+04 -4.919213769672e+06 -3.419546730377e+06 -1.051044874091e-04 2.496965987975e-06 -1.041860293654e-04 -2.912820455917e-06 4.423975468704e+06 1.507057609260e+06  1.018274330364e-04
3.564880000000e-03 0.000000000000e+00 0.000000000000e+00 -4.934020819099e+06 1.873682314150e+04 -4.920144468992e+06 -3.599723025396e+06 -1.022394315867e-04 2.440934594435e-06 -1.013258195366e-04 -1.151524316120e-05 4.484629437829e+06 1.327810670866e+06  9.036980040777e-05
3.731550000000e-03 0.000000000000e+00 0.000000000000e+00 -4.934900132413e+06 1.829310883321e+04 -4.921100146818e+06 -3.779894161092e+06 -9.937461837936e-05 2.384354724310e-06 -9.846589113283e-05 -2.011829680238e-05 4.545298146774e+06 1.148605276461e+06  7.891402510707e-05
3.898220000000e-03 0.000000000000e+00 0.000000000000e+00 -4.935804011684e+06 1.784524118510e+04 -4.922080979075e+06 -3.960060615196e+06 -9.651003923237e-05 2.327241153714e-06 -9.560623623568e-05 -2.872202271058e-05 4.605981868652e+06 9.694476246118e+05  6.746119762876e-05
4.064890000000e-03 0.000000000000e+00 0.000000000000e+00 -4.936732616472e+06 1.739335130205e+04 -4.923087133395e+06 -4.140222845462e+06 -9.364568541487e-05 2.269610479933e-06 -9.274684661743e-05 -3.732646231571e-05 4.666680865110e+06 7.903498212373e+05  5.601334032268e-05
4.231560000000e-03 0.000000000000e+00 0.000000000000e+00 -4.937686098140e+06 1.693758617546e+04 -4.924118766546e+06 -4.320381292520e+06 -9.078154793198e-05 2.211481300812e-06 -8.988771362816e-05 -4.593165730773e-05 4.727395385736e+06 6.113385003513e+05  4.457460270870e-05
4.398230000000e-03 0.000000000000e+00 0.000000000000e+00 -4.938664597896e+06 1.647811029517e+04 -4.925176021875e+06 -4.500536381331e+06 -8.791761746092e-05 2.152874400464e-06 -8.702882810994e-05 -5.453764972558e-05 4.788125667034e+06 4.324848372304e+05  3.315492478074e-05
4.564900000000e-03 0.000000000000e+00 0.000000000000e+00 -4.939668246354e+06 1.601510745426e+04 -4.926259027887e+06 -4.680688519322e+06 -8.505388438324e-05 2.093812914244e-06 -8.417018041890e-05 -6.314448182933e-05 4.848871931188e+06 2.540610978005e+05  2.178516891448e-05
4.731570000000e-03 0.000000000000e+00 0.000000000000e+00 -4.940697167433e+06 1.554878361698e+04 -4.927367898706e+06 -4.860838093319e+06 -8.219033894844e-05 2.034322359816e-06 -8.131176063046e-05 -7.175219573261e-05 4.909634386486e+06 7.884143631252e+04  1.062880095478e-05
4.898240000000e-03 0.000000000000e+00 0.000000000000e+00 -4.941751516682e+06 1.507941329845e+04 -4.928502709348e+06 -5.040985508768e+06 -7.932697318423e-05 1.974430956408e-06 -7.845356056993e-05 -8.036083025497e-05 4.970413244932e+06 1.096349134154e+05  3.798661165381e-06
5.064910000000e-03 0.000000000000e+00 0.000000000000e+00 -4.942830901073e+06 1.460726929484e+04 -4.929663123338e+06 -5.221130497304e+06 -7.646377707350e-05 1.914187597703e-06 -7.559556634304e-05 -8.897040619862e-05 5.031208173905e+06 2.862320034664e+05  1.337984656234e-05
5.231580000000e-03 0.000000000000e+00 0.000000000000e+00 -4.943936261362e+06 1.413234680003e+04 -4.930850228726e+06 -5.401274300411e+06 -7.360074728203e-05 1.853588576442e-06 -7.273777939392e-05 -9.758098997979e-05 5.092020263500e+06 4.646646493912e+05  2.463327636854e-05
5.398250000000e-03 0.000000000000e+00 0.000000000000e+00 -4.945067288634e+06 1.365510960045e+04 -4.932063572298e+06 -5.581416723228e+06 -7.073784898617e-05 1.792690908556e-06 -6.988016039941e-05 -1.061926535140e-04 5.152849194720e+06 6.433847939916e+05  3.602539655702e-05
5.564920000000e-03 0.000000000000e+00 0.000000000000e+00 -4.946224014366e+06 1.317588852626e+04 -4.933303159216e+06 -5.761557936584e+06 -6.787506311102e-05 1.731536127204e-06 -6.702268885563e-05 -1.148054525596e-04 5.213695036722e+06 8.221873125026e+05  4.745719021929e-05
5.731590000000e-03 0.000000000000e+00 0.000000000000e+00 -4.947406437494e+06 1.269504746026e+04 -4.934568954634e+06 -5.941698067012e+06 -6.501237043571e-05 1.670170286368e-06 -6.416534344898e-05 -1.234194418709e-04 5.274557819713e+06 1.001013656219e+06  5.890623244134e-05
5.898260000000e-03 0.000000000000e+00 0.000000000000e+00 -4.948614531521e+06 1.221298197782e+04 -4.935860893150e+06 -6.121837182701e+06 -6.214975196146e-05 1.608643548105e-06 -6.130810270394e-05 -1.320346742126e-04 5.335437535790e+06 1.179840825172e+06  7.036471080481e-05
6.064930000000e-03 0.000000000000e+00 0.000000000000e+00 -4.949848243029e+06 1.173012042936e+04 -4.937178876990e+06 -6.301975293816e+06 -5.928718889864e-05 1.547010284277e-06 -5.845094498111e-05 -1.406512002734e-04 5.396334137945e+06 1.358657960643e+06  8.182922175460e-05
6.231600000000e-03 0.000000000000e+00 0.000000000000e+00 -4.951107491712e+06 1.124692442028e+04 -4.938522775951e+06 -6.482112351742e+06 -5.642466272931e-05 1.485329128447e-06 -5.559384854537e-05 -1.492690684644e-04 5.457247539802e+06 1.537459266915e+06  9.329806528301e-05
6.398270000000e-03 0.000000000000e+00 0.000000000000e+00 -4.952392170967e+06 1.076388876508e+04 -4.939892428054e+06 -6.662248249419e+06 -5.356215527495e-05 1.423662968449e-06 -5.273679164144e-05 -1.578883247387e-04 5.518177616147e+06 1.716241357704e+06  1.047703122795e-04
6.564940000000e-03 0.000000000000e+00 0.000000000000e+00 -4.953702150371e+06 1.028154079931e+04 -4.941287642186e+06 -6.842382821326e+06 -5.069964883186e-05 1.362078860060e-06 -4.987975264290e-05 -1.665090123218e-04 5.579124204627e+06 1.895002102570e+06  1.162454228516e-04
6.731610000000e-03 0.000000000000e+00 0.000000000000e+00 -4.955037277531e+06 9.800438948029e+03 -4.942708200286e+06 -7.022515848254e+06 -4.783712620797e-05 1.300647847166e-06 -4.702271011076e-05 -1.751311716894e-04 5.640087108690e+06 2.073740074203e+06  1.277230702058e-04
6.898280000000e-03 0.000000000000e+00 0.000000000000e+00 -4.956397381919e+06 9.321170449602e+03 -4.944153861650e+06 -7.202647059593e+06 -4.497457086173e-05 1.239444674913e-06 -4.416564296349e-05 -1.837548403544e-04 5.701066101054e+06 2.252454255774e+06  1.392030512088e-04
7.064950000000e-03 0.000000000000e+00 0.000000000000e+00 -4.957782278536e+06 8.844348254411e+03 -4.945624367219e+06 -7.382776142132e+06 -4.211196692563e-05 1.178547397896e-06 -4.130853054090e-05 -1.923800529788e-04 5.762060929296e+06 2.431143883260e+06  1.506852380488e-04
7.231620000000e-03 0.000000000000e+00 0.000000000000e+00 -4.959191772401e+06 8.370607073576e+03 -4.947119444849e+06 -7.562902748628e+06 -3.924929925534e-05 1.118036880032e-06 -3.845135270353e-05 -2.010068414497e-04 5.823071321960e+06 2.609808353455e+06  1.621695503721e-04
7.398290000000e-03 0.000000000000e+00 0.000000000000e+00 -4.960625663695e+06 7.900598712800e+03 -4.948638815350e+06 -7.743026508663e+06 -3.638655345742e-05 1.057996203152e-06 -3.559408991836e-05 -2.096352350518e-04 5.884096995902e+06 2.788447170373e+06  1.736559385794e-04
7.564960000000e-03 0.000000000000e+00 0.000000000000e+00 -4.962083753392e+06 7.434986820801e+03 -4.950182199129e+06 -7.923147041255e+06 -3.352371589954e-05 9.985100006997e-07 -3.273672333407e-05 -2.182652607161e-04 5.945137664592e+06 2.967059914158e+06  1.851443734696e-04
7.731630000000e-03 0.000000000000e+00 0.000000000000e+00 -4.963565849512e+06 6.974441254786e+03 -4.951749323513e+06 -8.103263967969e+06 -3.066077372802e-05 9.396637422645e-07 -2.987923486754e-05 -2.268969432803e-04 6.006193046998e+06 3.145646222681e+06  1.966348395878e-04
7.898300000000e-03 0.000000000000e+00 0.000000000000e+00 -4.965071774089e+06 6.519632275278e+03 -4.953339930817e+06 -8.283376924663e+06 -2.779771492858e-05 8.815429959600e-07 -2.702160733592e-05 -2.355303056640e-04 6.067262876523e+06 3.324205779015e+06  2.081273307178e-04
8.064970000000e-03 0.000000000000e+00 0.000000000000e+00 -4.966601369460e+06 6.071224831755e+03 -4.954953785721e+06 -8.463485573925e+06 -2.493452835269e-05 8.242327019542e-07 -2.416382455289e-05 -2.441653691038e-04 6.128346909702e+06 3.502738305462e+06  2.196218469129e-04
8.231640000000e-03 0.000000000000e+00 0.000000000000e+00 -4.968154504860e+06 5.629873126408e+03 -4.956590682888e+06 -8.643589617429e+06 -2.207120375610e-05 7.678164810065e-07 -2.130587143390e-05 -2.528021533753e-04 6.189444935059e+06 3.681243560593e+06  2.311183924435e-04
8.398310000000e-03 0.000000000000e+00 0.000000000000e+00 -4.969731081728e+06 5.196215707638e+03 -4.958250453204e+06 -8.823688804845e+06 -1.920773185524e-05 7.123760101227e-07 -1.844773411238e-05 -2.614406768875e-04 6.250556779926e+06 3.859721336488e+06  2.426169742326e-04
8.564980000000e-03 0.000000000000e+00 0.000000000000e+00 -4.971331038729e+06 4.770871217436e+03 -4.959932969581e+06 -9.003782943155e+06 -1.634410437155e-05 6.579904811330e-07 -1.558940003551e-05 -2.700809568034e-04 6.311682317155e+06 4.038171458317e+06  2.541176007635e-04
8.731650000000e-03 0.000000000000e+00 0.000000000000e+00 -4.972954354548e+06 4.354434922712e+03 -4.961638150392e+06 -9.183871904367e+06 -1.348031403564e-05 6.047361588172e-07 -1.273085800945e-05 -2.787230091510e-04 6.372821469769e+06 4.216593785728e+06  2.656202813230e-04
8.898320000000e-03 0.000000000000e+00 0.000000000000e+00 -4.974601050301e+06 3.947476049618e+03 -4.963365962334e+06 -9.363955632060e+06 -1.061635460340e-05 5.526860410130e-07 -9.872098245503e-06 -2.873668488855e-04 6.433974214898e+06 4.394988214337e+06  2.771250254009e-04
9.064990000000e-03 0.000000000000e+00 0.000000000000e+00 -4.976271190001e+06 3.550535925114e+03 -4.965116421186e+06 -9.544034146010e+06 -7.752220845861e-06 5.019096212772e-07 -7.013112369048e-06 -2.960124899184e-04 6.495140585732e+06 4.573354677898e+06  2.886318422408e-04
9.231660000000e-03 0.000000000000e+00 0.000000000000e+00 -4.977964879880e+06 3.164126865178e+03 -4.966889591253e+06 -9.724107546489e+06 -4.887908512143e-06 4.524727463914e-07 -4.153893390928e-06 -3.046599451649e-04 6.556320672541e+06 4.751693151795e+06  3.001407405530e-04
9.398330000000e-03 0.000000000000e+00 0.000000000000e+00 -4.979682266520e+06 2.788731720019e+03 -4.968685583484e+06 -9.904176018028e+06 -2.023414266606e-06 4.044375572964e-07 -1.294435643779e-06 -3.133092266036e-04 6.617514622677e+06 4.930003657570e+06  3.116517283509e-04
9.565000000000e-03 0.000000000000e+00 0.000000000000e+00 -4.981423533562e+06 2.424803987187e+03 -4.970504552024e+06 -1.008423983148e+07 8.412643864996e-07 3.578625020881e-07 1.565265302318e-06 -3.219603452939e-04 6.678722639021e+06 5.108286267467e+06  3.231648128236e-04
9.731670000000e-03 0.000000000000e+00 0.000000000000e+00 -4.983188895112e+06 2.072768510393e+03 -4.972346687309e+06 -1.026429935252e+07 3.706129177338e-06 3.128024210066e-07 4.425212731877e-06 -3.306133113954e-04 6.739944978312e+06 5.286541119001e+06  3.346800002596e-04
9.898340000000e-03 0.000000000000e+00 0.000000000000e+00 -4.984978582423e+06 1.733031265466e+03 -4.974212198710e+06 -1.044435501496e+07 6.571180821728e-06 2.693097995895e-07 7.285408794648e-06 -3.392681329511e-04 6.801181932030e+06 5.464768403035e+06  3.461972945703e-04
1.006501000000e-02 0.000000000000e+00 0.000000000000e+00 -4.986792844596e+06 1.405972614597e+03 -4.976101320313e+06 -1.062440732693e+07 9.436419246410e-06 2.274339108860e-07 1.014585441257e-05 -3.479248161446e-04 6.862433830612e+06 5.642968366250e+06  3.577166974917e-04
1.023168000000e-02 0.000000000000e+00 0.000000000000e+00 -4.988632036909e+06 1.091908152389e+03 -4.978014408682e+06 -1.080445698308e+07 1.230184349364e-05 1.872157818703e-07 1.300654856700e-05 -3.565833691786e-04 6.923701142889e+06 5.821141329877e+06  3.692382119548e-04
1.039835000000e-02 0.000000000000e+00 0.000000000000e+00 -4.990496443003e+06 7.911653911238e+02 -4.979951741547e+06 -1.098450472292e+07 1.516745419541e-05 1.486980196704e-07 1.586749229312e-05 -3.652438004206e-04 6.984984302491e+06 5.999287737402e+06  3.807618434089e-04
1.056502000000e-02 0.000000000000e+00 0.000000000000e+00 -4.992386374130e+06 5.040432615607e+02 -4.981913630430e+06 -1.116455138818e+07 1.803325138903e-05 1.119196197029e-07 1.872868562980e-05 -3.739061173651e-04 7.046283797579e+06 6.177408105625e+06  3.922875960868e-04
1.073169000000e-02 0.000000000000e+00 0.000000000000e+00 -4.994302151320e+06 2.308178595912e+02 -4.983900400806e+06 -1.134459792756e+07 2.089923508255e-05 7.691669658550e-08 2.159012831473e-05 -3.825703273113e-04 7.107600159894e+06 6.355503048091e+06  4.038154742581e-04
1.089836000000e-02 0.000000000000e+00 0.000000000000e+00 -4.996244097733e+06 -2.825456966690e+01 -4.985912383618e+06 -1.152464539775e+07 2.376540545488e-05 4.372286261546e-08 2.445182003872e-05 -3.912364375153e-04 7.168933959699e+06 6.533573283939e+06  4.153454825637e-04
1.106503000000e-02 0.000000000000e+00 0.000000000000e+00 -4.998212535064e+06 -2.729361999072e+02 -4.987949911310e+06 -1.170469496573e+07 2.663176295423e-05 1.236940675095e-08 2.731376056827e-05 -3.999044552659e-04 7.230285804033e+06 6.711619643841e+06  4.268776261605e-04
1.123170000000e-02 0.000000000000e+00 0.000000000000e+00 -5.000207780152e+06 -5.030062410959e+02 -4.990013314071e+06 -1.188474791086e+07 2.949830838662e-05 -1.711453287137e-08 3.017594985754e-05 -4.085743879402e-04 7.291656335028e+06 6.889643075544e+06  4.384119108442e-04
1.139837000000e-02 0.000000000000e+00 0.000000000000e+00 -5.002230141906e+06 -7.182596169780e+02 -4.992102916403e+06 -1.206480562701e+07 3.236504299222e-05 -4.470180419498e-08 3.303838814820e-05 -4.172462430440e-04 7.353046228440e+06 7.067644649089e+06  4.499483431474e-04
1.156504000000e-02 0.000000000000e+00 0.000000000000e+00 -5.004279918598e+06 -9.185057441667e+02 -4.994219034063e+06 -1.224486962445e+07 3.523196850599e-05 -7.036708957873e-08 3.590107605308e-05 -4.259200282274e-04 7.414456192370e+06 7.245625561526e+06  4.614869304022e-04
1.173171000000e-02 0.000000000000e+00 0.000000000000e+00 -5.006357394514e+06 -1.103567429017e+03 -4.996361970367e+06 -1.242494153110e+07 3.809908722549e-05 -9.408676925577e-08 3.876401464650e-05 -4.345957512795e-04 7.475886965327e+06 7.423587141585e+06  4.730276807911e-04
1.189838000000e-02 0.000000000000e+00 0.000000000000e+00 -5.008462837584e+06 -1.273279898148e+03 -4.998532013472e+06 -1.260502309435e+07 4.096640205308e-05 -1.158388019274e-07 4.162720552927e-05 -4.432734201096e-04 7.537339315134e+06 7.601530853938e+06  4.845706033625e-04
1.206505000000e-02 0.000000000000e+00 0.000000000000e+00 -5.010596495674e+06 -1.427489998254e+03 -5.000729432339e+06 -1.278511618222e+07 4.383391656834e-05 -1.356026270551e-07 4.449065092315e-05 -4.519530427320e-04 7.598814036743e+06 7.779458304196e+06  4.961157080816e-04
1.223172000000e-02 0.000000000000e+00 0.000000000000e+00 -5.012758594193e+06 -1.566055570426e+03 -5.002954474001e+06 -1.296522278490e+07 4.670163505941e-05 -1.533590895102e-07 4.735435372408e-05 -4.606346272112e-04 7.660311951030e+06 7.957371242912e+06  5.076630058031e-04
1.239839000000e-02 0.000000000000e+00 0.000000000000e+00 -5.014949331987e+06 -1.688845019150e+03 -5.005207359137e+06 -1.314534501524e+07 4.956956258917e-05 -1.690903891632e-07 5.021831758972e-05 -4.693181816020e-04 7.721833902121e+06 8.135271570321e+06  5.192125082741e-04
1.256506000000e-02 0.000000000000e+00 0.000000000000e+00 -5.017168878402e+06 -1.795737095926e+03 -5.007488278830e+06 -1.332548510970e+07 5.243770502552e-05 -1.827800579790e-07 5.308254699028e-05 -4.780037138561e-04 7.783380755645e+06 8.313161340301e+06  5.307642280699e-04
1.273173000000e-02 0.000000000000e+00 0.000000000000e+00 -5.019417369653e+06 -1.886620907188e+03 -5.009797390630e+06 -1.350564542908e+07 5.530606908543e-05 -1.944129658490e-07 5.594704727255e-05 -4.866912317241e-04 7.844953396453e+06 8.491042764848e+06  5.423181785395e-04
1.289840000000e-02 0.000000000000e+00 0.000000000000e+00 -5.021694905000e+06 -1.961396189185e+03 -5.012134814458e+06 -1.368582845831e+07 5.817466236460e-05 -2.039753606438e-07 5.881182470787e-05 -4.953807426022e-04 7.906552725923e+06 8.668918217830e+06  5.538743736810e-04
1.306507000000e-02 0.000000000000e+00 0.000000000000e+00 -5.024001543578e+06 -2.019973860391e+03 -5.014500629190e+06 -1.386603680598e+07 6.104349333231e-05 -2.114549438452e-07 6.167688650406e-05 -5.040722533146e-04 7.968179659581e+06 8.846790237695e+06  5.654328279203e-04
1.323174000000e-02 0.000000000000e+00 0.000000000000e+00 -5.026337300522e+06 -2.062276880117e+03 -5.016894868542e+06 -1.404627320495e+07 6.391257136242e-05 -2.168409854328e-07 6.454224085175e-05 -5.127657699586e-04 8.029835124670e+06 9.024661532137e+06  5.769935559858e-04
1.339841000000e-02 0.000000000000e+00 0.000000000000e+00 -5.028702143640e+06 -2.088241469503e+03 -5.019317517572e+06 -1.422654050890e+07 6.678190666783e-05 -2.201244852550e-07 6.740789687144e-05 -5.214612974934e-04 8.091520056703e+06 9.202534977958e+06  5.885565724322e-04
1.356508000000e-02 0.000000000000e+00 0.000000000000e+00 -5.031095989466e+06 -2.097818666724e+03 -5.021768508568e+06 -1.440684169427e+07 6.965151033634e-05 -2.212983772524e-07 7.027386466050e-05 -5.301588395922e-04 8.153235397436e+06 9.380413627054e+06  6.001218915272e-04
1.373175000000e-02 0.000000000000e+00 0.000000000000e+00 -5.033518699089e+06 -2.090976321465e+03 -5.024247716768e+06 -1.458717985495e+07 7.252139424269e-05 -2.203577900481e-07 7.314015521293e-05 -5.388583981071e-04 8.214982090269e+06 9.558300705269e+06  6.116895266268e-04
1.389842000000e-02 0.000000000000e+00 0.000000000000e+00 -5.035970073861e+06 -2.067701459893e+03 -5.026754955996e+06 -1.476755820049e+07 7.539157101337e-05 -2.173003550604e-07 7.600678038989e-05 -5.475599726828e-04 8.276761076781e+06 9.736199614966e+06  6.232594897513e-04
1.406509000000e-02 0.000000000000e+00 0.000000000000e+00 -5.038449850236e+06 -2.028003072727e+03 -5.029289973452e+06 -1.494798005192e+07 7.826205396863e-05 -2.121265689011e-07 7.887375286539e-05 -5.562635602463e-04 8.338573291870e+06 9.914113935973e+06  6.348317910136e-04
1.423176000000e-02 0.000000000000e+00 0.000000000000e+00 -5.040957694055e+06 -1.971915285515e+03 -5.031852443995e+06 -1.512844883621e+07 8.113285705183e-05 -2.048402048041e-07 8.174108605719e-05 -5.649691544217e-04 8.400419658086e+06 1.009204742573e+07  6.464064379591e-04
1.439843000000e-02 0.000000000000e+00 0.000000000000e+00 -5.043493194913e+06 -1.899500858040e+03 -5.034441964498e+06 -1.530896807947e+07 8.400399473134e-05 -1.954487662519e-07 8.460879402961e-05 -5.736767448688e-04 8.462301079627e+06 1.027000401816e+07  6.579834348018e-04
1.456510000000e-02 0.000000000000e+00 0.000000000000e+00 -5.046055859198e+06 -1.810854925340e+03 -5.037058046902e+06 -1.548954139993e+07 8.687548194029e-05 -1.839639715396e-07 8.747689143357e-05 -5.823863166502e-04 8.524218435344e+06 1.044798782352e+07  6.695627817265e-04
1.473177000000e-02 0.000000000000e+00 0.000000000000e+00 -5.048645103946e+06 -1.706108839607e+03 -5.039700112068e+06 -1.567017249877e+07 8.974733396529e-05 -1.704022511462e-07 9.034539339665e-05 -5.910978494997e-04 8.586172571595e+06 1.062600312538e+07  6.811444740411e-04
1.489844000000e-02 0.000000000000e+00 0.000000000000e+00 -5.051260249434e+06 -1.585433915878e+03 -5.042367482339e+06 -1.585086515244e+07 9.261956642145e-05 -1.547852325427e-07 9.321431550033e-05 -5.998113172692e-04 8.648164294737e+06 1.080405438038e+07  6.927285015940e-04
1.506511000000e-02 0.000000000000e+00 0.000000000000e+00 -5.053900513284e+06 -1.449044834819e+03 -5.045059375599e+06 -1.603162320510e+07 9.549219521904e-05 -1.371401806334e-07 9.608367375113e-05 -6.085266874480e-04 8.710194364661e+06 1.098214621652e+07  7.043148482577e-04
1.523178000000e-02 0.000000000000e+00 0.000000000000e+00 -5.056565004843e+06 -1.297202343913e+03 -5.047774899538e+06 -1.621245056068e+07 9.836523657376e-05 -1.175003475904e-07 9.895348459884e-05 -6.172439208339e-04 8.772263488353e+06 1.116028343089e+07  7.159034916062e-04
1.539845000000e-02 0.000000000000e+00 0.000000000000e+00 -5.059252722523e+06 -1.130214924210e+03 -5.050513048843e+06 -1.639335117573e+07 1.012387070213e-04 -9.590518913568e-08 1.018237649618e-04 -6.259629714046e-04 8.834372315700e+06 1.133847098524e+07  7.274944028018e-04
1.556512000000e-02 0.000000000000e+00 0.000000000000e+00 -5.061962554027e+06 -9.484389719757e+02 -5.053272705189e+06 -1.657432905160e+07 1.041126234400e-04 -7.240038906339e-08 1.046945322655e-04 -6.346837864019e-04 8.896521436939e+06 1.151671399798e+07  7.390875467018e-04
1.573179000000e-02 0.000000000000e+00 0.000000000000e+00 -5.064693280461e+06 -7.522771347020e+02 -5.056052641050e+06 -1.675538822916e+07 1.069870031375e-04 -4.703764534035e-08 1.075658045493e-04 -6.434063068525e-04 8.958711383556e+06 1.169501773497e+07  7.506828824701e-04
1.589846000000e-02 0.000000000000e+00 0.000000000000e+00 -5.067443585106e+06 -5.421745158173e+02 -5.058851528083e+06 -1.693653278142e+07 1.098618639268e-04 -1.987418064960e-08 1.104376005685e-04 -6.521304683579e-04 9.020942631538e+06 1.187338759355e+07  7.622803644491e-04
1.606513000000e-02 0.000000000000e+00 0.000000000000e+00 -5.070212064720e+06 -3.186125541396e+02 -5.061667947985e+06 -1.711776681093e+07 1.127372244029e-04 9.028048006666e-09 1.133099400998e-04 -6.608562026432e-04 9.083215607879e+06 1.205182908872e+07  7.738799439935e-04
1.623180000000e-02 0.000000000000e+00 0.000000000000e+00 -5.072997245674e+06 -8.210062259078e+01 -5.064500408111e+06 -1.729909444746e+07 1.156131042962e-04 3.960343542320e-08 1.161828443294e-04 -6.695834396427e-04 9.145530700416e+06 1.223034783504e+07  7.854815719212e-04
1.639847000000e-02 0.000000000000e+00 0.000000000000e+00 -5.075797603520e+06 1.668344875489e+02 -5.067347360475e+06 -1.748051984589e+07 1.184895249589e-04 7.178408913183e-08 1.190563363746e-04 -6.783121102018e-04 9.207888269961e+06 1.240894952517e+07  7.970852017141e-04
1.656514000000e-02 0.000000000000e+00 0.000000000000e+00 -5.078611586978e+06 4.276608375554e+02 -5.070207225141e+06 -1.766204718121e+07 1.213665099118e-04 1.055014194301e-07 1.219304418706e-04 -6.870421492449e-04 9.270288664444e+06 1.258763990119e+07  8.086907932510e-04