 TITLE = "Time curves in points"
 VARIABLES = "TIME"  "DISPLACEMENT_X1"  "DISPLACEMENT_Y1"  "STRESS_XX"  "STRESS_XY"  "STRESS_YY"  "STRESS_ZZ"  "STRAIN_XX"  "STRAIN_XY"  "STRAIN_YY"  "STRAIN_ZZ"  p_(1st_Invariant)  q_(2nd_Invariant)   Effective_Strain
 ZONE T="POINT=POINT2"
0.000000000000e+00 0.000000000000e+00 0.000000000000e+00 0.000000000000e+00 0.000000000000e+00 0.000000000000e+00 0.000000000000e+00 0.000000000000e+00 0.000000000000e+00 0.000000000000e+00 0.000000000000e+00 -0.000000000000e+00 0.000000000000e+00  0.000000000000e+00
2.314800000000e-05 -4.661214950744e-07 1.878504669043e-06 -4.810462286307e+05 1.464553152870e-05 -4.810462284699e+05 -2.251002933436e-05 -1.553738317954e-05 1.892707543790e-15 -1.553738316910e-05 1.565420560346e-05 3.206974857077e+05 4.810462285278e+05  3.119158877778e-05
4.629600000000e-05 -9.443396779466e-07 3.804907610402e-06 -9.747280129102e+05 -3.295216956458e+03 -9.744939717298e+05 -6.476627377490e+02 -3.149520565295e-05 -4.138129968979e-07 -3.146242699161e-05 3.169373451703e-05 6.499565491259e+05 9.739800736241e+05  6.317662312094e-05
6.944400000000e-05 -1.423908936841e-06 5.736719221888e-06 -1.469320533677e+06 -6.771486591585e+03 -1.468997947145e+06 -1.357513337487e+03 -4.748912936488e-05 -8.510190132407e-07 -4.743204826023e-05 4.777190363342e-05 9.798919980532e+05 1.467848611792e+06  9.524391193795e-05
9.259200000000e-05 -1.903745182023e-06 7.669454478149e-06 -1.964230298214e+06 -1.014251918672e+04 -1.963688505996e+06 -2.107162088077e+03 -6.350066592331e-05 -1.275318063178e-06 -6.341098864173e-05 6.386242850955e-05 1.310008655433e+06 1.961930947791e+06  1.273374398908e-04
1.157400000000e-04 -2.383786230971e-06 9.602862207135e-06 -2.459383901481e+06 -1.337362562932e+04 -2.458518308666e+06 -2.897781562613e+03 -7.952609515751e-05 -1.682204269969e-06 -7.939727309325e-05 7.996241608954e-05 1.640266663903e+06 2.456162667955e+06  1.594507623353e-04
1.388880000000e-04 -2.864074339821e-06 1.153710304773e-05 -2.954748085134e+06 -1.646790649777e+04 -2.953519872718e+06 -3.725221403427e+03 -9.556264164982e-05 -2.072003412115e-06 -9.539234739564e-05 9.607133602097e-05 1.970664393085e+06 2.950546821130e+06  1.915825039694e-04
1.620360000000e-04 -3.344658424608e-06 1.347236199026e-05 -3.450301720514e+06 -1.943436667120e+04 -3.448741568098e+06 -4.586950800494e+03 -1.116075056506e-04 -2.445807184123e-06 -1.113978761253e-04 1.121887041538e-04 2.301210079804e+06 3.445099411033e+06  2.237315782192e-04
1.851840000000e-04 -3.825585570674e-06 1.540880943533e-05 -3.946029451702e+06 -2.228171755654e+04 -3.944241969102e+06 -5.482488134728e+03 -1.276575312794e-04 -2.804677106901e-06 -1.274154709440e-04 1.283137649451e-04 2.631917969646e+06 3.939842551784e+06  2.558964658358e-04
2.083320000000e-04 -4.306901624160e-06 1.734660011594e-05 -4.441920224771e+06 -2.501736242142e+04 -4.440090501820e+06 -6.412803302036e+03 -1.437090908903e-04 -3.149513340872e-06 -1.434467133050e-04 1.444454636860e-04 2.962807843298e+06 4.434804537895e+06  2.880751102954e-04
2.314800000000e-04 -4.788652081836e-06 1.928587705248e-05 -4.937967136792e+06 -2.764746027526e+04 -4.936368115678e+06 -7.379718606851e+03 -1.597580623905e-04 -3.481062702874e-06 -1.594931840275e-04 1.605824691094e-04 3.293904990359e+06 4.930020677241e+06  3.202649347013e-04
3.981500000000e-04 -4.711723905399e-06 1.829839139232e-05 -4.950916172002e+06 -3.013394511985e+04 -4.946592317675e+06 -1.880009980830e+05 -1.573537398574e-04 -3.794949602736e-06 -1.569118674960e-04 1.524089585995e-04 3.361836495920e+06 4.761040817114e+06  3.096117794252e-04
5.648200000000e-04 -4.625698975687e-06 1.727051156883e-05 -4.950824769963e+06 -3.017547877799e+04 -4.946363569311e+06 -3.686327179250e+05 -1.544941151554e-04 -3.800104224394e-06 -1.540436064628e-04 1.438649295452e-04 3.421940352399e+06 4.580261292160e+06  2.982066926578e-04
7.314900000000e-04 -4.539690629180e-06 1.624280523776e-05 -4.950554740867e+06 -3.022151308535e+04 -4.946011305197e+06 -5.489816084304e+05 -1.516316206777e-04 -3.805866731307e-06 -1.511759729803e-04 1.353273127014e-04 3.481849218165e+06 4.399614578367e+06  2.868071455672e-04
8.981600000000e-04 -4.453678626526e-06 1.521508654666e-05 -4.950290709633e+06 -3.026683014716e+04 -4.945674315993e+06 -7.293217143665e+05 -1.487684386291e-04 -3.811544628134e-06 -1.483082379505e-04 1.267881344863e-04 3.541762246664e+06 4.218988404664e+06  2.754058987516e-04
1.064830000000e-03 -4.367662773174e-06 1.418734453429e-05 -4.950032346183e+06 -3.031145715942e+04 -4.945353383766e+06 -9.096555062372e+05 -1.459044941712e-04 -3.817140105931e-06 -1.454403977490e-04 1.182472530582e-04 3.601680412062e+06 4.038380675887e+06  2.640028044260e-04
1.231500000000e-03 -4.281642866545e-06 1.315957357987e-05 -4.949779440784e+06 -3.035548720074e+04 -4.945048237076e+06 -1.089982362558e+06 -1.430397852324e-04 -3.822664230562e-06 -1.425724469252e-04 1.097046621869e-04 3.661603346806e+06 3.857791952650e+06  2.525978923697e-04
1.398170000000e-03 -4.195618728230e-06 1.213176831320e-05 -4.949531772245e+06 -3.039901021352e+04 -4.944758631112e+06 -1.270301736018e+06 -1.401743082097e-04 -3.828127683000e-06 -1.397043808884e-04 1.011603544759e-04 3.721530713125e+06 3.677222764206e+06  2.411911983849e-04
1.564840000000e-03 -4.109590187961e-06 1.110392360107e-05 -4.949289123171e+06 -3.044211404336e+04 -4.944484320896e+06 -1.450613083565e+06 -1.373080600665e-04 -3.833540895659e-06 -1.368361953334e-04 9.261432398728e-05 3.781462175877e+06 3.496673681739e+06  2.297827695636e-04
1.731510000000e-03 -4.023557077307e-06 1.007603453460e-05 -4.949051280000e+06 -3.048488512401e+04 -4.944225060820e+06 -1.630915867981e+06 -1.344410381557e-04 -3.838914139379e-06 -1.339678860328e-04 8.406656567524e-05 3.841397402934e+06 3.316145328658e+06  2.183726659946e-04
1.898180000000e-03 -3.937519230938e-06 9.048096361991e-06 -4.948818033135e+06 -3.052740989980e+04 -4.943980608607e+06 -1.811209556722e+06 -1.315732400223e-04 -3.844257704218e-06 -1.310994488805e-04 7.551707501975e-05 3.901336066155e+06 3.135638400071e+06  2.069609636075e-04
2.064850000000e-03 -3.851476495983e-06 8.020104379744e-06 -4.948589177022e+06 -3.056977684290e+04 -4.943750734847e+06 -1.991493620096e+06 -1.287046631155e-04 -3.849582155509e-06 -1.282308802038e-04 6.696584775904e-05 3.961277843988e+06 2.955153691642e+06  1.955477583612e-04
2.231520000000e-03 -3.765428741340e-06 6.992053858130e-06 -4.948364510265e+06 -3.061207796483e+04 -4.943535232966e+06 -2.171767529774e+06 -1.258353044804e-04 -3.854898524876e-06 -1.253621770800e-04 5.841287957775e-05 4.021222424335e+06 2.774692137008e+06  1.841331720300e-04
2.398190000000e-03 -3.679375862982e-06 5.963939995378e-06 -4.948143835718e+06 -3.065440941804e+04 -4.943333926782e+06 -2.352030757712e+06 -1.229651604707e-04 -3.860218384949e-06 -1.224933375231e-04 4.985816571253e-05 4.081169506738e+06 2.594254856404e+06  1.727173602644e-04
2.564860000000e-03 -3.593317776858e-06 4.935757915452e-06 -4.947926960928e+06 -3.069687128673e+04 -4.943146669565e+06 -2.532282775723e+06 -1.200942266028e-04 -3.865553820850e-06 -1.196243602527e-04 4.130170039561e-05 4.141118802072e+06 2.413843220134e+06  1.613005239605e-04
2.731530000000e-03 -3.507254404149e-06 3.907502694287e-06 -4.947713698856e+06 -3.073956745350e+04 -4.942973337530e+06 -2.712523055043e+06 -1.172224975155e-04 -3.870917411491e-06 -1.167552441967e-04 3.274347622721e-05 4.201070030477e+06 2.233458940064e+06  1.498829260194e-04
2.898200000000e-03 -3.421185670274e-06 2.879169307435e-06 -4.947503867955e+06 -3.078260667239e+04 -4.942813832604e+06 -2.892751065212e+06 -1.143499667656e-04 -3.876322364217e-06 -1.138859884594e-04 2.418348372587e-05 4.261022921924e+06 2.053104215609e+06  1.384649171828e-04
3.064870000000e-03 -3.335111503870e-06 1.850752593563e-06 -4.947297292632e+06 -3.082610338576e+04 -4.942668085551e+06 -3.072966273195e+06 -1.114766266253e-04 -3.881782616853e-06 -1.110165922890e-04 1.562171086028e-05 4.320977217126e+06 1.872781962617e+06  1.270469760864e-04
3.231540000000e-03 -3.249031833166e-06 8.222472456528e-07 -4.947093804184e+06 -3.087017810841e+04 -4.942536057667e+06 -3.253168142844e+06 -1.086024679141e-04 -3.887312884801e-06 -1.081470549594e-04 7.058142532554e-06 4.380932668232e+06 1.692496185847e+06  1.156297733021e-04
3.398210000000e-03 -3.162946583109e-06 -2.063521793194e-07 -4.946893241895e+06 -3.091495767288e+04 -4.942417743292e+06 -3.433356134755e+06 -1.057274798154e-04 -3.892928690483e-06 -1.052773756780e-04 -1.507239952263e-06 4.440889039981e+06 1.512252616262e+06  1.042142778657e-04
3.564880000000e-03 -3.076855672701e-06 -1.235051235564e-06 -4.946695454294e+06 -3.096057550062e+04 -4.942313172674e+06 -3.613529706386e+06 -1.028516496864e-04 -3.898646396087e-06 -1.024075535001e-04 -1.007445943166e-05 4.500846111118e+06 1.332059863422e+06  9.280194280179e-05
3.731550000000e-03 -2.990759013008e-06 -2.263855561396e-06 -4.946500300537e+06 -3.100717196240e+04 -4.942222415552e+06 -3.793688312437e+06 -9.997496285507e-05 -3.904483247448e-06 -9.953758726752e-05 -1.864354344230e-05 4.560803676176e+06 1.151931646085e+06  8.139504697485e-05
3.898220000000e-03 -2.904656505695e-06 -3.292770867305e-06 -4.946307651986e+06 -3.105489475961e+04 -4.942145585465e+06 -3.973831405810e+06 -9.709740239958e-05 -3.910457420091e-06 -9.666747556474e-05 -2.721452480368e-05 4.620761547754e+06 9.718914964201e+05  6.999737084703e-05
4.064890000000e-03 -2.818548042123e-06 -4.321802933649e-06 -4.946117394040e+06 -3.110389928825e+04 -4.942082844814e+06 -4.153958439171e+06 -9.421894891228e-05 -3.916588061747e-06 -9.379721669436e-05 -3.578744222918e-05 4.680719559342e+06 7.919838639266e+05  5.861565804926e-05
4.231560000000e-03 -2.732433501865e-06 -5.350957609017e-06 -4.945929428257e+06 -3.115434888104e+04 -4.942034409928e+06 -4.334068867454e+06 -9.133958025617e-05 -3.922895316191e-06 -9.092680863218e-05 -4.436234098782e-05 4.740677568547e+06 6.123047356490e+05  4.726317637793e-05
4.398230000000e-03 -2.646312750599e-06 -6.380240807203e-06 -4.945743674848e+06 -3.120641491997e+04 -4.942000555948e+06 -4.514162151523e+06 -8.845927131367e-05 -3.929400322212e-06 -8.805624895999e-05 -5.293927361956e-05 4.800635460773e+06 4.331081646128e+05  3.596995789281e-05
4.564900000000e-03 -2.560185636853e-06 -7.409658502597e-06 -4.945560075536e+06 -3.126027680220e+04 -4.941981620375e+06 -4.694237763230e+06 -8.557799372726e-05 -3.936125169367e-06 -8.518553475898e-05 -6.151830070417e-05 4.860593153047e+06 2.553585304943e+05  2.482054903005e-05
4.731570000000e-03 -2.474051988325e-06 -8.439216717406e-06 -4.945378596962e+06 -3.131612159621e+04 -4.941978000206e+06 -4.874295192155e+06 -8.269571558771e-05 -3.943092728019e-06 -8.231466249084e-05 -7.009949162162e-05 4.920550596441e+06 8.811802833110e+04  1.416524515498e-05
4.898240000000e-03 -2.387911627296e-06 -9.468921316101e-06 -4.945199239898e+06 -3.137413697718e+04 -4.941990053953e+06 -5.054333966656e+06 -7.981240121823e-05 -3.950325277757e-06 -7.944362853224e-05 -7.868292335183e-05 4.980507753503e+06 1.233852928978e+05  6.914506660514e-06
5.064910000000e-03 -2.301764672244e-06 -1.049877583726e-05 -4.945021851335e+06 -3.143458958308e+04 -4.942018626724e+06 -5.234353646847e+06 -7.692802529311e-05 -3.957851400778e-06 -7.657243903503e-05 -8.726866188117e-05 5.040464708302e+06 2.958973401167e+05  1.255889955512e-05
5.231580000000e-03 -2.215610500333e-06 -1.152878938011e-05 -4.944846951852e+06 -3.149756812034e+04 -4.942064467849e+06 -5.414353751186e+06 -7.404253070491e-05 -3.965695774101e-06 -7.370107571831e-05 -9.585684159451e-05 5.100421723629e+06 4.740538602198e+05  2.303496440733e-05
5.398250000000e-03 -2.129448339321e-06 -1.255897210696e-05 -4.944674462449e+06 -3.156331890301e+04 -4.942128177708e+06 -5.594333981478e+06 -7.115585239593e-05 -3.973887448279e-06 -7.082951513488e-05 -1.044476048705e-04 5.160378873879e+06 6.532280778192e+05  3.415679965262e-05
5.564920000000e-03 -2.043277567451e-06 -1.358933278600e-05 -4.944504537456e+06 -3.163206710162e+04 -4.942210632311e+06 -5.774294126861e+06 -6.826792719478e-05 -3.982452693641e-06 -6.795773904266e-05 -1.130411000760e-04 5.220336432209e+06 8.327432054967e+05  4.545548506701e-05
5.731590000000e-03 -1.957097529088e-06 -1.461988028502e-05 -4.944337386444e+06 -3.170403491007e+04 -4.942312811388e+06 -5.954234097355e+06 -6.537868683849e-05 -3.991418937429e-06 -6.508572804488e-05 -1.216374899548e-04 5.280294765063e+06 1.012400866649e+06  5.682793801841e-05
5.898260000000e-03 -1.870907525999e-06 -1.565062363525e-05 -4.944173278919e+06 -3.177944301622e+04 -4.942435817016e+06 -6.134153970595e+06 -6.248805740571e-05 -4.000813795631e-06 -6.221346130228e-05 -1.302369534364e-04 5.340254355510e+06 1.192121810240e+06  6.823936863969e-05
6.064930000000e-03 -1.784706814388e-06 -1.668157205571e-05 -4.944012549980e+06 -3.185850752541e+04 -4.942580883474e+06 -6.314054037436e+06 -5.959595900566e-05 -4.010664496697e-06 -5.934091640192e-05 -1.388396867560e-04 5.400215823630e+06 1.371868092432e+06  7.967496627088e-05
6.231600000000e-03 -1.698494602159e-06 -1.771273497342e-05 -4.943855605280e+06 -3.194143551009e+04 -4.942749384280e+06 -6.493934855160e+06 -5.670230549927e-05 -4.020997276874e-06 -5.646806921911e-05 -1.474459044545e-04 5.460179948240e+06 1.551619283446e+06  9.112747290667e-05
6.398270000000e-03 -1.612270046160e-06 -1.874412204434e-05 -4.943702924662e+06 -3.202841915183e+04 -4.942942836609e+06 -6.673797306787e+06 -5.380700425742e-05 -4.031836633873e-06 -5.359489376489e-05 -1.560558402350e-04 5.520147689353e+06 1.731363518088e+06  1.025930047348e-04
6.564940000000e-03 -1.526032249169e-06 -1.977574316934e-05 -4.943555063605e+06 -3.211962794678e+04 -4.943162902218e+06 -6.853642662466e+06 -5.090995596329e-05 -4.043204345957e-06 -5.072136201072e-05 -1.646697476151e-04 5.580120209429e+06 1.911093630153e+06  1.140693765970e-04
6.731610000000e-03 -1.439780257242e-06 -2.080760851851e-05 -4.943412651406e+06 -3.221519817568e+04 -4.943411384277e+06 -7.033472635443e+06 -4.801105445692e-05 -4.055118145019e-06 -4.784744371265e-05 -1.732879002961e-04 5.640098890375e+06 2.090805309499e+06  1.255553402264e-04
6.898280000000e-03 -1.353513056770e-06 -2.183972854314e-05 -4.943276384409e+06 -3.231521879449e+04 -4.943690218043e+06 -7.213289420082e+06 -4.511018663328e-05 -4.067589930028e-06 -4.497310621529e-05 -1.819105921406e-04 5.700085340844e+06 2.270496149686e+06  1.370502034231e-04
7.064950000000e-03 -1.267229573058e-06 -2.287211399597e-05 -4.943147012417e+06 -3.241971273396e+04 -4.944001454275e+06 -7.393095694498e+06 -4.220723241465e-05 -4.080623386941e-06 -4.209831429874e-05 -1.905381365415e-04 5.760081387063e+06 2.450165106584e+06  1.485536245486e-04
7.231620000000e-03 -1.180928671064e-06 -2.390477593777e-05 -4.943025315906e+06 -3.252861332015e+04 -4.944347231724e+06 -7.572894566640e+06 -3.930206491085e-05 -4.094210975433e-06 -3.922303008777e-05 -1.991708647899e-04 5.820089038090e+06 2.629812139623e+06  1.600654938272e-04
7.398290000000e-03 -1.094609162783e-06 -2.493772572967e-05 -4.942912071777e+06 -3.264173570146e+04 -4.944729736129e+06 -7.752689445688e+06 -3.639455093360e-05 -4.108330268976e-06 -3.634721316421e-05 -2.078091228320e-04 5.880110417865e+06 2.809437917344e+06  1.715858596046e-04
7.564960000000e-03 -1.008269821608e-06 -2.597097501101e-05 -4.942808004566e+06 -3.275874184031e+04 -4.945151142360e+06 -7.932483840110e+06 -3.348455191247e-05 -4.122939466395e-06 -3.347082090079e-05 -2.164532661092e-04 5.940147662345e+06 2.989043538490e+06  1.831148786921e-04
7.731630000000e-03 -9.219093987547e-07 -2.700453568068e-05 -4.942713720115e+06 -3.287909544355e+04 -4.945613538795e+06 -8.112281113929e+06 -3.057192496099e-05 -4.137971608454e-06 -3.059380889002e-05 -2.251036529296e-04 6.000202790946e+06 3.168630272988e+06  1.946527805450e-04
7.898300000000e-03 -8.355266326869e-07 -2.803841990211e-05 -4.942629625769e+06 -3.300200791482e+04 -4.946118833515e+06 -8.292084241079e+06 -2.765652409168e-05 -4.153327630225e-06 -2.771613118353e-05 -2.337606369084e-04 6.060277566788e+06 3.348199344302e+06  2.061998399548e-04
8.064970000000e-03 -7.491202547759e-07 -2.907264012417e-05 -4.942555854108e+06 -3.312639058237e+04 -4.946668655718e+06 -8.471895587370e+06 -2.473820187841e-05 -4.168870191381e-06 -2.483774043535e-05 -2.424245588341e-04 6.120373365732e+06 3.527751758137e+06  2.177563550456e-04
8.231640000000e-03 -6.626889944225e-07 -3.010720909325e-05 -4.942492216904e+06 -3.325084559443e+04 -4.947264285428e+06 -8.651716760122e+06 -2.181681128772e-05 -4.184422411258e-06 -2.195858811024e-05 -2.510957399825e-04 6.180491087484e+06 3.707288182372e+06  2.293226307604e-04
8.398310000000e-03 -5.762315817291e-07 -3.114213984086e-05 -4.942438216369e+06 -3.337373752816e+04 -4.947906658194e+06 -8.831548576543e+06 -1.889220649820e-05 -4.199776872798e-06 -1.907862484975e-05 -2.597744807867e-04 6.240631150369e+06 3.886808889408e+06  2.408989711872e-04
8.564980000000e-03 -4.897467401126e-07 -3.217744567679e-05 -4.942393122745e+06 -3.349336343002e+04 -4.948596468565e+06 -9.011391174051e+06 -1.596424161019e-05 -4.214717183021e-06 -1.619780084394e-05 -2.684610677476e-04 6.300793588454e+06 4.066313765213e+06  2.524856833901e-04
8.731650000000e-03 -4.032331709982e-07 -3.321314018049e-05 -4.942356090866e+06 -3.360817190022e+04 -4.949334341495e+06 -9.191244218864e+06 -1.303276739076e-05 -4.229045838837e-06 -1.331606613515e-05 -2.771557866956e-04 6.360978217075e+06 4.245802367236e+06  2.640830898624e-04
8.898320000000e-03 -3.166895355096e-07 -3.424923720838e-05 -4.942326265280e+06 -3.371693617455e+04 -4.950120995034e+06 -9.371107121534e+06 -1.009762756532e-05 -4.242606303187e-06 -1.043337067989e-05 -2.858589364948e-04 6.421184793949e+06 4.425274000102e+06  2.756915421081e-04
9.064990000000e-03 -2.301144392447e-07 -3.528575091146e-05 -4.942302841138e+06 -3.381882252413e+04 -4.950957338831e+06 -9.550979190380e+06 -7.158656096141e-06 -4.255291790957e-06 -7.549664147436e-06 -2.945708383525e-04 6.481413123449e+06 4.604727782598e+06  2.873114293655e-04
9.231660000000e-03 -1.435064222469e-07 -3.632269576208e-05 -4.942285082676e+06 -3.391336713629e+04 -4.951844506215e+06 -9.730859711924e+06 -4.215675826148e-06 -4.267042406183e-06 -4.664895559369e-06 -3.032918399906e-04 6.541663100271e+06 4.784162695690e+06  2.989431815709e-04
9.398330000000e-03 -5.686395236861e-08 -3.736008658472e-05 -4.942272317109e+06 -3.400040837079e+04 -4.952783845964e+06 -9.910747981942e+06 -1.268498069458e-06 -4.277836583857e-06 -1.779012870065e-06 -3.120223164985e-04 6.601934715005e+06 4.963577614208e+06  3.105872687788e-04
9.565000000000e-03 2.981457871406e-08 -3.839793857875e-05 -4.942263915876e+06 -3.408001396731e+04 -4.953776898085e+06 -1.009064331180e+07 1.683077530184e-06 -4.287681874580e-06 1.108037402167e-06 -3.207626698276e-04 6.662228041921e+06 5.142971329381e+06  3.222441994265e-04
9.731670000000e-03 1.165308585783e-07 -3.943626733832e-05 -4.942259258029e+06 -3.415242579116e+04 -4.954825359917e+06 -1.027054502891e+07 4.639263614892e-06 -4.296607958958e-06 3.996310486512e-06 -3.295133282252e-04 6.722543215618e+06 5.322342580645e+06  3.339145191329e-04
9.898340000000e-03 2.032866410092e-07 -4.047508874273e-05 -4.942257660587e+06 -3.421803314139e+04 -4.955931050341e+06 -1.045045246840e+07 7.600287118017e-06 -4.304663306704e-06 6.885863077325e-06 -3.382747459540e-04 6.782880393109e+06 5.501690097536e+06  3.455988105364e-04
1.006501000000e-02 2.900837366689e-07 -4.151441887031e-05 -4.942258350006e+06 -3.427736764903e+04 -4.957095892202e+06 -1.063036489961e+07 1.056638989073e-05 -4.311914583400e-06 9.776753166277e-06 -3.470474018921e-04 6.843239713938e+06 5.681012547523e+06  3.572976916220e-04
1.023168000000e-02 3.769241029612e-07 -4.255427463391e-05 -4.942260458958e+06 -3.433105504610e+04 -4.958321887929e+06 -1.081028161468e+07 1.353783066598e-05 -4.318440566822e-06 1.266904311873e-05 -3.558318057824e-04 6.903621320522e+06 5.860308636284e+06  3.690118238866e-04
1.039835000000e-02 4.638098075041e-07 -4.359467346147e-05 -4.942262962041e+06 -3.437981353980e+04 -4.959611112428e+06 -1.099020191476e+07 1.651488766654e-05 -4.324332012085e-06 1.556279850698e-05 -3.646284987295e-04 6.964025329742e+06 6.039577128769e+06  3.807419132731e-04
1.056502000000e-02 5.507430268275e-07 -4.463563323424e-05 -4.942264818756e+06 -3.442438498127e+04 -4.960965766190e+06 -1.117012511112e+07 1.949785304617e-05 -4.329682823423e-06 1.845808813154e-05 -3.734380511911e-04 7.024451898689e+06 6.218816750278e+06  3.924887048603e-04
1.073169000000e-02 6.377260509690e-07 -4.567717236246e-05 -4.942264987143e+06 -3.446551132026e+04 -4.962388186827e+06 -1.135005054496e+07 2.248703311571e-05 -4.334587056966e-06 2.135498420685e-05 -3.822610644524e-04 7.084901239644e+06 6.398026192839e+06  4.042529842962e-04
1.089836000000e-02 7.247612677668e-07 -4.671930979720e-05 -4.942262429682e+06 -3.450392365434e+04 -4.963880866905e+06 -1.152997759264e+07 2.548274881016e-05 -4.339137531710e-06 2.425356185710e-05 -3.910981714016e-04 7.145373629742e+06 6.577204108179e+06  4.160355784024e-04
1.106503000000e-02 8.118511490473e-07 -4.776206503224e-05 -4.942256108465e+06 -3.454033886499e+04 -4.965446466302e+06 -1.170990566720e+07 2.848533657017e-05 -4.343425414980e-06 2.715389866958e-05 -3.999500375041e-04 7.205869413990e+06 6.756349105295e+06  4.278373562734e-04
1.123170000000e-02 8.989982524263e-07 -4.880545811285e-05 -4.942244979454e+06 -3.457545821536e+04 -4.967087814469e+06 -1.188983421971e+07 3.149514916545e-05 -4.347540060163e-06 3.005607476915e-05 -4.088173621190e-04 7.266389004543e+06 6.935459753427e+06  4.396592309745e-04
1.139837000000e-02 9.862052353104e-07 -4.984950965041e-05 -4.942227989159e+06 -3.460996583035e+04 -4.968807906286e+06 -1.206976274096e+07 3.451255636604e-05 -4.351568828459e-06 3.296017330066e-05 -4.177008800727e-04 7.326932878802e+06 7.114534587471e+06  4.515021616361e-04
1.156504000000e-02 1.073474866560e-06 -5.089424083825e-05 -4.942204073959e+06 -3.464452670725e+04 -4.970609901316e+06 -1.224969076367e+07 3.753794560615e-05 -4.355596848636e-06 3.586628083106e-05 -4.266013632988e-04 7.387501579648e+06 7.293572110819e+06  4.633671555821e-04
1.173171000000e-02 1.160810033738e-06 -5.193967346024e-05 -4.942172161459e+06 -3.467978430167e+04 -4.972497127428e+06 -1.242961786480e+07 4.057172267546e-05 -4.359706720249e-06 3.877448760160e-05 -4.355196225105e-04 7.448095717894e+06 7.472570795258e+06  4.752552704380e-04
1.189838000000e-02 1.248213749411e-06 -5.298582990695e-05 -4.942131173162e+06 -3.471635781965e+04 -4.974473085959e+06 -1.260954366801e+07 4.361431241954e-05 -4.363978176936e-06 4.168488774744e-05 -4.444565089383e-04 7.508715975709e+06 7.651529079580e+06  4.871676163012e-04
1.206505000000e-02 1.335689156479e-06 -5.403273318771e-05 -4.942080027901e+06 -3.475483955035e+04 -4.976541458051e+06 -1.278946784590e+07 4.666615946111e-05 -4.368487752629e-06 4.459757948100e-05 -4.534129161197e-04 7.569363110618e+06 7.830445367012e+06  4.991053579640e-04
1.223172000000e-02 1.423239531863e-06 -5.508040694549e-05 -4.942017645521e+06 -3.479579253673e+04 -4.978706112329e+06 -1.296939012171e+07 4.972772896333e-05 -4.373308488810e-06 4.751266521578e-05 -4.623897817274e-04 7.630037959854e+06 8.009318021405e+06  5.110697171742e-04
1.239839000000e-02 1.510868288044e-06 -5.612887546232e-05 -4.941942950527e+06 -3.483974867271e+04 -4.980971114019e+06 -1.314931027047e+07 5.279950745072e-05 -4.378509694279e-06 5.043025161337e-05 -4.713880894308e-04 7.690741445005e+06 8.188145362210e+06  5.230619749277e-04
1.256506000000e-02 1.598578972526e-06 -5.717816366190e-05 -4.941854875491e+06 -3.488720728456e+04 -4.983340735313e+06 -1.332922811961e+07 5.588200369415e-05 -4.384156765232e-06 5.335044955849e-05 -4.804088707961e-04 7.751474576805e+06 8.366925658433e+06  5.350834738041e-04
1.273173000000e-02 1.686375267439e-06 -5.822829710920e-05 -4.941752364180e+06 -3.493863403274e+04 -4.985819465416e+06 -1.350914354912e+07 5.897574964025e-05 -4.390311044493e-06 5.627337413720e-05 -4.894532072592e-04 7.812238459571e+06 8.545657122475e+06  5.471356204033e-04
1.289840000000e-02 1.774260990993e-06 -5.927930201172e-05 -4.941634374393e+06 -3.499446010129e+04 -4.988412019095e+06 -1.368905649123e+07 6.208130136786e-05 -4.397029715851e-06 5.919914467647e-05 -4.985222321928e-04 7.873034294908e+06 8.724337904456e+06  5.592198879272e-04
1.306507000000e-02 1.862240101481e-06 -6.033120523028e-05 -4.941499880536e+06 -3.505508157849e+04 -4.991123343306e+06 -1.386896692980e+07 6.519924006513e-05 -4.404365720925e-06 6.212788486806e-05 -5.076171330811e-04 7.933863384547e+06 8.902966087278e+06  5.713378189256e-04
1.323174000000e-02 1.950316704179e-06 -6.138403429998e-05 -4.941347875927e+06 -3.512085891499e+04 -4.993958621659e+06 -1.404887489923e+07 6.833017302735e-05 -4.412367683581e-06 6.505972298908e-05 -5.167391538141e-04 7.994727132273e+06 9.081539682594e+06  5.834910282237e-04
1.339841000000e-02 2.038495059575e-06 -6.243781744947e-05 -4.941177374832e+06 -3.519211667754e+04 -4.996923277801e+06 -1.422878048324e+07 7.147473469585e-05 -4.421079870326e-06 6.799479216534e-05 -5.258895970876e-04 8.055627045292e+06 9.260056627179e+06  5.956812060024e-04
1.356508000000e-02 2.126779593065e-06 -6.349258363816e-05 -4.940987414207e+06 -3.526914319173e+04 -5.000022977628e+06 -1.440868381329e+07 7.463358774266e-05 -4.430542133077e-06 7.093323068272e-05 -5.350698269210e-04 8.116564735043e+06 9.438514779836e+06  6.079101210465e-04
1.373175000000e-02 2.215174903582e-06 -6.454836257651e-05 -4.940777055187e+06 -3.535219047242e+04 -5.003263632040e+06 -1.458858506693e+07 7.780742423077e-05 -4.440789886302e-06 7.387518226026e-05 -5.442812712700e-04 8.177541918051e+06 9.616911918022e+06  6.201796241117e-04
1.389842000000e-02 2.303685772703e-06 -6.560518476244e-05 -4.940545384337e+06 -3.544147414579e+04 -5.006651399238e+06 -1.476848446610e+07 8.099696684048e-05 -4.451854079167e-06 7.682079633775e-05 -5.535254247678e-04 8.238560416557e+06 9.795245734888e+06  6.324916514638e-04
1.406509000000e-02 2.392317172707e-06 -6.666308151040e-05 -4.940291514737e+06 -3.553717346561e+04 -5.010192687606e+06 -1.494838227562e+07 8.420297018020e-05 -4.463761175690e-06 7.977022832597e-05 -5.628038515844e-04 8.299622159323e+06 9.973513836250e+06  6.448482285646e-04
1.423176000000e-02 2.481074273817e-06 -6.772208497614e-05 -4.940014586981e+06 -3.563943136819e+04 -5.013894159012e+06 -1.512827880187e+07 8.742622218119e-05 -4.476533134806e-06 8.272363982786e-05 -5.721181884152e-04 8.360729182622e+06 1.015171373764e+07  6.572514739199e-04
1.439843000000e-02 2.569962450829e-06 -6.878222818121e-05 -4.939713770107e+06 -3.574835459299e+04 -5.017762732423e+06 -1.530817439175e+07 9.066754557949e-05 -4.490187393345e-06 8.568119883718e-05 -5.814701476154e-04 8.421883631427e+06 1.032984286160e+07  6.697036031103e-04
1.456510000000e-02 2.658987290384e-06 -6.984354503819e-05 -4.939388262717e+06 -3.586401365822e+04 -5.021805587035e+06 -1.548806943213e+07 9.392779946371e-05 -4.504736822808e-06 8.864307995796e-05 -5.908615204964e-04 8.483087760626e+06 1.050789853560e+07  6.822069330318e-04
1.473177000000e-02 2.748154597547e-06 -7.090607036518e-05 -4.939037294192e+06 -3.598644276199e+04 -5.026030165702e+06 -1.566796434958e+07 9.720788090984e-05 -4.520189668580e-06 9.160946459942e-05 -6.002941807739e-04 8.544343936492e+06 1.068587799008e+07  6.947638863265e-04
1.489844000000e-02 2.837470403173e-06 -7.196983990950e-05 -4.938660126186e+06 -3.611563932824e+04 -5.030444177677e+06 -1.584785961049e+07 1.005087266791e-04 -4.536549432883e-06 9.458054119673e-05 -6.097700881869e-04 8.605654638118e+06 1.086377835707e+07  7.073769960312e-04
1.506511000000e-02 2.926940971741e-06 -7.303489036872e-05 -4.938256054368e+06 -3.625156309700e+04 -5.035055600774e+06 -1.602775572128e+07 1.038313149842e-04 -4.553814686658e-06 9.755650544641e-05 -6.192912922807e-04 8.667022458807e+06 1.104159666916e+07  7.200489104386e-04
1.523178000000e-02 3.016572810231e-06 -7.410125941069e-05 -4.937824410431e+06 -3.639413472011e+04 -5.039872682501e+06 -1.620765322884e+07 1.071766673156e-04 -4.571978803801e-06 1.005375605767e-04 -6.288599363644e-04 8.728450107259e+06 1.121932985912e+07  7.327823981852e-04
1.539845000000e-02 3.106372678556e-06 -7.516898570090e-05 -4.937364564137e+06 -3.654323368977e+04 -5.044903939620e+06 -1.638755272090e+07 1.105458503310e-04 -4.591029592588e-06 1.035239176689e-04 -6.384782616441e-04 8.789940408218e+06 1.139697476012e+07  7.455803535770e-04
1.556512000000e-02 3.196347599914e-06 -7.623810892634e-05 -4.936875925122e+06 -3.669869588784e+04 -5.050158157000e+06 -1.656745482621e+07 1.139399778358e-04 -4.610948861375e-06 1.065157959765e-04 -6.481486115230e-04 8.851496302776e+06 1.157452810638e+07  7.584458021342e-04
1.573179000000e-02 3.286504872204e-06 -7.730866982248e-05 -4.936357943817e+06 -3.686031088444e+04 -5.055644384680e+06 -1.674736021450e+07 1.173602128723e-04 -4.631711934718e-06 1.095134232796e-04 -6.578734360910e-04 8.913120847667e+06 1.175198653491e+07  7.713819064054e-04
1.589846000000e-02 3.376852079632e-06 -7.838071019574e-05 -4.935810110452e+06 -3.702781927042e+04 -5.061371933207e+06 -1.692726959590e+07 1.208077699708e-04 -4.653287157121e-06 1.125170362472e-04 -6.676552968163e-04 8.974817213186e+06 1.192934658857e+07  7.843919720774e-04
1.606513000000e-02 3.467397105898e-06 -7.945427295865e-05 -4.935231950915e+06 -3.720091043726e+04 -5.067350365904e+06 -1.710718371977e+07 1.242839176097e-04 -4.675635440821e-06 1.155268808557e-04 -6.774968714923e-04 9.036588678863e+06 1.210660472168e+07  7.974794544860e-04
1.623180000000e-02 3.558148150359e-06 -8.052940217670e-05 -4.934623017426e+06 -3.737922082174e+04 -5.073589486398e+06 -1.728710337267e+07 1.277899809625e-04 -4.698709858526e-06 1.185432129120e-04 -6.874009595031e-04 9.098438625500e+06 1.228375730983e+07  8.106479656523e-04
1.639847000000e-02 3.649113747873e-06 -8.160614312487e-05 -4.933982871819e+06 -3.756233240937e+04 -5.080099320147e+06 -1.746702937490e+07 1.313273450265e-04 -4.722455248488e-06 1.215662987083e-04 -6.973704874705e-04 9.160370522289e+06 1.246080066487e+07  8.239012819716e-04