 TITLE = "Time curves in points"
 VARIABLES = "TIME"  "DISPLACEMENT_X1"  "DISPLACEMENT_Y1"  "STRESS_XX"  "STRESS_XY"  "STRESS_YY"  "STRESS_ZZ"  "STRAIN_XX"  "STRAIN_XY"  "STRAIN_YY"  "STRAIN_ZZ"  p_(1st_Invariant)  q_(2nd_Invariant)   Effective_Strain
 ZONE T="POINT=POINT3"
0.000000000000e+00 0.000000000000e+00 0.000000000000e+00 0.000000000000e+00 0.000000000000e+00 0.000000000000e+00 0.000000000000e+00 0.000000000000e+00 0.000000000000e+00 0.000000000000e+00 0.000000000000e+00 -0.000000000000e+00 0.000000000000e+00  0.000000000000e+00
2.314800000000e-05 0.000000000000e+00 1.878504669057e-06 -4.837005489530e+05 -3.043891711641e-05 -4.837005489682e+05 6.064940392224e-05 -1.553738316244e-05 -3.839762980230e-15 -1.553738316343e-05 1.565420559473e-05 3.224670326202e+05 4.837005490213e+05  3.119158875767e-05
4.629600000000e-05 0.000000000000e+00 3.805470192257e-06 -9.800479710108e+05 -1.699414204262e+03 -9.785750275848e+05 -2.416693729026e+03 -3.147655952715e-05 -2.179897449502e-07 -3.137953068321e-05 3.158851015572e-05 6.536798974416e+05 9.769000728554e+05  6.301774239437e-05
6.944400000000e-05 0.000000000000e+00 5.737861322716e-06 -1.476925605960e+06 -3.486104377526e+03 -1.473889446155e+06 -4.843259726619e+03 -4.744804238137e-05 -4.475279639271e-07 -4.724795641438e-05 4.755198207890e-05 9.852194372805e+05 1.470579013137e+06  9.490330528450e-05
9.259200000000e-05 0.000000000000e+00 7.671097825588e-06 -1.973961717858e+06 -5.267701507515e+03 -1.969361695047e+06 -7.287584966352e+03 -6.343742272717e-05 -6.767146745369e-07 -6.313429685392e-05 6.353283330320e-05 1.316870332624e+06 1.964399349765e+06  1.268243811742e-04
1.157400000000e-04 0.000000000000e+00 9.604925389252e-06 -2.471156741892e+06 -7.052056944245e+03 -2.464982100063e+06 -9.782690248227e+03 -7.944449561243e-05 -9.065623677673e-07 -7.903768699604e-05 7.952947550749e-05 1.648640510734e+06 2.458322891658e+06  1.587787220368e-04
1.388880000000e-04 0.000000000000e+00 1.153950888010e-05 -2.968527656607e+06 -8.848639830565e+03 -2.960761298172e+06 -1.233944714293e+04 -9.547016349275e-05 -1.138284996771e-06 -9.495860376798e-05 9.554227180998e-05 1.980542800641e+06 2.952352472884e+06  1.907673581696e-04
1.620360000000e-04 0.000000000000e+00 1.347503903603e-05 -3.466073960302e+06 -1.066602123995e+04 -3.456696229070e+06 -1.496412002342e+04 -1.115149128639e-04 -1.372983489693e-06 -1.108973558500e-04 1.115714366169e-04 2.312578103132e+06 3.446480056958e+06  2.227909051386e-04
1.851840000000e-04 0.000000000000e+00 1.541169471903e-05 -3.963776127359e+06 -1.251672173092e+04 -3.952767986312e+06 -1.766653726304e+04 -1.275784994865e-04 -1.612272027865e-06 -1.268537288387e-04 1.276164369264e-04 2.644736883645e+06 3.940676686844e+06  2.548486243384e-04
2.083320000000e-04 0.000000000000e+00 1.734963607519e-05 -4.461614104606e+06 -1.441725940424e+04 -4.448958239512e+06 -2.046084200072e+04 -1.436603399983e-04 -1.858280637273e-06 -1.428272418572e-04 1.436762961857e-04 2.977011062040e+06 4.434909177021e+06  2.869390467492e-04
2.314800000000e-04 0.000000000000e+00 1.928900223214e-05 -4.959595026905e+06 -1.637258735277e+04 -4.945276160917e+06 -2.334944874427e+04 -1.597606896603e-04 -2.111650797471e-06 -1.588182791912e-04 1.597512670758e-04 3.309406878856e+06 4.929183318134e+06  3.190627593892e-04
3.981500000000e-04 0.000000000000e+00 1.830137942811e-05 -4.973890246684e+06 -1.845081101429e+04 -4.957821051844e+06 -2.054971323324e+05 -1.573417910601e-04 -2.376015034629e-06 -1.562874475734e-04 1.515170116185e-04 3.379069476953e+06 4.760486127621e+06  3.083604460816e-04
5.648200000000e-04 0.000000000000e+00 1.727302369451e-05 -4.974613256215e+06 -1.853461442301e+04 -4.958626809177e+06 -3.862363469319e+05 -1.544844280290e-04 -2.386905319498e-06 -1.534353199897e-04 1.429425095224e-04 3.439825470775e+06 4.580517108305e+06  2.969325559258e-04
7.314900000000e-04 0.000000000000e+00 1.624481907771e-05 -4.975237573796e+06 -1.862785703030e+04 -4.959333609538e+06 -5.669286969294e+05 -1.516240755209e-04 -2.399008927572e-06 -1.505801879534e-04 1.343655436280e-04 3.500499960088e+06 4.400496732677e+06  2.854993462091e-04
8.981600000000e-04 0.000000000000e+00 1.521659830791e-05 -4.975884267799e+06 -1.871657980543e+04 -4.960061065823e+06 -7.476222879095e+05 -1.487637228898e-04 -2.410536158153e-06 -1.477249479371e-04 1.257873399579e-04 3.561189207177e+06 4.220497130915e+06  2.740649566263e-04
1.064830000000e-03 0.000000000000e+00 1.418834940179e-05 -4.976552400013e+06 -1.880019106008e+04 -4.960808607324e+06 -9.283197876266e+05 -1.459032979965e-04 -2.421411463375e-06 -1.448695513137e-04 1.172077553082e-04 3.621893598321e+06 4.040514937176e+06  2.626291958736e-04
1.231500000000e-03 0.000000000000e+00 1.316006652563e-05 -4.977241362874e+06 -1.887836487086e+04 -4.961575809566e+06 -1.109020937601e+06 -1.430427894752e-04 -2.431593295900e-06 -1.420139983987e-04 1.086267954812e-04 3.682612703347e+06 3.860549965065e+06  2.511920797275e-04
1.398170000000e-03 0.000000000000e+00 1.213174409258e-05 -4.977950595075e+06 -1.895078564169e+04 -4.962362291095e+06 -1.289725516355e+06 -1.401821873522e-04 -2.441041417835e-06 -1.391582906955e-04 1.000444676466e-04 3.743346134175e+06 3.680602049893e+06  2.397536296221e-04
1.564840000000e-03 0.000000000000e+00 1.110337674511e-05 -4.978679575092e+06 -1.901714193426e+04 -4.963167705464e+06 -1.470433308041e+06 -1.373214833479e-04 -2.449716110658e-06 -1.363024310970e-04 9.146078153731e-05 3.804093529532e+06 3.500671076340e+06  2.283138748271e-04
1.731510000000e-03 0.000000000000e+00 1.007495934483e-05 -4.979427815468e+06 -1.907712674324e+04 -4.963991734741e+06 -1.651144102414e+06 -1.344606707158e-04 -2.457578209854e-06 -1.334464236763e-04 8.287574927199e-05 3.864854550874e+06 3.320756977164e+06  2.168728530766e-04
1.898180000000e-03 0.000000000000e+00 9.046486902267e-06 -4.980194867189e+06 -1.913043704592e+04 -4.964834093758e+06 -1.831857691113e+06 -1.315997444465e-04 -2.464589046704e-06 -1.305902738813e-04 7.428938567157e-05 3.925628884020e+06 3.140859747655e+06  2.054306124037e-04
2.064850000000e-03 0.000000000000e+00 8.017954455388e-06 -4.980980332791e+06 -1.917677235928e+04 -4.965694543766e+06 -2.012573862870e+06 -1.287387017571e-04 -2.470710263406e-06 -1.277339890599e-04 6.570170892665e-05 3.986416246475e+06 2.960979472534e+06  1.939872140958e-04
2.231520000000e-03 0.000000000000e+00 6.989356981222e-06 -4.981783871281e+06 -1.921583310518e+04 -4.966572898179e+06 -2.193292397413e+06 -1.258775423456e-04 -2.475903603756e-06 -1.248775787661e-04 5.711274109283e-05 4.047216388958e+06 2.781116349500e+06  1.825427359200e-04
2.398190000000e-03 0.000000000000e+00 5.960689337787e-06 -4.982605192505e+06 -1.924731906637e+04 -4.967469017295e+06 -2.374013059811e+06 -1.230162683153e-04 -2.480130715637e-06 -1.220210547075e-04 4.852250823506e-05 4.108029089871e+06 2.601270706569e+06  1.710972756385e-04
2.564860000000e-03 0.000000000000e+00 4.931946274300e-06 -4.983444044528e+06 -1.927092889080e+04 -4.968382795140e+06 -2.554735596140e+06 -1.201548838694e-04 -2.483353087442e-06 -1.191644304047e-04 3.993104026374e-05 4.168854145269e+06 2.421443018320e+06  1.596509554406e-04
2.731530000000e-03 0.000000000000e+00 3.903122490712e-06 -4.984300207686e+06 -1.928636040618e+04 -4.969314152320e+06 -2.735459731107e+06 -1.172933951881e-04 -2.485532087854e-06 -1.163077209921e-04 3.133837085822e-05 4.229691363704e+06 2.241633938482e+06  1.482039289103e-04
2.898200000000e-03 0.000000000000e+00 2.874212591171e-06 -4.985173501464e+06 -1.929331103559e+04 -4.970263042518e+06 -2.916185166782e+06 -1.144318106777e-04 -2.486629018168e-06 -1.134509434410e-04 2.274453774497e-05 4.290540570254e+06 2.061844363855e+06  1.367563923658e-04
3.064870000000e-03 0.000000000000e+00 1.845211050654e-06 -4.986063781064e+06 -1.929147833116e+04 -4.971229449774e+06 -3.096911582725e+06 -1.115701408520e-04 -2.486605179365e-06 -1.105941164881e-04 1.414958260157e-05 4.351401604521e+06 1.882075519131e+06  1.253086014272e-04
3.231540000000e-03 0.000000000000e+00 8.161122088710e-07 -4.986970931618e+06 -1.928056167576e+04 -4.972213383690e+06 -3.277638638029e+06 -1.087083981154e-04 -2.485422088331e-06 -1.077372604814e-04 5.553550829261e-06 4.412274317779e+06 1.702329093347e+06  1.138608974805e-04
3.398210000000e-03 0.000000000000e+00 -2.130897255306e-07 -4.987894876190e+06 -1.926026527345e+04 -4.973214887758e+06 -3.458365975472e+06 -1.058465969753e-04 -2.483041859022e-06 -1.048803976138e-04 -3.043508298753e-06 4.473158579806e+06 1.522607489499e+06  1.024137529565e-04
3.564880000000e-03 0.000000000000e+00 -1.242400654996e-06 -4.988835582124e+06 -1.923030058388e+04 -4.974234046100e+06 -3.639093224861e+06 -1.029847542263e-04 -2.479427513047e-06 -1.020235521330e-04 -1.164154146582e-05 4.534054284362e+06 1.342914270374e+06  9.096785048538e-05
3.731550000000e-03 0.000000000000e+00 -2.271826568843e-06 -4.989793060857e+06 -1.919038795175e+04 -4.975270983734e+06 -3.819820004934e+06 -1.001228889572e-04 -2.474543187721e-06 -9.916675037800e-05 -2.024049125306e-05 4.594961349842e+06 1.163255009158e+06  7.952422972694e-05
3.898220000000e-03 0.000000000000e+00 -3.301373533250e-06 -4.990767361959e+06 -1.914025732776e+04 -4.976325861046e+06 -4.000545923791e+06 -9.726102240348e-05 -2.468354227767e-06 -9.631002066042e-05 -2.884029618164e-05 4.655879715599e+06 9.836390690211e+05  6.808458172686e-05
4.064890000000e-03 0.000000000000e+00 -4.331047691575e-06 -4.991758569745e+06 -1.907964882824e+04 -4.977398870516e+06 -4.181270578957e+06 -9.439917789326e-05 -2.460827254871e-06 -9.345339322043e-05 -3.744089065397e-05 4.716809339739e+06 8.040837763536e+05  5.665189962529e-05
4.231560000000e-03 0.000000000000e+00 -5.360855264365e-06 -4.992766803131e+06 -1.900831336916e+04 -4.978490236336e+06 -4.361993557347e+06 -9.153738090154e-05 -2.451930242332e-06 -9.059690027229e-05 -4.604220479277e-05 4.777750198938e+06 6.246257915837e+05  4.523211366791e-05
4.398230000000e-03 0.000000000000e+00 -6.390802547183e-06 -4.993792222113e+06 -1.892601366272e+04 -4.979600220070e+06 -4.542714435988e+06 -8.867565930637e-05 -2.441632623080e-06 -8.774057622462e-05 -5.464416411671e-05 4.838702292724e+06 4.453599299159e+05  3.383902302687e-05
4.564900000000e-03 0.000000000000e+00 -7.420895900809e-06 -4.994835031538e+06 -1.883252526022e+04 -4.980729123191e+06 -4.723432782840e+06 -8.581404354472e-05 -2.429905355894e-06 -8.488445781227e-05 -6.324668931854e-05 4.899665645856e+06 2.666341576518e+05  2.251409860536e-05
4.731570000000e-03 0.000000000000e+00 -8.451141715988e-06 -4.995895460342e+06 -1.872763616025e+04 -4.981877264121e+06 -4.904148157852e+06 -8.295256592006e-05 -2.416720533255e-06 -8.202858353906e-05 -7.184969679958e-05 4.960640294105e+06 9.154298836610e+04  1.146255665672e-05
4.898240000000e-03 0.000000000000e+00 -9.481546152461e-06 -4.996973788840e+06 -1.861118181785e+04 -4.983044944071e+06 -5.084860194267e+06 -8.009126138285e-05 -2.402050592951e-06 -7.917299463820e-05 -8.045309805671e-05 5.021626309060e+06 1.009025140416e+05  4.314619720297e-06
5.064910000000e-03 0.000000000000e+00 -1.051211314414e-05 -4.998070068087e+06 -1.848284030468e+04 -4.984232559560e+06 -5.265568182152e+06 -7.723016976263e-05 -2.385867239537e-06 -7.631773845038e-05 -8.905678470901e-05 5.082623603266e+06 2.765376489055e+05  1.298342840850e-05
5.231580000000e-03 0.000000000000e+00 -1.154285188753e-05 -4.999184489051e+06 -1.834252804413e+04 -4.985440206625e+06 -5.446271735352e+06 -7.436931881407e-05 -2.368157962223e-06 -7.346284588722e-05 -9.766067823659e-05 5.143632143676e+06 4.552253831805e+05  2.410905680577e-05
5.398250000000e-03 0.000000000000e+00 -1.257377273469e-05 -5.000317327564e+06 -1.819003846217e+04 -4.986668304764e+06 -5.626970345269e+06 -7.150872777572e-05 -2.348895017123e-06 -7.060834312029e-05 -1.062647168098e-04 5.204651992532e+06 6.343706599829e+05  3.544905004194e-05
5.564920000000e-03 0.000000000000e+00 -1.360488454654e-05 -5.001468751778e+06 -1.802522139457e+04 -4.987917104813e+06 -5.807663518105e+06 -6.864842444312e-05 -2.328058162687e-06 -6.775426350618e-05 -1.148688171886e-04 5.265683124899e+06 8.136544973555e+05  4.684775622629e-05
5.731590000000e-03 0.000000000000e+00 -1.463619621648e-05 -5.002638938527e+06 -1.784793644178e+04 -4.989186863104e+06 -5.988350748746e+06 -6.578843836720e-05 -2.305629105848e-06 -6.490064172495e-05 -1.234728916562e-04 5.326725516792e+06 9.929875363064e+05  5.827043997419e-05
5.898260000000e-03 0.000000000000e+00 -1.566771672958e-05 -5.003828058967e+06 -1.765805802259e+04 -4.990477826209e+06 -6.169031526745e+06 -6.292880037122e-05 -2.281591578456e-06 -6.204751340227e-05 -1.320768484717e-04 5.387779137307e+06 1.172334640187e+06  6.970498889560e-05
6.064930000000e-03 0.000000000000e+00 -1.669945518419e-05 -5.005036275607e+06 -1.745547706130e+04 -4.991790227485e+06 -6.349705338507e+06 -6.006954244924e-05 -2.255931478248e-06 -5.919491501120e-05 -1.406805919643e-04 5.448843947200e+06 1.351678948073e+06  8.114603251728e-05
6.231600000000e-03 0.000000000000e+00 -1.773142080953e-05 -5.006263740077e+06 -1.724010226725e+04 -4.993124284480e+06 -6.530371669109e+06 -5.721069769813e-05 -2.228637012883e-06 -5.634288379150e-05 -1.492840225958e-04 5.509919897888e+06 1.531011181039e+06  9.259078377071e-05
6.398270000000e-03 0.000000000000e+00 -1.876362298395e-05 -5.007510590777e+06 -1.701186137214e+04 -4.994480196227e+06 -6.711030004127e+06 -5.435230024655e-05 -2.199698851932e-06 -5.349145766118e-05 -1.578870370314e-04 5.571006930377e+06 1.710325677525e+06  1.040376177479e-04
6.564940000000e-03 0.000000000000e+00 -1.979607124785e-05 -5.008776950175e+06 -1.677070235126e+04 -4.995858140190e+06 -6.891679831588e+06 -5.149438517027e-05 -2.169110281160e-06 -5.064067510997e-05 -1.664895282356e-04 5.632104973984e+06 1.889618689155e+06  1.154854942330e-04
6.731610000000e-03 0.000000000000e+00 -2.082877532466e-05 -5.010062920980e+06 -1.651659480669e+04 -4.997258268078e+06 -7.072320643845e+06 -4.863698836870e-05 -2.136867379096e-06 -4.779057505479e-05 -1.750913856120e-04 5.693213944301e+06 2.068887566471e+06  1.269336924921e-04
6.898280000000e-03 0.000000000000e+00 -2.186174512840e-05 -5.011368580974e+06 -1.624953122022e+04 -4.998680700300e+06 -7.252951939344e+06 -4.578014639595e-05 -2.102969177408e-06 -4.494119664588e-05 -1.836924951992e-04 5.754333740206e+06 2.248130338482e+06  1.383816778253e-04
7.064950000000e-03 0.000000000000e+00 -2.289499078147e-05 -5.012693978535e+06 -1.596952845988e+04 -5.000125521055e+06 -7.433573224795e+06 -4.292389630049e-05 -2.067417853698e-06 -4.209257907911e-05 -1.922927398868e-04 5.815464241462e+06 2.427345481484e+06  1.498290294449e-04
7.231620000000e-03 0.000000000000e+00 -2.392852262289e-05 -5.014039128373e+06 -1.567662923699e+04 -5.001592773589e+06 -7.614184017079e+06 -4.006827546672e-05 -2.030218917618e-06 -3.924476140679e-05 -2.008919996429e-04 5.876605306347e+06 2.606531785707e+06  1.612753992334e-04
7.398290000000e-03 0.000000000000e+00 -2.496235121650e-05 -5.015404013326e+06 -1.537090364630e+04 -5.003082461481e+06 -7.794783845538e+06 -3.721332163264e-05 -1.991381407082e-06 -3.639778252253e-05 -2.094901515993e-04 5.937756773448e+06 2.785688270263e+06  1.727204867401e-04
7.564960000000e-03 0.000000000000e+00 -2.599648735859e-05 -5.016788593050e+06 -1.505245085545e+04 -5.004594556749e+06 -7.975372254171e+06 -3.435907311651e-05 -1.950918102830e-06 -3.355168134997e-05 -2.180870699531e-04 5.998918467990e+06 2.964814122296e+06  1.841640231406e-04
7.731630000000e-03 0.000000000000e+00 -2.703094208750e-05 -5.018192815091e+06 -1.472140088029e+04 -5.006129010245e+06 -8.155948804245e+06 -3.150556909813e-05 -1.908845753143e-06 -3.070649708087e-05 -2.266826258592e-04 6.060090209860e+06 3.143908652887e+06  1.956057606585e-04
7.898300000000e-03 0.000000000000e+00 -2.806572669564e-05 -5.019616616256e+06 -1.437791657920e+04 -5.007685752251e+06 -8.336513076941e+06 -2.865284957183e-05 -1.865185325526e-06 -2.786226907837e-05 -2.352766877004e-04 6.121271815149e+06 3.322971274397e+06  2.070454660825e-04
8.064970000000e-03 0.000000000000e+00 -2.910085274870e-05 -5.021059919092e+06 -1.402219577658e+04 -5.009264688088e+06 -8.517064676405e+06 -2.580095511474e-05 -1.819962273837e-06 -2.501903658933e-05 -2.438691216085e-04 6.182463094528e+06 3.502001490613e+06  2.184829168648e-04
8.231640000000e-03 0.000000000000e+00 -3.013633210646e-05 -5.022522631638e+06 -1.365447357262e+04 -5.010865696954e+06 -8.697603233053e+06 -2.294992672688e-05 -1.773206827947e-06 -2.217683852666e-05 -2.524597919778e-04 6.243663853882e+06 3.680998888820e+06  2.299178985397e-04
8.398310000000e-03 0.000000000000e+00 -3.117217693342e-05 -5.024004656409e+06 -1.327502464072e+04 -5.012488639846e+06 -8.878128407322e+06 -2.009980592898e-05 -1.724954280503e-06 -1.933571349878e-05 -2.610485618039e-04 6.304873901193e+06 3.859963126479e+06  2.413502026458e-04
8.564980000000e-03 0.000000000000e+00 -3.220839971654e-05 -5.025505899809e+06 -1.288416573557e+04 -5.014133367919e+06 -9.058639893304e+06 -1.725063483757e-05 -1.675245299105e-06 -1.649569981810e-05 -2.696352931145e-04 6.366093053678e+06 4.038893919640e+06  2.527796254009e-04
8.731650000000e-03 0.000000000000e+00 -3.324501327669e-05 -5.027026284629e+06 -1.248225803655e+04 -5.015799733793e+06 -9.239137422784e+06 -1.440245629012e-05 -1.624126215931e-06 -1.365683555055e-05 -2.782198474557e-04 6.427321147069e+06 4.217791030353e+06  2.642059668287e-04
8.898320000000e-03 0.000000000000e+00 -3.428203078243e-05 -5.028565759415e+06 -1.206970936096e+04 -5.017487599692e+06 -9.419620769266e+06 -1.155531382006e-05 -1.571649299145e-06 -1.081915841282e-05 -2.868020866336e-04 6.488558042791e+06 4.396654258361e+06  2.756290306077e-04
9.064990000000e-03 0.000000000000e+00 -3.531946576083e-05 -5.030124305413e+06 -1.164697583864e+04 -5.019196843128e+06 -9.600089751550e+06 -8.709251501712e-06 -1.517872953944e-06 -7.982705537997e-06 -2.953818736947e-04 6.549803633363e+06 4.575483435607e+06  2.870486245142e-04
9.231660000000e-03 0.000000000000e+00 -3.635733211000e-05 -5.031701943108e+06 -1.121456264751e+04 -5.020927362152e+06 -9.780544237078e+06 -5.864313716712e-06 -1.462861802178e-06 -5.147513160968e-06 -3.039590741203e-04 6.611057847446e+06 4.754278421547e+06  2.984645613251e-04
9.398330000000e-03 0.000000000000e+00 -3.739564411339e-05 -5.033298737796e+06 -1.077302321379e+04 -5.022679079721e+06 -9.960984143723e+06 -3.020544831397e-06 -1.406686564611e-06 -2.313616220762e-06 -3.125335572230e-04 6.672320653747e+06 4.933039098276e+06  3.098766601293e-04
9.565000000000e-03 0.000000000000e+00 -3.843441644949e-05 -5.034914806755e+06 -1.032295612976e+04 -5.024451949767e+06 -1.014140943968e+07 -1.779888613574e-07 -1.349423650771e-06 5.189520427819e-07 -3.211051976807e-04 6.733592065401e+06 5.111765362455e+06  3.212847478778e-04
9.731670000000e-03 0.000000000000e+00 -3.947366420186e-05 -5.036550323950e+06 -9.864998978165e+03 -5.026245960778e+06 -1.032182014564e+07 2.663310924133e-06 -1.291154350972e-06 3.350160551614e-06 -3.296738772602e-04 6.794872143456e+06 5.290457122243e+06  3.326886612514e-04
9.898340000000e-03 0.000000000000e+00 -4.051340274755e-05 -5.038205517984e+06 -9.399813930518e+03 -5.028061130944e+06 -1.050221631719e+07 5.503312272115e-06 -1.231962975408e-06 6.179980832076e-06 -3.382394859690e-04 6.856160988705e+06 5.469114282243e+06  3.440882479330e-04
1.006501000000e-02 0.000000000000e+00 -4.155364767745e-05 -5.039880682138e+06 -8.928084747211e+03 -5.029897511248e+06 -1.068259801832e+07 8.341974435371e-06 -1.171936478441e-06 9.008387954515e-06 -3.468019242485e-04 6.917458737235e+06 5.647736709804e+06  3.554833693438e-04
1.023168000000e-02 0.000000000000e+00 -4.259441540186e-05 -5.041576204535e+06 -8.450499008762e+03 -5.031755252864e+06 -1.086296533672e+07 1.117925967393e-05 -1.111162167215e-06 1.183535964217e-05 -3.553611064577e-04 6.978765598038e+06 5.826324200858e+06  3.668739042747e-04
1.039835000000e-02 0.000000000000e+00 -4.363572282190e-05 -5.043292494634e+06 -7.967715043418e+03 -5.033634483771e+06 -1.104331834403e+07 1.401513511830e-05 -1.049723463578e-06 1.466088131636e-05 -3.639169653726e-04 7.040081774145e+06 6.004876538188e+06  3.782597567078e-04
1.056502000000e-02 0.000000000000e+00 -4.467758724192e-05 -5.045030040949e+06 -7.480348569707e+03 -5.035535387958e+06 -1.122365705421e+07 1.684957184911e-05 -9.876982043134e-07 1.748494379272e-05 -3.724694518641e-04 7.101407494371e+06 6.183393380958e+06  3.896408538006e-04
1.073169000000e-02 0.000000000000e+00 -4.572002643266e-05 -5.046789433330e+06 -6.988949106168e+03 -5.037458229376e+06 -1.140398137813e+07 1.968254502363e-05 -9.251556338592e-07 2.030754328995e-05 -3.810185366145e-04 7.162743013612e+06 6.361874195961e+06  4.010171475997e-04
1.089836000000e-02 0.000000000000e+00 -4.676305865448e-05 -5.048571384024e+06 -6.493976937741e+03 -5.039403374797e+06 -1.158429107357e+07 2.251403407406e-05 -8.621534768235e-07 2.312868150085e-05 -3.895642119658e-04 7.224088610799e+06 6.540318185409e+06  4.123886169746e-04
1.106503000000e-02 0.000000000000e+00 -4.780670267215e-05 -5.050376729350e+06 -5.995783338107e+03 -5.041371298914e+06 -1.176458568504e+07 2.534402347594e-05 -7.987354346116e-07 2.594836612822e-05 -3.981064941587e-04 7.285444571102e+06 6.718724223275e+06  4.237552704792e-04
1.123170000000e-02 0.000000000000e+00 -4.885097776749e-05 -5.052206420597e+06 -5.494595165732e+03 -5.043362576611e+06 -1.194486448097e+07 2.817250387273e-05 -7.349292487450e-07 2.876661190685e-05 -4.066454260989e-04 7.346811159394e+06 6.897090800845e+06  4.351171501765e-04
1.139837000000e-02 0.000000000000e+00 -4.989590374748e-05 -5.054061519691e+06 -4.990503054336e+03 -5.045377878627e+06 -1.212512639018e+07 3.099947311706e-05 -6.707452293706e-07 3.158344162863e-05 -4.151810802728e-04 7.408188596167e+06 7.075415967487e+06  4.464743355823e-04
1.156504000000e-02 0.000000000000e+00 -5.094150095458e-05 -5.055943213958e+06 -4.483451132367e+03 -5.047417987368e+06 -1.230536993766e+07 3.382493682233e-05 -6.061749814220e-07 3.439888660985e-05 -4.237135613398e-04 7.469577046330e+06 7.253697251150e+06  4.578269467680e-04
1.173171000000e-02 0.000000000000e+00 -5.198779027234e-05 -5.057852846353e+06 -3.973227315159e+03 -5.049483830086e+06 -1.248559318207e+07 3.664890859797e-05 -5.411902012091e-07 3.721298671902e-05 -4.322430086365e-04 7.530976619504e+06 7.431931564178e+06  4.691751470017e-04
1.189838000000e-02 0.000000000000e+00 -5.303479313768e-05 -5.059791949820e+06 -3.459453697689e+03 -5.051576518200e+06 -1.266579365668e+07 3.947141037316e-05 -4.757414763605e-07 4.002579036576e-05 -4.407695990872e-04 7.592387374900e+06 7.610115107438e+06  4.805191458223e-04
1.206505000000e-02 0.000000000000e+00 -5.408253155075e-05 -5.061762278171e+06 -2.941576613272e+03 -5.053697385056e+06 -1.284596831567e+07 4.229247310239e-05 -4.097570248032e-07 4.283735474913e-05 -4.492935509256e-04 7.653809326300e+06 7.788243282351e+06  4.918592032487e-04
1.223172000000e-02 0.000000000000e+00 -5.513102808946e-05 -5.063765828039e+06 -2.418856202002e+03 -5.055848016690e+06 -1.302611348644e+07 4.511213804328e-05 -3.431413420396e-07 4.564774655803e-05 -4.578151284586e-04 7.715242443724e+06 7.966310616858e+06  5.031956355451e-04
1.239839000000e-02 0.000000000000e+00 -5.618030591895e-05 -5.065804858548e+06 -1.890355434156e+03 -5.058030282045e+06 -1.320622483000e+07 4.793045839508e-05 -2.757737378375e-07 4.845704292566e-05 -4.663346476693e-04 7.776686656866e+06 8.144310700967e+06  5.145288221369e-04
1.256506000000e-02 0.000000000000e+00 -5.723038880192e-05 -5.067881914602e+06 -1.354929020427e+03 -5.060246368247e+06 -1.338629731372e+07 5.074750106104e-05 -2.075068055856e-07 5.126533242264e-05 -4.748524823423e-04 7.838141865524e+06 8.322236130259e+06  5.258592131314e-04
1.273173000000e-02 0.000000000000e+00 -5.828130110561e-05 -5.069999852150e+06 -8.112130620768e+02 -5.062498818977e+06 -1.356632520378e+07 5.356334846752e-05 -1.381649233716e-07 5.407271604327e-05 -4.833690704223e-04 7.899607958301e+06 8.500078466621e+06  5.371873371026e-04
1.289840000000e-02 0.000000000000e+00 -5.933306780551e-05 -5.072161860354e+06 -2.576167886067e+02 -5.064790570366e+06 -1.374630208977e+07 5.637810039044e-05 -6.754295415556e-08 5.687930817256e-05 -4.918849201709e-04 7.961084840165e+06 8.677828233935e+06  5.485138086712e-04
1.306507000000e-02 0.000000000000e+00 -6.038571449157e-05 -5.074371474832e+06 3.076814449708e+02 -5.067124977852e+06 -1.392622095708e+07 5.919187563412e-05 4.594573729612e-09 5.968523742645e-05 -5.004006153273e-04 8.022572469921e+06 8.855474970469e+06  5.598393349559e-04
1.323174000000e-02 0.000000000000e+00 -6.143926737585e-05 -5.076632574978e+06 8.867307006837e+02 -5.069505825989e+06 -1.410607432167e+07 6.200481330093e-05 7.851338094907e-08 6.249064717106e-05 -5.089168181021e-04 8.084070907546e+06 9.033007360298e+06  5.711647194962e-04
1.339841000000e-02 0.000000000000e+00 -6.249375329275e-05 -5.078949362079e+06 1.481793337809e+03 -5.071937316849e+06 -1.428585443587e+07 6.481707319452e-05 1.545080075626e-07 6.529569533260e-05 -5.174342684817e-04 8.145580371599e+06 9.210413455893e+06  5.824908616993e-04
1.356508000000e-02 0.000000000000e+00 -6.354919971027e-05 -5.081326310618e+06 2.095316129534e+03 -5.074424027891e+06 -1.446555355546e+07 6.762883502449e-05 2.328984740039e-07 6.810055325758e-05 -5.259537784486e-04 8.207101297990e+06 9.387680990799e+06  5.938187501270e-04
1.373175000000e-02 0.000000000000e+00 -6.460563472258e-05 -5.083768094791e+06 2.729885396001e+03 -5.076970840547e+06 -1.464516424042e+07 7.044029603949e-05 3.140248308647e-07 7.090540329547e-05 -5.344762201682e-04 8.268634391920e+06 9.564797752889e+06  6.051494483195e-04
1.389842000000e-02 0.000000000000e+00 -6.566308705355e-05 -5.086279488315e+06 3.388166471143e+03 -5.079582837022e+06 -1.482467964313e+07 7.325166724703e-05 3.982395991446e-07 7.371043528568e-05 -5.430025085236e-04 8.330180656157e+06 9.741751974339e+06  6.164840737008e-04
1.406509000000e-02 0.000000000000e+00 -6.672158605253e-05 -5.088865249598e+06 4.072832588633e+03 -5.082265177855e+06 -1.500409373661e+07 7.606316849286e-05 4.858987303736e-07 7.651584218363e-05 -5.515335795523e-04 8.391741388021e+06 9.918532678471e+06  6.278237713717e-04
1.423176000000e-02 0.000000000000e+00 -6.778116168688e-05 -5.091530008059e+06 4.786490198833e+03 -5.085022977157e+06 -1.518340145175e+07 7.887502301801e-05 5.773519861264e-07 7.932181535969e-05 -5.600703675640e-04 8.453318145657e+06 1.009512993618e+07  6.391696861418e-04
1.439843000000e-02 0.000000000000e+00 -6.884184453664e-05 -5.094278165408e+06 5.531609808297e+03 -5.087861191158e+06 -1.536259871739e+07 8.168745228510e-05 6.729339241030e-07 8.212854024617e-05 -5.686137840834e-04 8.514912691319e+06 1.027153501092e+07  6.505229366806e-04
1.456510000000e-02 0.000000000000e+00 -6.990366579274e-05 -5.097113825361e+06 6.310469263626e+03 -5.090784535070e+06 -1.554168242181e+07 8.450067166637e-05 7.729564122218e-07 8.493619282380e-05 -5.771647011535e-04 8.576526927415e+06 1.044774039678e+07  6.618845948663e-04
1.473177000000e-02 0.000000000000e+00 -7.096665725033e-05 -5.100040759460e+06 7.125113759970e+03 -5.093797437173e+06 -1.572065032493e+07 8.731488726529e-05 8.777032555177e-07 8.774493714926e-05 -5.857239402401e-04 8.638162840522e+06 1.062373977051e+07  6.732556718153e-04
1.489844000000e-02 0.000000000000e+00 -7.203085131538e-05 -5.103062404350e+06 7.977333193684e+03 -5.096904026122e+06 -1.589950094852e+07 9.013029401508e-05 9.874270450589e-07 9.055492403156e-05 -5.942922668443e-04 8.699822459665e+06 1.079952788919e+07  6.846371108287e-04
1.506511000000e-02 0.000000000000e+00 -7.309628101200e-05 -5.106181884040e+06 8.868654982174e+03 -5.100108145106e+06 -1.607823346456e+07 9.294707489508e-05 1.102348008590e-06 9.336629069851e-05 -6.028703899441e-04 8.761507831236e+06 1.097510046022e+07  6.960297862218e-04
1.523178000000e-02 0.000000000000e+00 -7.416297999118e-05 -5.109402047626e+06 9.800349058673e+03 -5.103413383143e+06 -1.625684759170e+07 9.576540102288e-05 1.222654451480e-06 9.617916123064e-05 -6.114589649588e-04 8.823221007491e+06 1.115045400305e+07  7.074345065008e-04
1.539845000000e-02 0.000000000000e+00 -7.523098254719e-05 -5.112725511415e+06 1.077344158188e+04 -5.106823112247e+06 -1.643534350289e+07 9.858543243168e-05 1.348504348678e-06 9.899364758781e-05 -6.200585989809e-04 8.884964042184e+06 1.132558571692e+07  7.188520204479e-04
1.556512000000e-02 0.000000000000e+00 -7.630032363335e-05 -5.116154704352e+06 1.178873412204e+04 -5.110340528972e+06 -1.661372174448e+07 1.014073191306e-04 1.480027671751e-06 1.018098508561e-04 -6.286698570295e-04 8.946738992600e+06 1.150049335641e+07  7.302830244863e-04
1.573179000000e-02 0.000000000000e+00 -7.737103888199e-05 -5.119691909234e+06 1.284682579011e+04 -5.113968692601e+06 -1.679198316518e+07 1.042312023730e-04 1.617329123658e-06 1.046278626525e-04 -6.372932686325e-04 9.008547922338e+06 1.167517512045e+07  7.417281705610e-04
1.589846000000e-02 0.000000000000e+00 -7.844316462060e-05 -5.123339299680e+06 1.394813655048e+04 -5.117710559809e+06 -1.697012885291e+07 1.070572159300e-04 1.760491052267e-06 1.074477664957e-04 -6.459293341358e-04 9.070392904133e+06 1.184962955326e+07  7.531880737366e-04
1.606513000000e-02 0.000000000000e+00 -7.951673789753e-05 -5.127098970838e+06 1.509293022900e+04 -5.121569013489e+06 -1.714816007936e+07 1.098854873424e-04 1.909576347922e-06 1.102696391348e-04 -6.545785305467e-04 9.132276021230e+06 1.202385545905e+07  7.646633193033e-04
1.623180000000e-02 0.000000000000e+00 -8.059179651256e-05 -5.130972961204e+06 1.628133640319e+04 -5.125546883172e+06 -1.732607825072e+07 1.127161391824e-04 2.064631217239e-06 1.130935518612e-04 -6.632413168203e-04 9.194199365032e+06 1.219785183150e+07  7.761544693260e-04
1.639847000000e-02 0.000000000000e+00 -8.166837904851e-05 -5.134963266884e+06 1.751337054673e+04 -5.129646958187e+06 -1.750388486493e+07 1.155492902891e-04 2.225687749246e-06 1.159195717806e-04 -6.719181385783e-04 9.256165030000e+06 1.237161779727e+07  7.876620685976e-04