 TITLE = "Time curves in points"
 VARIABLES = "TIME"  "DISPLACEMENT_X1"  "DISPLACEMENT_Y1"  "STRESS_XX"  "STRESS_XY"  "STRESS_YY"  "STRESS_ZZ"  "STRAIN_XX"  "STRAIN_XY"  "STRAIN_YY"  "STRAIN_ZZ"  p_(1st_Invariant)  q_(2nd_Invariant)   Effective_Strain
 ZONE T="POINT=POINT1"
0.000000000000e+00 0.000000000000e+00 0.000000000000e+00 0.000000000000e+00 0.000000000000e+00 0.000000000000e+00 0.000000000000e+00 0.000000000000e+00 0.000000000000e+00 0.000000000000e+00 0.000000000000e+00 -0.000000000000e+00 0.000000000000e+00  0.000000000000e+00
2.314800000000e-05 -4.661214946602e-07 0.000000000000e+00 -4.810462286623e+05 3.602299716961e-06 -4.810462285556e+05 -1.032463953799e-03 -1.553738316226e-05 4.443676013454e-16 -1.553738315534e-05 1.565420555532e-05 3.206974860835e+05 4.810462275765e+05  3.119158871412e-05
4.629600000000e-05 -9.428310994584e-07 0.000000000000e+00 -9.773157862244e+05 1.712929086600e+01 -9.751763534484e+05 -2.572967184146e+03 -3.157801644504e-05 -5.149354420038e-09 -3.142726932573e-05 3.165790783619e-05 6.516883689523e+05 9.736748659528e+05  6.316068627335e-05
6.944400000000e-05 -1.420749869146e-06 0.000000000000e+00 -1.474546749623e+06 -1.224461633369e+02 -1.470267607170e+06 -5.269696533536e+03 -4.765940398013e-05 -3.034222207093e-08 -4.735758391708e-05 4.769875990194e-05 9.833613511091e+05 1.467142177488e+06  9.520762715889e-05
9.259200000000e-05 -1.898939367403e-06 0.000000000000e+00 -1.971802135296e+06 -2.990561094824e+02 -1.965346553770e+06 -7.853239820011e+03 -6.375119131006e-05 -5.968630202455e-08 -6.329677333397e-05 6.375309958576e-05 1.315000642962e+06 1.960729143627e+06  1.272777322948e-04
1.157400000000e-04 -2.377344696719e-06 0.000000000000e+00 -2.468987991293e+06 -4.850669200052e+02 -2.460349036759e+06 -1.025538802133e+04 -7.984947106389e-05 -8.963443225748e-08 -7.924294122988e-05 7.982019026665e-05 1.646530805358e+06 2.454424672428e+06  1.593673376751e-04
1.388880000000e-04 -2.855999423706e-06 0.000000000000e+00 -2.966102349068e+06 -6.668700965158e+02 -2.955309825552e+06 -1.245819258094e+04 -9.595298357696e-05 -1.184842117259e-07 -9.519717954839e-05 9.590052704647e-05 1.977956789067e+06 2.948262936348e+06  1.914768373396e-04
1.620360000000e-04 -3.334941728365e-06 0.000000000000e+00 -3.463161313715e+06 -8.339367455437e+02 -3.450278108058e+06 -1.445878940656e+04 -1.120608794616e-04 -1.449259946022e-07 -1.111607454555e-04 1.119944092370e-04 2.309299403727e+06 3.442279306018e+06  2.236067214130e-04
1.851840000000e-04 -3.814205850236e-06 0.000000000000e+00 -3.960184012608e+06 -9.760894326598e+02 -3.945302724074e+06 -1.625192377375e+04 -1.281723909004e-04 -1.676847150543e-07 -1.271347643497e-04 1.281021860915e-04 2.640579553485e+06 3.936512903696e+06  2.557575072806e-04
2.083320000000e-04 -4.293822286127e-06 0.000000000000e+00 -4.457190576210e+06 -1.083040549216e+03 -4.440431085931e+06 -1.782661695261e+04 -1.442867769188e-04 -1.854609255394e-07 -1.431202351904e-04 1.442243401978e-04 2.971816093031e+06 4.431008382420e+06  2.879297977798e-04
2.314800000000e-04 -4.773818899280e-06 0.000000000000e+00 -4.954202714129e+06 -1.144591098549e+03 -4.935711055443e+06 -1.916791330124e+04 -1.604032799274e-04 -1.969581775838e-07 -1.591180693311e-04 1.603614300592e-04 3.303027227624e+06 4.925815402342e+06  3.201242213773e-04
3.981500000000e-04 -4.696382716916e-06 0.000000000000e+00 -4.966929175279e+06 -3.118678789574e+02 -4.945047991969e+06 -1.964418419088e+05 -1.580359350728e-04 -9.211119280436e-08 -1.565344009469e-04 1.522749128301e-04 3.369473003052e+06 4.759584495310e+06  3.095628531601e-04
5.648200000000e-04 -4.610499544376e-06 0.000000000000e+00 -4.966866515243e+06 -1.952072833146e+02 -4.944299243440e+06 -3.738249958459e+05 -1.552164857812e-04 -7.723684474378e-08 -1.536712022539e-04 1.438139824735e-04 3.428330251510e+06 4.581799578617e+06  2.982608587892e-04
7.314900000000e-04 -4.524598679744e-06 0.000000000000e+00 -4.966580428009e+06 -7.711387724334e+01 -4.943459733313e+06 -5.512399310445e+05 -1.523879616424e-04 -6.215411242354e-08 -1.508073863452e-04 1.353487236009e-04 3.487093364122e+06 4.403825671946e+06  2.869496826025e-04
8.981600000000e-04 -4.438692241641e-06 0.000000000000e+00 -4.966285368718e+06 4.829415194745e+01 -4.942609655995e+06 -7.286814525375e+05 -1.495593551467e-04 -4.614618382213e-08 -1.479433878683e-04 1.268839496791e-04 3.545858825750e+06 4.225815803350e+06  2.756388854765e-04
1.064830000000e-03 -4.352779893990e-06 0.000000000000e+00 -4.965984968947e+06 1.809560775917e+02 -4.941752067421e+06 -9.061553171289e+05 -1.467306926490e-04 -2.922186901696e-08 -1.450791968860e-04 1.184194656276e-04 3.604630784499e+06 4.047767617017e+06  2.643282846598e-04
1.231500000000e-03 -4.266861539523e-06 0.000000000000e+00 -4.965679873127e+06 3.206436307690e+02 -4.940888686754e+06 -1.083665776886e+06 -1.439019024955e-04 -1.141088801129e-08 -1.422148105887e-04 1.099550766214e-04 3.663411445589e+06 3.869678102867e+06  2.530176524694e-04
1.398170000000e-03 -4.180937089422e-06 0.000000000000e+00 -4.965370698518e+06 4.671170113520e+02 -4.940021226953e+06 -1.261217005361e+06 -1.410729119427e-04 7.255652518611e-09 -1.393502263515e-04 1.014905878950e-04 3.722202976944e+06 3.691544323737e+06  2.417067616162e-04
1.564840000000e-03 -4.095006423282e-06 0.000000000000e+00 -4.965057819187e+06 6.202858431386e+02 -4.939150840510e+06 -1.438811746478e+06 -1.382436674456e-04 2.676569341893e-08 -1.364854405191e-04 9.302585735791e-05 3.781006802058e+06 3.513364386068e+06  2.303954476725e-04
1.731510000000e-03 -4.009069359754e-06 0.000000000000e+00 -4.964741146125e+06 7.803455223759e+02 -4.938277670106e+06 -1.616450278914e+06 -1.354141483323e-04 4.714347530403e-08 -1.336204475464e-04 8.456083565795e-05 3.839823031715e+06 3.335138146878e+06  2.190836559625e-04
1.898180000000e-03 -3.923125668824e-06 0.000000000000e+00 -4.964420239079e+06 9.477084881224e+02 -4.937401090956e+06 -1.794131045704e+06 -1.325843588176e-04 6.844073728785e-08 -1.307552403729e-04 7.609554365099e-05 3.898650791913e+06 3.156866767087e+06  2.077714156527e-04
2.064850000000e-03 -3.837175106685e-06 0.000000000000e+00 -4.964094601692e+06 1.122820694300e+03 -4.936520328160e+06 -1.971852159659e+06 -1.297543085408e-04 9.071339519966e-08 -1.278898114590e-04 6.763001625499e-05 3.957489029837e+06 2.978551668693e+06  1.964587748451e-04
2.231520000000e-03 -3.751217437595e-06 0.000000000000e+00 -4.963763858662e+06 1.306049835456e+03 -4.935634826685e+06 -2.149612285082e+06 -1.269240009807e-04 1.140073762148e-07 -1.250241534355e-04 5.916426897652e-05 4.016336990143e+06 2.800193936002e+06  1.851457622700e-04
2.398190000000e-03 -3.665252437639e-06 0.000000000000e+00 -4.963427781217e+06 1.497667291436e+03 -4.934744306337e+06 -2.327410751353e+06 -1.240934317196e-04 1.383563581253e-07 -1.221582592157e-04 5.069829297631e-05 4.075194279636e+06 2.621794256655e+06  1.738323824915e-04
2.564860000000e-03 -3.579279891089e-06 0.000000000000e+00 -4.963086253727e+06 1.697866941466e+03 -4.933848693855e+06 -2.505247372059e+06 -1.212625905440e-04 1.637841800133e-07 -1.192921218860e-04 4.223206122548e-05 4.134060773214e+06 2.443353073123e+06  1.625186244486e-04
2.731530000000e-03 -3.493299587495e-06 0.000000000000e+00 -4.962739236615e+06 1.906786745640e+03 -4.932948046588e+06 -2.683122244364e+06 -1.184314638657e-04 1.903075961811e-07 -1.164257346229e-04 3.376553555178e-05 4.192936509189e+06 2.264870758093e+06  1.512044716933e-04
2.898200000000e-03 -3.407311318727e-06 0.000000000000e+00 -4.962386739405e+06 2.124524412721e+03 -4.932042495871e+06 -2.861035600089e+06 -1.156000365251e-04 2.179382749870e-07 -1.135590906051e-04 2.529867181809e-05 4.251821611788e+06 2.086347769168e+06  1.398899114317e-04
3.064870000000e-03 -3.321314877591e-06 0.000000000000e+00 -4.962028803503e+06 2.351147192174e+03 -4.931132210953e+06 -3.038987706710e+06 -1.127682929543e-04 2.466840496632e-07 -1.106921829736e-04 1.683142326677e-05 4.310716240388e+06 1.907784795474e+06  1.285749430175e-04
3.231540000000e-03 -3.235310056052e-06 0.000000000000e+00 -4.961665491719e+06 2.586697608514e+03 -4.930217377575e+06 -3.216978806456e+06 -1.099362178222e-04 2.765496530201e-07 -1.078250047782e-04 8.363742397513e-06 4.369620558583e+06 1.729182922829e+06  1.172595873629e-04
3.398210000000e-03 -3.149296645340e-06 0.000000000000e+00 -4.961296882358e+06 2.831196720581e+03 -4.929298187479e+06 -3.395009078983e+06 -1.071037963363e-04 3.075371375586e-07 -1.049575489855e-04 -1.044180589269e-07 4.428534716273e+06 1.550543866192e+06  1.059438999402e-04
3.564880000000e-03 -3.063274435669e-06 0.000000000000e+00 -4.960923066247e+06 3.084646106775e+03 -4.928374834232e+06 -3.573078619653e+06 -1.042710143186e-04 3.396461338902e-07 -1.020898084738e-04 -8.573104815304e-06 4.487458840044e+06 1.371870350079e+06  9.462799153101e-05
3.731550000000e-03 -2.977243216316e-06 0.000000000000e+00 -4.960544145729e+06 3.347029169240e+03 -4.927447512585e+06 -3.751187424281e+06 -1.014378581922e-04 3.728740230249e-07 -9.922177604060e-05 -1.704236398740e-05 4.546393027532e+06 1.193166811011e+06  8.331206526612e-05
3.898220000000e-03 -2.891202774843e-06 0.000000000000e+00 -4.960160234891e+06 3.618312052469e+03 -4.926516419677e+06 -3.929335378411e+06 -9.860431490024e-05 4.072160602319e-07 -9.635344438092e-05 -2.551224129478e-05 4.605337344326e+06 1.014440824590e+06  7.199648826940e-05
4.064890000000e-03 -2.805152895576e-06 0.000000000000e+00 -4.959771460540e+06 3.898444314507e+03 -4.925581757654e+06 -4.107522250030e+06 -9.577037175333e-05 4.426654681601e-07 -9.348480604145e-05 -3.398278247161e-05 4.664291822741e+06 8.357063472952e+05  6.068194346375e-05
4.231560000000e-03 -2.719093358916e-06 0.000000000000e+00 -4.959377963624e+06 4.187359404879e+03 -4.924643737926e+06 -4.285747683575e+06 -9.293601621969e-05 4.792135062439e-07 -9.061585340134e-05 -4.245403378859e-05 4.723256461708e+06 6.569922346465e+05  4.936979059909e-05
4.398230000000e-03 -2.633023940696e-06 0.000000000000e+00 -4.958979900957e+06 4.484974960979e+03 -4.923702586385e+06 -4.464011195593e+06 -9.010123564682e-05 5.168495182092e-07 -8.774657865433e-05 -5.092604271495e-05 4.782231227645e+06 4.783698218875e+05  3.806307146180e-05
4.564900000000e-03 -2.546944412500e-06 0.000000000000e+00 -4.958577447231e+06 4.791192904829e+03 -4.922758548975e+06 -4.642312171071e+06 -8.726601691249e-05 5.555609572256e-07 -8.487697382199e-05 -5.939885866746e-05 4.841216055759e+06 3.000788416671e+05  2.677006047091e-05
4.731570000000e-03 -2.460854543988e-06 0.000000000000e+00 -4.958170797683e+06 5.105899204393e+03 -4.921811892586e+06 -4.820649857999e+06 -8.443034599755e-05 5.953333878058e-07 -8.200703083416e-05 -6.787253370257e-05 4.900210849423e+06 1.237419842117e+05  1.552327517948e-05
4.898240000000e-03 -2.374754126321e-06 0.000000000000e+00 -4.957760168254e+06 5.428964701393e+03 -4.920862839085e+06 -4.999023328646e+06 -8.159420775723e-05 6.361508899817e-07 -7.913674231169e-05 -7.634712071469e-05 4.959215445328e+06 6.837384507328e+04  4.678737822926e-06
5.064910000000e-03 -2.288643252393e-06 0.000000000000e+00 -4.957345606955e+06 5.760296554416e+03 -4.919911932331e+06 -5.177431565135e+06 -7.875759493540e-05 6.779964305190e-07 -7.626611096960e-05 -8.482265946367e-05 5.018229701474e+06 2.411996645537e+05  7.712493020223e-06
5.231580000000e-03 -2.202521341732e-06 0.000000000000e+00 -4.956927829603e+06 6.099609623274e+03 -4.918959810536e+06 -5.355873573864e+06 -7.592048869071e-05 7.208427955601e-07 -7.339511679474e-05 -9.329924074359e-05 5.077253738001e+06 4.193543521577e+05  1.881077300798e-05
5.398250000000e-03 -2.116387670670e-06 0.000000000000e+00 -4.956506963467e+06 6.446760049025e+03 -4.918006815172e+06 -5.534347971349e+06 -7.308284567185e-05 7.646707348070e-07 -7.052373525873e-05 -1.017769693374e-04 5.136287249996e+06 5.981255206458e+05  3.008467007805e-05
5.564920000000e-03 -2.030241718199e-06 0.000000000000e+00 -4.956083329094e+06 6.801551481482e+03 -4.917053524110e+06 -5.712853292240e+06 -7.024463328562e-05 8.094553578914e-07 -6.765194845686e-05 -1.102559429152e-04 5.195330048481e+06 7.771096899303e+05  4.139238193537e-05
5.731590000000e-03 -1.944082966721e-06 0.000000000000e+00 -4.955657286044e+06 7.163763633865e+03 -4.916100588132e+06 -5.891387935604e+06 -6.740581598627e-05 8.551696192624e-07 -6.477973856997e-05 -1.187362668069e-04 5.254381936593e+06 9.562034062033e+05  5.271340576125e-05
5.898260000000e-03 -1.857910898001e-06 0.000000000000e+00 -4.955229228409e+06 7.533155706140e+03 -4.915148740240e+06 -6.069950163241e+06 -6.456635527103e-05 9.017841826393e-07 -6.190708772657e-05 -1.272180542458e-04 5.313442710630e+06 1.135366906612e+06  6.404181729251e-05
6.064930000000e-03 -1.771724992261e-06 0.000000000000e+00 -4.954799584104e+06 7.909466911506e+03 -4.914198796351e+06 -6.248538110664e+06 -6.172620961908e-05 9.492674152574e-07 -5.903397797103e-05 -1.357014264940e-04 5.372512163706e+06 1.314580648495e+06  7.537534456875e-05
6.231600000000e-03 -1.685524727365e-06 0.000000000000e+00 -4.954368813173e+06 8.292417523691e+03 -4.913251652177e+06 -6.427149805281e+06 -5.888533455013e-05 9.975854970282e-07 -5.616039123549e-05 -1.441865126466e-04 5.431590090211e+06 1.493833102248e+06  8.671299041183e-05
6.398270000000e-03 -1.599309577535e-06 0.000000000000e+00 -4.953937404402e+06 8.681710917314e+03 -4.912308275821e+06 -6.605783192175e+06 -5.604368282098e-05 1.046702659281e-06 -5.328630929690e-05 -1.526734490716e-04 5.490676290800e+06 1.673116405974e+06  9.805430104214e-05
6.564940000000e-03 -1.513079012823e-06 0.000000000000e+00 -4.953505869888e+06 9.077036820481e+03 -4.911369696249e+06 -6.784436166113e+06 -5.320120477360e-05 1.096581571511e-06 -5.041171375996e-05 -1.611623783980e-04 5.549770577416e+06 1.852424568353e+06  1.093990880563e-04
6.731610000000e-03 -1.426832496227e-06 0.000000000000e+00 -4.953074737467e+06 9.478075874275e+03 -4.910436986563e+06 -6.963106611647e+06 -5.035784879242e-05 1.147183885918e-06 -4.753658596297e-05 -1.696534482305e-04 5.608872778559e+06 2.031752655504e+06  1.207473059835e-04
6.898280000000e-03 -1.340569483012e-06 0.000000000000e+00 -4.952644541217e+06 9.884505372734e+03 -4.909511243791e+06 -7.141792442913e+06 -4.751356192950e-05 1.198470924217e-06 -4.466090695822e-05 -1.781468093358e-04 5.667982742640e+06 2.211096401050e+06  1.320989914746e-04
7.064950000000e-03 -1.254289417300e-06 0.000000000000e+00 -4.952215810482e+06 1.029600592333e+04 -4.908593565198e+06 -7.320491647031e+06 -4.466829056272e-05 1.250404475962e-06 -4.178465740281e-05 -1.866426137603e-04 5.727100340904e+06 2.390452022301e+06  1.434542302893e-04
7.231620000000e-03 -1.167991729577e-06 0.000000000000e+00 -4.951789058154e+06 1.071226856774e+04 -4.907685023204e+06 -7.499202321792e+06 -4.182198112507e-05 1.302947653344e-06 -3.890781748091e-05 -1.951410127268e-04 5.786225467716e+06 2.569816134155e+06  1.548131375777e-04
7.398290000000e-03 -1.081675833768e-06 0.000000000000e+00 -4.951364769127e+06 1.113300181388e+04 -4.906786640648e+06 -7.677922707207e+06 -3.897458081122e-05 1.356065736632e-06 -3.603036681243e-05 -2.036421545988e-04 5.845358038994e+06 2.749185712261e+06  1.661758453322e-04
7.564960000000e-03 -9.953411239354e-07 0.000000000000e+00 -4.950943389822e+06 1.155793801803e+04 -4.905899368474e+06 -7.856651209813e+06 -3.612603818994e-05 1.409726942681e-06 -3.315228434904e-05 -2.121461831078e-04 5.904497989369e+06 2.928558078968e+06  1.775424940711e-04
7.731630000000e-03 -9.089869711307e-07 0.000000000000e+00 -4.950525319548e+06 1.198683864384e+04 -4.905024067385e+06 -8.035386418135e+06 -3.327630369304e-05 1.463903059234e-06 -3.027354827531e-05 -2.206532359342e-04 5.963645268356e+06 3.107930896458e+06  1.889132272001e-04
7.898300000000e-03 -8.226127213155e-07 0.000000000000e+00 -4.950110904247e+06 1.241949807114e+04 -4.904161494983e+06 -8.214127109522e+06 -3.042532995065e-05 1.518569905104e-06 -2.739413594442e-05 -2.291634437039e-04 6.022799836251e+06 3.287302159030e+06  2.002881872158e-04
8.064970000000e-03 -7.362176927618e-07 0.000000000000e+00 -4.949700432778e+06 1.285574583350e+04 -4.903312298059e+06 -8.392872251134e+06 -2.757307195036e-05 1.573707601147e-06 -2.451402379607e-05 -2.376769295105e-04 6.081961660657e+06 3.466670183121e+06  2.116675133831e-04
8.231640000000e-03 -6.498011737743e-07 0.000000000000e+00 -4.949294135735e+06 1.329544732937e+04 -4.902477010634e+06 -8.571620997419e+06 -2.471948700999e-05 1.629300656962e-06 -2.163318728386e-05 -2.461938089544e-04 6.141130714596e+06 3.646033594563e+06  2.230513405649e-04
8.398310000000e-03 -5.633624216476e-07 0.000000000000e+00 -4.948892186377e+06 1.373850320648e+04 -4.901656056184e+06 -8.750372681395e+06 -2.186453466476e-05 1.685337897073e-06 -1.875160084304e-05 -2.547141904429e-04 6.200306974652e+06 3.825391309788e+06  2.344397986975e-04
8.564980000000e-03 -4.769006613054e-07 0.000000000000e+00 -4.948494703380e+06 1.418484764478e+04 -4.900849754159e+06 -8.929126807426e+06 -1.900817639149e-05 1.741812253365e-06 -1.586923784689e-05 -2.632381759383e-04 6.259490421655e+06 4.004742517705e+06  2.458330130452e-04
8.731650000000e-03 -3.904150842308e-07 0.000000000000e+00 -4.948101754779e+06 1.463444589718e+04 -4.900058328417e+06 -9.107883041399e+06 -1.615037529840e-05 1.798720467415e-06 -1.298607057219e-05 -2.717658618401e-04 6.318681041532e+06 4.184086659030e+06  2.572311047725e-04
8.898320000000e-03 -3.039048475752e-07 0.000000000000e+00 -4.947713362762e+06 1.508729129683e+04 -4.899281917909e+06 -9.286641203033e+06 -1.329109573405e-05 1.856062727524e-06 -1.010207017003e-05 -2.802973400763e-04 6.377878827901e+06 4.363423407306e+06  2.686341918805e-04
9.064990000000e-03 -2.173690737922e-07 0.000000000000e+00 -4.947329508867e+06 1.554340201500e+04 -4.898520587916e+06 -9.465401257466e+06 -1.043030290357e-05 1.913842275106e-06 -7.217206653918e-06 -2.888326991875e-04 6.437083784750e+06 4.542752649563e+06  2.800423902132e-04
9.231660000000e-03 -1.308068501258e-07 0.000000000000e+00 -4.946950139289e+06 1.600281773380e+04 -4.897774341590e+06 -9.644163308868e+06 -7.567962468553e-06 1.972065000212e-06 -4.331448882796e-06 -2.973720254568e-04 6.496295929916e+06 4.722074469410e+06  2.914558145806e-04
9.398330000000e-03 -4.421722808935e-08 0.000000000000e+00 -4.946575170071e+06 1.646559638062e+04 -4.897043131269e+06 -9.822927595779e+06 -4.704040151622e-06 2.030739044117e-06 -1.444764543611e-06 -3.059154040245e-04 6.555515299040e+06 4.901389132454e+06  3.028745799138e-04
9.565000000000e-03 4.240077635877e-08 0.000000000000e+00 -4.946204491989e+06 1.693181102293e+04 -4.896326868921e+06 -1.000169448574e+07 -1.838501399226e-06 2.089874421005e-06 1.442879842816e-06 -3.144629198480e-04 6.614741948883e+06 5.080697071976e+06  3.142988022584e-04
9.731670000000e-03 1.290481825295e-07 0.000000000000e+00 -4.945837974582e+06 1.740154699093e+04 -4.895625435551e+06 -1.018046447295e+07 1.028688943671e-06 2.149482666865e-06 4.331518912640e-06 -3.230146586140e-04 6.673975961026e+06 5.259998878832e+06  3.257285997406e-04
9.898340000000e-03 2.157260303067e-07 0.000000000000e+00 -4.945475457300e+06 1.787490008276e+04 -4.894938684762e+06 -1.035923818241e+07 3.897566952545e-06 2.209576617274e-06 7.221187968957e-06 -3.315707069210e-04 6.733217441490e+06 5.439295307364e+06  3.371640925784e-04
1.006501000000e-02 3.024353688619e-07 0.000000000000e+00 -4.945116787798e+06 1.835197320433e+04 -4.894266477676e+06 -1.053801635167e+07 6.768168976433e-06 2.270169998247e-06 1.011192259347e-05 -3.401311524202e-04 6.792466539047e+06 5.618587219900e+06  3.486054026400e-04
1.023168000000e-02 3.891773262259e-07 0.000000000000e+00 -4.944761819895e+06 1.883287086645e+04 -4.893608653315e+06 -1.071679982767e+07 9.640532201930e-06 2.331276750179e-06 1.300376100204e-05 -3.486960864563e-04 6.851723433628e+06 5.797875599087e+06  3.600526574950e-04
1.039835000000e-02 4.759530770698e-07 0.000000000000e+00 -4.944410365236e+06 1.931770426183e+04 -4.892965044639e+06 -1.089558961407e+07 1.251469769107e-05 2.392911666360e-06 1.589674292901e-05 -3.572656064925e-04 6.910988341313e+06 5.977161610513e+06  3.715059937440e-04
1.056502000000e-02 5.627638253800e-07 0.000000000000e+00 -4.944062244266e+06 1.980658524345e+04 -4.892335494100e+06 -1.107438682325e+07 1.539070754071e-05 2.455089639889e-06 1.879090906707e-05 -3.658398131608e-04 6.970261520539e+06 6.156446521395e+06  3.829655523393e-04
1.073169000000e-02 6.496108130314e-07 0.000000000000e+00 -4.943717276359e+06 2.029962568893e+04 -4.891719852290e+06 -1.125319268895e+07 1.826860570901e-05 2.517825588484e-06 2.168630135171e-05 -3.744188115575e-04 7.029543272534e+06 6.335731718384e+06  3.944314804057e-04
1.089836000000e-02 7.364953215533e-07 0.000000000000e+00 -4.943375281135e+06 2.079693630464e+04 -4.891117980964e+06 -1.143200856851e+07 2.114843818142e-05 2.581134307845e-06 2.458296301865e-05 -3.830027117009e-04 7.088833943538e+06 6.515018707463e+06  4.059039317834e-04
1.106503000000e-02 8.234186729338e-07 0.000000000000e+00 -4.943036079994e+06 2.129862558321e+04 -4.890529755600e+06 -1.161083594323e+07 2.403025306136e-05 2.645030343778e-06 2.748093863012e-05 -3.915916288204e-04 7.148133926275e+06 6.694309112019e+06  4.173830673569e-04
1.123170000000e-02 9.103822302570e-07 0.000000000000e+00 -4.942699497429e+06 2.180479892618e+04 -4.889955067427e+06 -1.178967641825e+07 2.691410063625e-05 2.709527884605e-06 3.038027409534e-05 -4.001856835780e-04 7.207443661037e+06 6.873604670907e+06  4.288690553011e-04
1.139837000000e-02 9.973873986487e-07 0.000000000000e+00 -4.942365362056e+06 2.231555793449e+04 -4.889393824873e+06 -1.196853172280e+07 2.980003343536e-05 2.774640674309e-06 3.328101670144e-05 -4.087850022647e-04 7.266763636577e+06 7.052907237276e+06  4.403620713086e-04
1.156504000000e-02 1.084435625823e-06 0.000000000000e+00 -4.942033507445e+06 2.283099982945e+04 -4.888845954866e+06 -1.214740371010e+07 3.268810627782e-05 2.840381941759e-06 3.618321513102e-05 -4.173897169513e-04 7.326094390805e+06 7.232218777339e+06  4.518622987613e-04
1.173171000000e-02 1.171528402716e-06 0.000000000000e+00 -4.941703772678e+06 2.335121702847e+04 -4.888311403440e+06 -1.232629435645e+07 3.557837629708e-05 2.906764349179e-06 3.908691948277e-05 -4.259999655784e-04 7.385436510856e+06 7.411541368714e+06  4.633699288331e-04
1.189838000000e-02 1.258667263923e-06 0.000000000000e+00 -4.941376002773e+06 2.387629682875e+04 -4.887790136528e+06 -1.250520576097e+07 3.847090297944e-05 2.973799953962e-06 4.199218128538e-05 -4.346158920583e-04 7.444790633422e+06 7.590877199532e+06  4.748851606090e-04
1.206505000000e-02 1.345853788151e-06 0.000000000000e+00 -4.941050048903e+06 2.440632122406e+04 -4.887282140047e+06 -1.268414014390e+07 4.136574817095e-05 3.041500187095e-06 4.489905351212e-05 -4.432376463016e-04 7.504157444285e+06 7.770228566481e+06  4.864082011163e-04
1.223172000000e-02 1.433089598651e-06 0.000000000000e+00 -4.940725768566e+06 2.494136680345e+04 -4.886787420526e+06 -1.286309984685e+07 4.426297612231e-05 3.109875841701e-06 4.780759059506e-05 -4.518653843150e-04 7.563537678646e+06 7.949597874564e+06  4.979392654451e-04
1.239839000000e-02 1.520376363437e-06 0.000000000000e+00 -4.940403025638e+06 2.548150476579e+04 -4.886306004971e+06 -1.304208733045e+07 4.716265348465e-05 3.178937076058e-06 5.071784843174e-05 -4.604992681864e-04 7.622932120352e+06 8.128987634816e+06  5.094785767306e-04
1.256506000000e-02 1.607715795702e-06 0.000000000000e+00 -4.940081690440e+06 2.602680099574e+04 -4.885837941292e+06 -1.322110517443e+07 5.006484934763e-05 3.248693424185e-06 5.362988439898e-05 -4.691394661610e-04 7.682341602055e+06 8.308400464012e+06  5.210263662505e-04
1.273173000000e-02 1.695109654402e-06 0.000000000000e+00 -4.939761639792e+06 2.657731621928e+04 -4.885383298441e+06 -1.340015607718e+07 5.296963526559e-05 3.319153816358e-06 5.654375737204e-05 -4.777861526979e-04 7.741767005137e+06 8.487839084128e+06  5.325828735011e-04
1.289840000000e-02 1.782559744658e-06 0.000000000000e+00 -4.939442757070e+06 2.713310621506e+04 -4.884942166441e+06 -1.357924285473e+07 5.587708527023e-05 3.390326606571e-06 5.945952773794e-05 -4.864395084941e-04 7.801209259413e+06 8.667306321255e+06  5.441483462312e-04
1.306507000000e-02 1.870067918022e-06 0.000000000000e+00 -4.939124932315e+06 2.769422205326e+04 -4.884514656703e+06 -1.375836844039e+07 5.878727589419e-05 3.462219603356e-06 6.237725740425e-05 -4.950997205270e-04 7.860669343135e+06 8.846805104970e+06  5.557230404988e-04
1.323174000000e-02 1.957636073826e-06 0.000000000000e+00 -4.938808062331e+06 2.826071037509e+04 -4.884100901851e+06 -1.393753588527e+07 6.170028620036e-05 3.534840105732e-06 6.529700984403e-05 -5.037669821442e-04 7.920148283152e+06 9.026338468903e+06  5.673072207962e-04
1.339841000000e-02 2.045266158622e-06 0.000000000000e+00 -4.938492050824e+06 2.883261366740e+04 -4.883701055958e+06 -1.411674835617e+07 6.461619777077e-05 3.608194938469e-06 6.821885007736e-05 -5.124414930110e-04 7.979647154318e+06 9.205909548367e+06  5.789011599807e-04
1.356508000000e-02 2.132960168452e-06 0.000000000000e+00 -4.938176808538e+06 2.940997054208e+04 -4.883315294152e+06 -1.429600913751e+07 6.753509475010e-05 3.682290487980e-06 7.114284474689e-05 -5.211234592597e-04 8.039167080066e+06 9.385521582465e+06  5.905051394823e-04
1.373175000000e-02 2.220720148316e-06 0.000000000000e+00 -4.937862253402e+06 2.999281599262e+04 -4.882943812519e+06 -1.447532162852e+07 7.045706381429e-05 3.757132735337e-06 7.406906210047e-05 -5.298130933969e-04 8.098709231480e+06 9.565177911208e+06  6.021194491862e-04
1.389842000000e-02 2.308548193382e-06 0.000000000000e+00 -4.937548310722e+06 3.058118160440e+04 -4.882586828036e+06 -1.465468934418e+07 7.338219419611e-05 3.832727283436e-06 7.699757203150e-05 -5.385106143838e-04 8.158274827646e+06 9.744881976369e+06  6.137443875440e-04
1.406509000000e-02 2.396446449884e-06 0.000000000000e+00 -4.937234913347e+06 3.117509573810e+04 -4.882244578153e+06 -1.483411591458e+07 7.631057767985e-05 3.909079380803e-06 7.992844610934e-05 -5.472162476433e-04 8.217865135361e+06 9.924637320981e+06  6.253802615934e-04
1.423176000000e-02 2.484417115712e-06 0.000000000000e+00 -4.936922001891e+06 3.177458364815e+04 -4.881917320514e+06 -1.501360508410e+07 7.924230859107e-05 3.986193937193e-06 8.286175759911e-05 -5.559302250483e-04 8.277481468836e+06 1.010444758852e+07  6.370273869498e-04
1.439843000000e-02 2.572462441108e-06 0.000000000000e+00 -4.936609524984e+06 3.237966752956e+04 -4.881605332838e+06 -1.519316071132e+07 8.217748379877e-05 4.064075530105e-06 8.579758148560e-05 -5.646527849411e-04 8.337125189715e+06 1.028431652274e+07  6.486860878382e-04
1.456510000000e-02 2.660584729821e-06 0.000000000000e+00 -4.936297439544e+06 3.299036651511e+04 -4.881308912341e+06 -1.537278676849e+07 8.511620270164e-05 4.142728405037e-06 8.873599451193e-05 -5.733841721351e-04 8.396797706790e+06 1.046424796731e+07  6.603566971060e-04
1.473177000000e-02 2.748786339254e-06 0.000000000000e+00 -4.935985711102e+06 3.360669658795e+04 -4.881028375372e+06 -1.555248733950e+07 8.805856719137e-05 4.222156464961e-06 9.167707518510e-05 -5.821246378412e-04 8.456500475323e+06 1.064424586379e+07  6.720395561335e-04
1.489844000000e-02 2.837069681929e-06 0.000000000000e+00 -4.935674314160e+06 3.422867043808e+04 -4.880764056320e+06 -1.573226661832e+07 9.100468161052e-05 4.302363252664e-06 9.462090382511e-05 -5.908744396274e-04 8.516234996266e+06 1.082431425040e+07  6.837350147958e-04
1.506511000000e-02 2.925437226760e-06 0.000000000000e+00 -4.935363232617e+06 3.485629724321e+04 -4.880516306750e+06 -1.591212890754e+07 9.395465271439e-05 4.383351923386e-06 9.756756260736e-05 -5.996338413835e-04 8.576002815634e+06 1.100445726081e+07  6.954434314285e-04
1.523178000000e-02 3.013891500019e-06 0.000000000000e+00 -4.935052460299e+06 3.548958237352e+04 -4.880285493980e+06 -1.609207861437e+07 9.690858957922e-05 4.465125207636e-06 1.005171355951e-04 -6.084031131742e-04 8.635805522883e+06 1.118467912057e+07  7.071651726503e-04
1.539845000000e-02 3.102435086524e-06 0.000000000000e+00 -4.934742001577e+06 3.612852702152e+04 -4.880072000176e+06 -1.627212024848e+07 9.986660354594e-05 4.547685364304e-06 1.034697087788e-04 -6.171825311749e-04 8.695644750078e+06 1.136498414511e+07  7.189006132890e-04
1.556512000000e-02 3.191070630214e-06 0.000000000000e+00 -4.934431872149e+06 3.677312774162e+04 -4.879876221572e+06 -1.645225841858e+07 1.028288081404e-04 4.631034121981e-06 1.064253700955e-04 -6.259723775493e-04 8.755522170767e+06 1.154537673625e+07  7.306501362273e-04
1.573179000000e-02 3.279800835712e-06 0.000000000000e+00 -4.934122100024e+06 3.742337590151e+04 -4.879698567906e+06 -1.663249783134e+07 1.057953190278e-04 4.715172608728e-06 1.093842094807e-04 -6.347729404398e-04 8.815439499758e+06 1.172586138100e+07  7.424141323951e-04
1.589846000000e-02 3.368628467974e-06 0.000000000000e+00 -4.933812726694e+06 3.807925697037e+04 -4.879539462250e+06 -1.681284328717e+07 1.087662539164e-04 4.800101260504e-06 1.123463188567e-04 -6.435845138035e-04 8.875398492038e+06 1.190644264675e+07  7.541930005485e-04
1.606513000000e-02 3.457556354251e-06 0.000000000000e+00 -4.933503808631e+06 3.874074967445e+04 -4.879399339873e+06 -1.699329967721e+07 1.117417324527e-04 4.885819712069e-06 1.153117921964e-04 -6.524073973278e-04 8.935400941906e+06 1.208712517811e+07  7.659871471637e-04
1.623180000000e-02 3.546587385389e-06 0.000000000000e+00 -4.933195419116e+06 3.940782492649e+04 -4.879278647341e+06 -1.717387197921e+07 1.147218760893e-04 4.972326658208e-06 1.182807255653e-04 -6.612418962880e-04 8.995448681888e+06 1.226791369229e+07  7.777969862461e-04
1.639847000000e-02 3.635724518038e-06 0.000000000000e+00 -4.932887650419e+06 4.008044454959e+04 -4.879177841155e+06 -1.735456525316e+07 1.177068079283e-04 5.059619687743e-06 1.212532171925e-04 -6.700883214081e-04 9.055543581578e+06 1.244881297437e+07  7.896229391450e-04