 TITLE = "Time curves in points"
 VARIABLES = "TIME"  "DISPLACEMENT_X1"  "DISPLACEMENT_Y1"  "TEMPERATURE1"  "STRESS_XX"  "STRESS_XY"  "STRESS_YY"  "STRESS_ZZ"  "STRAIN_XX"  "STRAIN_XY"  "STRAIN_YY"  "STRAIN_ZZ"  p_(1st_Invariant)  q_(2nd_Invariant)   Effective_Strain
 ZONE T="POINT=POINT1"
0.000000000000e+00 0.000000000000e+00 0.000000000000e+00 1.000000000000e+02 0.000000000000e+00 0.000000000000e+00 0.000000000000e+00 0.000000000000e+00 0.000000000000e+00 0.000000000000e+00 0.000000000000e+00 0.000000000000e+00 -0.000000000000e+00 0.000000000000e+00  0.000000000000e+00
1.000000000000e-01 0.000000000000e+00 5.006231611531e-05 1.000000000000e+02 -1.874282260460e+00 1.302620097156e-02 -1.872432708757e+00 -4.980217270568e+00 -9.626706416995e-07 1.323462018711e-06 -8.687134151778e-07 -1.587441691552e-04 2.908977413262e+00 3.106942120635e+00  1.578451439489e-04
2.000000000000e-01 0.000000000000e+00 5.043628709207e-05 1.000000000000e+02 -1.876401898415e+00 1.300948476193e-02 -1.874607564388e+00 -4.980066562663e+00 -9.808999327960e-07 1.319875179427e-06 -8.893150587334e-07 -1.587815838770e-04 2.910358675155e+00 3.104643992301e+00  1.578630501678e-04
3.000000000000e-01 0.000000000000e+00 5.081006082469e-05 1.000000000000e+02 -1.878509337008e+00 1.299307103241e-02 -1.876770361266e+00 -4.979915948001e+00 -9.991371450877e-07 1.316293417827e-06 -9.099372164600e-07 -1.588185255299e-04 2.911731882092e+00 3.102358090436e+00  1.578804695650e-04
4.000000000000e-01 0.000000000000e+00 5.118364587956e-05 1.000000000000e+02 -1.880604710505e+00 1.297694472092e-02 -1.878921237095e+00 -4.979765456255e+00 -1.017382862777e-06 1.312715159106e-06 -9.305806324912e-07 -1.588549983357e-04 2.913097134619e+00 3.100084308543e+00  1.578974056567e-04
5.000000000000e-01 0.000000000000e+00 5.155705013484e-05 1.000000000000e+02 -1.882688151012e+00 1.296109152841e-02 -1.881060327203e+00 -4.979615115553e+00 -1.035637642443e-06 1.309138911810e-06 -9.512460129353e-07 -1.588910064700e-04 2.914454531256e+00 3.097822540857e+00  1.579138619485e-04
6.000000000000e-01 0.000000000000e+00 5.193028086241e-05 1.000000000000e+02 -1.884759788534e+00 1.294549787616e-02 -1.883187764607e+00 -4.979464952547e+00 -1.053902014309e-06 1.305563263295e-06 -9.719340276316e-07 -1.589265540627e-04 2.915804168563e+00 3.095572682355e+00  1.579298419340e-04
7.000000000000e-01 0.000000000000e+00 5.230334479720e-05 1.000000000000e+02 -1.886819751026e+00 1.293015086574e-02 -1.885303680078e+00 -4.979314992487e+00 -1.072176483434e-06 1.301986875481e-06 -9.926453118081e-07 -1.589616451988e-04 2.917146141197e+00 3.093334628767e+00  1.579453490937e-04
8.000000000000e-01 0.000000000000e+00 5.267624819634e-05 1.000000000000e+02 -1.888868164443e+00 1.291503824159e-02 -1.887408202203e+00 -4.979165259285e+00 -1.090461530841e-06 1.298408480855e-06 -1.013380467647e-06 -1.589962839186e-04 2.918480541977e+00 3.091108276588e+00  1.579603868946e-04
9.000000000000e-01 0.000000000000e+00 5.304899688975e-05 1.000000000000e+02 -1.890905152791e+00 1.290014835577e-02 -1.889501457436e+00 -4.979015775578e+00 -1.108757614590e-06 1.294826878728e-06 -1.034140065769e-06 -1.590304742185e-04 2.919807461935e+00 3.088893523084e+00  1.579749587885e-04
1.000000000000e+00 0.000000000000e+00 5.342159632383e-05 1.000000000000e+02 -1.892930838171e+00 1.288547013508e-02 -1.891583570157e+00 -4.978866562786e+00 -1.127065170785e-06 1.291240931712e-06 -1.054924646628e-06 -1.590642200511e-04 2.921126990371e+00 3.086690266305e+00  1.579890682120e-04
1.100000000000e+00 0.000000000000e+00 5.379405159929e-05 1.000000000000e+02 -1.894945340822e+00 1.287099304999e-02 -1.893654662722e+00 -4.978717641169e+00 -1.145384614533e-06 1.287649562405e-06 -1.075734721846e-06 -1.590975253263e-04 2.922439214904e+00 3.084498405089e+00  1.580027185854e-04
1.200000000000e+00 0.000000000000e+00 5.416636750401e-05 1.000000000000e+02 -1.896948779168e+00 1.285670708560e-02 -1.895714855513e+00 -4.978569029883e+00 -1.163716340853e-06 1.284051750281e-06 -1.096570775467e-06 -1.591303939117e-04 2.923744221521e+00 3.082317839071e+00  1.580159133121e-04
1.300000000000e+00 0.000000000000e+00 5.453854854189e-05 1.000000000000e+02 -1.898941269852e+00 1.284260271424e-02 -1.897764266985e+00 -4.978420747025e+00 -1.182060725536e-06 1.280446528752e-06 -1.117433265150e-06 -1.591628296324e-04 2.925042094621e+00 3.080148468690e+00  1.580286557778e-04
1.400000000000e+00 0.000000000000e+00 5.491059895815e-05 1.000000000000e+02 -1.900922927778e+00 1.282867086973e-02 -1.899803013713e+00 -4.978272809686e+00 -1.200418125962e-06 1.276832982401e-06 -1.138322623299e-06 -1.591948362724e-04 2.926332917059e+00 3.077990195191e+00  1.580409493501e-04
1.500000000000e+00 0.000000000000e+00 5.528252276159e-05 1.000000000000e+02 -1.902893866150e+00 1.281490292316e-02 -1.901831210433e+00 -4.978125233997e+00 -1.218788881880e-06 1.273210244380e-06 -1.159239258142e-06 -1.592264175746e-04 2.927616770193e+00 3.075842920637e+00  1.580527973782e-04
1.600000000000e+00 0.000000000000e+00 5.565432374437e-05 1.000000000000e+02 -1.904854196503e+00 1.280129066005e-02 -1.903848970085e+00 -4.977978035168e+00 -1.237173316139e-06 1.269577493949e-06 -1.180183554748e-06 -1.592575772414e-04 2.928893733919e+00 3.073706547907e+00  1.580642031919e-04
1.700000000000e+00 0.000000000000e+00 5.602600549962e-05 1.000000000000e+02 -1.906804028742e+00 1.278782625885e-02 -1.905856403853e+00 -4.977831227535e+00 -1.255571735395e-06 1.265933954151e-06 -1.201155876000e-06 -1.592883189350e-04 2.930163886710e+00 3.071580980705e+00  1.580751701015e-04
1.800000000000e+00 0.000000000000e+00 5.639757143701e-05 1.000000000000e+02 -1.908743471171e+00 1.277450227067e-02 -1.907853621203e+00 -4.977684824596e+00 -1.273984430775e-06 1.262278889626e-06 -1.222156563518e-06 -1.593186462780e-04 2.931427305657e+00 3.069466123560e+00  1.580857013972e-04
1.900000000000e+00 0.000000000000e+00 5.676902479687e-05 1.000000000000e+02 -1.910672630529e+00 1.276131160011e-02 -1.909840729922e+00 -4.977538839050e+00 -1.292411678514e-06 1.258611604533e-06 -1.243185938538e-06 -1.593485628538e-04 2.932684066500e+00 3.067361881831e+00  1.580958003491e-04
2.000000000000e+00 0.000000000000e+00 5.714036866272e-05 1.000000000000e+02 -1.912591612017e+00 1.274824748724e-02 -1.911817836148e+00 -4.977393282834e+00 -1.310853740559e-06 1.254931440593e-06 -1.264244302748e-06 -1.593780722071e-04 2.933934243666e+00 3.065268161709e+00  1.581054702062e-04
2.100000000000e+00 0.000000000000e+00 5.751160597263e-05 1.000000000000e+02 -1.914500519330e+00 1.273530349053e-02 -1.913785044413e+00 -4.977248167155e+00 -1.329310865143e-06 1.251237775237e-06 -1.285331939091e-06 -1.594071778443e-04 2.935177910299e+00 3.063184870221e+00  1.581147141969e-04
2.200000000000e+00 0.000000000000e+00 5.788273952945e-05 1.000000000000e+02 -1.916399454683e+00 1.272247347074e-02 -1.915742457668e+00 -4.977103502526e+00 -1.347783287341e-06 1.247530019849e-06 -1.306449112519e-06 -1.594358832339e-04 2.936415138292e+00 3.061111915226e+00  1.581235355279e-04
2.300000000000e+00 0.000000000000e+00 5.825377201009e-05 1.000000000000e+02 -1.918288518842e+00 1.270975157568e-02 -1.917690177320e+00 -4.976959298792e+00 -1.366271229585e-06 1.243807618107e-06 -1.327596070725e-06 -1.594641918069e-04 2.937645998318e+00 3.059049205425e+00  1.581319373845e-04
2.400000000000e+00 0.000000000000e+00 5.862470597393e-05 1.000000000000e+02 -1.920167811149e+00 1.269713222586e-02 -1.919628303260e+00 -4.976815565166e+00 -1.384774902174e-06 1.240070044408e-06 -1.348773044835e-06 -1.594921069572e-04 2.938870559858e+00 3.056996650354e+00  1.581399229304e-04
2.500000000000e+00 0.000000000000e+00 5.899554387051e-05 1.000000000000e+02 -1.922037429548e+00 1.268461010079e-02 -1.921556933895e+00 -4.976672310252e+00 -1.403294503744e-06 1.236316802376e-06 -1.369980250066e-06 -1.595196320422e-04 2.940088891232e+00 3.054954160388e+00  1.581474953071e-04
2.600000000000e+00 0.000000000000e+00 5.936628804650e-05 1.000000000000e+02 -1.923897470610e+00 1.267218012616e-02 -1.923476166174e+00 -4.976529542078e+00 -1.421830221728e-06 1.232547423449e-06 -1.391217886364e-06 -1.595467703830e-04 2.941301059620e+00 3.052921646740e+00  1.581546576338e-04
2.700000000000e+00 0.000000000000e+00 5.973694075212e-05 1.000000000000e+02 -1.925748029557e+00 1.265983746159e-02 -1.925386095618e+00 -4.976387268115e+00 -1.440382232793e-06 1.228761465536e-06 -1.412486139005e-06 -1.595735252647e-04 2.942507131097e+00 3.050899021462e+00  1.581614130076e-04
2.800000000000e+00 0.000000000000e+00 6.010750414698e-05 1.000000000000e+02 -1.927589200286e+00 1.264757748910e-02 -1.927286816349e+00 -4.976245495309e+00 -1.458950703254e-06 1.224958511743e-06 -1.433785179176e-06 -1.595998999373e-04 2.943707170648e+00 3.048886197444e+00  1.581677645031e-04
2.900000000000e+00 0.000000000000e+00 6.047798030548e-05 1.000000000000e+02 -1.929421075394e+00 1.263539580214e-02 -1.929178421111e+00 -4.976104230099e+00 -1.477535789477e-06 1.221138169165e-06 -1.455115164529e-06 -1.596258976155e-04 2.944901242201e+00 3.046883088410e+00  1.581737151721e-04
3.000000000000e+00 0.000000000000e+00 6.084837122175e-05 1.000000000000e+02 -1.931243746197e+00 1.262328819522e-02 -1.931061001300e+00 -4.975963478442e+00 -1.496137638258e-06 1.217300067739e-06 -1.476476239709e-06 -1.596515214793e-04 2.946089408646e+00 3.044889608923e+00  1.581792680438e-04
3.100000000000e+00 0.000000000000e+00 6.121867881424e-05 1.000000000000e+02 -1.933057302753e+00 1.261125065407e-02 -1.932934646986e+00 -4.975823245836e+00 -1.514756387190e-06 1.213443859150e-06 -1.497868536861e-06 -1.596767746745e-04 2.947271731858e+00 3.042905674376e+00  1.581844261247e-04
3.200000000000e+00 0.000000000000e+00 6.158890492994e-05 1.000000000000e+02 -1.934861833884e+00 1.259927934629e-02 -1.934799446940e+00 -4.975683537339e+00 -1.533392165015e-06 1.209569215795e-06 -1.519292176123e-06 -1.597016603131e-04 2.948448272721e+00 3.040931200995e+00  1.581891923984e-04
3.300000000000e+00 0.000000000000e+00 6.195905134825e-05 1.000000000000e+02 -1.936657427196e+00 1.258737061252e-02 -1.936655488652e+00 -4.975544357589e+00 -1.552045091955e-06 1.205675829800e-06 -1.540747266083e-06 -1.597261814732e-04 2.949619091145e+00 3.038966105837e+00  1.581935698253e-04
3.400000000000e+00 0.000000000000e+00 6.232911978464e-05 1.000000000000e+02 -1.938444169098e+00 1.257552095804e-02 -1.938502858359e+00 -4.975405710824e+00 -1.570715280041e-06 1.201763412080e-06 -1.562233904236e-06 -1.597503412001e-04 2.950784246094e+00 3.037010306785e+00  1.581975613431e-04
3.500000000000e+00 0.000000000000e+00 6.269911189398e-05 1.000000000000e+02 -1.940222144823e+00 1.256372704477e-02 -1.940341641067e+00 -4.975267600899e+00 -1.589402833415e-06 1.197831691448e-06 -1.583752177406e-06 -1.597741425061e-04 2.951943795596e+00 3.035063722545e+00  1.582011698663e-04
3.600000000000e+00 0.000000000000e+00 6.306902927369e-05 1.000000000000e+02 -1.941991438447e+00 1.255198568371e-02 -1.942171920567e+00 -4.975130031305e+00 -1.608107848632e-06 1.193880413766e-06 -1.605302162162e-06 -1.597975883711e-04 2.953097796773e+00 3.033126272645e+00  1.582043982867e-04
3.700000000000e+00 0.000000000000e+00 6.343887346663e-05 1.000000000000e+02 -1.943752132907e+00 1.254029382776e-02 -1.943993779461e+00 -4.974993005185e+00 -1.626830414941e-06 1.189909341137e-06 -1.626883925213e-06 -1.598206817428e-04 2.954246305851e+00 3.031197877433e+00  1.582072494726e-04
3.800000000000e+00 0.000000000000e+00 6.380864596380e-05 1.000000000000e+02 -1.945504310018e+00 1.252864856488e-02 -1.945807299182e+00 -4.974856525348e+00 -1.645570614559e-06 1.185918251136e-06 -1.648497523787e-06 -1.598434255373e-04 2.955389378183e+00 3.029278458071e+00  1.582097262695e-04
3.900000000000e+00 0.000000000000e+00 6.417834820691e-05 1.000000000000e+02 -1.947248050495e+00 1.251704711160e-02 -1.947612560012e+00 -4.974720594287e+00 -1.664328522934e-06 1.181906936081e-06 -1.670143005997e-06 -1.598658226393e-04 2.956527068264e+00 3.027367936530e+00  1.582118314999e-04
4.000000000000e+00 0.000000000000e+00 6.454798159071e-05 1.000000000000e+02 -1.948983433963e+00 1.250548680686e-02 -1.949409641102e+00 -4.974585214193e+00 -1.683104208996e-06 1.177875202328e-06 -1.691820411191e-06 -1.598878759022e-04 2.957659429753e+00 3.025466235592e+00  1.582135679632e-04
4.100000000000e+00 0.000000000000e+00 6.491754746522e-05 1.000000000000e+02 -1.950710538984e+00 1.249396510612e-02 -1.951198620492e+00 -4.974450386970e+00 -1.701897735402e-06 1.173822869614e-06 -1.713529770293e-06 -1.599095881489e-04 2.958786515482e+00 3.023573278839e+00  1.582149384360e-04
4.200000000000e+00 0.000000000000e+00 6.528704713780e-05 1.000000000000e+02 -1.952429443064e+00 1.248247957583e-02 -1.952979575128e+00 -4.974316114244e+00 -1.720709158765e-06 1.169749770418e-06 -1.735271106123e-06 -1.599309621719e-04 2.959908377479e+00 3.021688990654e+00  1.582159456716e-04
4.300000000000e+00 0.000000000000e+00 6.565648187513e-05 1.000000000000e+02 -1.954140222675e+00 1.247102788810e-02 -1.954752580883e+00 -4.974182397383e+00 -1.739538529882e-06 1.165655749361e-06 -1.757044433712e-06 -1.599520007337e-04 2.961025066980e+00 3.019813296215e+00  1.582165924007e-04
4.400000000000e+00 0.000000000000e+00 6.602585290497e-05 1.000000000000e+02 -1.955842953268e+00 1.245960781565e-02 -1.956517712569e+00 -4.974049237502e+00 -1.758385893946e-06 1.161540662627e-06 -1.778849760602e-06 -1.599727065669e-04 2.962136634446e+00 3.017946121488e+00  1.582168813311e-04
4.500000000000e+00 0.000000000000e+00 6.639516141797e-05 1.000000000000e+02 -1.957537709292e+00 1.244821722705e-02 -1.958275043962e+00 -4.973916635481e+00 -1.777251290759e-06 1.157404377418e-06 -1.800687087136e-06 -1.599930823748e-04 2.963243129579e+00 3.016087393228e+00  1.582168151479e-04
4.600000000000e+00 0.000000000000e+00 6.676440856922e-05 1.000000000000e+02 -1.959224564207e+00 1.243685408214e-02 -1.960024647813e+00 -4.973784591972e+00 -1.796134754925e-06 1.153246771427e-06 -1.822556406735e-06 -1.600131308318e-04 2.964344601331e+00 3.014237038969e+00  1.582163965133e-04
4.700000000000e+00 0.000000000000e+00 6.713359547980e-05 1.000000000000e+02 -1.960903590497e+00 1.242551642767e-02 -1.961766595866e+00 -4.973653107412e+00 -1.815036316049e-06 1.149067732339e-06 -1.844457706170e-06 -1.600328545832e-04 2.965441097925e+00 3.012394987019e+00  1.582156280671e-04
4.800000000000e+00 0.000000000000e+00 6.750272323823e-05 1.000000000000e+02 -1.962574859688e+00 1.241420239321e-02 -1.963500958876e+00 -4.973522182035e+00 -1.833955998917e-06 1.144867157359e-06 -1.866390965816e-06 -1.600522562463e-04 2.966532666866e+00 3.010561166460e+00  1.582145124263e-04
4.900000000000e+00 0.000000000000e+00 6.787179290181e-05 1.000000000000e+02 -1.964238442363e+00 1.240291018719e-02 -1.965227806623e+00 -4.973391815876e+00 -1.852893823678e-06 1.140644952751e-06 -1.888356159903e-06 -1.600713384099e-04 2.967619354954e+00 3.008735507137e+00  1.582130521857e-04
5.000000000000e+00 0.000000000000e+00 6.824080549793e-05 1.000000000000e+02 -1.965894408173e+00 1.239163809316e-02 -1.966947207927e+00 -4.973262008788e+00 -1.871849806015e-06 1.136401033409e-06 -1.910353256759e-06 -1.600901036352e-04 2.968701208296e+00 3.006917939657e+00  1.582112499175e-04
5.100000000000e+00 0.000000000000e+00 6.860976202526e-05 1.000000000000e+02 -1.967542825853e+00 1.238038446626e-02 -1.968659230668e+00 -4.973132760446e+00 -1.890823957312e-06 1.132135322443e-06 -1.932382219038e-06 -1.601085544559e-04 2.969778272323e+00 3.005108395378e+00  1.582091081718e-04
5.200000000000e+00 0.000000000000e+00 6.897866345490e-05 1.000000000000e+02 -1.969183763234e+00 1.236914772979e-02 -1.970363941794e+00 -4.973004070359e+00 -1.909816284811e-06 1.127847750780e-06 -1.954443003944e-06 -1.601266933784e-04 2.970850591796e+00 3.003306806412e+00  1.582066294764e-04
5.300000000000e+00 0.000000000000e+00 6.934751073149e-05 1.000000000000e+02 -1.970817287260e+00 1.235792637199e-02 -1.972061407339e+00 -4.972875937875e+00 -1.928826791772e-06 1.123538256792e-06 -1.976535563449e-06 -1.601445228823e-04 2.971918210825e+00 3.001513105611e+00  1.582038163372e-04
5.400000000000e+00 0.000000000000e+00 6.971630477424e-05 1.000000000000e+02 -1.972443463995e+00 1.234671894299e-02 -1.973751692442e+00 -4.972748362192e+00 -1.947855477615e-06 1.119206785932e-06 -1.998659844497e-06 -1.601620454207e-04 2.972981172876e+00 2.999727226565e+00  1.582006712380e-04
5.500000000000e+00 0.000000000000e+00 7.008504647787e-05 1.000000000000e+02 -1.974062358643e+00 1.233552405187e-02 -1.975434861351e+00 -4.972621342365e+00 -1.966902338069e-06 1.114853290394e-06 -2.020815789206e-06 -1.601792634201e-04 2.974039520786e+00 2.997949103597e+00  1.581971966408e-04
5.600000000000e+00 0.000000000000e+00 7.045373671361e-05 1.000000000000e+02 -1.975674035556e+00 1.232434036385e-02 -1.977110977445e+00 -4.972494877313e+00 -1.985967365308e-06 1.110477728781e-06 -2.043003335065e-06 -1.601961792814e-04 2.975093296771e+00 2.996178671756e+00  1.581933949858e-04
5.700000000000e+00 0.000000000000e+00 7.082237633001e-05 1.000000000000e+02 -1.977278558248e+00 1.231316659768e-02 -1.978780103246e+00 -4.972368965827e+00 -2.005050548085e-06 1.106080065795e-06 -2.065222415115e-06 -1.602127953795e-04 2.976142542440e+00 2.994415866810e+00  1.581892686918e-04
5.800000000000e+00 0.000000000000e+00 7.119096615384e-05 1.000000000000e+02 -1.978875989407e+00 1.230200152309e-02 -1.980442300430e+00 -4.972243606574e+00 -2.024151871864e-06 1.101660271935e-06 -2.087472958134e-06 -1.602291140640e-04 2.977187298804e+00 2.992660625241e+00  1.581848201560e-04
5.900000000000e+00 0.000000000000e+00 7.155950699086e-05 1.000000000000e+02 -1.980466390907e+00 1.229084395837e-02 -1.982097629842e+00 -4.972118798109e+00 -2.043271318939e-06 1.097218323215e-06 -2.109754888808e-06 -1.602451376592e-04 2.978227606286e+00 2.990912884239e+00  1.581800517541e-04
6.000000000000e+00 0.000000000000e+00 7.192799962657e-05 1.000000000000e+02 -1.982049823820e+00 1.227969276809e-02 -1.983746151508e+00 -4.971994538874e+00 -2.062408868561e-06 1.092754200886e-06 -2.132068127901e-06 -1.602608684649e-04 2.979263504734e+00 2.989172581696e+00  1.581749658409e-04
6.100000000000e+00 0.000000000000e+00 7.229644482699e-05 1.000000000000e+02 -1.983626348430e+00 1.226854686094e-02 -1.985387924649e+00 -4.971870827212e+00 -2.081564497051e-06 1.088267891181e-06 -2.154412592417e-06 -1.602763087559e-04 2.980295033430e+00 2.987439656200e+00  1.581695647498e-04
6.200000000000e+00 0.000000000000e+00 7.266484333927e-05 1.000000000000e+02 -1.985196024239e+00 1.225740518760e-02 -1.987023007690e+00 -4.971747661365e+00 -2.100738177911e-06 1.083759385061e-06 -2.176788195758e-06 -1.602914607830e-04 2.981322231098e+00 2.985714047027e+00  1.581638507936e-04
6.300000000000e+00 0.000000000000e+00 7.303319589242e-05 1.000000000000e+02 -1.986758909985e+00 1.224626673879e-02 -1.988651458278e+00 -4.971625039486e+00 -2.119929881937e-06 1.079228677982e-06 -2.199194847871e-06 -1.603063267728e-04 2.982345135916e+00 2.983995694137e+00  1.581578262638e-04
6.400000000000e+00 0.000000000000e+00 7.340150319792e-05 1.000000000000e+02 -1.988315063646e+00 1.223513054342e-02 -1.990273333289e+00 -4.971502959639e+00 -2.139139577318e-06 1.074675769664e-06 -2.221632455402e-06 -1.603209089282e-04 2.983363785525e+00 2.982284538166e+00  1.581514934317e-04
6.500000000000e+00 0.000000000000e+00 7.376976595029e-05 1.000000000000e+02 -1.989864542458e+00 1.222399566670e-02 -1.991888688840e+00 -4.971381419809e+00 -2.158367229746e-06 1.070100663878e-06 -2.244100921830e-06 -1.603352094288e-04 2.984378217036e+00 2.980580520420e+00  1.581448545478e-04
6.600000000000e+00 0.000000000000e+00 7.413798482770e-05 1.000000000000e+02 -1.991407402921e+00 1.221286120852e-02 -1.993497580304e+00 -4.971260417903e+00 -2.177612802505e-06 1.065503368235e-06 -2.266600147610e-06 -1.603492304307e-04 2.985388467043e+00 2.978883582871e+00  1.581379118422e-04
6.700000000000e+00 0.000000000000e+00 7.450616049253e-05 1.000000000000e+02 -1.992943700813e+00 1.220172630177e-02 -1.995100062319e+00 -4.971139951756e+00 -2.196876256571e-06 1.060883893990e-06 -2.289130030300e-06 -1.603629740671e-04 2.986394571629e+00 2.977193668146e+00  1.581306675249e-04
6.800000000000e+00 0.000000000000e+00 7.487429359183e-05 1.000000000000e+02 -1.994473491195e+00 1.219059011081e-02 -1.996696188798e+00 -4.971020019136e+00 -2.216157550704e-06 1.056242255856e-06 -2.311690464693e-06 -1.603764424486e-04 2.987396566376e+00 2.975510719525e+00  1.581231237856e-04
6.900000000000e+00 0.000000000000e+00 7.524238475791e-05 1.000000000000e+02 -1.995996828429e+00 1.217945182997e-02 -1.998286012944e+00 -4.970900617746e+00 -2.235456641534e-06 1.051578471818e-06 -2.334281342936e-06 -1.603896376633e-04 2.988394486373e+00 2.973834680931e+00  1.581152827943e-04
7.000000000000e+00 0.000000000000e+00 7.561043460874e-05 1.000000000000e+02 -1.997513766181e+00 1.216831068217e-02 -1.999869587257e+00 -4.970781745232e+00 -2.254773483649e-06 1.046892562965e-06 -2.356902554656e-06 -1.604025617772e-04 2.989388366223e+00 2.972165496927e+00  1.581071467009e-04
7.100000000000e+00 0.000000000000e+00 7.597844374848e-05 1.000000000000e+02 -1.999024357437e+00 1.215716591757e-02 -2.001446963546e+00 -4.970663399183e+00 -2.274108029676e-06 1.042184553325e-06 -2.379553987066e-06 -1.604152168343e-04 2.990378240055e+00 2.970503112708e+00  1.580987176359e-04
7.200000000000e+00 0.000000000000e+00 7.634641276787e-05 1.000000000000e+02 -2.000528654508e+00 1.214601681228e-02 -2.003018192938e+00 -4.970545577139e+00 -2.293460230364e-06 1.037454469706e-06 -2.402235525087e-06 -1.604276048569e-04 2.991364141528e+00 2.968847474092e+00  1.580899977101e-04
7.300000000000e+00 0.000000000000e+00 7.671434224468e-05 1.000000000000e+02 -2.002026709040e+00 1.213486266717e-02 -2.004583325894e+00 -4.970428276588e+00 -2.312830034659e-06 1.032702341547e-06 -2.424947051449e-06 -1.604397278459e-04 2.992346103841e+00 2.967198527518e+00  1.580809890150e-04
7.400000000000e+00 0.000000000000e+00 7.708223274411e-05 1.000000000000e+02 -2.003518572030e+00 1.212370280668e-02 -2.006142412211e+00 -4.970311494976e+00 -2.332217389779e-06 1.027928200777e-06 -2.447688446795e-06 -1.604515877810e-04 2.993324159739e+00 2.965556220038e+00  1.580716936229e-04
7.500000000000e+00 0.000000000000e+00 7.745008481918e-05 1.000000000000e+02 -2.005004293826e+00 1.211253657777e-02 -2.007695501037e+00 -4.970195229707e+00 -2.351622241290e-06 1.023132081674e-06 -2.470459589789e-06 -1.604631866210e-04 2.994298341523e+00 2.963920499309e+00  1.580621135870e-04
7.600000000000e+00 0.000000000000e+00 7.781789901109e-05 1.000000000000e+02 -2.006483924143e+00 1.210136334882e-02 -2.009242640880e+00 -4.970079478147e+00 -2.371044533173e-06 1.018314020739e-06 -2.493260357204e-06 -1.604745263039e-04 2.995268681056e+00 2.962291313588e+00  1.580522509418e-04
7.700000000000e+00 0.000000000000e+00 7.818567584962e-05 1.000000000000e+02 -2.007957512069e+00 1.209018250866e-02 -2.010783879618e+00 -4.969964237626e+00 -2.390484207894e-06 1.013474056567e-06 -2.516090624025e-06 -1.604856087474e-04 2.996235209771e+00 2.960668611724e+00  1.580421077028e-04
7.800000000000e+00 0.000000000000e+00 7.855341585342e-05 1.000000000000e+02 -2.009425106076e+00 1.207899346561e-02 -2.012319264506e+00 -4.969849505443e+00 -2.409941206466e-06 1.008612229733e-06 -2.538950263532e-06 -1.604964358489e-04 2.997197958675e+00 2.959052343156e+00  1.580316858669e-04
7.900000000000e+00 0.000000000000e+00 7.892111953039e-05 1.000000000000e+02 -2.010886754028e+00 1.206779564660e-02 -2.013848842190e+00 -4.969735278866e+00 -2.429415468520e-06 1.003728582675e-06 -2.561839147396e-06 -1.605070094856e-04 2.998156958361e+00 2.957442457900e+00  1.580209874128e-04
8.000000000000e+00 0.000000000000e+00 7.928878737797e-05 1.000000000000e+02 -2.012342503188e+00 1.205658849629e-02 -2.015372658709e+00 -4.969621555137e+00 -2.448906932358e-06 9.988231595856e-07 -2.584757145761e-06 -1.605173315153e-04 2.999112239011e+00 2.955838906549e+00  1.580100143007e-04
8.100000000000e+00 0.000000000000e+00 7.965641988344e-05 1.000000000000e+02 -2.013792400229e+00 1.204537147624e-02 -2.016890759514e+00 -4.969508331473e+00 -2.468415535022e-06 9.938960063113e-07 -2.607704127324e-06 -1.605274037760e-04 3.000063830405e+00 2.954241640263e+00  1.579987684728e-04
8.200000000000e+00 0.000000000000e+00 8.002401752427e-05 1.000000000000e+02 -2.015236491241e+00 1.203414406416e-02 -2.018403189467e+00 -4.969395605068e+00 -2.487941212342e-06 9.889471702518e-07 -2.630679959418e-06 -1.605372280865e-04 3.001011761925e+00 2.952650610761e+00  1.579872518532e-04
8.300000000000e+00 0.000000000000e+00 8.039158076832e-05 1.000000000000e+02 -2.016674821742e+00 1.202290575317e-02 -2.019909992855e+00 -4.969283373097e+00 -2.507483899001e-06 9.839767002669e-07 -2.653684508091e-06 -1.605468062465e-04 3.001956062565e+00 2.951065770321e+00  1.579754663482e-04
8.400000000000e+00 0.000000000000e+00 8.075911007418e-05 1.000000000000e+02 -2.018107436682e+00 1.201165605107e-02 -2.021411213399e+00 -4.969171632718e+00 -2.527043528581e-06 9.789846465865e-07 -2.676717638174e-06 -1.605561400367e-04 3.002896760933e+00 2.949487071768e+00  1.579634138465e-04
8.500000000000e+00 0.000000000000e+00 8.112660589142e-05 1.000000000000e+02 -2.019534380454e+00 1.200039447970e-02 -2.022906894261e+00 -4.969060381071e+00 -2.546620033622e-06 9.739710607252e-07 -2.699779213361e-06 -1.605652312195e-04 3.003833885262e+00 2.947914468469e+00  1.579510962192e-04
8.600000000000e+00 0.000000000000e+00 8.149406866081e-05 1.000000000000e+02 -2.020955696900e+00 1.198912057427e-02 -2.024397078051e+00 -4.968949615286e+00 -2.566213345669e-06 9.689359954009e-07 -2.722869096274e-06 -1.605740815384e-04 3.004767463413e+00 2.946347914330e+00  1.579385153202e-04
8.700000000000e+00 0.000000000000e+00 8.186149881461e-05 1.000000000000e+02 -2.022371429324e+00 1.197783388282e-02 -2.025881806839e+00 -4.968839332478e+00 -2.585823395323e-06 9.638795044569e-07 -2.745987148530e-06 -1.605826927192e-04 3.005697522880e+00 2.944787363784e+00  1.579256729860e-04
8.800000000000e+00 0.000000000000e+00 8.222889677678e-05 1.000000000000e+02 -2.023781620492e+00 1.196653396557e-02 -2.027361122160e+00 -4.968729529753e+00 -2.605450112287e-06 9.588016427878e-07 -2.769133230809e-06 -1.605910664692e-04 3.006624090802e+00 2.943232771791e+00  1.579125710361e-04
8.900000000000e+00 0.000000000000e+00 8.259626296320e-05 1.000000000000e+02 -2.025186312645e+00 1.195522039441e-02 -2.028835065022e+00 -4.968620204210e+00 -2.625093425412e-06 9.537024662692e-07 -2.792307202919e-06 -1.605992044782e-04 3.007547193959e+00 2.941684093828e+00  1.578992112732e-04
9.000000000000e+00 0.000000000000e+00 8.296359778192e-05 1.000000000000e+02 -2.026585547504e+00 1.194389275240e-02 -2.030303675916e+00 -4.968511352939e+00 -2.644753262744e-06 9.485820316900e-07 -2.815508923849e-06 -1.606071084184e-04 3.008466858786e+00 2.940141285884e+00  1.578855954831e-04
9.100000000000e+00 0.000000000000e+00 8.333090163335e-05 1.000000000000e+02 -2.027979366281e+00 1.193255063324e-02 -2.031766994821e+00 -4.968402973027e+00 -2.664429551565e-06 9.434403966890e-07 -2.838738251837e-06 -1.606147799446e-04 3.009383111377e+00 2.938604304454e+00  1.578717254351e-04
9.200000000000e+00 0.000000000000e+00 8.369817491044e-05 1.000000000000e+02 -2.029367809682e+00 1.192119364082e-02 -2.033225061216e+00 -4.968295061557e+00 -2.684122218435e-06 9.382776196929e-07 -2.861995044422e-06 -1.606222206943e-04 3.010295977485e+00 2.937073106534e+00  1.578576028821e-04
9.300000000000e+00 0.000000000000e+00 8.406541799895e-05 1.000000000000e+02 -2.030750917917e+00 1.190982138879e-02 -2.034677914082e+00 -4.968187615609e+00 -2.703831189230e-06 9.330937598591e-07 -2.885279158501e-06 -1.606294322883e-04 3.011205482536e+00 2.935547649611e+00  1.578432295606e-04
9.400000000000e+00 0.000000000000e+00 8.443263127755e-05 1.000000000000e+02 -2.032128730703e+00 1.189843350012e-02 -2.036125591913e+00 -4.968080632264e+00 -2.723556389188e-06 9.278888770202e-07 -2.908590450380e-06 -1.606364163302e-04 3.012111651627e+00 2.934027891665e+00  1.578286071911e-04
9.500000000000e+00 0.000000000000e+00 8.479981511809e-05 1.000000000000e+02 -2.033501287280e+00 1.188702960670e-02 -2.037568132721e+00 -4.967974108601e+00 -2.743297742941e-06 9.226630316307e-07 -2.931928775829e-06 -1.606431744075e-04 3.013014509534e+00 2.932513791154e+00  1.578137374779e-04
9.600000000000e+00 0.000000000000e+00 8.516696988569e-05 1.000000000000e+02 -2.034868626406e+00 1.187560934895e-02 -2.039005574047e+00 -4.967868041703e+00 -2.763055174550e-06 9.174162847177e-07 -2.955293990131e-06 -1.606497080910e-04 3.013914080718e+00 2.931005307015e+00  1.577986221096e-04
9.700000000000e+00 0.000000000000e+00 8.553409593901e-05 1.000000000000e+02 -2.036230786374e+00 1.186417237551e-02 -2.040437952962e+00 -4.967762428654e+00 -2.782828607549e-06 9.121486978332e-07 -2.978685948127e-06 -1.606560189353e-04 3.014810389330e+00 2.929502398654e+00  1.577832627591e-04
9.800000000000e+00 0.000000000000e+00 8.590119363031e-05 1.000000000000e+02 -2.037587805012e+00 1.185271834283e-02 -2.041865306081e+00 -4.967657266544e+00 -2.802617964970e-06 9.068603330083e-07 -3.002104504266e-06 -1.606621084793e-04 3.015703459212e+00 2.928005025945e+00  1.577676610838e-04
9.900000000000e+00 0.000000000000e+00 8.626826330572e-05 1.000000000000e+02 -2.038939719695e+00 1.184124691491e-02 -2.043287669564e+00 -4.967552552465e+00 -2.822423169382e-06 9.015512527106e-07 -3.025549512649e-06 -1.606679782457e-04 3.016593313908e+00 2.926513149217e+00  1.577518187256e-04
1.000000000000e+01 0.000000000000e+00 8.663530530528e-05 1.000000000000e+02 -2.040286567345e+00 1.182975776293e-02 -2.044705079124e+00 -4.967448283520e+00 -2.842244142921e-06 8.962215198027e-07 -3.049020827072e-06 -1.606736297418e-04 3.017479976663e+00 2.925026729257e+00  1.577357373113e-04