 TITLE = "Profiles along polylines"
 VARIABLES = "DIST" "PRESSURE1" 
 ZONE T="TIME=0.000000000000e+00"
0.000000000000e+00 6.376500000000e+04 
1.000000000000e+00 6.376500000000e+04 
2.000000000000e+00 6.376500000000e+04 
3.000000000000e+00 6.376500000000e+04 
4.000000000000e+00 6.376500000000e+04 
5.000000000000e+00 6.376500000000e+04 
6.000000000000e+00 6.376500000000e+04 
7.000000000000e+00 6.376500000000e+04 
8.000000000000e+00 6.376500000000e+04 
9.000000000000e+00 6.376500000000e+04 
1.000000000000e+01 6.376500000000e+04 
1.100000000000e+01 6.376500000000e+04 
1.200000000000e+01 6.376500000000e+04 
1.300000000000e+01 6.376500000000e+04 
1.400000000000e+01 6.376500000000e+04 
1.500000000000e+01 6.376500000000e+04 
1.600000000000e+01 6.376500000000e+04 
1.700000000000e+01 6.376500000000e+04 
1.800000000000e+01 6.376500000000e+04 
1.900000000000e+01 6.376500000000e+04 
2.000000000000e+01 6.376500000000e+04 
2.100000000000e+01 6.376500000000e+04 
2.200000000000e+01 6.376500000000e+04 
2.300000000000e+01 6.376500000000e+04 
2.400000000000e+01 6.376500000000e+04 
2.500000000000e+01 6.376500000000e+04 
2.600000000000e+01 6.376500000000e+04 
2.700000000000e+01 6.376500000000e+04 
2.800000000000e+01 6.376500000000e+04 
2.900000000000e+01 6.376500000000e+04 
3.000000000000e+01 6.376500000000e+04 
3.100000000000e+01 6.376500000000e+04 
3.200000000000e+01 6.376500000000e+04 
3.300000000000e+01 6.376500000000e+04 
3.400000000000e+01 6.376500000000e+04 
3.500000000000e+01 6.376500000000e+04 
3.600000000000e+01 6.376500000000e+04 
3.700000000000e+01 6.376500000000e+04 
3.800000000000e+01 6.376500000000e+04 
3.900000000000e+01 6.376500000000e+04 
4.000000000000e+01 6.376500000000e+04 
4.100000000000e+01 6.376500000000e+04 
4.200000000000e+01 6.376500000000e+04 
4.300000000000e+01 6.376500000000e+04 
4.400000000000e+01 6.376500000000e+04 
4.500000000000e+01 6.376500000000e+04 
4.600000000000e+01 6.376500000000e+04 
4.700000000000e+01 6.376500000000e+04 
4.800000000000e+01 6.376500000000e+04 
4.900000000000e+01 6.376500000000e+04 
5.000000000000e+01 6.376500000000e+04 
5.100000000000e+01 6.376500000000e+04 
5.200000000000e+01 6.376500000000e+04 
5.300000000000e+01 6.376500000000e+04 
5.400000000000e+01 6.376500000000e+04 
5.500000000000e+01 6.376500000000e+04 
5.600000000000e+01 6.376500000000e+04 
5.700000000000e+01 6.376500000000e+04 
5.800000000000e+01 6.376500000000e+04 
5.900000000000e+01 6.376500000000e+04 
6.000000000000e+01 6.376500000000e+04 
6.100000000000e+01 6.376500000000e+04 
6.200000000000e+01 6.376500000000e+04 
6.300000000000e+01 6.376500000000e+04 
6.400000000000e+01 6.376500000000e+04 
6.500000000000e+01 6.376500000000e+04 
6.600000000000e+01 6.376500000000e+04 
6.700000000000e+01 6.376500000000e+04 
6.800000000000e+01 6.376500000000e+04 
6.900000000000e+01 6.376500000000e+04 
7.000000000000e+01 6.376500000000e+04 
7.100000000000e+01 6.376500000000e+04 
7.200000000000e+01 6.376500000000e+04 
7.300000000000e+01 6.376500000000e+04 
7.400000000000e+01 6.376500000000e+04 
7.500000000000e+01 6.376500000000e+04 
7.600000000000e+01 6.376500000000e+04 
7.700000000000e+01 6.376500000000e+04 
7.800000000000e+01 6.376500000000e+04 
7.900000000000e+01 6.376500000000e+04 
8.000000000000e+01 6.376500000000e+04 
8.100000000000e+01 6.376500000000e+04 
8.200000000000e+01 6.376500000000e+04 
8.300000000000e+01 6.376500000000e+04 
8.400000000000e+01 6.376500000000e+04 
8.500000000000e+01 6.376500000000e+04 
8.600000000000e+01 6.376500000000e+04 
8.700000000000e+01 6.376500000000e+04 
8.800000000000e+01 6.376500000000e+04 
8.900000000000e+01 6.376500000000e+04 
9.000000000000e+01 6.376500000000e+04 
9.100000000000e+01 6.376500000000e+04 
9.200000000000e+01 6.376500000000e+04 
9.300000000000e+01 6.376500000000e+04 
9.400000000000e+01 6.376500000000e+04 
9.500000000000e+01 6.376500000000e+04 
9.600000000000e+01 6.376500000000e+04 
9.700000000000e+01 6.376500000000e+04 
9.800000000000e+01 6.376500000000e+04 
9.900000000000e+01 6.376500000000e+04 
1.000000000000e+02 6.376500000000e+04 
 TITLE = "Profiles along polylines"
 VARIABLES = "DIST" "PRESSURE1" 
 ZONE T="TIME=1.000000000000e+00"
0.000000000000e+00 7.848000000000e+04 
1.000000000000e+00 7.823759465589e+04 
2.000000000000e+00 7.799501842096e+04 
3.000000000000e+00 7.775211208432e+04 
4.000000000000e+00 7.750873683765e+04 
5.000000000000e+00 7.726477837342e+04 
6.000000000000e+00 7.702014657367e+04 
7.000000000000e+00 7.677477253716e+04 
8.000000000000e+00 7.652860524148e+04 
9.000000000000e+00 7.628160963654e+04 
1.000000000000e+01 7.603376680783e+04 
1.100000000000e+01 7.578507558656e+04 
1.200000000000e+01 7.553555408719e+04 
1.300000000000e+01 7.528523938469e+04 
1.400000000000e+01 7.503418394030e+04 
1.500000000000e+01 7.478244828023e+04 
1.600000000000e+01 7.453009052106e+04 
1.700000000000e+01 7.427715428639e+04 
1.800000000000e+01 7.402365712845e+04 
1.900000000000e+01 7.376958167644e+04 
2.000000000000e+01 7.351487142972e+04 
2.100000000000e+01 7.325943249324e+04 
2.200000000000e+01 7.300314168925e+04 
2.300000000000e+01 7.274586044609e+04 
2.400000000000e+01 7.248745278124e+04 
2.500000000000e+01 7.222780473645e+04 
2.600000000000e+01 7.196684198174e+04 
2.700000000000e+01 7.170454216996e+04 
2.800000000000e+01 7.144093916534e+04 
2.900000000000e+01 7.117611759248e+04 
3.000000000000e+01 7.091019814553e+04 
3.100000000000e+01 7.064331630042e+04 
3.200000000000e+01 7.037559875776e+04 
3.300000000000e+01 7.010714245889e+04 
3.400000000000e+01 6.983800018040e+04 
3.500000000000e+01 6.956817491345e+04 
3.600000000000e+01 6.929762316342e+04 
3.700000000000e+01 6.902626554064e+04 
3.800000000000e+01 6.875400181642e+04 
3.900000000000e+01 6.848072702752e+04 
4.000000000000e+01 6.820634524469e+04 
4.100000000000e+01 6.793077835990e+04 
4.200000000000e+01 6.765396871718e+04 
4.300000000000e+01 6.737587637867e+04 
4.400000000000e+01 6.709647368215e+04 
4.500000000000e+01 6.681574072200e+04 
4.600000000000e+01 6.653366487301e+04 
4.700000000000e+01 6.625024547326e+04 
4.800000000000e+01 6.596550200234e+04 
4.900000000000e+01 6.567948172008e+04 
5.000000000000e+01 6.539226188618e+04 
5.100000000000e+01 6.510394287031e+04 
5.200000000000e+01 6.481463130501e+04 
5.300000000000e+01 6.452441584588e+04 
5.400000000000e+01 6.423334084683e+04 
5.500000000000e+01 6.394138452446e+04 
5.600000000000e+01 6.364844778777e+04 
5.700000000000e+01 6.335435808474e+04 
5.800000000000e+01 6.305888971586e+04 
5.900000000000e+01 6.276179849862e+04 
6.000000000000e+01 6.246286498497e+04 
6.100000000000e+01 6.216193738317e+04 
6.200000000000e+01 6.185896381139e+04 
6.300000000000e+01 6.155400447855e+04 
6.400000000000e+01 6.124721850124e+04 
6.500000000000e+01 6.093882688960e+04 
6.600000000000e+01 6.062906066555e+04 
6.700000000000e+01 6.031810797999e+04 
6.800000000000e+01 6.000607415306e+04 
6.900000000000e+01 5.969296388284e+04 
7.000000000000e+01 5.937868775508e+04 
7.100000000000e+01 5.906308844765e+04 
7.200000000000e+01 5.874597740113e+04 
7.300000000000e+01 5.842717088051e+04 
7.400000000000e+01 5.810651556292e+04 
7.500000000000e+01 5.778389821030e+04 
7.600000000000e+01 5.745924081115e+04 
7.700000000000e+01 5.713248927096e+04 
7.800000000000e+01 5.680360670211e+04 
7.900000000000e+01 5.647257911657e+04 
8.000000000000e+01 5.613943268563e+04 
8.100000000000e+01 5.580425212475e+04 
8.200000000000e+01 5.546718493092e+04 
8.300000000000e+01 5.512841962354e+04 
8.400000000000e+01 5.478813666298e+04 
8.500000000000e+01 5.444644336282e+04 
8.600000000000e+01 5.410331316928e+04 
8.700000000000e+01 5.375855176216e+04 
8.800000000000e+01 5.341180702930e+04 
8.900000000000e+01 5.306262861260e+04 
9.000000000000e+01 5.271056782432e+04 
9.100000000000e+01 5.235529363179e+04 
9.200000000000e+01 5.199668977358e+04 
9.300000000000e+01 5.163489809738e+04 
9.400000000000e+01 5.127028872744e+04 
9.500000000000e+01 5.090336691047e+04 
9.600000000000e+01 5.053465703077e+04 
9.700000000000e+01 5.016461679577e+04 
9.800000000000e+01 4.979361609996e+04 
9.900000000000e+01 4.942197254759e+04 
1.000000000000e+02 4.905000000000e+04 
 ZONE T="TIME=2.000000000000e+00"
0.000000000000e+00 7.848000000000e+04 
1.000000000000e+00 7.823759465649e+04 
2.000000000000e+00 7.799501842216e+04 
3.000000000000e+00 7.775211208612e+04 
4.000000000000e+00 7.750873684006e+04 
5.000000000000e+00 7.726477837643e+04 
6.000000000000e+00 7.702014657729e+04 
7.000000000000e+00 7.677477254139e+04 
8.000000000000e+00 7.652860524632e+04 
9.000000000000e+00 7.628160964199e+04 
1.000000000000e+01 7.603376681388e+04 
1.100000000000e+01 7.578507559321e+04 
1.200000000000e+01 7.553555409444e+04 
1.300000000000e+01 7.528523939254e+04 
1.400000000000e+01 7.503418394875e+04 
1.500000000000e+01 7.478244828929e+04 
1.600000000000e+01 7.453009053072e+04 
1.700000000000e+01 7.427715429666e+04 
1.800000000000e+01 7.402365713934e+04 
1.900000000000e+01 7.376958168795e+04 
2.000000000000e+01 7.351487144182e+04 
2.100000000000e+01 7.325943250591e+04 
2.200000000000e+01 7.300314170245e+04 
2.300000000000e+01 7.274586045975e+04 
2.400000000000e+01 7.248745279529e+04 
2.500000000000e+01 7.222780475079e+04 
2.600000000000e+01 7.196684199629e+04 
2.700000000000e+01 7.170454218467e+04 
2.800000000000e+01 7.144093918018e+04 
2.900000000000e+01 7.117611760744e+04 
3.000000000000e+01 7.091019816066e+04 
3.100000000000e+01 7.064331631579e+04 
3.200000000000e+01 7.037559877343e+04 
3.300000000000e+01 7.010714247490e+04 
3.400000000000e+01 6.983800019678e+04 
3.500000000000e+01 6.956817493018e+04 
3.600000000000e+01 6.929762318047e+04 
3.700000000000e+01 6.902626555795e+04 
3.800000000000e+01 6.875400183390e+04 
3.900000000000e+01 6.848072704507e+04 
4.000000000000e+01 6.820634526222e+04 
4.100000000000e+01 6.793077837732e+04 
4.200000000000e+01 6.765396873442e+04 
4.300000000000e+01 6.737587639565e+04 
4.400000000000e+01 6.709647369880e+04 
4.500000000000e+01 6.681574073826e+04 
4.600000000000e+01 6.653366488882e+04 
4.700000000000e+01 6.625024548859e+04 
4.800000000000e+01 6.596550201717e+04 
4.900000000000e+01 6.567948173445e+04 
5.000000000000e+01 6.539226190016e+04 
5.100000000000e+01 6.510394288399e+04 
5.200000000000e+01 6.481463131851e+04 
5.300000000000e+01 6.452441585925e+04 
5.400000000000e+01 6.423334086008e+04 
5.500000000000e+01 6.394138453750e+04 
5.600000000000e+01 6.364844780039e+04 
5.700000000000e+01 6.335435809664e+04 
5.800000000000e+01 6.305888972667e+04 
5.900000000000e+01 6.276179850798e+04 
6.000000000000e+01 6.246286499254e+04 
6.100000000000e+01 6.216193738880e+04 
6.200000000000e+01 6.185896381508e+04 
6.300000000000e+01 6.155400448052e+04 
6.400000000000e+01 6.124721850182e+04 
6.500000000000e+01 6.093882688920e+04 
6.600000000000e+01 6.062906066454e+04 
6.700000000000e+01 6.031810797865e+04 
6.800000000000e+01 6.000607415155e+04 
6.900000000000e+01 5.969296388118e+04 
7.000000000000e+01 5.937868775318e+04 
7.100000000000e+01 5.906308844535e+04 
7.200000000000e+01 5.874597739828e+04 
7.300000000000e+01 5.842717087696e+04 
7.400000000000e+01 5.810651555859e+04 
7.500000000000e+01 5.778389820514e+04 
7.600000000000e+01 5.745924080518e+04 
7.700000000000e+01 5.713248926419e+04 
7.800000000000e+01 5.680360669461e+04 
7.900000000000e+01 5.647257910841e+04 
8.000000000000e+01 5.613943267695e+04 
8.100000000000e+01 5.580425211573e+04 
8.200000000000e+01 5.546718492178e+04 
8.300000000000e+01 5.512841961449e+04 
8.400000000000e+01 5.478813665420e+04 
8.500000000000e+01 5.444644335438e+04 
8.600000000000e+01 5.410331316114e+04 
8.700000000000e+01 5.375855175418e+04 
8.800000000000e+01 5.341180702128e+04 
8.900000000000e+01 5.306262860433e+04 
9.000000000000e+01 5.271056781573e+04 
9.100000000000e+01 5.235529362296e+04 
9.200000000000e+01 5.199668976479e+04 
9.300000000000e+01 5.163489808897e+04 
9.400000000000e+01 5.127028871978e+04 
9.500000000000e+01 5.090336690384e+04 
9.600000000000e+01 5.053465702536e+04 
9.700000000000e+01 5.016461679167e+04 
9.800000000000e+01 4.979361609721e+04 
9.900000000000e+01 4.942197254622e+04 
1.000000000000e+02 4.905000000000e+04 
