<?xml version="1.0"?>
<!-- Time step: 2 | Time: 2.000000000000e+00 -->
<VTKFile type="UnstructuredGrid" version="0.1" byte_order="LittleEndian">
  <UnstructuredGrid>
    <Piece NumberOfPoints="1111" NumberOfCells="1000">
      <Points>
        <DataArray type="Float64" NumberOfComponents="3" format="ascii">
          0.000000000000e+00 0.000000000000e+00 0.000000000000e+00
          1.000000000000e+00 0.000000000000e+00 0.000000000000e+00
          1.000000000000e+00 0.000000000000e+00 1.000000000000e+00
          0.000000000000e+00 0.000000000000e+00 1.000000000000e+00
          1.000000000000e+00 0.000000000000e+00 2.000000000000e+00
          0.000000000000e+00 0.000000000000e+00 2.000000000000e+00
          1.000000000000e+00 0.000000000000e+00 3.000000000000e+00
          0.000000000000e+00 0.000000000000e+00 3.000000000000e+00
          1.000000000000e+00 0.000000000000e+00 4.000000000000e+00
          0.000000000000e+00 0.000000000000e+00 4.000000000000e+00
          1.000000000000e+00 0.000000000000e+00 5.000000000000e+00
          0.000000000000e+00 0.000000000000e+00 5.000000000000e+00
          1.000000000000e+00 0.000000000000e+00 6.000000000000e+00
          0.000000000000e+00 0.000000000000e+00 6.000000000000e+00
          1.000000000000e+00 0.000000000000e+00 7.000000000000e+00
          0.000000000000e+00 0.000000000000e+00 7.000000000000e+00
          1.000000000000e+00 0.000000000000e+00 8.000000000000e+00
          0.000000000000e+00 0.000000000000e+00 8.000000000000e+00
          1.000000000000e+00 0.000000000000e+00 9.000000000000e+00
          0.000000000000e+00 0.000000000000e+00 9.000000000000e+00
          1.000000000000e+00 0.000000000000e+00 1.000000000000e+01
          0.000000000000e+00 0.000000000000e+00 1.000000000000e+01
          2.000000000000e+00 0.000000000000e+00 0.000000000000e+00
          2.000000000000e+00 0.000000000000e+00 1.000000000000e+00
          2.000000000000e+00 0.000000000000e+00 2.000000000000e+00
          2.000000000000e+00 0.000000000000e+00 3.000000000000e+00
          2.000000000000e+00 0.000000000000e+00 4.000000000000e+00
          2.000000000000e+00 0.000000000000e+00 5.000000000000e+00
          2.000000000000e+00 0.000000000000e+00 6.000000000000e+00
          2.000000000000e+00 0.000000000000e+00 7.000000000000e+00
          2.000000000000e+00 0.000000000000e+00 8.000000000000e+00
          2.000000000000e+00 0.000000000000e+00 9.000000000000e+00
          2.000000000000e+00 0.000000000000e+00 1.000000000000e+01
          3.000000000000e+00 0.000000000000e+00 0.000000000000e+00
          3.000000000000e+00 0.000000000000e+00 1.000000000000e+00
          3.000000000000e+00 0.000000000000e+00 2.000000000000e+00
          3.000000000000e+00 0.000000000000e+00 3.000000000000e+00
          3.000000000000e+00 0.000000000000e+00 4.000000000000e+00
          3.000000000000e+00 0.000000000000e+00 5.000000000000e+00
          3.000000000000e+00 0.000000000000e+00 6.000000000000e+00
          3.000000000000e+00 0.000000000000e+00 7.000000000000e+00
          3.000000000000e+00 0.000000000000e+00 8.000000000000e+00
          3.000000000000e+00 0.000000000000e+00 9.000000000000e+00
          3.000000000000e+00 0.000000000000e+00 1.000000000000e+01
          4.000000000000e+00 0.000000000000e+00 0.000000000000e+00
          4.000000000000e+00 0.000000000000e+00 1.000000000000e+00
          4.000000000000e+00 0.000000000000e+00 2.000000000000e+00
          4.000000000000e+00 0.000000000000e+00 3.000000000000e+00
          4.000000000000e+00 0.000000000000e+00 4.000000000000e+00
          4.000000000000e+00 0.000000000000e+00 5.000000000000e+00
          4.000000000000e+00 0.000000000000e+00 6.000000000000e+00
          4.000000000000e+00 0.000000000000e+00 7.000000000000e+00
          4.000000000000e+00 0.000000000000e+00 8.000000000000e+00
          4.000000000000e+00 0.000000000000e+00 9.000000000000e+00
          4.000000000000e+00 0.000000000000e+00 1.000000000000e+01
          5.000000000000e+00 0.000000000000e+00 0.000000000000e+00
          5.000000000000e+00 0.000000000000e+00 1.000000000000e+00
          5.000000000000e+00 0.000000000000e+00 2.000000000000e+00
          5.000000000000e+00 0.000000000000e+00 3.000000000000e+00
          5.000000000000e+00 0.000000000000e+00 4.000000000000e+00
          5.000000000000e+00 0.000000000000e+00 5.000000000000e+00
          5.000000000000e+00 0.000000000000e+00 6.000000000000e+00
          5.000000000000e+00 0.000000000000e+00 7.000000000000e+00
          5.000000000000e+00 0.000000000000e+00 8.000000000000e+00
          5.000000000000e+00 0.000000000000e+00 9.000000000000e+00
          5.000000000000e+00 0.000000000000e+00 1.000000000000e+01
          6.000000000000e+00 0.000000000000e+00 0.000000000000e+00
          6.000000000000e+00 0.000000000000e+00 1.000000000000e+00
          6.000000000000e+00 0.000000000000e+00 2.000000000000e+00
          6.000000000000e+00 0.000000000000e+00 3.000000000000e+00
          6.000000000000e+00 0.000000000000e+00 4.000000000000e+00
          6.000000000000e+00 0.000000000000e+00 5.000000000000e+00
          6.000000000000e+00 0.000000000000e+00 6.000000000000e+00
          6.000000000000e+00 0.000000000000e+00 7.000000000000e+00
          6.000000000000e+00 0.000000000000e+00 8.000000000000e+00
          6.000000000000e+00 0.000000000000e+00 9.000000000000e+00
          6.000000000000e+00 0.000000000000e+00 1.000000000000e+01
          7.000000000000e+00 0.000000000000e+00 0.000000000000e+00
          7.000000000000e+00 0.000000000000e+00 1.000000000000e+00
          7.000000000000e+00 0.000000000000e+00 2.000000000000e+00
          7.000000000000e+00 0.000000000000e+00 3.000000000000e+00
          7.000000000000e+00 0.000000000000e+00 4.000000000000e+00
          7.000000000000e+00 0.000000000000e+00 5.000000000000e+00
          7.000000000000e+00 0.000000000000e+00 6.000000000000e+00
          7.000000000000e+00 0.000000000000e+00 7.000000000000e+00
          7.000000000000e+00 0.000000000000e+00 8.000000000000e+00
          7.000000000000e+00 0.000000000000e+00 9.000000000000e+00
          7.000000000000e+00 0.000000000000e+00 1.000000000000e+01
          8.000000000000e+00 0.000000000000e+00 0.000000000000e+00
          8.000000000000e+00 0.000000000000e+00 1.000000000000e+00
          8.000000000000e+00 0.000000000000e+00 2.000000000000e+00
          8.000000000000e+00 0.000000000000e+00 3.000000000000e+00
          8.000000000000e+00 0.000000000000e+00 4.000000000000e+00
          8.000000000000e+00 0.000000000000e+00 5.000000000000e+00
          8.000000000000e+00 0.000000000000e+00 6.000000000000e+00
          8.000000000000e+00 0.000000000000e+00 7.000000000000e+00
          8.000000000000e+00 0.000000000000e+00 8.000000000000e+00
          8.000000000000e+00 0.000000000000e+00 9.000000000000e+00
          8.000000000000e+00 0.000000000000e+00 1.000000000000e+01
          9.000000000000e+00 0.000000000000e+00 0.000000000000e+00
          9.000000000000e+00 0.000000000000e+00 1.000000000000e+00
          9.000000000000e+00 0.000000000000e+00 2.000000000000e+00
          9.000000000000e+00 0.000000000000e+00 3.000000000000e+00
          9.000000000000e+00 0.000000000000e+00 4.000000000000e+00
          9.000000000000e+00 0.000000000000e+00 5.000000000000e+00
          9.000000000000e+00 0.000000000000e+00 6.000000000000e+00
          9.000000000000e+00 0.000000000000e+00 7.000000000000e+00
          9.000000000000e+00 0.000000000000e+00 8.000000000000e+00
          9.000000000000e+00 0.000000000000e+00 9.000000000000e+00
          9.000000000000e+00 0.000000000000e+00 1.000000000000e+01
          1.000000000000e+01 0.000000000000e+00 0.000000000000e+00
          1.000000000000e+01 0.000000000000e+00 1.000000000000e+00
          1.000000000000e+01 0.000000000000e+00 2.000000000000e+00
          1.000000000000e+01 0.000000000000e+00 3.000000000000e+00
          1.000000000000e+01 0.000000000000e+00 4.000000000000e+00
          1.000000000000e+01 0.000000000000e+00 5.000000000000e+00
          1.000000000000e+01 0.000000000000e+00 6.000000000000e+00
          1.000000000000e+01 0.000000000000e+00 7.000000000000e+00
          1.000000000000e+01 0.000000000000e+00 8.000000000000e+00
          1.000000000000e+01 0.000000000000e+00 9.000000000000e+00
          1.000000000000e+01 0.000000000000e+00 1.000000000000e+01
          1.100000000000e+01 0.000000000000e+00 0.000000000000e+00
          1.100000000000e+01 0.000000000000e+00 1.000000000000e+00
          1.100000000000e+01 0.000000000000e+00 2.000000000000e+00
          1.100000000000e+01 0.000000000000e+00 3.000000000000e+00
          1.100000000000e+01 0.000000000000e+00 4.000000000000e+00
          1.100000000000e+01 0.000000000000e+00 5.000000000000e+00
          1.100000000000e+01 0.000000000000e+00 6.000000000000e+00
          1.100000000000e+01 0.000000000000e+00 7.000000000000e+00
          1.100000000000e+01 0.000000000000e+00 8.000000000000e+00
          1.100000000000e+01 0.000000000000e+00 9.000000000000e+00
          1.100000000000e+01 0.000000000000e+00 1.000000000000e+01
          1.200000000000e+01 0.000000000000e+00 0.000000000000e+00
          1.200000000000e+01 0.000000000000e+00 1.000000000000e+00
          1.200000000000e+01 0.000000000000e+00 2.000000000000e+00
          1.200000000000e+01 0.000000000000e+00 3.000000000000e+00
          1.200000000000e+01 0.000000000000e+00 4.000000000000e+00
          1.200000000000e+01 0.000000000000e+00 5.000000000000e+00
          1.200000000000e+01 0.000000000000e+00 6.000000000000e+00
          1.200000000000e+01 0.000000000000e+00 7.000000000000e+00
          1.200000000000e+01 0.000000000000e+00 8.000000000000e+00
          1.200000000000e+01 0.000000000000e+00 9.000000000000e+00
          1.200000000000e+01 0.000000000000e+00 1.000000000000e+01
          1.300000000000e+01 0.000000000000e+00 0.000000000000e+00
[...]
      <PointData Scalars="PRESSURE1">
        <DataArray type="Float64" Name="PRESSURE1" format="ascii">
          7.848000000000e+04 7.823759465649e+04 6.842768224238e+04 6.867000000000e+04 5.861795211409e+04 5.886000000000e+04 4.880842811929e+04 4.905000000000e+04 3.899916005281e+04 3.924000000000e+04 2.919024652598e+04 2.943000000000e+04 1.938189401733e+04 1.962000000000e+04 9.574584581972e+03 9.810000000000e+03 -2.298618466311e+02 1.430539389426e-88 -1.003412889105e+04 -9.810000000000e+03 -1.984813393256e+04 -1.962000000000e+04 7.799501842216e+04 6.818518717251e+04 5.837570557375e+04 4.856661380483e+04 3.875799340888e+04 2.894999856349e+04 1.914292616537e+04 9.337396301795e+03 -4.656779820821e+02 -1.026849485174e+04 -2.007982397490e+04 7.775211208612e+04 6.794235090244e+04 5.813308138267e+04 4.832434885177e+04 3.851624093535e+04 2.870891041749e+04 1.890261698468e+04 9.097761930236e+03 -7.050734365080e+02 -1.050480787640e+04 -2.031559462829e+04 7.750873684006e+04 6.769903263843e+04 5.788993310384e+04 4.808147901380e+04 3.827374359106e+04 2.846683983148e+04 1.866092385965e+04 8.856178807927e+03 -9.471952589445e+02 -1.074291733921e+04 -2.055249291676e+04 7.726477837643e+04 6.745511858809e+04 5.764614982776e+04 4.783790362581e+04 3.803043079215e+04 2.822379526064e+04 1.841805681083e+04 8.613230833936e+03 -1.190896019700e+03 -1.098034218019e+04 -2.078821391415e+04 7.702014657729e+04 6.721052057054e+04 5.740165077036e+04 4.759356031120e+04 3.778628159630e+04 2.797984310688e+04 1.817424249679e+04 8.369400289358e+03 -1.435096260284e+03 -1.121432315186e+04 -2.101805305392e+04 7.677477254139e+04 6.696517169162e+04 5.715637619141e+04 4.734840535649e+04 3.754128432934e+04 2.773502998791e+04 1.792962358111e+04 8.124960103631e+03 -1.679670363285e+03 -1.142762393442e+04 -2.125163198424e+04 7.652860524632e+04 6.671902199160e+04 5.691027964406e+04 4.710239919538e+04 3.729541081384e+04 2.748934426675e+04 1.768420971231e+04 7.879958685233e+03 -1.924165628268e+03 -1.167542493307e+04 -2.150025878129e+04 7.628160964199e+04 6.647203621037e+04 5.666332476568e+04 4.685550174994e+04 3.704861071235e+04 2.724271091257e+04 1.743787408460e+04 7.634176076680e+03 -2.168695252616e+03 -1.196116139088e+04 -2.176201774935e+04 7.603376681388e+04 6.622419433588e+04 5.641548724359e+04 4.660767775461e+04 3.680082387000e+04 2.699501713575e+04 1.719039670496e+04 7.387179182533e+03 -2.414477960701e+03 -1.221845974395e+04 -2.202579107776e+04 7.578507559321e+04 6.597549409168e+04 5.616676032664e+04 4.635890871391e+04 3.655200465480e+04 2.674615932606e+04 1.694155682065e+04 7.138500100865e+03 -2.662327390522e+03 -1.247186147335e+04 -2.228134565637e+04 7.553555409444e+04 6.572595349113e+04 5.591716083469e+04 4.610920614767e+04 3.630214887931e+04 2.649609541111e+04 1.669123113195e+04 6.887875571984e+03 -2.912798526927e+03 -1.272464030808e+04 -2.253505112245e+04 7.528523939254e+04 6.547561130209e+04 5.566673229373e+04 4.585862031072e+04 3.605131316755e+04 2.624488330268e+04 1.643946600588e+04 6.635312516368e+03 -3.166153088563e+03 -1.297847455386e+04 -2.278911065260e+04 7.503418394875e+04 6.522452375534e+04 5.541554260613e+04 4.560723990205e+04 3.579961865469e+04 2.599269273218e+04 1.618650043881e+04 6.381136941973e+03 -3.422161151734e+03 -1.323372279390e+04 -2.304415878663e+04 7.478244828929e+04 6.497275689668e+04 5.516367531353e+04 4.535518107491e+04 3.554723579516e+04 2.573978295233e+04 1.593274154033e+04 6.125987518755e+03 -3.679880025369e+03 -1.348992085250e+04 -2.329992323990e+04 7.453009053072e+04 6.472037526539e+04 5.491121546430e+04 4.510256754344e+04 3.529435332002e+04 2.548645018167e+04 1.567867095577e+04 5.870710601173e+03 -3.937698114808e+03 -1.374611713210e+04 -2.355570557553e+04 7.427715429666e+04 6.446742866786e+04 5.465823266411e+04 4.484950628852e+04 3.504114042701e+04 2.523296229718e+04 1.542471416557e+04 5.616018389186e+03 -4.193591586894e+03 -1.400142773333e+04 -2.381078992844e+04 7.402365713934e+04 6.421393941837e+04 5.440476456396e+04 4.459606410108e+04 3.478771222423e+04 2.497950745996e+04 1.517114964319e+04 5.362243796452e+03 -4.447403919220e+03 -1.425540851152e+04 -2.406470709810e+04 7.376958168795e+04 6.395989247884e+04 5.415080384825e+04 4.434224904470e+04 3.453410374785e+04 2.472616442759e+04 1.491811274712e+04 5.109473862453e+03 -4.700113174053e+03 -1.450795971455e+04 -2.431727493755e+04 7.351487144182e+04 6.370523056400e+04 5.389629116707e+04 4.408799944795e+04 3.428025325726e+04 2.447288002002e+04 1.466559632113e+04 4.857886446208e+03 -4.951111969224e+03 -1.475909784349e+04 -2.456856026319e+04 7.325943250591e+04 6.344985562752e+04 5.364111575466e+04 4.383318257069e+04 3.402599619318e+04 2.421945060610e+04 1.441336285993e+04 4.607439599612e+03 -5.199770634764e+03 -1.500909999735e+04 -2.481889205721e+04 7.300314170245e+04 6.319363726000e+04 5.338512462425e+04 4.357760477582e+04 3.377107534534e+04 2.396552352224e+04 1.416091732972e+04 4.357209034455e+03 -5.447822746737e+03 -1.525863604866e+04 -2.506890841550e+04 7.274586045975e+04 6.293642743947e+04 5.312813996595e+04 4.332103359995e+04 3.351517015257e+04 2.371064134222e+04 1.390757434889e+04 4.106137324335e+03 -5.696401957011e+03 -1.550871059404e+04 -2.531948198666e+04 7.248745279529e+04 6.267807989067e+04 5.286998281742e+04 4.306322932009e+04 3.325794179822e+04 2.345431151666e+04 1.365261672409e+04 3.853237997406e+03 -5.946506015822e+03 -1.576032661041e+04 -2.557160097152e+04 7.222780475079e+04 6.241847124574e+04 5.261049965093e+04 4.280398142656e+04 3.299908514912e+04 2.319608187863e+04 1.339538073953e+04 3.597568645073e+03 -6.199153429857e+03 -1.601449344822e+04 -2.582626448017e+04 7.196684199629e+04 6.215752047097e+04 5.234958759359e+04 4.254314444242e+04 3.273838064077e+04 2.293561016961e+04 1.313532829107e+04 3.338290693706e+03 -6.455439985385e+03 -1.627221865998e+04 -2.608443743261e+04 7.170454218467e+04 6.189520280073e+04 5.208721354501e+04 4.228066716642e+04 3.247574036697e+04 2.267273452643e+04 1.287214976433e+04 3.074809911278e+03 -6.716586639002e+03 -1.653443689979e+04 -2.634693696474e+04 7.144093918018e+04 6.163155487876e+04 5.182342255638e+04 4.201660845080e+04 3.221123973546e+04 2.240753780388e+04 1.260588943937e+04 2.806997279300e+03 -6.983918172948e+03 -1.680178982211e+04 -2.661416752155e+04 7.117611760744e+04 6.136666914516e+04 5.155833201052e+04 4.175113245364e+04 3.194511977205e+04 2.214037734349e+04 1.233705148299e+04 2.535457403238e+03 -7.258446364546e+03 -1.707412374960e+04 -2.688570226466e+04 7.091019816066e+04 6.110067773544e+04 5.129211103188e+04 4.148447983215e+04 3.167774623991e+04 2.187183631710e+04 1.206659795721e+04 2.261718320326e+03 -7.539163796334e+03 -1.734982139772e+04 -2.715998065686e+04 7.064331631579e+04 6.083372880045e+04 5.102494881161e+04 4.121691946609e+04 3.140952887150e+04 2.160257586325e+04 1.179569300646e+04 1.988073920805e+03 -7.820627945256e+03 -1.762572629116e+04 -2.743480011329e+04 7.037559877343e+04 6.056596026025e+04 5.075701931456e+04 4.094869405206e+04 3.114082757504e+04 2.133315162639e+04 1.152522531246e+04 1.716364734140e+03 -8.093637395125e+03 -1.789954584703e+04 -2.770823317761e+04 7.010714247490e+04 6.029747663767e+04 5.048845095361e+04 4.067997553475e+04 3.087188188937e+04 2.106389329692e+04 1.125558719613e+04 1.446462855598e+03 -8.363345478403e+03 -1.817052465587e+04 -2.797947171947e+04 6.983800019678e+04 6.002833351659e+04 5.021930761128e+04 4.041084070173e+04 3.060278218033e+04 2.079489014776e+04 1.098680044792e+04 1.177909147908e+03 -8.631953699420e+03 -1.843938964248e+04 -2.824862028739e+04 6.956817493018e+04 5.975853193032e+04 4.994958339796e+04 4.014126821759e+04 3.033347582900e+04 2.052603182551e+04 1.071866851691e+04 9.109605966083e+02 -8.898253974025e+03 -1.870671465773e+04 -2.851623266751e+04 6.929762318047e+04 5.948802258521e+04 4.967921002412e+04 3.987115259687e+04 3.006379339945e+04 2.025704756275e+04 1.045079652000e+04 6.449118868725e+02 -9.163280273049e+03 -1.897304573434e+04 -2.878294098358e+04 6.902626555795e+04 5.921671796231e+04 4.940807369840e+04 3.960032980429e+04 2.979348640421e+04 1.998755495536e+04 1.018257305158e+04 3.786237644347e+02 -9.428345580491e+03 -1.923917667870e+04 -2.904942105961e+04 6.875400183390e+04 5.894450917709e+04 4.913603764134e+04 3.932860979601e+04 2.952227487392e+04 1.971712824502e+04 9.913339585975e+03 1.111818922446e+02 -9.694230880398e+03 -1.950583374908e+04 -2.931631516905e+04 6.848072704507e+04 5.867128389471e+04 4.886296578304e+04 3.905581101488e+04 2.924989914803e+04 1.944537962361e+04 9.642518317461e+03 -1.582431618816e+02 -9.961609942197e+03 -1.977350875500e+04 -2.958406192720e+04 6.820634526222e+04 5.839694156043e+04 4.858874285459e+04 3.878179032530e+04 2.897616769681e+04 1.917203160870e+04 9.369677512950e+03 -4.303487669069e+02 -1.023089498698e+04 -2.004237185527e+04 -2.985275152981e+04 6.793077837732e+04 5.812140288257e+04 4.831328638391e+04 3.850646099191e+04 2.870098872924e+04 1.889698013285e+04 9.094641708662e+03 -7.055393588706e+02 -1.050204301778e+04 -2.031208440756e+04 -3.012202027563e+04 6.765396873442e+04 5.784461206796e+04 4.803654781971e+04 3.822979256886e+04 2.842437155686e+04 1.862031495267e+04 8.817647296885e+03 -9.836297089617e+02 -1.077381372577e+04 -2.058171828033e+04 -3.039106158888e+04 6.737587639565e+04 5.756653260067e+04 4.775850334946e+04 3.795179171237e+04 2.814639000750e+04 1.834225335946e+04 8.539246829945e+03 -1.263116184955e+03 -1.104349646810e+04 -2.084964030075e+04 -3.065958645814e+04 6.709647369880e+04 5.728713969737e+04 4.747913904198e+04 3.767247128676e+04 2.786711806786e+04 1.806300655518e+04 8.259931608772e+03 -1.542934805579e+03 -1.130020330909e+04 -2.111567033839e+04 -3.093157223731e+04 6.681574073826e+04 5.700641393022e+04 4.719843782391e+04 3.739182193516e+04 2.758656835589e+04 1.778264133059e+04 7.979902881411e+03 -1.822796001494e+03 -1.153414346028e+04 -2.139564968866e+04 -3.121107078474e+04 6.653366488882e+04 5.672434003165e+04 4.691637552095e+04 3.710980114725e+04 2.730466423674e+04 1.750102228760e+04 7.698916651260e+03 -2.102279093190e+03 -1.188491590371e+04 -2.168673251082e+04 -3.150088896490e+04 6.625024548859e+04 5.644091248000e+04 4.663292938248e+04 3.682634743696e+04 2.702126448591e+04 1.721784691456e+04 7.416373444460e+03 -2.382989485799e+03 -1.218361154667e+04 -2.198769679797e+04 -3.179588293958e+04 6.596550201717e+04 5.615614598971e+04 4.634809652066e+04 3.654141593273e+04 2.673623226898e+04 1.693278566253e+04 7.131516279009e+03 -2.666574714634e+03 -1.247496522552e+04 -2.228273864163e+04 -3.209183865092e+04 6.567948173445e+04 5.587008598746e+04 4.606191430684e+04 3.625502064915e+04 2.644952241088e+04 1.664565465917e+04 6.843874837297e+03 -2.954069825405e+03 -1.276599968788e+04 -2.257604110414e+04 -3.238587318029e+04 6.539226190016e+04 5.558281300198e+04 4.577447242874e+04 3.596726394432e+04 2.616124738011e+04 1.635655879012e+04 6.553499644486e+03 -3.245952161009e+03 -1.305849098886e+04 -2.286916484179e+04 -3.267925761624e+04 6.510394288399e+04 5.529443630201e+04 4.548590847218e+04 3.567833676604e+04 2.587168914067e+04 1.606593268054e+04 6.261049567866e+03 -3.541626930243e+03 -1.335247682973e+04 -2.316259653062e+04 -3.297258279650e+04 6.481463131851e+04 5.500507562268e+04 4.519638478782e+04 3.538848492389e+04 2.558124305059e+04 1.577444558977e+04 5.967728280738e+03 -3.838958132707e+03 -1.364697110673e+04 -2.345605394581e+04 -3.326577411929e+04 6.452441585925e+04 5.471483397774e+04 4.490605137999e+04 3.509795085804e+04 2.529031493580e+04 1.548278951005e+04 5.674817551943e+03 -4.134451273183e+03 -1.394066309509e+04 -2.374894211637e+04 -3.355842497215e+04 6.423334086008e+04 5.442376774732e+04 4.461500424629e+04 3.480690887619e+04 2.499921466380e+04 1.519148201409e+04 5.383069993753e+03 -4.426417266188e+03 -1.423276353906e+04 -2.404074738064e+04 -3.385013877219e+04 6.394138453750e+04 5.413186151693e+04 4.432324960080e+04 3.451541001336e+04 2.470807531143e+04 1.490078579149e+04 5.092788354493e+03 -4.716599121242e+03 -1.452301419937e+04 -2.433127386038e+04 -3.414075849052e+04 6.364844780039e+04 5.383901455556e+04 4.403068278749e+04 3.422334706331e+04 2.441679755761e+04 1.461065651165e+04 4.804201925152e+03 -5.004021354240e+03 -1.481158645226e+04 -2.462070462086e+04 -3.443047742811e+04 6.335435809664e+04 5.354504381202e+04 4.373708829271e+04 3.393044744532e+04 2.412502549783e+04 1.432063282648e+04 4.516944828776e+03 -5.288412954265e+03 -1.509904403606e+04 -2.490962147162e+04 -3.471986102857e+04 6.305888972667e+04 5.324970525548e+04 4.344216398123e+04 3.363630144129e+04 2.383217294111e+04 1.402984819587e+04 4.229415153841e+03 -5.572514321002e+03 -1.538651535290e+04 -2.519897576128e+04 -3.500980709292e+04 6.276179850798e+04 5.295273153689e+04 4.314556808976e+04 3.334042597648e+04 2.353751930597e+04 1.373718283966e+04 3.939892173308e+03 -5.858044385361e+03 -1.567553287637e+04 -2.548997701718e+04 -3.530144721459e+04 6.246286499254e+04 5.265387987993e+04 4.284698186153e+04 3.304235478536e+04 2.324034540566e+04 1.344152286234e+04 3.646746679186e+03 -6.146696358247e+03 -1.596760629369e+04 -2.578393352122e+04 -3.559599802444e+04 6.216193738880e+04 5.235298060497e+04 4.254617605698e+04 3.274173796193e+04 2.294008362465e+04 1.314193588891e+04 3.348476981366e+03 -6.440330174315e+03 -1.626426342802e+04 -2.608207258868e+04 -3.589457072677e+04 6.185896381508e+04 5.204997466648e+04 4.224306617844e+04 3.243843251726e+04 2.263646326566e+04 1.283787631012e+04 3.043971982310e+03 -6.741171957110e+03 -1.656697483805e+04 -2.638532169269e+04 -3.619791218454e+04 6.155400448052e+04 5.174492905423e+04 4.193773975281e+04 3.213255881293e+04 2.232963448479e+04 1.252944652474e+04 2.732997728554e+03 -7.051936980659e+03 -1.687677173572e+04 -2.669393014706e+04 -3.650607789271e+04 6.124721850182e+04 5.143802304291e+04 4.163044199579e+04 3.182449175451e+04 2.202020055427e+04 1.221760613889e+04 2.416821733363e+03 -7.374670547413e+03 -1.719317163885e+04 -2.700699608378e+04 -3.681821511009e+04 6.093882688920e+04 5.112950622530e+04 4.132151744362e+04 3.151476988010e+04 2.170907111187e+04 1.190402572640e+04 2.098651247128e+03 -7.705958820523e+03 -1.751256020750e+04 -2.732254858797e+04 -3.713269335035e+04 6.062906066454e+04 5.081963870542e+04 4.101132255911e+04 3.120394538586e+04 2.139716823586e+04 1.159036121913e+04 1.782325570687e+03 -8.028054575131e+03 -1.783079568508e+04 -2.763828572110e+04 -3.744767090698e+04 6.031810797865e+04 5.050863029353e+04 4.070013758943e+04 3.089243494970e+04 2.108514131723e+04 1.127759629668e+04 1.468910247216e+03 -8.340693550236e+03 -1.814563788087e+04 -2.795262613723e+04 -3.776175301282e+04 6.000607415155e+04 5.019659550765e+04 4.038810519190e+04 3.058042812229e+04 2.077323119596e+04 1.096596513244e+04 1.157667454970e+03 -8.652127132457e+03 -1.845742832883e+04 -2.826509191675e+04 -3.807434564539e+04 5.969296388118e+04 4.988353487515e+04 4.007521009983e+04 3.026787009765e+04 2.046129453669e+04 1.065511911508e+04 8.487608957262e+02 -8.959879349454e+03 -1.876736947507e+04 -2.857600118849e+04 -3.838557366527e+04 5.937868775318e+04 4.956934418959e+04 3.976129822632e+04 2.995450458815e+04 2.014888882008e+04 1.034434922192e+04 5.407956628759e+02 -9.266204541741e+03 -1.907618317660e+04 -2.888604016619e+04 -3.869597713383e+04 5.906308844535e+04 4.925384578473e+04 3.944612445103e+04 2.963995172447e+04 1.983539874919e+04 1.003262252752e+04 2.319134682850e+02 -9.572988600408e+03 -1.938501904285e+04 -2.919596304854e+04 -3.900623459884e+04 5.874597739828e+04 4.893683123137e+04 3.912941458280e+04 2.932380528080e+04 1.952017909743e+04 9.718888733156e+03 -7.943353270705e+01 -9.881484209883e+03 -1.969482282103e+04 -2.950646577834e+04 -3.931696167068e+04 5.842717087696e+04 4.861810291587e+04 3.881092539602e+04 2.900572987819e+04 1.920271836729e+04 9.402317518862e+03 -3.946063305877e+02 -1.019254617467e+04 -2.000611982269e+04 -2.981799589075e+04 -3.962860933131e+04 5.810651555859e+04 4.829750288217e+04 3.849048540076e+04 2.868553099627e+04 1.888277990419e+04 9.082515529453e+03 -7.145016173023e+02 -1.050617982282e+04 -2.031873097212e+04 -3.013073291180e+04 -3.994152381800e+04 5.778389820514e+04 4.797492189529e+04 3.816800280877e+04 2.836316643361e+04 1.856043978134e+04 8.759820728526e+03 -1.038844116684e+03 -1.081994848545e+04 -2.063154226034e+04 -3.044478240835e+04 -4.025655879089e+04 5.745924080518e+04 4.765028986123e+04 3.784343964046e+04 2.803868536048e+04 1.823596757665e+04 8.435051721620e+03 -1.364962608715e+03 -1.112819906237e+04 -2.094150953224e+04 -3.076225488738e+04 -4.057540609404e+04 5.713248926419e+04 4.732355772951e+04 3.751676854133e+04 2.771212449352e+04 1.790957360824e+04 8.108878485909e+03 -1.691526660286e+03 -1.139744007936e+04 -2.126176685886e+04 -3.108614221570e+04 -4.090033093863e+04 5.680360669461e+04 4.699468571614e+04 3.718794131296e+04 2.738342421641e+04 1.758119569168e+04 7.781261319711e+03 -2.017624147879e+03 -1.176318865602e+04 -2.159641132165e+04 -3.141898911606e+04 -4.123246897676e+04 5.647257910841e+04 4.666364914648e+04 3.685689393159e+04 2.705242672879e+04 1.725046942330e+04 7.451407257580e+03 -2.344609989297e+03 -1.213995064445e+04 -2.194472370381e+04 -3.175908929883e+04 -4.157097961425e+04 5.613943267695e+04 4.633046188526e+04 3.652359184590e+04 2.671897060081e+04 1.691692680780e+04 7.118142763658e+03 -2.675791738080e+03 -1.248442005351e+04 -2.229283554528e+04 -3.210290499460e+04 -4.191340111825e+04 5.580425211573e+04 4.599520406400e+04 3.618809219304e+04 2.638303621725e+04 1.658032765890e+04 6.780633812140e+03 -3.013262290027e+03 -1.282680743575e+04 -2.263737908131e+04 -3.244740914987e+04 -4.225742244517e+04 5.546718492178e+04 4.565803371429e+04 3.585058315901e+04 2.604485605785e+04 1.624094141474e+04 6.439113596974e+03 -3.357910830190e+03 -1.317108456337e+04 -2.298177538415e+04 -3.279179552393e+04 -4.260175910628e+04 5.512841961449e+04 4.531916604374e+04 3.551136760255e+04 2.570490937940e+04 1.589959083796e+04 6.095063757520e+03 -3.707938608295e+03 -1.351710046833e+04 -2.332650240889e+04 -3.313612444172e+04 -4.294599217400e+04 5.478813665420e+04 4.497881791197e+04 3.517078477164e+04 2.536378978252e+04 1.555736140894e+04 5.750691305779e+03 -4.057643580121e+03 -1.386292527155e+04 -2.367102310005e+04 -3.348019051800e+04 -4.328995731840e+04 5.444644335438e+04 4.463713117666e+04 3.482909407807e+04 2.502200219826e+04 1.521520798336e+04 5.407636026749e+03 -4.401605473500e+03 -1.420694712735e+04 -2.401464140585e+04 -3.382375315868e+04 -4.363353013640e+04 5.410331316114e+04 4.429409942123e+04 3.448636006070e+04 2.467976730159e+04 1.487365219927e+04 5.066763643802e+03 -4.742250341568e+03 -1.454839724985e+04 -2.435709059630e+04 -3.416680422502e+04 -4.397678796938e+04 5.375855175418e+04 4.394952449241e+04 3.414237729231e+04 2.433688452510e+04 1.453256007567e+04 4.728395839676e+03 -5.078212261159e+03 -1.488770830003e+04 -2.469872249299e+04 -3.450975081064e+04 -4.432015722992e+04 5.341180702128e+04 4.360302301190e+04 3.379666421655e+04 2.399269530898e+04 1.419099974575e+04 4.391322041184e+03 -5.410416641315e+03 -1.522604069909e+04 -2.504053611794e+04 -3.485345194505e+04 -4.466445590853e+04 5.306262860433e+04 4.325409040154e+04 3.344854031262e+04 2.364617838756e+04 1.384735791627e+04 4.052603871541e+03 -5.743248941413e+03 -1.556543850652e+04 -2.538404233131e+04 -3.519913385784e+04 -4.501081681125e+04 5.271056781573e+04 4.290221358538e+04 3.309727864457e+04 2.329617894450e+04 1.349971201129e+04 3.709173019348e+03 -6.079686614421e+03 -1.590847511634e+04 -2.573106159030e+04 -3.554820081737e+04 -4.536050534095e+04 5.235529362296e+04 4.254700616236e+04 3.274230311895e+04 2.294171824369e+04 1.314634292105e+04 3.358142786382e+03 -6.423076355122e+03 -1.625780104880e+04 -2.608344554281e+04 -3.590195550140e+04 -4.571464556311e+04 5.199668976479e+04 4.218832595386e+04 3.238337679260e+04 2.258232662465e+04 1.278622689188e+04 2.997264846669e+03 -6.777817015724e+03 -1.661618341280e+04 -2.644266274283e+04 -3.626122411258e+04 -4.607389830126e+04 5.163489808897e+04 4.182633108696e+04 3.202070899333e+04 2.221829415704e+04 1.241964187867e+04 