<?xml version="1.0"?>
<!-- Time step: 1 | Time: 1.000000000000e+00 -->
<VTKFile type="UnstructuredGrid" version="0.1" byte_order="LittleEndian">
  <UnstructuredGrid>
    <Piece NumberOfPoints="527" NumberOfCells="480">
      <Points>
        <DataArray type="Float64" NumberOfComponents="3" format="ascii">
          1.000000000000e-03 0.000000000000e+00 0.000000000000e+00
          1.033333333333e-03 0.000000000000e+00 0.000000000000e+00
          1.066666666667e-03 0.000000000000e+00 0.000000000000e+00
          1.100000000000e-03 0.000000000000e+00 0.000000000000e+00
          1.133333333333e-03 0.000000000000e+00 0.000000000000e+00
          1.166666666667e-03 0.000000000000e+00 0.000000000000e+00
          1.200000000000e-03 0.000000000000e+00 0.000000000000e+00
          1.233333333333e-03 0.000000000000e+00 0.000000000000e+00
          1.266666666667e-03 0.000000000000e+00 0.000000000000e+00
          1.300000000000e-03 0.000000000000e+00 0.000000000000e+00
          1.333333333333e-03 0.000000000000e+00 0.000000000000e+00
          1.366666666667e-03 0.000000000000e+00 0.000000000000e+00
          1.400000000000e-03 0.000000000000e+00 0.000000000000e+00
          1.433333333333e-03 0.000000000000e+00 0.000000000000e+00
          1.466666666667e-03 0.000000000000e+00 0.000000000000e+00
          1.500000000000e-03 0.000000000000e+00 0.000000000000e+00
          1.533333333333e-03 0.000000000000e+00 0.000000000000e+00
          1.566666666667e-03 0.000000000000e+00 0.000000000000e+00
          1.600000000000e-03 0.000000000000e+00 0.000000000000e+00
          1.633333333333e-03 0.000000000000e+00 0.000000000000e+00
          1.666666666667e-03 0.000000000000e+00 0.000000000000e+00
          1.700000000000e-03 0.000000000000e+00 0.000000000000e+00
          1.733333333333e-03 0.000000000000e+00 0.000000000000e+00
          1.766666666667e-03 0.000000000000e+00 0.000000000000e+00
          1.800000000000e-03 0.000000000000e+00 0.000000000000e+00
          1.833333333333e-03 0.000000000000e+00 0.000000000000e+00
          1.866666666667e-03 0.000000000000e+00 0.000000000000e+00
          1.900000000000e-03 0.000000000000e+00 0.000000000000e+00
          1.933333333333e-03 0.000000000000e+00 0.000000000000e+00
          1.966666666667e-03 0.000000000000e+00 0.000000000000e+00
          2.000000000000e-03 0.000000000000e+00 0.000000000000e+00
          9.951847265300e-04 9.801714177290e-05 0.000000000000e+00
          1.028357550748e-03 1.012843798320e-04 0.000000000000e+00
          1.061530374965e-03 1.045516178911e-04 0.000000000000e+00
          1.094703199183e-03 1.078188559502e-04 0.000000000000e+00
          1.127876023401e-03 1.110860940093e-04 0.000000000000e+00
          1.161048847618e-03 1.143533320684e-04 0.000000000000e+00
          1.194221671836e-03 1.176205701275e-04 0.000000000000e+00
          1.227394496054e-03 1.208878081866e-04 0.000000000000e+00
          1.260567320271e-03 1.241550462457e-04 0.000000000000e+00
          1.293740144489e-03 1.274222843048e-04 0.000000000000e+00
          1.326912968707e-03 1.306895223639e-04 0.000000000000e+00
          1.360085792924e-03 1.339567604230e-04 0.000000000000e+00
          1.393258617142e-03 1.372239984821e-04 0.000000000000e+00
          1.426431441360e-03 1.404912365412e-04 0.000000000000e+00
          1.459604265577e-03 1.437584746002e-04 0.000000000000e+00
          1.492777089795e-03 1.470257126593e-04 0.000000000000e+00
          1.525949914013e-03 1.502929507184e-04 0.000000000000e+00
          1.559122738230e-03 1.535601887775e-04 0.000000000000e+00
          1.592295562448e-03 1.568274268366e-04 0.000000000000e+00
          1.625468386666e-03 1.600946648957e-04 0.000000000000e+00
          1.658641210883e-03 1.633619029548e-04 0.000000000000e+00
          1.691814035101e-03 1.666291410139e-04 0.000000000000e+00
          1.724986859319e-03 1.698963790730e-04 0.000000000000e+00
          1.758159683536e-03 1.731636171321e-04 0.000000000000e+00
          1.791332507754e-03 1.764308551912e-04 0.000000000000e+00
          1.824505331972e-03 1.796980932503e-04 0.000000000000e+00
          1.857678156189e-03 1.829653313094e-04 0.000000000000e+00
          1.890850980407e-03 1.862325693685e-04 0.000000000000e+00
          1.924023804625e-03 1.894998074276e-04 0.000000000000e+00
          1.957196628842e-03 1.927670454867e-04 0.000000000000e+00
          1.990369453060e-03 1.960342835458e-04 0.000000000000e+00
          9.807852798373e-04 1.950903248610e-04 0.000000000000e+00
          1.013478122499e-03 2.015933356897e-04 0.000000000000e+00
          1.046170965160e-03 2.080963465184e-04 0.000000000000e+00
          1.078863807821e-03 2.145993573471e-04 0.000000000000e+00
          1.111556650482e-03 2.211023681758e-04 0.000000000000e+00
          1.144249493144e-03 2.276053790045e-04 0.000000000000e+00
          1.176942335805e-03 2.341083898332e-04 0.000000000000e+00
          1.209635178466e-03 2.406114006619e-04 0.000000000000e+00
          1.242328021127e-03 2.471144114906e-04 0.000000000000e+00
          1.275020863789e-03 2.536174223193e-04 0.000000000000e+00
          1.307713706450e-03 2.601204331480e-04 0.000000000000e+00
          1.340406549111e-03 2.666234439767e-04 0.000000000000e+00
          1.373099391772e-03 2.731264548054e-04 0.000000000000e+00
          1.405792234434e-03 2.796294656341e-04 0.000000000000e+00
          1.438485077095e-03 2.861324764628e-04 0.000000000000e+00
          1.471177919756e-03 2.926354872915e-04 0.000000000000e+00
          1.503870762417e-03 2.991384981202e-04 0.000000000000e+00
          1.536563605079e-03 3.056415089489e-04 0.000000000000e+00
          1.569256447740e-03 3.121445197776e-04 0.000000000000e+00
          1.601949290401e-03 3.186475306064e-04 0.000000000000e+00
          1.634642133062e-03 3.251505414351e-04 0.000000000000e+00
          1.667334975723e-03 3.316535522638e-04 0.000000000000e+00
          1.700027818385e-03 3.381565630925e-04 0.000000000000e+00
          1.732720661046e-03 3.446595739212e-04 0.000000000000e+00
          1.765413503707e-03 3.511625847499e-04 0.000000000000e+00
          1.798106346368e-03 3.576655955786e-04 0.000000000000e+00
          1.830799189030e-03 3.641686064073e-04 0.000000000000e+00
          1.863492031691e-03 3.706716172360e-04 0.000000000000e+00
          1.896184874352e-03 3.771746280647e-04 0.000000000000e+00
          1.928877717013e-03 3.836776388934e-04 0.000000000000e+00
          1.961570559675e-03 3.901806497221e-04 0.000000000000e+00
          9.569403344692e-04 2.902846814181e-04 0.000000000000e+00
          9.888383456182e-04 2.999608374653e-04 0.000000000000e+00
          1.020736356767e-03 3.096369935126e-04 0.000000000000e+00
          1.052634367916e-03 3.193131495599e-04 0.000000000000e+00
          1.084532379065e-03 3.289893056071e-04 0.000000000000e+00
          1.116430390214e-03 3.386654616544e-04 0.000000000000e+00
          1.148328401363e-03 3.483416177017e-04 0.000000000000e+00
          1.180226412512e-03 3.580177737490e-04 0.000000000000e+00
          1.212124423661e-03 3.676939297962e-04 0.000000000000e+00
          1.244022434810e-03 3.773700858435e-04 0.000000000000e+00
          1.275920445959e-03 3.870462418908e-04 0.000000000000e+00
          1.307818457108e-03 3.967223979380e-04 0.000000000000e+00
          1.339716468257e-03 4.063985539853e-04 0.000000000000e+00
          1.371614479406e-03 4.160747100326e-04 0.000000000000e+00
          1.403512490555e-03 4.257508660798e-04 0.000000000000e+00
          1.435410501704e-03 4.354270221271e-04 0.000000000000e+00
          1.467308512853e-03 4.451031781744e-04 0.000000000000e+00
          1.499206524002e-03 4.547793342216e-04 0.000000000000e+00
          1.531104535151e-03 4.644554902689e-04 0.000000000000e+00
          1.563002546300e-03 4.741316463162e-04 0.000000000000e+00
          1.594900557449e-03 4.838078023634e-04 0.000000000000e+00
          1.626798568598e-03 4.934839584107e-04 0.000000000000e+00
          1.658696579747e-03 5.031601144580e-04 0.000000000000e+00
          1.690594590896e-03 5.128362705053e-04 0.000000000000e+00
          1.722492602045e-03 5.225124265525e-04 0.000000000000e+00
          1.754390613194e-03 5.321885825998e-04 0.000000000000e+00
          1.786288624343e-03 5.418647386471e-04 0.000000000000e+00
          1.818186635491e-03 5.515408946943e-04 0.000000000000e+00
          1.850084646640e-03 5.612170507416e-04 0.000000000000e+00
          1.881982657789e-03 5.708932067889e-04 0.000000000000e+00
          1.913880668938e-03 5.805693628361e-04 0.000000000000e+00
          9.238795302912e-04 3.826834377248e-04 0.000000000000e+00
          9.546755146343e-04 3.954395523156e-04 0.000000000000e+00
          9.854714989773e-04 4.081956669064e-04 0.000000000000e+00
          1.016267483320e-03 4.209517814972e-04 0.000000000000e+00
          1.047063467663e-03 4.337078960881e-04 0.000000000000e+00
          1.077859452006e-03 4.464640106789e-04 0.000000000000e+00
          1.108655436349e-03 4.592201252697e-04 0.000000000000e+00
          1.139451420693e-03 4.719762398606e-04 0.000000000000e+00
          1.170247405036e-03 4.847323544514e-04 0.000000000000e+00
          1.201043389379e-03 4.974884690422e-04 0.000000000000e+00
          1.231839373722e-03 5.102445836330e-04 0.000000000000e+00
          1.262635358065e-03 5.230006982239e-04 0.000000000000e+00
          1.293431342408e-03 5.357568128147e-04 0.000000000000e+00
          1.324227326751e-03 5.485129274055e-04 0.000000000000e+00
          1.355023311094e-03 5.612690419963e-04 0.000000000000e+00
          1.385819295437e-03 5.740251565872e-04 0.000000000000e+00
          1.416615279780e-03 5.867812711780e-04 0.000000000000e+00
          1.447411264123e-03 5.995373857688e-04 0.000000000000e+00
          1.478207248466e-03 6.122935003596e-04 0.000000000000e+00
          1.509003232809e-03 6.250496149505e-04 0.000000000000e+00
[...]
      <PointData Scalars="DISPLACEMENT_X1">
        <DataArray type="Float64" Name="STRESS_1" format="ascii">
          8.703977351610e+07 8.261455763484e+07 7.859545506191e+07 7.493557150897e+07 7.159365729957e+07 6.853399835248e+07 6.572570327118e+07 6.314197995894e+07 6.075950926605e+07 5.855792094113e+07 5.651935789193e+07 5.462811330201e+07 5.287032731194e+07 5.123373242668e+07 4.970743891120e+07 4.828175321542e+07 4.694802368751e+07 4.569850906048e+07 4.452626582906e+07 4.342505160570e+07 4.238924176920e+07 4.141375751567e+07 4.049400332619e+07 3.962581258491e+07 3.880539979751e+07 3.802931839642e+07 3.729442262582e+07 3.659783214437e+07 3.593689691518e+07 3.530915907313e+07 3.471227550646e+07 8.703977027354e+07 8.261455688972e+07 7.859545463318e+07 7.493557108595e+07 7.159365682877e+07 6.853399785438e+07 6.572570276567e+07 6.314197944449e+07 6.075950872061e+07 5.855792034794e+07 5.651935725221e+07 5.462811263176e+07 5.287032661796e+07 5.123373171169e+07 4.970743818044e+07 4.828175249084e+07 4.694802299129e+07 4.569850840103e+07 4.452626518361e+07 4.342505094376e+07 4.238924106711e+07 4.141375676486e+07 4.049400251828e+07 3.962581171923e+07 3.880539887353e+07 3.802931742764e+07 3.729442162565e+07 3.659783113623e+07 3.593689592418e+07 3.530915812744e+07 3.471227459720e+07 8.703977503224e+07 8.261456060185e+07 7.859545766628e+07 7.493557363558e+07 7.159365900829e+07 6.853399974048e+07 6.572570439291e+07 6.314198086304e+07 6.075950995531e+07 5.855792141641e+07 5.651935814211e+07 5.462811333513e+07 5.287032714226e+07 5.123373207649e+07 4.970743840698e+07 4.828175257897e+07 4.694802294781e+07 4.569850822050e+07 4.452626488409e+07 4.342505051625e+07 4.238924051798e+07 4.141375607414e+07 4.049400169759e+07 3.962581076000e+07 3.880539778507e+07 3.802931618942e+07 3.729442023131e+07 3.659782956012e+07 3.593689416420e+07 3.530915618933e+07 3.471227246696e+07 8.703978158433e+07 8.261456571370e+07 7.859546179557e+07 7.493557701944e+07 7.159366184832e+07 6.853400216545e+07 6.572570651106e+07 6.314198271475e+07 6.075951158488e+07 5.855792284036e+07 5.651935939328e+07 5.462811441948e+07 5.287032806533e+07 5.123373282202e+07 4.970743896912e+07 4.828175294801e+07 4.694802311692e+07 4.569850818210e+07 4.452626464585e+07 4.342505009178e+07 4.238923992235e+07 4.141375530111e+07 4.049400074368e+07 3.962580959919e+07 3.880539640614e+07 3.802931455844e+07 3.729441833891e+07 3.659782738113e+07 3.593689170315e+07 3.530915342990e+07 3.471226935088e+07 8.703978793840e+07 8.261457082896e+07 7.859546602171e+07 7.493558055928e+07 7.159366486756e+07 6.853400476995e+07 6.572570878800e+07 6.314198471120e+07 6.075951333790e+07 5.855792435607e+07 5.651936068736e+07 5.462811550079e+07 5.287032894806e+07 5.123373350599e+07 4.970743945627e+07 4.828175324755e+07 4.694802324826e+07 4.569850816578e+07 4.452626447619e+07 4.342504976095e+07 4.238923940120e+07 4.141375459435e+07 4.049399981673e+07 3.962580845635e+07 3.880539501376e+07 3.802931293165e+07 3.729441645036e+07 3.659782523523e+07 3.593688924914e+07 3.530915065139e+07 3.471226617667e+07 8.703979301329e+07 8.261457489394e+07 7.859546935813e+07 7.493558336229e+07 7.159366723447e+07 6.853400681181e+07 6.572571053561e+07 6.314198623509e+07 6.075951465277e+07 5.855792551919e+07 5.651936169538e+07 5.462811637226e+07 5.287032966897e+07 5.123373410194e+07 4.970743993180e+07 4.828175361418e+07 4.694802350008e+07 4.569850830468e+07 4.452626450890e+07 4.342504968172e+07 4.238923920084e+07 4.141375423615e+07 4.049399929841e+07 3.962580775527e+07 3.880539413424e+07 3.802931183912e+07 3.729441512634e+07 3.659782362993e+07 3.593688733309e+07 3.530914838785e+07 3.471226353677e+07 8.703979565225e+07 8.261457697170e+07 7.859547103244e+07 7.493558470473e+07 7.159366833517e+07 6.853400771321e+07 6.572571131169e+07 6.314198690322e+07 6.075951523879e+07 5.855792601015e+07 5.651936210820e+07 5.462811671612e+07 5.287032995975e+07 5.123373432853e+07 4.970744008727e+07 4.828175370896e+07 4.694802355168e+07 4.569850832995e+07 4.452626450652e+07 4.342504965791e+07 4.238923915882e+07 4.141375419766e+07 4.049399925021e+07 3.962580768008e+07 3.880539398115e+07 3.802931157511e+07 3.729441470870e+07 3.659782303956e+07 3.593688654680e+07 3.530914739634e+07 3.471226228407e+07 8.703979522699e+07 8.261457654364e+07 7.859547057586e+07 7.493558424324e+07 7.159366788752e+07 6.853400729758e+07 6.572571092247e+07 6.314198653860e+07 6.075951490825e+07 5.855792571547e+07 5.651936184911e+07 5.462811647139e+07 5.287032973433e+07 5.123373414154e+07 4.970743997918e+07 4.828175368144e+07 4.694802360102e+07 4.569850843908e+07 4.452626468531e+07 4.342504991330e+07 4.238923949747e+07 4.141375459364e+07 4.049399969453e+07 3.962580816072e+07 3.880539451309e+07 3.802931215093e+07 3.729441532076e+07 3.659782365738e+07 3.593688714993e+07 3.530914795839e+07 3.471226282340e+07 8.703979187804e+07 8.261457352140e+07 7.859546785924e+07 7.493558179743e+07 7.159366566880e+07 6.853400527856e+07 6.572570909667e+07 6.314198490901e+07 6.075951345768e+07 5.855792444076e+07 5.651936074232e+07 5.462811555628e+07 5.287032901680e+07 5.123373361570e+07 4.970743961755e+07 4.828175347657e+07 4.694802355738e+07 4.569850856911e+07 4.452626498596e+07 4.342505038059e+07 4.238924013462e+07 4.141375541677e+07 4.049400070546e+07 3.962580934933e+07 3.880539585071e+07 3.802931362530e+07 3.729441693113e+07 3.659782541519e+07 3.593688906043e+07 3.530915002093e+07 3.471226505192e+07 8.703978545121e+07 8.261456793274e+07 7.859546299887e+07 7.493557756257e+07 7.159366197277e+07 6.853400204018e+07 6.572570624991e+07 6.314198240756e+07 6.075951128743e+07 5.855792258703e+07 5.651935919490e+07 5.462811429095e+07 5.287032801676e+07 5.123373287169e+07 4.970743912389e+07 4.828175323258e+07 4.694802355776e+07 4.569850881441e+07 4.452626547558e+07 4.342505111208e+07 4.238924109207e+07 4.141375659650e+07 4.049400211345e+07 3.962581101096e+07 3.880539779112e+07 3.802931586208e+07 3.729441946789e+07 3.659782825582e+07 3.593689220679e+07 3.530915347628e+07 3.471226890416e+07 8.703977597925e+07 8.261456017003e+07 7.859545644218e+07 7.493557196687e+07 7.159365716608e+07 6.853399790761e+07 6.572570269410e+07 6.314197934806e+07 6.075950865868e+07 5.855792035486e+07 5.651935734392e+07 5.462811280356e+07 5.287032687570e+07 5.123373205959e+07 4.970743863966e+07 4.828175307245e+07 4.694802371784e+07 4.569850928282e+07 4.452626625079e+07 4.342505218956e+07 4.238924247217e+07 4.141375826268e+07 4.049400406403e+07 3.962581325224e+07 3.880540034167e+07 3.802931873062e+07 3.729442266319e+07 3.659783177925e+07 3.593689607676e+07 3.530915770666e+07 3.471227349938e+07 8.703976554072e+07 8.261455140361e+07 7.859544901348e+07 7.493556564910e+07 7.159365177566e+07 6.853399329326e+07 6.572569875036e+07 6.314197600212e+07 6.075950585015e+07 5.855791802966e+07 5.651935546124e+07 5.462811135136e+07 5.287032584448e+07 5.123373143101e+07 4.970743837536e+07 4.828175313986e+07 4.694802409835e+07 4.569850997082e+07 4.452626722906e+07 4.342505344411e+07 4.238924399909e+07 4.141376007807e+07 4.049400617991e+07 3.962581566830e+07 3.880540305193e+07 3.802932175096e+07 3.729442602869e+07 3.659783554468e+07 3.593690029277e+07 3.530916242468e+07 3.471227879285e+07 8.703975522738e+07 8.261454265454e+07 7.859544153291e+07 7.493555923967e+07 7.159364628558e+07 6.853398860408e+07 6.572569476249e+07 6.314197263373e+07 6.075950305177e+07 5.855791576795e+07 5.651935369912e+07 5.462811003733e+07 5.287032493225e+07 5.123373089471e+07 4.970743820792e+07 4.828175332981e+07 4.694802462025e+07 4.569851079162e+07 4.452626832941e+07 4.342505481927e+07 4.238924564434e+07 4.141376198384e+07 4.049400834346e+07 3.962581810844e+07 3.880540580399e+07 3.802932483827e+07 3.729442945813e+07 3.659783930683e+07 3.593690437444e+07 3.530916680831e+07 3.471228343863e+07 8.703974589920e+07 8.261453476795e+07 7.859543479262e+07 7.493555347180e+07 7.159364135957e+07 6.853398442396e+07 6.572569125366e+07 6.314196973867e+07 6.075950071172e+07 5.855791392646e+07 5.651935230744e+07 5.462810905577e+07 5.287032432039e+07 5.123373061165e+07 4.970743821477e+07 4.828175360294e+07 4.694802514843e+07 4.569851156562e+07 4.452626933552e+07 4.342505604488e+07 4.238924708453e+07 4.141376364754e+07 4.049401023463e+07 3.962582022364e+07 3.880540813637e+07 3.802932740371e+07 3.729443229132e+07 3.659784245231e+07 3.593690787116e+07 3.530917069720e+07 3.471228776556e+07 8.703973874515e+07 8.261452847626e+07 7.859542934242e+07 7.493554881349e+07 7.159363741971e+07 6.853398110773e+07 6.572568847314e+07 6.314196741957e+07 6.075949880430e+07 5.855791239345e+07 5.651935111181e+07 5.462810816740e+07 5.287032371924e+07 5.123373028601e+07 4.970743815593e+07 4.828175378812e+07 4.694802554701e+07 4.569851214903e+07 4.452627009380e+07 4.342505697704e+07 4.238924820138e+07 4.141376495441e+07 4.049401174305e+07 3.962582193916e+07 3.880541006446e+07 3.802932954011e+07 3.729443463170e+07 3.659784498491e+07 3.593691058214e+07 3.530917356347e+07 3.471229070097e+07 8.703973366983e+07 8.261452355579e+07 7.859542528605e+07 7.493554554197e+07 7.159363476635e+07 6.853397894067e+07 6.572568669681e+07 6.314196596178e+07 6.075949761424e+07 5.855791143844e+07 5.651935037985e+07 5.462810763940e+07 5.287032337520e+07 5.123373010421e+07 4.970743812861e+07 4.828175391273e+07 4.694802581451e+07 4.569851253841e+07 4.452627058119e+07 4.342505754882e+07 4.238924885650e+07 4.141376570015e+07 4.049401258855e+07 3.962582289871e+07 3.880541116516e+07 3.802933082001e+07 3.729443613347e+07 3.659784674233e+07 3.593691260635e+07 3.530917581468e+07 3.471229309629e+07 8.703973031147e+07 8.261452255331e+07 7.859542519600e+07 7.493554582785e+07 7.159363523048e+07 6.853397949601e+07 6.572568730871e+07 6.314196662868e+07 6.075949833945e+07 5.855791220658e+07 5.651935116065e+07 5.462810840505e+07 5.287032411152e+07 5.123373080807e+07 4.970743879298e+07 4.828175453397e+07 4.694802640177e+07 4.569851311833e+07 4.452627118094e+07 4.342505819087e+07 4.238924955532e+07 4.141376647078e+07 4.049401344134e+07 3.962582384397e+07 3.880541220574e+07 3.802933196143e+07 3.729443738068e+07 3.659784812655e+07 3.593691420606e+07 3.530917782415e+07 3.471229595293e+07 
        </DataArray>
        <DataArray type="Float64" Name="STRESS_2" format="ascii">