<?xml version="1.0"?>
<!-- Time step: 1 | Time: 1.000000000000e+00 -->
<VTKFile type="UnstructuredGrid" version="0.1" byte_order="LittleEndian">
  <UnstructuredGrid>
    <Piece NumberOfPoints="527" NumberOfCells="480">
      <Points>
        <DataArray type="Float64" NumberOfComponents="3" format="ascii">
          1.000000000000e-03 0.000000000000e+00 0.000000000000e+00
          1.033333333333e-03 0.000000000000e+00 0.000000000000e+00
          1.066666666667e-03 0.000000000000e+00 0.000000000000e+00
          1.100000000000e-03 0.000000000000e+00 0.000000000000e+00
          1.133333333333e-03 0.000000000000e+00 0.000000000000e+00
          1.166666666667e-03 0.000000000000e+00 0.000000000000e+00
          1.200000000000e-03 0.000000000000e+00 0.000000000000e+00
          1.233333333333e-03 0.000000000000e+00 0.000000000000e+00
          1.266666666667e-03 0.000000000000e+00 0.000000000000e+00
          1.300000000000e-03 0.000000000000e+00 0.000000000000e+00
          1.333333333333e-03 0.000000000000e+00 0.000000000000e+00
          1.366666666667e-03 0.000000000000e+00 0.000000000000e+00
          1.400000000000e-03 0.000000000000e+00 0.000000000000e+00
          1.433333333333e-03 0.000000000000e+00 0.000000000000e+00
          1.466666666667e-03 0.000000000000e+00 0.000000000000e+00
          1.500000000000e-03 0.000000000000e+00 0.000000000000e+00
          1.533333333333e-03 0.000000000000e+00 0.000000000000e+00
          1.566666666667e-03 0.000000000000e+00 0.000000000000e+00
          1.600000000000e-03 0.000000000000e+00 0.000000000000e+00
          1.633333333333e-03 0.000000000000e+00 0.000000000000e+00
          1.666666666667e-03 0.000000000000e+00 0.000000000000e+00
          1.700000000000e-03 0.000000000000e+00 0.000000000000e+00
          1.733333333333e-03 0.000000000000e+00 0.000000000000e+00
          1.766666666667e-03 0.000000000000e+00 0.000000000000e+00
          1.800000000000e-03 0.000000000000e+00 0.000000000000e+00
          1.833333333333e-03 0.000000000000e+00 0.000000000000e+00
          1.866666666667e-03 0.000000000000e+00 0.000000000000e+00
          1.900000000000e-03 0.000000000000e+00 0.000000000000e+00
          1.933333333333e-03 0.000000000000e+00 0.000000000000e+00
          1.966666666667e-03 0.000000000000e+00 0.000000000000e+00
          2.000000000000e-03 0.000000000000e+00 0.000000000000e+00
          9.951847265300e-04 9.801714177290e-05 0.000000000000e+00
          1.028357550748e-03 1.012843798320e-04 0.000000000000e+00
          1.061530374965e-03 1.045516178911e-04 0.000000000000e+00
          1.094703199183e-03 1.078188559502e-04 0.000000000000e+00
          1.127876023401e-03 1.110860940093e-04 0.000000000000e+00
          1.161048847618e-03 1.143533320684e-04 0.000000000000e+00
          1.194221671836e-03 1.176205701275e-04 0.000000000000e+00
          1.227394496054e-03 1.208878081866e-04 0.000000000000e+00
          1.260567320271e-03 1.241550462457e-04 0.000000000000e+00
          1.293740144489e-03 1.274222843048e-04 0.000000000000e+00
          1.326912968707e-03 1.306895223639e-04 0.000000000000e+00
          1.360085792924e-03 1.339567604230e-04 0.000000000000e+00
          1.393258617142e-03 1.372239984821e-04 0.000000000000e+00
          1.426431441360e-03 1.404912365412e-04 0.000000000000e+00
          1.459604265577e-03 1.437584746002e-04 0.000000000000e+00
          1.492777089795e-03 1.470257126593e-04 0.000000000000e+00
          1.525949914013e-03 1.502929507184e-04 0.000000000000e+00
          1.559122738230e-03 1.535601887775e-04 0.000000000000e+00
          1.592295562448e-03 1.568274268366e-04 0.000000000000e+00
          1.625468386666e-03 1.600946648957e-04 0.000000000000e+00
          1.658641210883e-03 1.633619029548e-04 0.000000000000e+00
          1.691814035101e-03 1.666291410139e-04 0.000000000000e+00
          1.724986859319e-03 1.698963790730e-04 0.000000000000e+00
          1.758159683536e-03 1.731636171321e-04 0.000000000000e+00
          1.791332507754e-03 1.764308551912e-04 0.000000000000e+00
          1.824505331972e-03 1.796980932503e-04 0.000000000000e+00
          1.857678156189e-03 1.829653313094e-04 0.000000000000e+00
          1.890850980407e-03 1.862325693685e-04 0.000000000000e+00
          1.924023804625e-03 1.894998074276e-04 0.000000000000e+00
          1.957196628842e-03 1.927670454867e-04 0.000000000000e+00
          1.990369453060e-03 1.960342835458e-04 0.000000000000e+00
          9.807852798373e-04 1.950903248610e-04 0.000000000000e+00
          1.013478122499e-03 2.015933356897e-04 0.000000000000e+00
          1.046170965160e-03 2.080963465184e-04 0.000000000000e+00
          1.078863807821e-03 2.145993573471e-04 0.000000000000e+00
          1.111556650482e-03 2.211023681758e-04 0.000000000000e+00
          1.144249493144e-03 2.276053790045e-04 0.000000000000e+00
          1.176942335805e-03 2.341083898332e-04 0.000000000000e+00
          1.209635178466e-03 2.406114006619e-04 0.000000000000e+00
          1.242328021127e-03 2.471144114906e-04 0.000000000000e+00
          1.275020863789e-03 2.536174223193e-04 0.000000000000e+00
          1.307713706450e-03 2.601204331480e-04 0.000000000000e+00
          1.340406549111e-03 2.666234439767e-04 0.000000000000e+00
          1.373099391772e-03 2.731264548054e-04 0.000000000000e+00
          1.405792234434e-03 2.796294656341e-04 0.000000000000e+00
          1.438485077095e-03 2.861324764628e-04 0.000000000000e+00
          1.471177919756e-03 2.926354872915e-04 0.000000000000e+00
          1.503870762417e-03 2.991384981202e-04 0.000000000000e+00
          1.536563605079e-03 3.056415089489e-04 0.000000000000e+00
          1.569256447740e-03 3.121445197776e-04 0.000000000000e+00
          1.601949290401e-03 3.186475306064e-04 0.000000000000e+00
          1.634642133062e-03 3.251505414351e-04 0.000000000000e+00
          1.667334975723e-03 3.316535522638e-04 0.000000000000e+00
          1.700027818385e-03 3.381565630925e-04 0.000000000000e+00
          1.732720661046e-03 3.446595739212e-04 0.000000000000e+00
          1.765413503707e-03 3.511625847499e-04 0.000000000000e+00
          1.798106346368e-03 3.576655955786e-04 0.000000000000e+00
          1.830799189030e-03 3.641686064073e-04 0.000000000000e+00
          1.863492031691e-03 3.706716172360e-04 0.000000000000e+00
          1.896184874352e-03 3.771746280647e-04 0.000000000000e+00
          1.928877717013e-03 3.836776388934e-04 0.000000000000e+00
          1.961570559675e-03 3.901806497221e-04 0.000000000000e+00
          9.569403344692e-04 2.902846814181e-04 0.000000000000e+00
          9.888383456182e-04 2.999608374653e-04 0.000000000000e+00
          1.020736356767e-03 3.096369935126e-04 0.000000000000e+00
          1.052634367916e-03 3.193131495599e-04 0.000000000000e+00
          1.084532379065e-03 3.289893056071e-04 0.000000000000e+00
          1.116430390214e-03 3.386654616544e-04 0.000000000000e+00
          1.148328401363e-03 3.483416177017e-04 0.000000000000e+00
          1.180226412512e-03 3.580177737490e-04 0.000000000000e+00
          1.212124423661e-03 3.676939297962e-04 0.000000000000e+00
          1.244022434810e-03 3.773700858435e-04 0.000000000000e+00
          1.275920445959e-03 3.870462418908e-04 0.000000000000e+00
          1.307818457108e-03 3.967223979380e-04 0.000000000000e+00
          1.339716468257e-03 4.063985539853e-04 0.000000000000e+00
          1.371614479406e-03 4.160747100326e-04 0.000000000000e+00
          1.403512490555e-03 4.257508660798e-04 0.000000000000e+00
          1.435410501704e-03 4.354270221271e-04 0.000000000000e+00
          1.467308512853e-03 4.451031781744e-04 0.000000000000e+00
          1.499206524002e-03 4.547793342216e-04 0.000000000000e+00
          1.531104535151e-03 4.644554902689e-04 0.000000000000e+00
          1.563002546300e-03 4.741316463162e-04 0.000000000000e+00
          1.594900557449e-03 4.838078023634e-04 0.000000000000e+00
          1.626798568598e-03 4.934839584107e-04 0.000000000000e+00
          1.658696579747e-03 5.031601144580e-04 0.000000000000e+00
          1.690594590896e-03 5.128362705053e-04 0.000000000000e+00
          1.722492602045e-03 5.225124265525e-04 0.000000000000e+00
          1.754390613194e-03 5.321885825998e-04 0.000000000000e+00
          1.786288624343e-03 5.418647386471e-04 0.000000000000e+00
          1.818186635491e-03 5.515408946943e-04 0.000000000000e+00
          1.850084646640e-03 5.612170507416e-04 0.000000000000e+00
          1.881982657789e-03 5.708932067889e-04 0.000000000000e+00
          1.913880668938e-03 5.805693628361e-04 0.000000000000e+00
          9.238795302912e-04 3.826834377248e-04 0.000000000000e+00
          9.546755146343e-04 3.954395523156e-04 0.000000000000e+00
          9.854714989773e-04 4.081956669064e-04 0.000000000000e+00
          1.016267483320e-03 4.209517814972e-04 0.000000000000e+00
          1.047063467663e-03 4.337078960881e-04 0.000000000000e+00
          1.077859452006e-03 4.464640106789e-04 0.000000000000e+00
          1.108655436349e-03 4.592201252697e-04 0.000000000000e+00
          1.139451420693e-03 4.719762398606e-04 0.000000000000e+00
          1.170247405036e-03 4.847323544514e-04 0.000000000000e+00
          1.201043389379e-03 4.974884690422e-04 0.000000000000e+00
          1.231839373722e-03 5.102445836330e-04 0.000000000000e+00
          1.262635358065e-03 5.230006982239e-04 0.000000000000e+00
          1.293431342408e-03 5.357568128147e-04 0.000000000000e+00
          1.324227326751e-03 5.485129274055e-04 0.000000000000e+00
          1.355023311094e-03 5.612690419963e-04 0.000000000000e+00
          1.385819295437e-03 5.740251565872e-04 0.000000000000e+00
          1.416615279780e-03 5.867812711780e-04 0.000000000000e+00
          1.447411264123e-03 5.995373857688e-04 0.000000000000e+00
          1.478207248466e-03 6.122935003596e-04 0.000000000000e+00
          1.509003232809e-03 6.250496149505e-04 0.000000000000e+00
[...]
      <PointData Scalars="DISPLACEMENT_X1">
        <DataArray type="Float64" Name="STRESS_1" format="ascii">
          8.703968640591e+07 8.261448056818e+07 7.859538695714e+07 7.493551150428e+07 7.159360458300e+07 6.853395231260e+07 6.572566328986e+07 6.314194555994e+07 6.075947994792e+07 5.855789632803e+07 5.651933761768e+07 5.462809711135e+07 5.287031496246e+07 5.123372373605e+07 4.970743372248e+07 4.828175141247e+07 4.694802519009e+07 4.569851378488e+07 4.452627370667e+07 4.342506254273e+07 4.238925570189e+07 4.141377436905e+07 4.049402306086e+07 3.962583514997e+07 3.880542516162e+07 3.802934651631e+07 3.729445347558e+07 3.659786569191e+07 3.593693314430e+07 3.530919795268e+07 3.471231705842e+07 8.703968403318e+07 8.261448044322e+07 7.859538704887e+07 7.493551155388e+07 7.159360454513e+07 6.853395219953e+07 6.572566310367e+07 6.314194531805e+07 6.075947965333e+07 5.855789599585e+07 5.651933724760e+07 5.462809670661e+07 5.287031451881e+07 5.123372325328e+07 4.970743320272e+07 4.828175085209e+07 4.694802459266e+07 4.569851313522e+07 4.452627300986e+07 4.342506177799e+07 4.238925488611e+07 4.141377347672e+07 4.049402211110e+07 3.962583410641e+07 3.880542404830e+07 3.802934529949e+07 3.729445218981e+07 3.659786431458e+07 3.593693172661e+07 3.530919650158e+07 3.471231560229e+07 8.703969075025e+07 8.261448610369e+07 7.859539193199e+07 7.493551575067e+07 7.159360822955e+07 6.853395539471e+07 6.572566593011e+07 6.314194777404e+07 6.075948182031e+07 5.855789786666e+07 5.651933887286e+07 5.462809808241e+07 5.287031567163e+07 5.123372418224e+07 4.970743391750e+07 4.828175135103e+07 4.694802487508e+07 4.569851319783e+07 4.452627284784e+07 4.342506138360e+07 4.238925424981e+07 4.141377258689e+07 4.049402095687e+07 3.962583267465e+07 3.880542232507e+07 3.802934326674e+07 3.729444982652e+07 3.659786159617e+07 3.593692862645e+07 3.530919299848e+07 3.471231163724e+07 8.703970090729e+07 8.261449478642e+07 7.859539944273e+07 7.493552225972e+07 7.159361391972e+07 6.853396035137e+07 6.572567028163e+07 6.314195155229e+07 6.075948511853e+07 5.855790068815e+07 5.651934128510e+07 5.462810008407e+07 5.287031731017e+07 5.123372545858e+07 4.970743484830e+07 4.828175194244e+07 4.694802512179e+07 4.569851311733e+07 4.452627241748e+07 4.342506062320e+07 4.238925312287e+07 4.141377111144e+07 4.049401909518e+07 3.962583044288e+07 3.880541968351e+07 3.802934021847e+07 3.729444632893e+07 3.659785764518e+07 3.593692418179e+07 3.530918805559e+07 3.471230613660e+07 8.703971344714e+07 8.261450567159e+07 7.859540891141e+07 7.493553054460e+07 7.159362114055e+07 6.853396666428e+07 6.572567575689e+07 6.314195629460e+07 6.075948918140e+07 5.855790413837e+07 5.651934417070e+07 5.462810243479e+07 5.287031916542e+07 5.123372682386e+07 4.970743576300e+07 4.828175240572e+07 4.694802516168e+07 4.569851272863e+07 4.452627161033e+07 4.342505940288e+07 4.238925148404e+07 4.141376907142e+07 4.049401662905e+07 3.962582757519e+07 3.880541637584e+07 3.802933650214e+07 3.729444215986e+07 3.659785305242e+07 3.593691911657e+07 3.530918254257e+07 3.471230012170e+07 8.703972760312e+07 8.261451810147e+07 7.859541980729e+07 7.493554010390e+07 7.159362947600e+07 6.853397394099e+07 6.572568203457e+07 6.314196171462e+07 6.075949376204e+07 5.855790800067e+07 5.651934731034e+07 5.462810495159e+07 5.287032104813e+07 5.123372814940e+07 4.970743652834e+07 4.828175266076e+07 4.694802491050e+07 4.569851199531e+07 4.452627040897e+07 4.342505774405e+07 4.238924938697e+07 4.141376654120e+07 4.049401368145e+07 3.962582421650e+07 3.880541261849e+07 3.802933235960e+07 3.729443763758e+07 3.659784816146e+07 3.593691386027e+07 3.530917693592e+07 3.471229417009e+07 8.703974297912e+07 8.261453167253e+07 7.859543176300e+07 7.493555058671e+07 7.159363864174e+07 6.853398190479e+07 6.572568892082e+07 6.314196760938e+07 6.075949874701e+07 5.855791214797e+07 5.651935066854e+07 5.462810759303e+07 5.287032299193e+07 5.123372946856e+07 4.970743721650e+07 4.828175278517e+07 4.694802446095e+07 4.569851103297e+07 4.452626893175e+07 4.342505578959e+07 4.238924696776e+07 4.141376367243e+07 4.049401039480e+07 3.962582051009e+07 3.880540853608e+07 3.802932789208e+07 3.729443283274e+07 3.659784301791e+07 3.593690842406e+07 3.530917121065e+07 3.471228819146e+07 8.703975940066e+07 8.261454613140e+07 7.859544448553e+07 7.493556173158e+07 7.159364840048e+07 6.853399038231e+07 6.572569627081e+07 6.314197388772e+07 6.075950409124e+07 5.855791657588e+07 5.651935430109e+07 5.462811042449e+07 5.287032512956e+07 5.123373089336e+07 4.970743801590e+07 4.828175294790e+07 4.694802405314e+07 4.569851005219e+07 4.452626741855e+07 4.342505375238e+07 4.238924443301e+07 4.141376065205e+07 4.049400691810e+07 3.962581658148e+07 3.880540419401e+07 3.802932312136e+07 3.729442769033e+07 3.659783748071e+07 3.593690256011e+07 3.530916499498e+07 3.471228167572e+07 8.703977655837e+07 8.261456114168e+07 7.859545763132e+07 7.493557325360e+07 7.159365846814e+07 6.853399916768e+07 6.572570388654e+07 6.314198045713e+07 6.075950969312e+07 5.855792129480e+07 5.651935819749e+07 5.462811354083e+07 5.287032752525e+07 5.123373258240e+07 4.970743906853e+07 4.828175334702e+07 4.694802387121e+07 4.569850925532e+07 4.452626607550e+07 4.342505183498e+07 4.238924199000e+07 4.141375767550e+07 4.049400341447e+07 3.962581257507e+07 3.880539965438e+07 3.802931811138e+07 3.729442215169e+07 3.659783149132e+07 3.593689605253e+07 3.530915804146e+07 3.471227422057e+07 8.703979374950e+07 8.261457607668e+07 7.859547066664e+07 7.493558465381e+07 7.159366844137e+07 6.853400789047e+07 6.572571148628e+07 6.314198706172e+07 6.075951536591e+07 5.855792614091e+07 5.651936223210e+07 5.462811686797e+07 5.287033012035e+07 5.123373455405e+07 4.970744035908e+07 4.828175406370e+07 4.694802393991e+07 4.569850877680e+07 4.452626498182e+07 4.342505019915e+07 4.238923976259e+07 4.141375488845e+07 4.049400005403e+07 3.962580863053e+07 3.880539514530e+07 3.802931298952e+07 3.729441645524e+07 3.659782515439e+07 3.593688911657e+07 3.530915045253e+07 3.471226597290e+07 8.703980986567e+07 8.261459003869e+07 7.859548284100e+07 7.493559530433e+07 7.159367778292e+07 6.853401607721e+07 6.572571865912e+07 6.314199330737e+07 6.075952078754e+07 5.855793077535e+07 5.651936616904e+07 5.462812011206e+07 5.287033275359e+07 5.123373654862e+07 4.970744179244e+07 4.828175489487e+07 4.694802423936e+07 4.569850849706e+07 4.452626417433e+07 4.342504882142e+07 4.238923783937e+07 4.141375239513e+07 4.049399699070e+07 3.962580499120e+07 3.880539089972e+07 3.802930814178e+07 3.729441095947e+07 3.659781902012e+07 3.593688229102e+07 3.530914294434e+07 3.471225770210e+07 8.703982367390e+07 8.261460205171e+07 7.859549335418e+07 7.493560453483e+07 7.159368589642e+07 6.853402320708e+07 6.572572490547e+07 6.314199876247e+07 6.075952551559e+07 5.855793484525e+07 5.651936961303e+07 5.462812298078e+07 5.287033505854e+07 5.123373833287e+07 4.970744305365e+07 4.828175566906e+07 4.694802451608e+07 4.569850830061e+07 4.452626348837e+07 4.342504766144e+07 4.238923619571e+07 4.141375026921e+07 4.049399436984e+07 3.962580186021e+07 3.880538725271e+07 3.802930395746e+07 3.729440623337e+07 3.659781372228e+07 3.593687641160e+07 3.530913645401e+07 3.471225055906e+07 8.703983422694e+07 8.261461136354e+07 7.859550158397e+07 7.493561180609e+07 7.159369231282e+07 6.853402885307e+07 6.572572985203e+07 6.314200306861e+07 6.075952923367e+07 5.855793801420e+07 5.651937226871e+07 5.462812514978e+07 5.287033677316e+07 5.123373961219e+07 4.970744392122e+07 4.828175613296e+07 4.694802459393e+07 4.569850799700e+07 4.452626281758e+07 4.342504662518e+07 4.238923480289e+07 4.141374851907e+07 4.049399226674e+07 3.962579940457e+07 3.880538444688e+07 3.802930080060e+07 3.729440271918e+07 3.659780984465e+07 3.593687216224e+07 3.530913183268e+07 3.471224554870e+07 8.703984114335e+07 8.261461763774e+07 7.859550723429e+07 7.493561686281e+07 7.159369680762e+07 6.853403281705e+07 6.572573331678e+07 6.314200606089e+07 6.075953177813e+07 5.855794013676e+07 5.651937399517e+07 5.462812650564e+07 5.287033777600e+07 5.123374028369e+07 4.970744427491e+07 4.828175619187e+07 4.694802436970e+07 4.569850751616e+07 4.452626208960e+07 4.342504567420e+07 4.238923363310e+07 4.141374715678e+07 4.049399071807e+07 3.962579769539e+07 3.880538257984e+07 3.802929879923e+07 3.729440058860e+07 3.659780760805e+07 3.593686982631e+07 3.530912941368e+07 3.471224307041e+07 8.703984465002e+07 8.261462098461e+07 7.859551036862e+07 7.493561975481e+07 7.159369944620e+07 6.853403518163e+07 6.572573539475e+07 6.314200783938e+07 6.075953326115e+07 5.855794132538e+07 5.651937490488e+07 5.462812714250e+07 5.287033816279e+07 5.123374042701e+07 4.970744420496e+07 4.828175591799e+07 4.694802392868e+07 4.569850691171e+07 4.452626136072e+07 4.342504482669e+07 4.238923271494e+07 4.141374617265e+07 4.049398971399e+07 3.962579667351e+07 3.880538158538e+07 3.802929783534e+07 3.729439969813e+07 3.659780679938e+07 3.593686914293e+07 3.530912886893e+07 3.471224271498e+07 8.703984542624e+07 8.261462149534e+07 7.859551125038e+07 7.493562089409e+07 7.159370067128e+07 6.853403635838e+07 6.572573645537e+07 6.314200873533e+07 6.075953398040e+07 5.855794185726e+07 5.651937526056e+07 5.462812732436e+07 5.287033818602e+07 5.123374030122e+07 4.970744394859e+07 4.828175554372e+07 4.694802345453e+07 4.569850635601e+07 4.452626074761e+07 4.342504417970e+07 4.238923206146e+07 4.141374553778e+07 4.049398912991e+07 3.962579617021e+07 3.880538120765e+07 3.802929761836e+07 3.729439968681e+07 3.659780700930e+07 3.593686958807e+07 3.530912948934e+07 3.471224342619e+07 8.703984396655e+07 8.261462227666e+07 7.859551278687e+07 7.493562261002e+07 7.159370237256e+07 6.853403795971e+07 6.572573794302e+07 6.314201008970e+07 6.075953521582e+07 5.855794296623e+07 5.651937626072e+07 5.462812821213e+07 5.287033897606e+07 5.123374099537e+07 4.970744455850e+07 4.828175608041e+07 4.694802392345e+07 4.569850677481e+07 4.452626111244e+07 4.342504451641e+07 4.238923235936e+07 4.141374583471e+07 4.049398941373e+07 3.962579649225e+07 3.880538155624e+07 3.802929806187e+07 3.729440023466e+07 3.659780777958e+07 3.593687067454e+07 3.530913117774e+07 3.471224625296e+07 
        </DataArray>
        <DataArray type="Float64" Name="STRESS_2" format="ascii">