<?xml version="1.0"?>
<!-- Time step: 140 | Time: 5.000000000000e+02 -->
<VTKFile type="UnstructuredGrid" version="0.1" byte_order="LittleEndian">
  <UnstructuredGrid>
    <Piece NumberOfPoints="529" NumberOfCells="484">
      <Points>
        <DataArray type="Float64" NumberOfComponents="3" format="ascii">
          0.000000000000e+00 0.000000000000e+00 0.000000000000e+00
          1.650000000000e-03 0.000000000000e+00 0.000000000000e+00
          1.650000000000e-03 1.650000000000e-03 0.000000000000e+00
          0.000000000000e+00 1.650000000000e-03 0.000000000000e+00
          1.650000000000e-03 5.000000000000e-03 0.000000000000e+00
          0.000000000000e+00 5.000000000000e-03 0.000000000000e+00
          5.000000000000e-03 0.000000000000e+00 0.000000000000e+00
          5.000000000000e-03 1.650000000000e-03 0.000000000000e+00
          5.000000000000e-03 5.000000000000e-03 0.000000000000e+00
          1.650000000000e-03 1.000000000000e-02 0.000000000000e+00
          0.000000000000e+00 1.000000000000e-02 0.000000000000e+00
          5.000000000000e-03 1.000000000000e-02 0.000000000000e+00
          1.650000000000e-03 1.500000000000e-02 0.000000000000e+00
          0.000000000000e+00 1.500000000000e-02 0.000000000000e+00
          5.000000000000e-03 1.500000000000e-02 0.000000000000e+00
          1.650000000000e-03 2.000000000000e-02 0.000000000000e+00
          0.000000000000e+00 2.000000000000e-02 0.000000000000e+00
          5.000000000000e-03 2.000000000000e-02 0.000000000000e+00
          1.650000000000e-03 2.500000000000e-02 0.000000000000e+00
          0.000000000000e+00 2.500000000000e-02 0.000000000000e+00
          5.000000000000e-03 2.500000000000e-02 0.000000000000e+00
          1.650000000000e-03 3.000000000000e-02 0.000000000000e+00
          0.000000000000e+00 3.000000000000e-02 0.000000000000e+00
          5.000000000000e-03 3.000000000000e-02 0.000000000000e+00
          1.650000000000e-03 3.500000000000e-02 0.000000000000e+00
          0.000000000000e+00 3.500000000000e-02 0.000000000000e+00
          5.000000000000e-03 3.500000000000e-02 0.000000000000e+00
          1.650000000000e-03 4.000000000000e-02 0.000000000000e+00
          0.000000000000e+00 4.000000000000e-02 0.000000000000e+00
          5.000000000000e-03 4.000000000000e-02 0.000000000000e+00
          1.650000000000e-03 4.500000000000e-02 0.000000000000e+00
          0.000000000000e+00 4.500000000000e-02 0.000000000000e+00
          5.000000000000e-03 4.500000000000e-02 0.000000000000e+00
          1.650000000000e-03 5.000000000000e-02 0.000000000000e+00
          0.000000000000e+00 5.000000000000e-02 0.000000000000e+00
          5.000000000000e-03 5.000000000000e-02 0.000000000000e+00
          1.650000000000e-03 5.500000000000e-02 0.000000000000e+00
          0.000000000000e+00 5.500000000000e-02 0.000000000000e+00
          5.000000000000e-03 5.500000000000e-02 0.000000000000e+00
          1.650000000000e-03 6.000000000000e-02 0.000000000000e+00
          0.000000000000e+00 6.000000000000e-02 0.000000000000e+00
          5.000000000000e-03 6.000000000000e-02 0.000000000000e+00
          1.650000000000e-03 6.500000000000e-02 0.000000000000e+00
          0.000000000000e+00 6.500000000000e-02 0.000000000000e+00
          5.000000000000e-03 6.500000000000e-02 0.000000000000e+00
          1.650000000000e-03 7.000000000000e-02 0.000000000000e+00
          0.000000000000e+00 7.000000000000e-02 0.000000000000e+00
          5.000000000000e-03 7.000000000000e-02 0.000000000000e+00
          1.650000000000e-03 7.500000000000e-02 0.000000000000e+00
          0.000000000000e+00 7.500000000000e-02 0.000000000000e+00
          5.000000000000e-03 7.500000000000e-02 0.000000000000e+00
          1.650000000000e-03 8.000000000000e-02 0.000000000000e+00
          0.000000000000e+00 8.000000000000e-02 0.000000000000e+00
          5.000000000000e-03 8.000000000000e-02 0.000000000000e+00
          1.650000000000e-03 8.500000000000e-02 0.000000000000e+00
          0.000000000000e+00 8.500000000000e-02 0.000000000000e+00
          5.000000000000e-03 8.500000000000e-02 0.000000000000e+00
          1.650000000000e-03 9.000000000000e-02 0.000000000000e+00
          0.000000000000e+00 9.000000000000e-02 0.000000000000e+00
          5.000000000000e-03 9.000000000000e-02 0.000000000000e+00
          1.650000000000e-03 9.500000000000e-02 0.000000000000e+00
          0.000000000000e+00 9.500000000000e-02 0.000000000000e+00
          5.000000000000e-03 9.500000000000e-02 0.000000000000e+00
          0.000000000000e+00 1.000000000000e-01 0.000000000000e+00
          1.650000000000e-03 1.000000000000e-01 0.000000000000e+00
          1.650000000000e-03 9.835000000000e-02 0.000000000000e+00
          0.000000000000e+00 9.835000000000e-02 0.000000000000e+00
          5.000000000000e-03 1.000000000000e-01 0.000000000000e+00
          5.000000000000e-03 9.835000000000e-02 0.000000000000e+00
          1.000000000000e-02 0.000000000000e+00 0.000000000000e+00
          1.000000000000e-02 1.650000000000e-03 0.000000000000e+00
          1.000000000000e-02 5.000000000000e-03 0.000000000000e+00
          1.000000000000e-02 1.000000000000e-02 0.000000000000e+00
          1.000000000000e-02 1.500000000000e-02 0.000000000000e+00
          1.000000000000e-02 2.000000000000e-02 0.000000000000e+00
          1.000000000000e-02 2.500000000000e-02 0.000000000000e+00
          1.000000000000e-02 3.000000000000e-02 0.000000000000e+00
          1.000000000000e-02 3.500000000000e-02 0.000000000000e+00
          1.000000000000e-02 4.000000000000e-02 0.000000000000e+00
          1.000000000000e-02 4.500000000000e-02 0.000000000000e+00
          1.000000000000e-02 5.000000000000e-02 0.000000000000e+00
          1.000000000000e-02 5.500000000000e-02 0.000000000000e+00
          1.000000000000e-02 6.000000000000e-02 0.000000000000e+00
          1.000000000000e-02 6.500000000000e-02 0.000000000000e+00
          1.000000000000e-02 7.000000000000e-02 0.000000000000e+00
          1.000000000000e-02 7.500000000000e-02 0.000000000000e+00
          1.000000000000e-02 8.000000000000e-02 0.000000000000e+00
          1.000000000000e-02 8.500000000000e-02 0.000000000000e+00
          1.000000000000e-02 9.000000000000e-02 0.000000000000e+00
          1.000000000000e-02 9.500000000000e-02 0.000000000000e+00
          1.000000000000e-02 1.000000000000e-01 0.000000000000e+00
          1.000000000000e-02 9.835000000000e-02 0.000000000000e+00
          1.500000000000e-02 0.000000000000e+00 0.000000000000e+00
          1.500000000000e-02 1.650000000000e-03 0.000000000000e+00
          1.500000000000e-02 5.000000000000e-03 0.000000000000e+00
          1.500000000000e-02 1.000000000000e-02 0.000000000000e+00
          1.500000000000e-02 1.500000000000e-02 0.000000000000e+00
          1.500000000000e-02 2.000000000000e-02 0.000000000000e+00
          1.500000000000e-02 2.500000000000e-02 0.000000000000e+00
          1.500000000000e-02 3.000000000000e-02 0.000000000000e+00
          1.500000000000e-02 3.500000000000e-02 0.000000000000e+00
          1.500000000000e-02 4.000000000000e-02 0.000000000000e+00
          1.500000000000e-02 4.500000000000e-02 0.000000000000e+00
          1.500000000000e-02 5.000000000000e-02 0.000000000000e+00
          1.500000000000e-02 5.500000000000e-02 0.000000000000e+00
          1.500000000000e-02 6.000000000000e-02 0.000000000000e+00
          1.500000000000e-02 6.500000000000e-02 0.000000000000e+00
          1.500000000000e-02 7.000000000000e-02 0.000000000000e+00
          1.500000000000e-02 7.500000000000e-02 0.000000000000e+00
          1.500000000000e-02 8.000000000000e-02 0.000000000000e+00
          1.500000000000e-02 8.500000000000e-02 0.000000000000e+00
          1.500000000000e-02 9.000000000000e-02 0.000000000000e+00
          1.500000000000e-02 9.500000000000e-02 0.000000000000e+00
          1.500000000000e-02 1.000000000000e-01 0.000000000000e+00
          1.500000000000e-02 9.835000000000e-02 0.000000000000e+00
          2.000000000000e-02 0.000000000000e+00 0.000000000000e+00
          2.000000000000e-02 1.650000000000e-03 0.000000000000e+00
          2.000000000000e-02 5.000000000000e-03 0.000000000000e+00
          2.000000000000e-02 1.000000000000e-02 0.000000000000e+00
          2.000000000000e-02 1.500000000000e-02 0.000000000000e+00
          2.000000000000e-02 2.000000000000e-02 0.000000000000e+00
          2.000000000000e-02 2.500000000000e-02 0.000000000000e+00
          2.000000000000e-02 3.000000000000e-02 0.000000000000e+00
          2.000000000000e-02 3.500000000000e-02 0.000000000000e+00
          2.000000000000e-02 4.000000000000e-02 0.000000000000e+00
          2.000000000000e-02 4.500000000000e-02 0.000000000000e+00
          2.000000000000e-02 5.000000000000e-02 0.000000000000e+00
          2.000000000000e-02 5.500000000000e-02 0.000000000000e+00
          2.000000000000e-02 6.000000000000e-02 0.000000000000e+00
          2.000000000000e-02 6.500000000000e-02 0.000000000000e+00
          2.000000000000e-02 7.000000000000e-02 0.000000000000e+00
          2.000000000000e-02 7.500000000000e-02 0.000000000000e+00
          2.000000000000e-02 8.000000000000e-02 0.000000000000e+00
          2.000000000000e-02 8.500000000000e-02 0.000000000000e+00
          2.000000000000e-02 9.000000000000e-02 0.000000000000e+00
          2.000000000000e-02 9.500000000000e-02 0.000000000000e+00
          2.000000000000e-02 1.000000000000e-01 0.000000000000e+00
          2.000000000000e-02 9.835000000000e-02 0.000000000000e+00
          2.500000000000e-02 0.000000000000e+00 0.000000000000e+00
          2.500000000000e-02 1.650000000000e-03 0.000000000000e+00
          2.500000000000e-02 5.000000000000e-03 0.000000000000e+00
          2.500000000000e-02 1.000000000000e-02 0.000000000000e+00
          2.500000000000e-02 1.500000000000e-02 0.000000000000e+00
          2.500000000000e-02 2.000000000000e-02 0.000000000000e+00
[...]
      <PointData Scalars="PRESSURE1">
        <DataArray type="Float64" Name="PRESSURE1" format="ascii">
          2.000000000000e+05 1.991750000000e+05 1.983673165064e+05 1.991750000000e+05 1.967174329762e+05 1.975000000000e+05 1.975000000000e+05 1.967174329762e+05 1.951132015569e+05 1.942446688811e+05 1.950000000000e+05 1.926939909688e+05 1.917655535908e+05 1.925000000000e+05 1.902566703956e+05 1.892823212745e+05 1.900000000000e+05 1.878071786316e+05 1.867959888242e+05 1.875000000000e+05 1.853483893502e+05 1.843071212163e+05 1.850000000000e+05 1.828819501577e+05 1.818160575673e+05 1.825000000000e+05 1.804088608922e+05 1.793229990022e+05 1.800000000000e+05 1.779297181237e+05 1.768280492650e+05 1.775000000000e+05 1.754448292994e+05 1.743312334700e+05 1.750000000000e+05 1.729542662892e+05 1.718325049499e+05 1.725000000000e+05 1.704578847238e+05 1.693317437679e+05 1.700000000000e+05 1.679553190351e+05 1.668287473553e+05 1.675000000000e+05 1.654459543584e+05 1.643232110781e+05 1.650000000000e+05 1.629288689880e+05 1.618146926198e+05 1.625000000000e+05 1.604027300109e+05 1.593025452363e+05 1.600000000000e+05 1.578656016359e+05 1.567857829933e+05 1.575000000000e+05 1.553145637195e+05 1.542627497092e+05 1.550000000000e+05 1.527448465486e+05 1.517300317358e+05 1.525000000000e+05 1.501471692965e+05 1.500000000000e+05 1.491750000000e+05 1.500229049357e+05 1.508250000000e+05 1.475000000000e+05 1.483812751979e+05 1.950000000000e+05 1.942446688811e+05 1.926939909688e+05 1.903453354472e+05 1.879664111258e+05 1.855650622552e+05 1.831459467768e+05 1.807119381716e+05 1.782648471039e+05 1.758057728480e+05 1.733352812988e+05 1.708534911374e+05 1.683601038790e+05 1.658543918270e+05 1.633351451162e+05 1.608005674408e+05 1.582480936497e+05 1.556740710270e+05 1.530731768681e+05 1.504372685736e+05 1.477531412319e+05 1.450000000000e+05 1.459177751286e+05 1.925000000000e+05 1.917655535908e+05 1.902566703956e+05 1.879664111258e+05 1.856388212878e+05 1.832812568841e+05 1.808988819745e+05 1.784951968160e+05 1.760725188695e+05 1.736322887578e+05 1.711752447299e+05 1.687015108722e+05 1.662106247516e+05 1.637015155554e+05 1.611724325800e+05 1.586208128847e+05 1.560430623459e+05 1.534342016442e+05 1.507872937187e+05 1.480925518788e+05 1.453362318502e+05 1.425000000000e+05 1.434461019928e+05 1.900000000000e+05 1.892823212745e+05 1.878071786316e+05 1.855650622552e+05 1.832812568841e+05 1.809621419493e+05 1.786126702501e+05 1.762364759925e+05 1.738360868813e+05 1.714131112040e+05 1.689683623713e+05 1.665019237138e+05 1.640131619032e+05 1.615006931937e+05 1.589623004052e+05 1.563947912962e+05 1.537937805121e+05 1.511533688584e+05 1.484656948749e+05 1.457203800624e+05 1.429040162614e+05 1.400000000000e+05 1.409691609835e+05 1.875000000000e+05 1.867959888242e+05 1.853483893502e+05 1.831459467768e+05 1.808988819745e+05 1.786126702501e+05 1.762918220837e+05 1.739398314193e+05 1.715592244459e+05 1.691516359256e+05 1.667178702797e+05 1.642579307470e+05 1.617710119110e+05 1.592554534212e+05 1.567086512531e+05 1.541269200270e+05 1.515052975711e+05 1.488372845320e+05 1.461145255083e+05 1.433264736457e+05 1.404601308282e+05 1.375000000000e+05 1.384882633550e+05 1.850000000000e+05 1.843071212163e+05 1.828819501577e+05 1.807119381716e+05 1.784951968160e+05 1.762364759925e+05 1.739398314193e+05 1.716085150026e+05 1.692449387212e+05 1.668506747896e+05 1.644264618167e+05 1.619721982322e+05 1.594869129187e+05 1.569687072674e+05 1.544146642935e+05 1.518207209145e+05 1.491815009712e+05 1.464901116877e+05 1.437379180253e+05 1.409143277960e+05 1.380066373132e+05 1.350000000000e+05 1.360041286847e+05 1.825000000000e+05 1.818160575673e+05 1.804088608922e+05 1.782648471039e+05 1.760725188695e+05 1.738360868813e+05 1.715592244459e+05 1.692449387212e+05 1.668954922489e+05 1.645123564716e+05 1.620961781898e+05 1.596467438185e+05 1.571629310033e+05 1.546426407992e+05 1.520827061008e+05 1.494787741579e+05 1.468251639755e+05 1.441147043632e+05 1.413385657915e+05 1.384861072785e+05 1.355447632113e+05 1.325000000000e+05 1.335171801275e+05 1.800000000000e+05 1.793229990022e+05 1.779297181237e+05 1.758057728480e+05 1.736322887578e+05 1.714131112040e+05 1.691516359256e+05 1.668506747896e+05 1.645123564716e+05 1.621380530419e+05 1.597283206406e+05 1.572828429493e+05 1.548003683628e+05 1.522786343718e+05 1.497142752456e+05 1.471027117662e+05 1.444380249212e+05 1.417128193237e+05 1.389180862635e+05 1.360430790926e+05 1.330752123899e+05 1.300000000000e+05 1.310276581564e+05 1.775000000000e+05 1.768280492650e+05 1.754448292994e+05 1.733352812988e+05 1.711752447299e+05 1.689683623713e+05 1.667178702797e+05 1.644264618167e+05 1.620961781898e+05 1.597283206406e+05 1.573233762465e+05 1.548809485349e+05 1.523996850520e+05 1.498771959265e+05 1.473099598554e+05 1.446932166242e+05 1.420208482125e+05 1.392852535012e+05 1.364772239092e+05 1.335858276888e+05 1.305983075325e+05 1.275000000000e+05 1.285356721826e+05 1.750000000000e+05 1.743312334700e+05 1.729542662892e+05 1.708534911374e+05 1.687015108722e+05 1.665019237138e+05 1.642579307470e+05 1.619721982322e+05 1.596467438185e+05 1.572828429493e+05 1.548809485349e+05 1.524406158468e+05 1.499604251518e+05 1.474378962566e+05 1.448693914222e+05 1.422500057520e+05 1.395734469755e+05 1.368319091695e+05 1.340159466528e+05 1.311143539185e+05 1.281140537533e+05 1.250000000000e+05 1.260412231991e+05 1.725000000000e+05 1.718325049499e+05 1.704578847238e+05 1.683601038790e+05 1.662106247516e+05 1.640131619032e+05 1.617710119110e+05 1.594869129187e+05 1.571629310033e+05 1.548003683628e+05 1.523996850520e+05 1.499604251518e+05 1.474811391679e+05 1.449592963547e+05 1.423911830486e+05 1.397717857920e+05 1.370946609616e+05 1.343517955444e+05 1.315334658984e+05 1.286281014670e+05 1.256221568014e+05 1.225000000000e+05 1.235442103061e+05 1.700000000000e+05 1.693317437679e+05 1.679553190351e+05 1.658543918270e+05 1.637015155554e+05 1.615006931937e+05 1.592554534212e+05 1.569687072674e+05 1.546426407992e+05 1.522786343718e+05 1.498771959265e+05 1.474378962566e+05 1.449592963547e+05 1.424388595953e+05 1.398728441018e+05 1.372561733169e+05 1.345822859481e+05 1.318429703062e+05 1.290281920809e+05 1.261259270231e+05 1.231220078166e+05 1.200000000000e+05 1.210444255102e+05 1.675000000000e+05 1.668287473553e+05 1.654459543584e+05 1.633351451162e+05 1.611724325800e+05 1.589623004052e+05 1.567086512531e+05 1.544146642935e+05 1.520827061008e+05 1.497142752456e+05 1.473099598554e+05 1.448693914222e+05 1.423911830486e+05 1.398728441018e+05 1.373106657361e+05 1.346995738228e+05 1.320329487416e+05 1.293024165133e+05 1.264976233345e+05 1.236060136622e+05 1.206126348784e+05 1.175000000000e+05 1.185415369387e+05 1.650000000000e+05 1.643232110781e+05 1.629288689880e+05 1.608005674408e+05 1.586208128847e+05 1.563947912962e+05 1.541269200270e+05 1.518207209145e+05 1.494787741579e+05 1.471027117662e+05 1.446932166242e+05 1.422500057520e+05 1.397717857920e+05 1.372561733169e+05 1.346995738228e+05 1.320970133709e+05 1.294419179466e+05 1.267258407354e+05 1.239381501004e+05 1.210657110614e+05 1.180926110535e+05 1.150000000000e+05 1.160350567832e+05 1.625000000000e+05 1.618146926198e+05 1.604027300109e+05 1.582480936497e+05 1.560430623459e+05 1.537937805121e+05 1.515052975711e+05 1.491815009712e+05 1.468251639755e+05 1.444380249212e+05 1.420208482125e+05 1.395734469755e+05 1.370946609616e+05 1.345822859481e+05 1.320329487416e+05 1.294419179466e+05 1.268028369866e+05 1.241073665362e+05 1.213447383167e+05 1.185012629109e+05 1.155598924800e+05 1.125000000000e+05 1.135242844182e+05 1.600000000000e+05 1.593025452363e+05 1.578656016359e+05 1.556740710270e+05 1.534342016442e+05 1.511533688584e+05 1.488372845320e+05 1.464901116877e+05 1.441147043632e+05 1.417128193237e+05 1.392852535012e+05 1.368319091695e+05 1.343517955444e+05 1.318429703062e+05 1.293024165133e+05 1.267258407354e+05 1.241073665362e+05 1.214390849025e+05 1.187104217058e+05 1.159073368640e+05 1.130115258471e+05 1.100000000000e+05 1.110082017841e+05 1.575000000000e+05 1.567857829933e+05 1.553145637195e+05 1.530731768681e+05 1.507872937187e+05 1.484656948749e+05 1.461145255083e+05 1.437379180253e+05 1.413385657915e+05 1.389180862635e+05 1.364772239092e+05 1.340159466528e+05 1.315334658984e+05 1.290281920809e+05 1.264976233345e+05 1.239381501004e+05 1.213447383167e+05 1.187104217058e+05 1.160254829822e+05 1.132761725939e+05 1.104430729834e+05 1.075000000000e+05 1.084852648025e+05 1.550000000000e+05 1.542627497092e+05 1.527448465486e+05 1.504372685736e+05 1.480925518788e+05 1.457203800624e+05 1.433264736457e+05 1.409143277960e+05 1.384861072785e+05 1.360430790926e+05 1.335858276888e+05 1.311143539185e+05 1.286281014670e+05 1.261259270231e+05 1.236060136622e+05 1.210657110614e+05 1.185012629109e+05 1.159073368640e+05 1.132761725939e+05 1.105959088386e+05 1.078473175519e+05 1.050000000000e+05 1.059528972464e+05 1.525000000000e+05 1.517300317358e+05 1.501471692965e+05 1.477531412319e+05 1.453362318502e+05 1.429040162614e+05 1.404601308282e+05 1.380066373132e+05 1.355447632113e+05 1.330752123899e+05 1.305983075325e+05 1.281140537533e+05 1.256221568014e+05 1.231220078166e+05 1.206126348784e+05 1.180926110535e+05 1.155598924800e+05 1.130115258471e+05 1.104430729834e+05 1.078473175519e+05 1.052103248882e+05 1.025000000000e+05 1.034058443831e+05 1.500000000000e+05 1.508250000000e+05 1.500229049357e+05 1.491750000000e+05 1.483812751979e+05 1.475000000000e+05 1.459177751286e+05 1.450000000000e+05 1.434461019928e+05 1.425000000000e+05 1.409691609835e+05 1.400000000000e+05 1.384882633550e+05 1.375000000000e+05 1.360041286847e+05 1.350000000000e+05 1.335171801275e+05 1.325000000000e+05 1.310276581564e+05 1.300000000000e+05 1.285356721826e+05 1.275000000000e+05 1.260412231991e+05 1.250000000000e+05 1.235442103061e+05 1.225000000000e+05 1.210444255102e+05 1.200000000000e+05 1.185415369387e+05 1.175000000000e+05 1.160350567832e+05 1.150000000000e+05 1.135242844182e+05 1.125000000000e+05 1.110082017841e+05 1.100000000000e+05 1.084852648025e+05 1.075000000000e+05 1.059528972464e+05 1.050000000000e+05 1.034058443831e+05 1.025000000000e+05 1.000000000000e+05 1.008250000000e+05 1.016838343673e+05 1.008250000000e+05 
        </DataArray>
        <DataArray type="Float64" Name="TEMPERATURE1" format="ascii">