VARIABLES  = "X","Y","Z", "PRESSURE1", "PRESSURE2", "PRESSURE_W", "SATURATION1", SATURATION2, "VELOCITY_X1", "VELOCITY_Y1", "VELOCITY_X2", "VELOCITY_Y2"
ZONE T="0.000000000000e+00s", N=32, E=38, F=FEPOINT, ET=QUADRILATERAL
STRANDID=1, SOLUTIONTIME=0.000000000000e+00
1.000000000000e-02 0.000000000000e+00 5.000000000000e-02 8.400000000000e+07 1.000000000000e+05 -8.390000000000e+07 6.601393844892e-01 3.398606155108e-01 0.000000000000e+00 0.000000000000e+00 0.000000000000e+00 0.000000000000e+00 
1.000000000000e-02 0.000000000000e+00 4.500000000000e-02 8.400000000000e+07 1.000000000000e+05 -8.390000000000e+07 6.601393844892e-01 3.398606155108e-01 0.000000000000e+00 0.000000000000e+00 0.000000000000e+00 0.000000000000e+00 
5.000000000000e-03 0.000000000000e+00 5.000000000000e-02 8.400000000000e+07 1.000000000000e+05 -8.390000000000e+07 6.601393844892e-01 3.398606155108e-01 0.000000000000e+00 0.000000000000e+00 0.000000000000e+00 0.000000000000e+00 
5.000000000000e-03 0.000000000000e+00 4.300000000000e-02 8.400000000000e+07 1.000000000000e+05 -8.390000000000e+07 6.601393844892e-01 3.398606155108e-01 0.000000000000e+00 0.000000000000e+00 0.000000000000e+00 0.000000000000e+00 
1.000000000000e-02 0.000000000000e+00 4.000000000000e-02 8.400000000000e+07 1.000000000000e+05 -8.390000000000e+07 6.601393844892e-01 3.398606155108e-01 0.000000000000e+00 0.000000000000e+00 0.000000000000e+00 0.000000000000e+00 
0.000000000000e+00 0.000000000000e+00 5.000000000000e-02 8.400000000000e+07 1.000000000000e+05 -8.390000000000e+07 6.601393844892e-01 3.398606155108e-01 0.000000000000e+00 0.000000000000e+00 0.000000000000e+00 0.000000000000e+00 
0.000000000000e+00 0.000000000000e+00 4.500000000000e-02 8.400000000000e+07 1.000000000000e+05 -8.390000000000e+07 6.601393844892e-01 3.398606155108e-01 0.000000000000e+00 0.000000000000e+00 0.000000000000e+00 0.000000000000e+00 
6.000000000000e-03 0.000000000000e+00 3.800000000000e-02 8.400000000000e+07 1.000000000000e+05 -8.390000000000e+07 6.601393844892e-01 3.398606155108e-01 0.000000000000e+00 0.000000000000e+00 0.000000000000e+00 0.000000000000e+00 
0.000000000000e+00 0.000000000000e+00 4.000000000000e-02 8.400000000000e+07 1.000000000000e+05 -8.390000000000e+07 6.601393844892e-01 3.398606155108e-01 0.000000000000e+00 0.000000000000e+00 0.000000000000e+00 0.000000000000e+00 
1.000000000000e-02 0.000000000000e+00 3.500000000000e-02 8.400000000000e+07 1.000000000000e+05 -8.390000000000e+07 6.601393844892e-01 3.398606155108e-01 0.000000000000e+00 0.000000000000e+00 0.000000000000e+00 0.000000000000e+00 
0.000000000000e+00 0.000000000000e+00 3.500000000000e-02 8.400000000000e+07 1.000000000000e+05 -8.390000000000e+07 6.601393844892e-01 3.398606155108e-01 0.000000000000e+00 0.000000000000e+00 0.000000000000e+00 0.000000000000e+00 
4.000000000000e-03 0.000000000000e+00 3.300000000000e-02 8.400000000000e+07 1.000000000000e+05 -8.390000000000e+07 6.601393844892e-01 3.398606155108e-01 0.000000000000e+00 0.000000000000e+00 0.000000000000e+00 0.000000000000e+00 
1.000000000000e-02 0.000000000000e+00 3.000000000000e-02 8.400000000000e+07 1.000000000000e+05 -8.390000000000e+07 6.601393844892e-01 3.398606155108e-01 0.000000000000e+00 0.000000000000e+00 0.000000000000e+00 0.000000000000e+00 
0.000000000000e+00 0.000000000000e+00 3.000000000000e-02 8.400000000000e+07 1.000000000000e+05 -8.390000000000e+07 6.601393844892e-01 3.398606155108e-01 0.000000000000e+00 0.000000000000e+00 0.000000000000e+00 0.000000000000e+00 
4.000000000000e-03 0.000000000000e+00 2.800000000000e-02 8.400000000000e+07 1.000000000000e+05 -8.390000000000e+07 6.601393844892e-01 3.398606155108e-01 0.000000000000e+00 0.000000000000e+00 0.000000000000e+00 0.000000000000e+00 
1.000000000000e-02 0.000000000000e+00 2.500000000000e-02 8.400000000000e+07 1.000000000000e+05 -8.390000000000e+07 6.601393844892e-01 3.398606155108e-01 0.000000000000e+00 0.000000000000e+00 0.000000000000e+00 0.000000000000e+00 
0.000000000000e+00 0.000000000000e+00 2.500000000000e-02 8.400000000000e+07 1.000000000000e+05 -8.390000000000e+07 6.601393844892e-01 3.398606155108e-01 0.000000000000e+00 0.000000000000e+00 0.000000000000e+00 0.000000000000e+00 
4.000000000000e-03 0.000000000000e+00 2.300000000000e-02 8.400000000000e+07 1.000000000000e+05 -8.390000000000e+07 6.601393844892e-01 3.398606155108e-01 0.000000000000e+00 0.000000000000e+00 0.000000000000e+00 0.000000000000e+00 
1.000000000000e-02 0.000000000000e+00 2.000000000000e-02 8.400000000000e+07 1.000000000000e+05 -8.390000000000e+07 6.601393844892e-01 3.398606155108e-01 0.000000000000e+00 0.000000000000e+00 0.000000000000e+00 0.000000000000e+00 
0.000000000000e+00 0.000000000000e+00 2.000000000000e-02 8.400000000000e+07 1.000000000000e+05 -8.390000000000e+07 6.601393844892e-01 3.398606155108e-01 0.000000000000e+00 0.000000000000e+00 0.000000000000e+00 0.000000000000e+00 
4.000000000000e-03 0.000000000000e+00 1.800000000000e-02 8.400000000000e+07 1.000000000000e+05 -8.390000000000e+07 6.601393844892e-01 3.398606155108e-01 0.000000000000e+00 0.000000000000e+00 0.000000000000e+00 0.000000000000e+00 
1.000000000000e-02 0.000000000000e+00 1.500000000000e-02 8.400000000000e+07 1.000000000000e+05 -8.390000000000e+07 6.601393844892e-01 3.398606155108e-01 0.000000000000e+00 0.000000000000e+00 0.000000000000e+00 0.000000000000e+00 
0.000000000000e+00 0.000000000000e+00 1.500000000000e-02 8.400000000000e+07 1.000000000000e+05 -8.390000000000e+07 6.601393844892e-01 3.398606155108e-01 0.000000000000e+00 0.000000000000e+00 0.000000000000e+00 0.000000000000e+00 
4.000000000000e-03 0.000000000000e+00 1.300000000000e-02 8.400000000000e+07 1.000000000000e+05 -8.390000000000e+07 6.601393844892e-01 3.398606155108e-01 0.000000000000e+00 0.000000000000e+00 0.000000000000e+00 0.000000000000e+00 
1.000000000000e-02 0.000000000000e+00 1.000000000000e-02 8.400000000000e+07 1.000000000000e+05 -8.390000000000e+07 6.601393844892e-01 3.398606155108e-01 0.000000000000e+00 0.000000000000e+00 0.000000000000e+00 0.000000000000e+00 
0.000000000000e+00 0.000000000000e+00 1.000000000000e-02 8.400000000000e+07 1.000000000000e+05 -8.390000000000e+07 6.601393844892e-01 3.398606155108e-01 0.000000000000e+00 0.000000000000e+00 0.000000000000e+00 0.000000000000e+00 
5.000000000000e-03 0.000000000000e+00 7.000000000000e-03 8.400000000000e+07 1.000000000000e+05 -8.390000000000e+07 6.601393844892e-01 3.398606155108e-01 0.000000000000e+00 0.000000000000e+00 0.000000000000e+00 0.000000000000e+00 
1.000000000000e-02 0.000000000000e+00 5.000000000000e-03 8.400000000000e+07 1.000000000000e+05 -8.390000000000e+07 6.601393844892e-01 3.398606155108e-01 0.000000000000e+00 0.000000000000e+00 0.000000000000e+00 0.000000000000e+00 
0.000000000000e+00 0.000000000000e+00 5.000000000000e-03 8.400000000000e+07 1.000000000000e+05 -8.390000000000e+07 6.601393844892e-01 3.398606155108e-01 0.000000000000e+00 0.000000000000e+00 0.000000000000e+00 0.000000000000e+00 
1.000000000000e-02 0.000000000000e+00 0.000000000000e+00 8.400000000000e+07 1.000000000000e+05 -8.390000000000e+07 6.601393844892e-01 3.398606155108e-01 0.000000000000e+00 0.000000000000e+00 0.000000000000e+00 0.000000000000e+00 
5.000000000000e-03 0.000000000000e+00 0.000000000000e+00 8.400000000000e+07 1.000000000000e+05 -8.390000000000e+07 6.601393844892e-01 3.398606155108e-01 0.000000000000e+00 0.000000000000e+00 0.000000000000e+00 0.000000000000e+00 
0.000000000000e+00 0.000000000000e+00 0.000000000000e+00 8.400000000000e+07 1.000000000000e+05 -8.390000000000e+07 6.601393844892e-01 3.398606155108e-01 0.000000000000e+00 0.000000000000e+00 0.000000000000e+00 0.000000000000e+00 
14  17  15  14
15  17  18  15
18  17  20  18
14  15  12  14
30  28  31  30
12  15  13  12
18  20  21  18
21  20  23  21
18  21  19  18
21  23  24  21
24  23  26  24
21  24  22  21
5  2  4  5
4  2  3  4
5  4  8  5
8  4  9  8
5  8  10  5
24  26  27  24
27  26  29  27
24  27  25  24
10  8  12  10
27  29  31  27
19  16  18  19
6  7  3  6
25  22  24  25
1  3  2  1
13  10  12  13
9  11  8  9
32  31  29  32
15  18  16  15
14  12  11  14
11  12  8  11
28  25  27  28
7  9  4  7
16  13  15  16
22  19  21  22
7  4  3  7
28  27  31  28
VARIABLES  = "X","Y","Z", "PRESSURE1", "PRESSURE2", "PRESSURE_W", "SATURATION1", SATURATION2, "VELOCITY_X1", "VELOCITY_Y1", "VELOCITY_X2", "VELOCITY_Y2"
ZONE T="1.000000000000e-03s", N=32, E=38, F=FEPOINT, ET=QUADRILATERAL
STRANDID=1, SOLUTIONTIME=1.000000000000e-03
1.000000000000e-02 0.000000000000e+00 5.000000000000e-02 8.399996488935e+07 1.000000000000e+05 -8.389996488935e+07 6.601394691156e-01 3.398605308844e-01 -8.297870039193e-11 -1.530094949511e-10 0.000000000000e+00 -2.003766612839e-15 
1.000000000000e-02 0.000000000000e+00 4.500000000000e-02 8.400003895977e+07 1.000000018958e+05 -8.390003895787e+07 6.601392422450e-01 3.398607577550e-01 1.250974766643e-10 -5.353961260538e-11 -1.136138414867e-16 -2.128764060110e-15 
5.000000000000e-03 0.000000000000e+00 5.000000000000e-02 8.400003165785e+07 1.000000000000e+05 -8.390003165785e+07 6.601392579556e-01 3.398607420444e-01 -3.080785121476e-12 -2.941642559373e-11 3.258740445104e-18 -2.087851568709e-15 
5.000000000000e-03 0.000000000000e+00 4.300000000000e-02 8.399983618497e+07 9.999999573714e+04 -8.389983618924e+07 6.601399724678e-01 3.398600275322e-01 6.886021517649e-12 -4.389485101986e-10 1.093733413532e-17 -1.794177284202e-15 
1.000000000000e-02 0.000000000000e+00 4.000000000000e-02 8.400008659937e+07 9.999999813745e+04 -8.390008660123e+07 6.601391859592e-01 3.398608140408e-01 -9.895966168004e-10 3.676806973497e-10 7.955114024763e-16 -2.112517411892e-15 
0.000000000000e+00 0.000000000000e+00 5.000000000000e-02 8.399995505557e+07 1.000000000000e+05 -8.389995505557e+07 6.601394928264e-01 3.398605071736e-01 9.519994910175e-11 -1.897750232818e-10 0.000000000000e+00 -1.990387644805e-15 
0.000000000000e+00 0.000000000000e+00 4.500000000000e-02 8.400005870959e+07 1.000000022628e+05 -8.390005870733e+07 6.601392214553e-01 3.398607785447e-01 -1.134281002670e-10 -5.898545470642e-12 1.106336027149e-16 -2.153452814654e-15 
6.000000000000e-03 0.000000000000e+00 3.800000000000e-02 8.400091441940e+07 1.000000269224e+05 -8.390091439248e+07 6.601363872349e-01 3.398636127651e-01 -3.519077753207e-10 1.475321137698e-09 2.165858747668e-16 -3.291760507883e-15 
0.000000000000e+00 0.000000000000e+00 4.000000000000e-02 8.399996176087e+07 9.999999604020e+04 -8.389996176483e+07 6.601396865169e-01 3.398603134831e-01 6.221148201004e-10 1.007123511194e-10 -5.288692031394e-16 -2.046271443710e-15 
1.000000000000e-02 0.000000000000e+00 3.500000000000e-02 8.399783589713e+07 9.999996347818e+04 -8.389783593365e+07 6.601483276981e-01 3.398516723019e-01 6.100029382417e-10 -4.083383692666e-09 -9.083693967189e-16 -3.038880777373e-16 
0.000000000000e+00 0.000000000000e+00 3.500000000000e-02 8.399868331370e+07 9.999997643479e+04 -8.389868333726e+07 6.601452627053e-01 3.398547372947e-01 -2.287541627631e-09 -3.802173844452e-09 2.239934382897e-15 -2.676113797616e-16 
4.000000000000e-03 0.000000000000e+00 3.300000000000e-02 8.399804837774e+07 9.999992222771e+04 -8.389804845551e+07 6.601484137403e-01 3.398515862597e-01 -2.007300131980e-09 -1.031746485990e-09 1.320778657531e-15 6.589299727034e-16 
1.000000000000e-02 0.000000000000e+00 3.000000000000e-02 8.401318463747e+07 1.000002522851e+05 -8.391318438518e+07 6.600914759418e-01 3.399085240582e-01 8.385312837625e-09 2.411157874457e-08 -2.036423896330e-15 -1.360829121754e-14 
0.000000000000e+00 0.000000000000e+00 3.000000000000e-02 8.401164545156e+07 1.000002581727e+05 -8.391164519338e+07 6.601112965037e-01 3.398887034963e-01 -1.298178470253e-08 2.099994442668e-08 3.143741513778e-15 -1.415946076709e-14 
4.000000000000e-03 0.000000000000e+00 2.800000000000e-02 8.398925712626e+07 9.999997491542e+04 -8.388925715135e+07 6.601661737227e-01 3.398338262773e-01 7.276330171289e-09 -3.333900984150e-08 -5.145035322752e-15 2.146675097624e-15 
1.000000000000e-02 0.000000000000e+00 2.500000000000e-02 8.394825805950e+07 9.999893674864e+04 -8.384825912275e+07 6.602908751909e-01 3.397091248091e-01 -9.837609020825e-08 -7.415785815832e-08 3.568482843610e-14 4.099568310610e-14 
0.000000000000e+00 0.000000000000e+00 2.500000000000e-02 8.395662981040e+07 9.999890283813e+04 -8.385663090756e+07 6.602971681095e-01 3.397028318905e-01 1.494176265607e-07 -5.470079479983e-08 -5.491695409569e-14 4.004286565765e-14 
4.000000000000e-03 0.000000000000e+00 2.300000000000e-02 8.413836010777e+07 1.000016136273e+05 -8.403835849414e+07 6.597713926152e-01 3.402286073848e-01 -3.159929329088e-10 2.868840827109e-07 8.578045689365e-15 -7.554130611334e-14 
1.000000000000e-02 0.000000000000e+00 2.000000000000e-02 8.404283213279e+07 1.000022542408e+05 -8.394282987855e+07 6.602530412447e-01 3.397469587553e-01 5.248405582995e-07 -8.605368678446e-08 -1.776882471308e-13 -8.614117065802e-14 
0.000000000000e+00 0.000000000000e+00 2.000000000000e-02 8.399437466262e+07 1.000021800324e+05 -8.389437248259e+07 6.600548245031e-01 3.399451754969e-01 -7.953440246707e-07 -1.971693039099e-07 2.754057348858e-13 -6.485720805204e-14 
4.000000000000e-03 0.000000000000e+00 1.800000000000e-02 8.323008444171e+07 9.999047195735e+04 -8.313009396975e+07 6.623364125493e-01 3.376635874507e-01 -2.356114740190e-07 -1.322010015605e-06 3.564921790383e-14 3.636693962532e-13 
1.000000000000e-02 0.000000000000e+00 1.500000000000e-02 8.506300118213e+07 1.000029680646e+05 -8.496299821406e+07 6.551972175859e-01 3.448027824141e-01 -1.235811440970e-06 2.397052700617e-06 4.847383893136e-13 -9.013266002281e-14 
0.000000000000e+00 0.000000000000e+00 1.500000000000e-02 8.534582055883e+07 1.000047134793e+05 -8.524581584535e+07 6.562288864251e-01 3.437711135749e-01 1.982027195635e-06 3.146874297475e-06 -7.152133051014e-13 -2.000331433634e-13 
4.000000000000e-03 0.000000000000e+00 1.300000000000e-02 8.612591729292e+07 1.000310256264e+05 -8.602588626729e+07 6.533224219690e-01 3.466775780310e-01 1.363493641220e-06 2.271320710556e-06 -2.715786123100e-13 -1.027238821053e-12 
1.000000000000e-02 0.000000000000e+00 1.000000000000e-02 7.509043656155e+07 9.995524171969e+04 -7.499048131983e+07 6.916396884203e-01 3.083603115797e-01 3.444622711700e-06 -2.676323101654e-05 -2.723679548323e-13 4.342994042595e-13 
0.000000000000e+00 0.000000000000e+00 1.000000000000e-02 7.353747440207e+07 9.994387402202e+04 -7.343753052805e+07 6.919001041182e-01 3.080998958818e-01 9.718170781518e-07 -2.270637616507e-05 1.674847739293e-13 8.292023098811e-13 
5.000000000000e-03 0.000000000000e+00 7.000000000000e-03 8.933334449572e+07 9.994850850115e+04 -8.923339598722e+07 6.485849984628e-01 3.514150015372e-01 2.891184249985e-06 -2.155274852543e-08 2.238382515388e-13 1.957642504100e-12 
1.000000000000e-02 0.000000000000e+00 5.000000000000e-03 1.374704034986e+08 1.001503575823e+05 -1.373702531410e+08 4.969756426327e-01 5.030243573673e-01 1.694104205653e-05 -2.525361409220e-05 -7.136248783798e-12 2.341680800848e-12 
0.000000000000e+00 0.000000000000e+00 5.000000000000e-03 1.377175145142e+08 1.001526428614e+05 -1.376173618713e+08 4.800161806902e-01 5.199838193098e-01 -1.275512284208e-05 -2.641172201104e-05 7.839890608976e-12 3.250221623459e-12 
1.000000000000e-02 0.000000000000e+00 0.000000000000e+00 -1.172334435624e-314 1.000000000000e+05 1.000000000000e+05 9.827454852118e-01 1.725451478822e-02 0.000000000000e+00 5.373620233135e-04 0.000000000000e+00 5.715813628174e-13 
5.000000000000e-03 0.000000000000e+00 0.000000000000e+00 -9.008061603601e-314 1.000000000000e+05 1.000000000000e+05 1.000000000000e+00 0.000000000000e+00 2.245940050175e-06 3.928132542536e-04 2.869929712784e-13 -6.033750217782e-14 
0.000000000000e+00 0.000000000000e+00 0.000000000000e+00 -6.051884453283e-313 1.000000000000e+05 1.000000000000e+05 9.826227014420e-01 1.737729855798e-02 0.000000000000e+00 5.380595430675e-04 0.000000000000e+00 5.821388925379e-13 
14  17  15  14
15  17  18  15
18  17  20  18
14  15  12  14
30  28  31  30
12  15  13  12
18  20  21  18
21  20  23  21
18  21  19  18
21  23  24  21
24  23  26  24
21  24  22  21
5  2  4  5
4  2  3  4
5  4  8  5
8  4  9  8
5  8  10  5
24  26  27  24
27  26  29  27
24  27  25  24
10  8  12  10
27  29  31  27
19  16  18  19
6  7  3  6
25  22  24  25
1  3  2  1
13  10  12  13
9  11  8  9
32  31  29  32
15  18  16  15
14  12  11  14
11  12  8  11
28  25  27  28
7  9  4  7
16  13  15  16
22  19  21  22
7  4  3  7
28  27  31  28
VARIABLES  = "X","Y","Z", "PRESSURE1", "PRESSURE2", "PRESSURE_W", "SATURATION1", SATURATION2, "VELOCITY_X1", "VELOCITY_Y1", "VELOCITY_X2", "VELOCITY_Y2"
ZONE T="1.000000000000e-02s", N=32, E=38, F=FEPOINT, ET=QUADRILATERAL
STRANDID=1, SOLUTIONTIME=1.000000000000e-02
1.000000000000e-02 0.000000000000e+00 5.000000000000e-02 8.399997646227e+07 1.000000000000e+05 -8.389997646227e+07 6.601394402453e-01 3.398605597547e-01 -6.278341454595e-11 -1.195143973201e-10 0.000000000000e+00 -1.455686150677e-15 
1.000000000000e-02 0.000000000000e+00 4.500000000000e-02 8.400002359653e+07 1.000000174243e+05 -8.390002357910e+07 6.601393014260e-01 3.398606985740e-01 9.963042516518e-11 -6.652000448627e-11 -1.072510671296e-15 -2.593974908720e-15 
5.000000000000e-03 0.000000000000e+00 5.000000000000e-02 8.400002698072e+07 1.000000000000e+05 -8.390002698072e+07 6.601392791017e-01 3.398607208983e-01 -2.672136784523e-12 -2.870595042955e-11 3.125573856262e-17 -2.239773106121e-15 
5.000000000000e-03 0.000000000000e+00 4.300000000000e-02 8.399987129041e+07 9.999995979594e+04 -8.389987133062e+07 6.601398472971e-01 3.398601527029e-01 9.898307071768e-12 -3.625879723328e-10 9.593958828024e-17 5.533036132034e-16 
1.000000000000e-02 0.000000000000e+00 4.000000000000e-02 8.400010105069e+07 9.999998446605e+04 -8.390010106622e+07 6.601391510144e-01 3.398608489856e-01 -7.675737709086e-10 3.570035042196e-10 7.480738403600e-15 -2.567993425479e-15 
0.000000000000e+00 0.000000000000e+00 5.000000000000e-02 8.399996860436e+07 1.000000000000e+05 -8.389996860436e+07 6.601394589867e-01 3.398605410133e-01 7.254908942529e-11 -1.497342344510e-10 0.000000000000e+00 -1.327153063775e-15 
0.000000000000e+00 0.000000000000e+00 4.500000000000e-02 8.400004005841e+07 1.000000209442e+05 -8.390004003747e+07 6.601392735272e-01 3.398607264728e-01 -8.946964639621e-11 -2.523912140280e-11 1.042913559515e-15 -2.833350033915e-15 
6.000000000000e-03 0.000000000000e+00 3.800000000000e-02 8.400069848363e+07 1.000002531795e+05 -8.390069823045e+07 6.601370812216e-01 3.398629187784e-01 -2.910032203252e-10 1.128119388168e-09 2.056163942626e-15 -1.364365216940e-14 
0.000000000000e+00 0.000000000000e+00 4.000000000000e-02 8.399999352293e+07 9.999996413673e+04 -8.389999355879e+07 6.601395502267e-01 3.398604497733e-01 4.745353466216e-10 1.088728496021e-10 -4.967124836884e-15 -1.899276842512e-15 
1.000000000000e-02 0.000000000000e+00 3.500000000000e-02 8.399812684819e+07 9.999964768203e+04 -8.389812720051e+07 6.601470443987e-01 3.398529556013e-01 3.431044526880e-10 -3.583660986148e-09 -8.498888587569e-15 1.501980643901e-14 
0.000000000000e+00 0.000000000000e+00 3.500000000000e-02 8.399886971754e+07 9.999977274636e+04 -8.389886994479e+07 6.601443350888e-01 3.398556649112e-01 -1.644806454576e-09 -3.300268378565e-09 2.108002686369e-14 1.530104260972e-14 
4.000000000000e-03 0.000000000000e+00 3.300000000000e-02 8.399868494771e+07 9.999927040656e+04 -8.389868567730e+07 6.601459735362e-01 3.398540264638e-01 -1.640321146511e-09 -2.287602147680e-10 1.251667492883e-14 2.364495188435e-14 
1.000000000000e-02 0.000000000000e+00 3.000000000000e-02 8.401114354111e+07 1.000024167146e+05 -8.391114112440e+07 6.600992857296e-01 3.399007142704e-01 7.874777131658e-09 2.079961024034e-08 -1.975651349217e-14 -1.134653043329e-13 
0.000000000000e+00 0.000000000000e+00 3.000000000000e-02 8.400956910569e+07 1.000024597782e+05 -8.390956664591e+07 6.601164831099e-01 3.398835168901e-01 -1.219186701944e-08 1.755329022175e-08 3.045543304728e-14 -1.180535237886e-13 
4.000000000000e-03 0.000000000000e+00 2.800000000000e-02 8.398938048473e+07 9.999972324857e+04 -8.388938076148e+07 6.601661759052e-01 3.398338240948e-01 5.806165335791e-09 -3.227884518625e-08 -4.900426290004e-14 4.034317210588e-14 
1.000000000000e-02 0.000000000000e+00 2.500000000000e-02 8.395705363013e+07 9.998978971384e+04 -8.385706384042e+07 6.602617600019e-01 3.397382399981e-01 -8.838991422055e-08 -6.133164459221e-08 3.435739390372e-13 4.161079149453e-13 
0.000000000000e+00 0.000000000000e+00 2.500000000000e-02 8.396564186855e+07 9.998952468967e+04 -8.386565234386e+07 6.602664499879e-01 3.397335500121e-01 1.340440335644e-07 -4.225476274148e-08 -5.284327528232e-13 4.043078873199e-13 
4.000000000000e-03 0.000000000000e+00 2.300000000000e-02 8.412547587222e+07 1.000156318099e+05 -8.402546024041e+07 6.598055784763e-01 3.401944215237e-01 2.305723040391e-09 2.662942094628e-07 8.211256726869e-14 -7.174863271884e-13 
1.000000000000e-02 0.000000000000e+00 2.000000000000e-02 8.402291102202e+07 1.000218569179e+05 -8.392288916510e+07 6.603026344620e-01 3.396973655380e-01 4.736661494990e-07 -1.134995689893e-07 -1.720383393110e-12 -8.300018274844e-13 
0.000000000000e+00 0.000000000000e+00 2.000000000000e-02 8.397532882285e+07 1.000209076109e+05 -8.387530791524e+07 6.601234309264e-01 3.398765690736e-01 -7.167284984933e-07 -2.183132183774e-07 2.664167113214e-12 -6.162534316393e-13 
4.000000000000e-03 0.000000000000e+00 1.800000000000e-02 8.330828722939e+07 9.990756704901e+04 -8.320837966234e+07 6.621119483260e-01 3.378880516740e-01 -2.268132613929e-07 -1.208975833596e-06 3.354222843745e-13 3.634245332007e-12 
1.000000000000e-02 0.000000000000e+00 1.500000000000e-02 8.504677074825e+07 1.000278221104e+05 -8.494674292614e+07 6.553455879902e-01 3.446544120098e-01 -1.096485241911e-06 2.405399545116e-06 4.817092289427e-12 -6.640958761039e-13 
0.000000000000e+00 0.000000000000e+00 1.500000000000e-02 8.531411863947e+07 1.000454412645e+05 -8.521407319821e+07 6.563194165733e-01 3.436805834267e-01 1.760649629988e-06 3.108891203741e-06 -7.076345119835e-12 -1.696242067433e-12 
4.000000000000e-03 0.000000000000e+00 1.300000000000e-02 8.584770804222e+07 1.003089068887e+05 -8.574739913533e+07 6.541510172878e-01 3.458489827122e-01 1.290172152169e-06 1.978040536680e-06 -2.588066675289e-12 -1.017768916707e-11 
1.000000000000e-02 0.000000000000e+00 1.000000000000e-02 7.542105365248e+07 9.957325852784e+04 -7.532148039396e+07 6.903809189417e-01 3.096190810583e-01 2.964907755017e-06 -2.611535235813e-05 -4.012342228272e-12 5.304412125328e-12 
0.000000000000e+00 0.000000000000e+00 1.000000000000e-02 7.395228666387e+07 9.946647145613e+04 -7.385282019241e+07 6.905353841197e-01 3.094646158803e-01 1.172638820624e-06 -2.225727412165e-05 3.284465616829e-12 9.426865480346e-12 
5.000000000000e-03 0.000000000000e+00 7.000000000000e-03 8.989159717946e+07 9.946132437187e+04 -8.979213585509e+07 6.468309454402e-01 3.531690545598e-01 2.701756284419e-06 6.605873864224e-07 2.488239117267e-12 2.096881757214e-11 
1.000000000000e-02 0.000000000000e+00 5.000000000000e-03 1.356225801382e+08 1.016339428234e+05 -1.355209461954e+08 5.016089946274e-01 4.983910053726e-01 1.679465289263e-05 -2.320142740828e-05 -7.622823341608e-11 2.344550489560e-11 
0.000000000000e+00 0.000000000000e+00 5.000000000000e-03 1.358488715647e+08 1.016555849064e+05 -1.357472159798e+08 4.854376620382e-01 5.145623379618e-01 -1.292454988847e-05 -2.440523370027e-05 8.362253935008e-11 3.244568210374e-11 
1.000000000000e-02 0.000000000000e+00 0.000000000000e+00 -1.172334435624e-314 1.000000000000e+05 1.000000000000e+05 9.836636260622e-01 1.633637393779e-02 0.000000000000e+00 5.321097567095e-04 0.000000000000e+00 6.156836872760e-12 
5.000000000000e-03 0.000000000000e+00 0.000000000000e+00 -9.008061603601e-314 1.000000000000e+05 1.000000000000e+05 1.000000000000e+00 0.000000000000e+00 2.089685545553e-06 3.913600057928e-04 2.963395063895e-12 -5.142629213650e-13 
0.000000000000e+00 0.000000000000e+00 0.000000000000e+00 -6.051884453283e-313 1.000000000000e+05 1.000000000000e+05 9.835511870666e-01 1.644881293343e-02 0.000000000000e+00 5.327550681506e-04 0.000000000000e+00 6.258539200364e-12 
14  17  15  14
15  17  18  15
18  17  20  18
14  15  12  14
30  28  31  30
12  15  13  12
18  20  21  18
21  20  23  21
18  21  19  18
21  23  24  21
24  23  26  24
21  24  22  21
5  2  4  5
4  2  3  4
5  4  8  5
8  4  9  8
5  8  10  5
24  26  27  24
27  26  29  27
24  27  25  24
10  8  12  10
27  29  31  27
19  16  18  19
6  7  3  6
25  22  24  25
1  3  2  1
13  10  12  13
9  11  8  9
32  31  29  32
15  18  16  15
14  12  11  14
11  12  8  11
28  25  27  28
7  9  4  7
16  13  15  16
22  19  21  22
7  4  3  7
28  27  31  28
VARIABLES  = "X","Y","Z", "PRESSURE1", "PRESSURE2", "PRESSURE_W", "SATURATION1", SATURATION2, "VELOCITY_X1", "VELOCITY_Y1", "VELOCITY_X2", "VELOCITY_Y2"
ZONE T="1.000000000000e-01s", N=32, E=38, F=FEPOINT, ET=QUADRILATERAL
STRANDID=1, SOLUTIONTIME=1.000000000000e-01
1.000000000000e-02 0.000000000000e+00 5.000000000000e-02 8.400001789045e+07 1.000000000000e+05 -8.390001789045e+07 6.601393385822e-01 3.398606614178e-01 2.918123815988e-11 -1.234710898860e-11 0.000000000000e+00 2.468880974006e-16 
1.000000000000e-02 0.000000000000e+00 4.500000000000e-02 8.399997884158e+07 1.000000660633e+05 -8.389997877551e+07 6.601394677786e-01 3.398605322214e-01 -3.171847322732e-11 -8.493086873790e-11 -5.962171519371e-15 -3.215853694097e-15 
5.000000000000e-03 0.000000000000e+00 5.000000000000e-02 8.399999440986e+07 1.000000000000e+05 -8.389999440986e+07 6.601394108130e-01 3.398605891870e-01 2.332107897682e-13 -5.869580941117e-11 2.008646432664e-16 -3.464823312582e-15 
5.000000000000e-03 0.000000000000e+00 4.300000000000e-02 8.400004797724e+07 9.999978162630e+04 -8.390004819561e+07 6.601392150001e-01 3.398607849999e-01 9.036712630647e-12 4.549186766874e-11 3.497060628977e-17 1.297838118444e-14 
1.000000000000e-02 0.000000000000e+00 4.000000000000e-02 8.400003739879e+07 1.000000588036e+05 -8.390003733999e+07 6.601393096062e-01 3.398606903938e-01 2.808444660919e-10 2.924664932701e-11 3.877631454895e-14 -1.314863949645e-14 
0.000000000000e+00 0.000000000000e+00 5.000000000000e-02 8.400002045983e+07 1.000000000000e+05 -8.390002045983e+07 6.601393318250e-01 3.398606681750e-01 -3.237441841328e-11 -5.027889345603e-12 0.000000000000e+00 1.076672770251e-15 
0.000000000000e+00 0.000000000000e+00 4.500000000000e-02 8.399997554419e+07 1.000000886839e+05 -8.389997545551e+07 6.601394521226e-01 3.398605478774e-01 3.144365348840e-11 -8.739389746775e-11 5.716571529688e-15 -4.894853363209e-15 
6.000000000000e-03 0.000000000000e+00 3.800000000000e-02 8.399969379859e+07 1.000012958687e+05 -8.389969250273e+07 6.601403382418e-01 3.398596617582e-01 4.217106989399e-11 -6.034924467797e-10 1.206665578986e-14 -6.512005528597e-14 
0.000000000000e+00 0.000000000000e+00 4.000000000000e-02 8.400004577146e+07 9.999991646116e+04 -8.390004585500e+07 6.601391971414e-01 3.398608028586e-01 -2.011952737171e-10 -1.721257157825e-11 -2.510594523787e-14 -6.231688615033e-15 
1.000000000000e-02 0.000000000000e+00 3.500000000000e-02 8.400016022826e+07 9.999747306871e+04 -8.390016275519e+07 6.601385166512e-01 3.398614833488e-01 -5.577939755043e-10 -2.884910502664e-11 -3.389101390059e-14 1.236577273009e-13 
0.000000000000e+00 0.000000000000e+00 3.500000000000e-02 8.400018621778e+07 9.999836140630e+04 -8.390018785638e+07 6.601383288293e-01 3.398616711707e-01 1.113996310928e-09 2.404404664837e-10 1.017639967058e-13 1.237509000959e-13 
4.000000000000e-03 0.000000000000e+00 3.300000000000e-02 8.400122300867e+07 9.999669260422e+04 -8.390122631607e+07 6.601353604096e-01 3.398646395904e-01 4.151097859044e-10 2.681243969873e-09 7.461829104455e-14 1.058113037728e-13 
1.000000000000e-02 0.000000000000e+00 3.000000000000e-02 8.399861479059e+07 1.000156875678e+05 -8.389859910302e+07 6.601459831137e-01 3.398540168863e-01 2.401152548573e-09 -1.206939421628e-09 -1.934782453148e-13 -7.812559425838e-13 
0.000000000000e+00 0.000000000000e+00 3.000000000000e-02 8.399762248891e+07 1.000150753017e+05 -8.389760741361e+07 6.601457683695e-01 3.398542316305e-01 -3.823890835684e-09 -3.679489246132e-09 2.957393294614e-13 -7.601875193744e-13 
4.000000000000e-03 0.000000000000e+00 2.800000000000e-02 8.399513607672e+07 9.999311335471e+04 -8.389514296336e+07 6.601518315389e-01 3.398481684611e-01 -2.130383756469e-09 -1.589773955376e-08 -2.871488078211e-13 5.683932046379e-13 
1.000000000000e-02 0.000000000000e+00 2.500000000000e-02 8.400894746142e+07 9.993525041446e+04 -8.390901221100e+07 6.600957899450e-01 3.399042100550e-01 -1.679456584853e-08 1.965842906704e-08 2.546416329944e-12 2.841761145813e-12 
0.000000000000e+00 0.000000000000e+00 2.500000000000e-02 8.401494401365e+07 9.993791230277e+04 -8.391500610135e+07 6.600957764386e-01 3.399042235614e-01 2.498115374588e-08 3.062049658204e-08 -3.880811638357e-12 2.579148501793e-12 
4.000000000000e-03 0.000000000000e+00 2.300000000000e-02 8.402567214462e+07 1.001236685416e+05 -8.392554847608e+07 6.600740163078e-01 3.399259836922e-01 1.391955391902e-08 9.056208910773e-08 4.170896389108e-13 -6.200537667118e-12 
1.000000000000e-02 0.000000000000e+00 2.000000000000e-02 8.392069849562e+07 1.001253809248e+05 -8.382057311469e+07 6.605059172207e-01 3.394940827793e-01 1.081857466645e-07 -2.606743421228e-07 -1.289865144554e-11 -4.948757879430e-12 
0.000000000000e+00 0.000000000000e+00 2.000000000000e-02 8.389324656812e+07 1.001026181248e+05 -8.379314394999e+07 6.604371422148e-01 3.395628577852e-01 -1.598130180699e-07 -3.064822567883e-07 1.979067567120e-11 -2.892555301538e-12 
4.000000000000e-03 0.000000000000e+00 1.800000000000e-02 8.388079365974e+07 9.929215279687e+04 -8.378150150695e+07 6.604772658339e-01 3.395227341661e-01 -1.441586602178e-07 -2.980647252566e-07 2.966438622082e-12 3.135268080588e-11 
1.000000000000e-02 0.000000000000e+00 1.500000000000e-02 8.478076488474e+07 1.003484601407e+05 -8.468041642460e+07 6.569804521937e-01 3.430195478063e-01 -8.172529369593e-08 2.259868999760e-06 3.820772140611e-11 -1.113559186910e-11 