 TITLE = "Profiles along polylines"
 VARIABLES = "DIST" "PRESSURE1" "PRESSURE2" "PRESSURE_W" "SATURATION1" SATURATION2 "VELOCITY_X1" "VELOCITY_Y1" "VELOCITY_X2" "VELOCITY_Y2"  p_(1st_Invariant)  q_(2nd_Invariant)   Effective_Strain
 ZONE T="TIME=0.000000000000e+00"
0.000000000000e+00 8.400000000000e+07 1.000000000000e+05 -8.390000000000e+07 6.601393844892e-01 3.398606155108e-01 0.000000000000e+00 0.000000000000e+00 0.000000000000e+00 0.000000000000e+00 1.000000000000e+05 0.000000000000e+00  0.000000000000e+00
5.000000000000e-03 8.400000000000e+07 1.000000000000e+05 -8.390000000000e+07 6.601393844892e-01 3.398606155108e-01 0.000000000000e+00 0.000000000000e+00 0.000000000000e+00 0.000000000000e+00 1.000000000000e+05 0.000000000000e+00  0.000000000000e+00
1.000000000000e-02 8.400000000000e+07 1.000000000000e+05 -8.390000000000e+07 6.601393844892e-01 3.398606155108e-01 0.000000000000e+00 0.000000000000e+00 0.000000000000e+00 0.000000000000e+00 1.000000000000e+05 0.000000000000e+00  0.000000000000e+00
1.500000000000e-02 8.400000000000e+07 1.000000000000e+05 -8.390000000000e+07 6.601393844892e-01 3.398606155108e-01 0.000000000000e+00 0.000000000000e+00 0.000000000000e+00 0.000000000000e+00 1.000000000000e+05 0.000000000000e+00  0.000000000000e+00
2.000000000000e-02 8.400000000000e+07 1.000000000000e+05 -8.390000000000e+07 6.601393844892e-01 3.398606155108e-01 0.000000000000e+00 0.000000000000e+00 0.000000000000e+00 0.000000000000e+00 1.000000000000e+05 0.000000000000e+00  0.000000000000e+00
2.500000000000e-02 8.400000000000e+07 1.000000000000e+05 -8.390000000000e+07 6.601393844892e-01 3.398606155108e-01 0.000000000000e+00 0.000000000000e+00 0.000000000000e+00 0.000000000000e+00 1.000000000000e+05 0.000000000000e+00  0.000000000000e+00
3.000000000000e-02 8.400000000000e+07 1.000000000000e+05 -8.390000000000e+07 6.601393844892e-01 3.398606155108e-01 0.000000000000e+00 0.000000000000e+00 0.000000000000e+00 0.000000000000e+00 1.000000000000e+05 0.000000000000e+00  0.000000000000e+00
3.500000000000e-02 8.400000000000e+07 1.000000000000e+05 -8.390000000000e+07 6.601393844892e-01 3.398606155108e-01 0.000000000000e+00 0.000000000000e+00 0.000000000000e+00 0.000000000000e+00 1.000000000000e+05 0.000000000000e+00  0.000000000000e+00
4.000000000000e-02 8.400000000000e+07 1.000000000000e+05 -8.390000000000e+07 6.601393844892e-01 3.398606155108e-01 0.000000000000e+00 0.000000000000e+00 0.000000000000e+00 0.000000000000e+00 1.000000000000e+05 0.000000000000e+00  0.000000000000e+00
4.500000000000e-02 8.400000000000e+07 1.000000000000e+05 -8.390000000000e+07 6.601393844892e-01 3.398606155108e-01 0.000000000000e+00 0.000000000000e+00 0.000000000000e+00 0.000000000000e+00 1.000000000000e+05 0.000000000000e+00  0.000000000000e+00
5.000000000000e-02 8.400000000000e+07 1.000000000000e+05 -8.390000000000e+07 6.601393844892e-01 3.398606155108e-01 0.000000000000e+00 0.000000000000e+00 0.000000000000e+00 0.000000000000e+00 1.000000000000e+05 0.000000000000e+00  0.000000000000e+00
 TITLE = "Profiles along polylines"
 VARIABLES = "DIST" "PRESSURE1" "PRESSURE2" "PRESSURE_W" "SATURATION1" SATURATION2 "VELOCITY_X1" "VELOCITY_Y1" "VELOCITY_X2" "VELOCITY_Y2"  p_(1st_Invariant)  q_(2nd_Invariant)   Effective_Strain
 ZONE T="TIME=1.000000000000e-02"
0.000000000000e+00 8.399996860436e+07 1.000000000000e+05 -8.389996860436e+07 6.601394589867e-01 3.398605410133e-01 7.254908909269e-11 -1.497342432845e-10 0.000000000000e+00 -1.327419941735e-15 3.462198972572e+06 1.441079254609e+06  1.017654422873e-01
5.000000000000e-03 8.400004005841e+07 1.000000209367e+05 -8.390004003747e+07 6.601392735272e-01 3.398607264728e-01 -8.946965671430e-11 -2.523911436058e-11 1.042616561146e-15 -2.833138847915e-15 3.462216050922e+06 1.441238312398e+06  1.017786566553e-01
1.000000000000e-02 8.399999352293e+07 9.999996414732e+04 -8.389999355878e+07 6.601395502267e-01 3.398604497733e-01 4.745353555755e-10 1.088728329180e-10 -4.966843797883e-15 -1.899775400842e-15 3.462410627889e+06 1.443107609850e+06  1.018164796199e-01
1.500000000000e-02 8.399886971754e+07 9.999977272524e+04 -8.389886994481e+07 6.601443350888e-01 3.398556649112e-01 -1.644806454302e-09 -3.300268292729e-09 2.107991943684e-14 1.530351131674e-14 3.467080987086e+06 1.454285037958e+06  1.018215449396e-01
2.000000000000e-02 8.400956910569e+07 1.000024599238e+05 -8.390956664576e+07 6.601164831099e-01 3.398835168901e-01 -1.219186689872e-08 1.755329022745e-08 3.045890546473e-14 -1.180529465769e-13 3.479268425690e+06 1.501060682432e+06  1.026854869347e-01
2.500000000000e-02 8.396564186859e+07 9.998952474554e+04 -8.386565234384e+07 6.602664499878e-01 3.397335500122e-01 1.340440340427e-07 -4.225476272754e-08 -5.284163274905e-13 4.043064780730e-13 3.754106170798e+06 1.773887870063e+06  1.010466711107e-01
3.000000000000e-02 8.397532882278e+07 1.000209081015e+05 -8.387530791468e+07 6.601234309267e-01 3.398765690733e-01 -7.167285073154e-07 -2.183132118481e-07 2.663900656341e-12 -6.160699191586e-13 3.354655326228e+06 1.462817208475e+06  9.691861976487e-02
3.500000000000e-02 8.531411863878e+07 1.000454435474e+05 -8.521407319524e+07 6.563194165757e-01 3.436805834243e-01 1.760649690424e-06 3.108891273313e-06 -7.074610614839e-12 -1.694232250506e-12 3.577231306271e+06 1.820030610297e+06  1.663056211415e-01
4.000000000000e-02 7.395228666578e+07 9.946668263961e+04 -7.385281998314e+07 6.905353841126e-01 3.094646158874e-01 1.172639131498e-06 -2.225727408995e-05 3.290806754726e-12 9.427227698566e-12 -4.811874848626e+05 2.751426330959e+06  1.143248021125e-01
4.500000000000e-02 1.358488715667e+08 1.016556469810e+05 -1.357472159197e+08 4.854376620317e-01 5.145623379683e-01 -1.292454983295e-05 -2.440523370927e-05 8.363174778725e-11 3.244189304683e-11 6.318494876691e+06 8.749297569171e+06  3.097400629397e-01
5.000000000000e-02 2.274925069045e-313 1.000000000000e+05 1.000000000000e+05 9.835511870656e-01 1.644881293444e-02 0.000000000000e+00 5.327550679130e-04 0.000000000000e+00 6.258777948419e-12 -3.985173464853e+07 5.581434589170e+07  1.944552631406e+00
 TITLE = "Profiles along polylines"
 VARIABLES = "DIST" "PRESSURE1" "PRESSURE2" "PRESSURE_W" "SATURATION1" SATURATION2 "VELOCITY_X1" "VELOCITY_Y1" "VELOCITY_X2" "VELOCITY_Y2"  p_(1st_Invariant)  q_(2nd_Invariant)   Effective_Strain
 ZONE T="TIME=1.000000000000e-01"
0.000000000000e+00 8.400002045983e+07 1.000000000000e+05 -8.390002045983e+07 6.601393318250e-01 3.398606681750e-01 -3.237441064795e-11 -5.027897293183e-12 0.000000000000e+00 1.076889194145e-15 5.807977620734e+06 2.450622893758e+06  1.040905925937e-01
5.000000000000e-03 8.399997554420e+07 1.000000886900e+05 -8.389997545551e+07 6.601394521226e-01 3.398605478774e-01 3.144366824076e-11 -8.739390658048e-11 5.717260040511e-15 -4.895357755467e-15 5.810591668049e+06 2.453654753394e+06  1.041013011615e-01
1.000000000000e-02 8.400004577145e+07 9.999991644151e+04 -8.390004585501e+07 6.601391971415e-01 3.398608028585e-01 -2.011952192099e-10 -1.721263487655e-11 -2.510618394238e-14 -6.233790218285e-15 5.814686120567e+06 2.469090382280e+06  1.041572686658e-01
1.500000000000e-02 8.400018621768e+07 9.999836122190e+04 -8.390018785646e+07 6.601383288298e-01 3.398616711702e-01 1.113996494480e-09 2.404415655896e-10 1.017773322299e-13 1.237913373100e-13 5.841883787866e+06 2.523105093315e+06  1.041421810284e-01
2.000000000000e-02 8.399762248999e+07 1.000150785291e+05 -8.389760741146e+07 6.601457683668e-01 3.398542316332e-01 -3.823886079884e-09 -3.679488022517e-09 2.958878871891e-13 -7.602053606202e-13 5.884641545337e+06 2.615191287817e+06  1.050906084264e-01
2.500000000000e-02 8.401494400900e+07 9.993791288618e+04 -8.391500609611e+07 6.600957764539e-01 3.399042235461e-01 2.498114831826e-08 3.062051131479e-08 -3.881068589096e-12 2.579794783442e-12 6.261706880738e+06 2.945776296919e+06  1.033684826823e-01
3.000000000000e-02 8.389324658486e+07 1.001026508336e+05 -8.379314393403e+07 6.604371421605e-01 3.395628578395e-01 -1.598130368055e-07 -3.064823360986e-07 1.979061152343e-11 -2.895563940827e-12 5.688569148964e+06 2.389136680718e+06  9.903152223513e-02
3.500000000000e-02 8.489945256849e+07 1.005227639054e+05 -8.479892980458e+07 6.575588019128e-01 3.424411980872e-01 1.842675106559e-07 2.610542871441e-06 -5.584227651325e-11 -1.968352994505e-11 5.487104043411e+06 2.267458496208e+06  1.622146595315e-01
4.000000000000e-02 7.762220014724e+07 9.521656501280e+04 -7.752698358223e+07 6.786441090210e-01 3.213558909790e-01 2.804875117117e-06 -1.792447778798e-05 3.405233077487e-11 1.028158404826e-10 8.219080578077e+05 3.904166669021e+06  1.212693451805e-01
4.500000000000e-02 1.199609696001e+08 1.162888338460e+05 -1.198446807662e+08 5.342592215953e-01 4.657407784047e-01 -1.285716875360e-05 -5.215844658781e-06 7.021357173109e-10 2.633204473712e-10 4.278671333072e+06 8.042043352122e+06  3.646480159118e-01
5.000000000000e-02 2.274925069045e-313 1.000000000000e+05 1.000000000000e+05 9.908030085674e-01 9.196991432578e-03 0.000000000000e+00 4.847358180472e-04 0.000000000000e+00 5.475302998135e-11 1.499488851433e+05 6.170084015489e+07  1.573350889934e+00
 TITLE = "Profiles along polylines"
 VARIABLES = "DIST" "PRESSURE1" "PRESSURE2" "PRESSURE_W" "SATURATION1" SATURATION2 "VELOCITY_X1" "VELOCITY_Y1" "VELOCITY_X2" "VELOCITY_Y2"  p_(1st_Invariant)  q_(2nd_Invariant)   Effective_Strain
 ZONE T="TIME=1.000000000000e+00"
0.000000000000e+00 8.400002526668e+07 1.000000000000e+05 -8.390002526668e+07 6.601393102600e-01 3.398606897400e-01 -3.191378332752e-11 -2.172203785564e-11 0.000000000000e+00 7.219192322773e-16 1.080955498292e+07 4.606794153994e+06  1.066207310496e-01
5.000000000000e-03 8.399999377394e+07 1.000000786891e+05 -8.389999369525e+07 6.601393951241e-01 3.398606048759e-01 3.361675881646e-11 -6.970099370895e-11 5.159196577689e-15 -6.118941126338e-15 1.082345583361e+07 4.610587861532e+06  1.066105253218e-01
1.000000000000e-02 8.400000473183e+07 9.999983048491e+04 -8.390000490135e+07 6.601393451035e-01 3.398606548965e-01 -1.874117464620e-10 4.771730016602e-11 -2.972340400186e-14 1.023645245295e-15 1.082931410096e+07 4.629934349902e+06  1.066605696089e-01
1.500000000000e-02 8.400010966842e+07 9.999873801674e+04 -8.390011093040e+07 6.601386706883e-01 3.398613293117e-01 1.234314108426e-09 -9.349371772053e-10 1.621780280404e-13 8.076915307142e-14 1.085679497625e+07 4.676116392471e+06  1.066448240636e-01
2.000000000000e-02 8.399958051560e+07 1.000149054096e+05 -8.389956561019e+07 6.601425731719e-01 3.398574268281e-01 -6.678956057560e-09 5.821352224952e-09 1.718994786405e-14 -6.793726306315e-13 1.090366263348e+07 4.758879305864e+06  1.075478283613e-01
2.500000000000e-02 8.399826720541e+07 9.993052592132e+04 -8.389833667949e+07 6.601402826715e-01 3.398597173285e-01 3.122097680350e-08 -4.975627674701e-08 -4.495842282680e-12 1.664153718671e-12 1.131529595313e+07 5.084953774904e+06  1.057194167364e-01
3.000000000000e-02 8.405143587747e+07 1.000453518409e+05 -8.395139052563e+07 6.600356905117e-01 3.399643094883e-01 -9.844252508224e-08 4.315361126146e-07 3.561512982593e-11 1.624497243606e-11 1.061320449753e+07 4.292664906921e+06  1.014255307343e-01
3.500000000000e-02 8.329785435610e+07 1.023839726894e+05 -8.319547038341e+07 6.620629614375e-01 3.379370385625e-01 2.133820213443e-07 -2.741765846909e-06 -1.347252038976e-10 -2.104922461352e-10 9.389015411725e+06 3.901848424759e+06  1.610070403029e-01
4.000000000000e-02 8.934878028151e+07 7.721425273601e+04 -8.927156602878e+07 6.435804799334e-01 3.564195200666e-01 2.174595387115e-06 8.528047708607e-06 4.269736680116e-10 1.571102086507e-09 7.837140708238e+06 2.196040409566e+06  1.071534401757e-01
4.500000000000e-02 6.135815307002e+07 2.356815311166e+05 -6.112247153891e+07 7.603568671606e-01 2.396431328394e-01 6.184752081875e-06 9.005082507484e-05 2.653254806090e-09 1.527717559164e-09 1.822197622310e+06 1.537303544315e+07  3.696921705473e-01
5.000000000000e-02 2.274925069045e-313 1.000000000000e+05 1.000000000000e+05 1.000000000000e+00 0.000000000000e+00 0.000000000000e+00 2.651546390965e-04 0.000000000000e+00 1.671313616688e-10 6.070489566879e+06 5.513686469926e+07  1.562131578624e+00
 TITLE = "Profiles along polylines"
 VARIABLES = "DIST" "PRESSURE1" "PRESSURE2" "PRESSURE_W" "SATURATION1" SATURATION2 "VELOCITY_X1" "VELOCITY_Y1" "VELOCITY_X2" "VELOCITY_Y2"  p_(1st_Invariant)  q_(2nd_Invariant)   Effective_Strain
 ZONE T="TIME=5.000000000000e+00"
0.000000000000e+00 8.400005907798e+07 1.000000000000e+05 -8.390005907798e+07 6.601391983473e-01 3.398608016527e-01 -7.000557817298e-12 4.623617958826e-11 0.000000000000e+00 -5.374111453481e-15 2.207741426450e+07 9.448173984698e+06  1.094855986420e-01
5.000000000000e-03 8.399997273106e+07 9.999990689352e+04 -8.389997282416e+07 6.601394436000e-01 3.398605564000e-01 -5.073985749048e-11 -1.358645534699e-10 -4.630492669370e-15 -1.964590064399e-15 2.209579969454e+07 9.443166930007e+06  1.094672660017e-01
1.000000000000e-02 8.400030110635e+07 1.000000442775e+05 -8.390030106207e+07 6.601384189591e-01 3.398615810409e-01 2.739379932721e-10 -1.377313475148e-10 3.132187316144e-14 -1.809920694832e-14 2.209886820121e+07 9.466698114824e+06  1.095188800002e-01
1.500000000000e-02 8.399939975404e+07 1.000004093377e+05 -8.389939934471e+07 6.601410410621e-01 3.398589589379e-01 -1.652175020477e-10 7.233248993045e-09 -1.707113619323e-13 2.500505300167e-13 2.213590568694e+07 9.524727584528e+06  1.095042171645e-01
2.000000000000e-02 8.398853946111e+07 1.000060197062e+05 -8.388853344140e+07 6.601654169225e-01 3.398345830775e-01 -1.071920283297e-08 -4.083718844198e-08 4.756447503820e-13 -9.425591067450e-13 2.219385535015e+07 9.631385065539e+06  1.104115852346e-01
2.500000000000e-02 8.409366666100e+07 9.996339008837e+04 -8.399370327091e+07 6.597836046449e-01 3.402163953551e-01 4.465806371879e-08 -1.813204623690e-07 -2.773957569706e-12 -9.521244014114e-12 2.270462701771e+07 1.007027569010e+07  1.085604143168e-01
3.000000000000e-02 8.420688299674e+07 9.925662338955e+04 -8.410762637335e+07 6.599016573816e-01 3.400983426184e-01 4.861442122818e-07 2.284195983701e-06 3.507286601513e-11 1.110926140758e-10 2.176866304315e+07 9.106386231313e+06  1.043938309099e-01
3.500000000000e-02 7.930618502911e+07 1.093068370463e+05 -7.919687819206e+07 6.796392089220e-01 3.203607910780e-01 9.436780504282e-07 1.650918412512e-05 3.422080366893e-11 2.533967595264e-10 1.912884938222e+07 6.833092711309e+06  1.639473226064e-01
4.000000000000e-02 5.808293888694e+07 1.089558605770e+05 -5.797398302636e+07 7.685146603643e-01 2.314853396357e-01 7.719731561502e-07 5.149741767815e-05 9.912650571226e-10 5.131959311620e-09 1.123548899827e+07 5.796104090993e+06  9.852958141590e-02
4.500000000000e-02 2.798081578173e+07 6.105369147135e+05 -2.737027886702e+07 9.172702666200e-01 8.272973338005e-02 1.203818816116e-06 9.547298180057e-05 3.786984075324e-09 1.499723362761e-09 -9.369173916455e+05 1.425586925258e+07  3.762954126629e-01
5.000000000000e-02 2.274925069045e-313 1.000000000000e+05 1.000000000000e+05 1.000000000000e+00 0.000000000000e+00 0.000000000000e+00 1.190566396464e-04 0.000000000000e+00 4.222410219898e-10 2.792795880366e+07 6.390164375573e+07  1.569198463646e+00
 TITLE = "Profiles along polylines"
 VARIABLES = "DIST" "PRESSURE1" "PRESSURE2" "PRESSURE_W" "SATURATION1" SATURATION2 "VELOCITY_X1" "VELOCITY_Y1" "VELOCITY_X2" "VELOCITY_Y2"  p_(1st_Invariant)  q_(2nd_Invariant)   Effective_Strain
 ZONE T="TIME=1.000000000000e+01"
0.000000000000e+00 8.399999234267e+07 1.000000000000e+05 -8.389999234267e+07 6.601394691710e-01 3.398605308290e-01 -5.383978286791e-11 1.200250954961e-10 0.000000000000e+00 3.692856696341e-15 2.993693179144e+07 1.282474333586e+07  1.107069516442e-01
5.000000000000e-03 8.399984688009e+07 1.000001651673e+05 -8.389984671492e+07 6.601396188315e-01 3.398603811685e-01 -4.433368875718e-10 -1.224307520108e-09 -1.948364916798e-14 -4.132533297827e-14 2.995775687038e+07 1.281300054063e+07  1.106852590089e-01
1.000000000000e-02 8.400281517498e+07 9.999674196280e+04 -8.390281843301e+07 6.601281605806e-01 3.398718394194e-01 -6.106266261798e-10 -9.354067719968e-09 9.310827880365e-15 -2.676264931979e-13 2.995945620043e+07 1.283952156302e+07  1.107378317377e-01
1.500000000000e-02 8.401588496245e+07 9.998616495965e+04 -8.391589879749e+07 6.600719301086e-01 3.399280698914e-01 1.722919926685e-08 4.309542334060e-08 3.852973415363e-13 1.070044148023e-12 3.000583250506e+07 1.290702647898e+07  1.107245864641e-01
2.000000000000e-02 8.389871247682e+07 1.000822936740e+05 -8.379863018314e+07 6.606579052107e-01 3.393420947893e-01 1.089627156527e-07 7.573775910289e-07 3.146650780371e-12 2.516907916263e-11 3.004379313686e+07 1.300892016417e+07  1.116282677657e-01
2.500000000000e-02 8.256282647064e+07 1.017130123380e+05 -8.246111345830e+07 6.660537305987e-01 3.339462694013e-01 3.373195175643e-07 4.264217774073e-06 1.837937697847e-11 1.265145053982e-10 3.020640653765e+07 1.326570505336e+07  1.096985752173e-01
3.000000000000e-02 7.653391958816e+07 1.082583857310e+05 -7.642566120243e+07 6.895386429352e-01 3.104613570648e-01 5.357502583072e-07 1.423937284150e-05 -9.596208271481e-12 5.169134821587e-10 2.751530538684e+07 1.122960005690e+07  1.052087390526e-01
3.500000000000e-02 6.173079380559e+07 1.359031984932e+05 -6.159489060710e+07 7.513191461605e-01 2.486808538395e-01 4.628882697359e-07 3.320872097926e-05 3.563505425372e-10 1.098856714543e-09 2.189584957331e+07 6.640936034172e+06  1.641222454810e-01
4.000000000000e-02 4.038606819070e+07 2.104545171844e+05 -4.017561367352e+07 8.521483293996e-01 1.478516706004e-01 1.087014318475e-07 5.754191831713e-05 7.402263946448e-10 6.060711416783e-09 1.323692645823e+07 5.567754901782e+06  1.001552256289e-01
4.500000000000e-02 1.963431601546e+07 8.716634154067e+05 -1.876265260005e+07 9.526546097252e-01 4.734539027477e-02 1.468932482012e-07 7.399151234419e-05 3.636780410219e-09 5.666850255218e-10 3.089843476762e+06 1.634218504984e+07  3.757423370874e-01
5.000000000000e-02 2.274925069045e-313 1.000000000000e+05 1.000000000000e+05 1.000000000000e+00 0.000000000000e+00 0.000000000000e+00 8.162153119588e-05 0.000000000000e+00 5.024878800789e-10 4.098187198214e+07 6.831076338750e+07  1.570262032470e+00
 ZONE T="TIME=1.800000000000e+01"
0.000000000000e+00 8.398995472718e+07 1.000000000000e+05 -8.388995472718e+07 6.601822697683e-01 3.398177302317e-01 1.516922138631e-08 4.201481370162e-08 0.000000000000e+00 1.725271666765e-12 3.790626792176e+07 1.624872132573e+07  1.116535715986e-01
5.000000000000e-03 8.395615394324e+07 1.000486591097e+05 -8.385610528413e+07 6.603231689132e-01 3.396768310868e-01 1.750911945718e-08 1.326196334541e-07 4.234751645969e-13 4.173765401244e-12 3.791982061747e+07 1.622388895937e+07  1.116278350029e-01
1.000000000000e-02 8.373332466141e+07 1.002879359493e+05 -8.363303672546e+07 6.611807103381e-01 3.388192896619e-01 4.383273354195e-08 6.281849805668e-07 1.341796818114e-12 1.946741295346e-11 3.785736921060e+07 1.622203656060e+07  1.116735907722e-01
1.500000000000e-02 8.284092367393e+07 1.012693302646e+05 -8.273965434367e+07 6.641580357568e-01 3.358419642432e-01 1.321646641600e-07 2.236627113149e-06 4.997517039645e-12 7.033246112087e-11 3.766854659205e+07 1.616897658301e+07  1.116297902118e-01
2.000000000000e-02 7.999414575906e+07 1.045808575389e+05 -7.988956490152e+07 6.751489643753e-01 3.248510356247e-01 2.655626801753e-07 6.119549371088e-06 9.119235407299e-12 1.953740182078e-10 3.695237600267e+07 1.585233829751e+07  1.124290449392e-01
2.500000000000e-02 7.324506897532e+07 1.135041770023e+05 -7.313156479832e+07 7.025265201834e-01 2.974734798166e-01 3.502037874923e-07 1.371242177751e-05 3.366984347044e-11 4.494172316786e-10 3.552442377060e+07 1.516935956080e+07  1.102556544662e-01
3.000000000000e-02 6.135242151719e+07 1.371388829655e+05 -6.121528263423e+07 7.523238400781e-01 2.476761599219e-01 3.000040505329e-07 2.536029556570e-05 -1.596414771946e-11 9.032975733891e-10 3.082604261461e+07 1.166739995038e+07  1.053456466968e-01
3.500000000000e-02 4.568201394960e+07 1.814863560505e+05 -4.550052759355e+07 8.253304378089e-01 1.746695621911e-01 7.286439272958e-08 3.924999290915e-05 5.531589729018e-10 2.096571051256e-09 2.457326741461e+07 5.498136275081e+06  1.637965953939e-01
4.000000000000e-02 2.944393966092e+07 4.256227494858e+05 -2.901831691144e+07 9.052047375732e-01 9.479526242677e-02 -1.595061386259e-07 5.097118785768e-05 4.825107973331e-10 7.232220608863e-09 1.775790191004e+07 6.734664045308e+06  1.013377622707e-01
4.500000000000e-02 1.471398905521e+07 9.878958826937e+05 -1.372609317252e+07 9.704126763574e-01 2.958732364255e-02 -1.533257142480e-08 5.675413636009e-05 1.608362742297e-09 -1.049963470322e-09 1.108291508442e+07 1.908067991034e+07  3.755926628900e-01
5.000000000000e-02 2.274925069045e-313 1.000000000000e+05 1.000000000000e+05 1.000000000000e+00 0.000000000000e+00 0.000000000000e+00 5.982143809400e-05 0.000000000000e+00 3.958270721127e-10 5.073613728887e+07 6.743576924723e+07  1.569765332152e+00
