 TITLE = "Time curves in points"
 VARIABLES = "TIME"  "DISPLACEMENT_X1"  "DISPLACEMENT_Y1"  "STRESS_XX"  "STRESS_XY"  "STRESS_YY"  "STRESS_ZZ"  "STRAIN_XX"  "STRAIN_XY"  "STRAIN_YY"  p_(1st_Invariant)  q_(2nd_Invariant)   Effective_Strain
 ZONE T="POINT=POINT5"
0.000000000000e+00 0.000000000000e+00 0.000000000000e+00 -1.000000000000e+05 0.000000000000e+00 -1.000000000000e+05 -1.000000000000e+05 0.000000000000e+00 0.000000000000e+00 0.000000000000e+00 1.000000000000e+05 0.000000000000e+00  0.000000000000e+00
1.000000000000e-03 3.099951580304e-07 6.221713813040e-04 -1.320925000821e+05 -8.845117724411e+01 -1.479387381702e+05 -1.320127583373e+05 -1.402760312722e-04 -3.109395488639e-04 -2.803079472708e-02 1.373479988632e+05 1.588699775902e+04  2.796610684325e-02
2.000000000000e-03 -4.366445868287e-07 1.643311707133e-03 -2.737065826103e+05 2.814304198445e+02 -3.597581220232e+05 -2.733861456743e+05 -2.986792335573e-04 1.710643416007e-04 -7.425699983044e-02 3.022836167693e+05 8.621358254962e+04  7.410870393101e-02
3.000000000000e-03 1.348807923721e-07 2.081047121778e-03 -7.708195511086e+05 -3.045747919547e+03 -1.102603301952e+06 -7.693694152150e+05 -3.902727917050e-04 -3.672869026515e-04 -9.412892353518e-02 8.809307560917e+05 3.325530355968e+05  9.393654932976e-02
4.000000000000e-03 3.437361095196e-07 2.218655459608e-03 -2.515934597648e+06 -2.340191011949e+04 -3.630735388882e+06 -2.478668378798e+06 -6.602678129818e-04 -6.783644419263e-04 -1.000601546834e-01 2.875112788443e+06 1.134617527475e+06  9.973858102205e-02
5.000000000000e-03 4.435769414895e-07 2.228634077649e-03 -2.692823129878e+06 -3.861161340129e+04 -3.760677351333e+06 -2.601400713649e+06 -8.596967445037e-04 -8.175019357194e-04 -1.000882090175e-01 3.018300398287e+06 1.118377878735e+06  9.967119987042e-02
6.000000000000e-03 3.218939809200e-07 2.237219888177e-03 -2.984710372500e+06 -3.644431289514e+04 -4.202909985088e+06 -2.895048620832e+06 -8.526834401133e-04 -8.071892642260e-04 -1.005808902837e-01 3.360889659474e+06 1.266988555905e+06  1.001670283242e-01
7.000000000000e-03 3.214805310387e-07 2.235330773225e-03 -2.942250803702e+06 -3.201745540905e+04 -4.135295527282e+06 -2.851019026990e+06 -8.554849740641e-04 -7.878697896222e-04 -1.005230757857e-01 3.309521785991e+06 1.242416150782e+06  1.001073766288e-01
8.000000000000e-03 3.099688566407e-07 2.235964357092e-03 -2.974399381596e+06 -3.301564728311e+04 -4.179807255585e+06 -2.881683143622e+06 -8.596064115824e-04 -7.934359902889e-04 -1.005619034819e-01 3.345296593601e+06 1.255641439924e+06  1.001442974917e-01
9.000000000000e-03 3.112336964472e-07 2.236623114347e-03 -2.995231346842e+06 -3.293308563541e+04 -4.210932824580e+06 -2.902466137556e+06 -8.597410932363e-04 -7.929820202130e-04 -1.005906699247e-01 3.369543436326e+06 1.265924181548e+06  1.001729831820e-01
1.000000000000e-02 3.111738556130e-07 2.237258776548e-03 -3.016792860146e+06 -3.297560707489e+04 -4.242771636011e+06 -2.923826233887e+06 -8.602905398868e-04 -7.932163432138e-04 -1.006195982480e-01 3.394463576681e+06 1.276285248334e+06  1.002016423987e-01
2.000000000000e-02 2.776449393614e-07 2.289507111833e-03 -4.950259780936e+06 -3.056168145701e+04 -7.091117004140e+06 -4.836550132862e+06 -9.099798043930e-04 -7.815580969192e-04 -1.029799217863e-01 5.625975639313e+06 2.200553954066e+06  1.025368967955e-01
3.000000000000e-02 3.139549502254e-07 2.255814384597e-03 -3.558052135018e+06 -3.264553539598e+04 -5.008042691248e+06 -3.446433896753e+06 -9.054770805803e-04 -7.903637855663e-04 -1.014875589459e-01 4.004176241006e+06 1.509958220813e+06  1.010471369001e-01
4.000000000000e-02 3.245944944371e-07 2.273346281547e-03 -4.296183064836e+06 -3.381201439058e+04 -6.027469882331e+06 -4.149453367803e+06 -9.913085778540e-04 -7.952750780606e-04 -1.023025164287e-01 4.824368771657e+06 1.810067566580e+06  1.018197995756e-01
5.000000000000e-02 3.302284478982e-07 2.264316589770e-03 -3.939067276882e+06 -3.266413932028e+04 -5.496967397904e+06 -3.794401193381e+06 -9.870716651606e-04 -7.878919215056e-04 -1.019324356647e-01 4.410145289389e+06 1.636018707040e+06  1.014516803856e-01
6.000000000000e-02 2.724854744827e-07 2.277741606531e-03 -4.573099474490e+06 -2.565548744091e+04 -6.407397738113e+06 -4.412181201567e+06 -1.022993759309e-03 -7.524784060892e-04 -1.025936310039e-01 5.130892804723e+06 1.920336306798e+06  1.020942979102e-01
7.000000000000e-02 2.424187687796e-07 2.278589265820e-03 -4.571685199849e+06 -1.645778847117e+04 -6.410017349776e+06 -4.412656481294e+06 -1.019553608070e-03 -7.191291856928e-04 -1.025988914526e-01 5.131453010306e+06 1.922996466264e+06  1.021005307883e-01
8.000000000000e-02 2.634178787995e-07 2.282798278011e-03 -4.755481175537e+06 -2.042932715690e+04 -6.681762482890e+06 -4.594866055789e+06 -1.022757082176e-03 -7.359849823543e-04 -1.027950767235e-01 5.344036571405e+06 2.011715404033e+06  1.022954762420e-01
9.000000000000e-02 2.312293608612e-07 2.286374762769e-03 -4.906498045708e+06 -1.839177680925e+04 -6.905271964178e+06 -4.744670235921e+06 -1.025692472882e-03 -7.277205738562e-04 -1.029668064155e-01 5.518813415269e+06 2.084648026652e+06  1.024655635902e-01
1.000000000000e-01 2.426555987944e-07 2.287903993951e-03 -5.016258166443e+06 -1.296843286530e+04 -7.049174632767e+06 -4.846126847787e+06 -1.039369529686e-03 -7.097662286565e-04 -1.030375623590e-01 5.637186548999e+06 2.123219565783e+06  1.025291994871e-01
1.100000000000e-01 2.384071255278e-07 2.290011740626e-03 -5.109223472738e+06 -1.295453755690e+04 -7.187524026924e+06 -4.938646082353e+06 -1.040226350872e-03 -7.097715859211e-04 -1.031332478699e-01 5.745131194005e+06 2.168742581484e+06  1.026244527005e-01
1.200000000000e-01 2.302794728117e-07 2.292385696870e-03 -5.289074602562e+06 -1.106885887978e+04 -7.441874670553e+06 -5.112316751352e+06 -1.048392089037e-03 -7.047833168525e-04 -1.032369392373e-01 5.947755341489e+06 2.246482437884e+06  1.027240094488e-01
1.300000000000e-01 2.188454943675e-07 2.293387456120e-03 -5.317953601093e+06 -1.045310885707e+04 -7.503901073522e+06 -5.148669724761e+06 -1.036948267872e-03 -7.029765451126e-04 -1.032771586980e-01 5.990174799792e+06 2.275389383612e+06  1.027698215805e-01
1.400000000000e-01 2.151992764587e-07 2.295095031500e-03 -5.425593667589e+06 -9.397205471512e+03 -7.659991775069e+06 -5.254152813434e+06 -1.040217405523e-03 -6.997618713448e-04 -1.033552677733e-01 6.113246085364e+06 2.324921269993e+06  1.028462467973e-01
1.500000000000e-01 2.119925024984e-07 2.296440887757e-03 -5.508677858460e+06 -8.684849418734e+03 -7.782511492671e+06 -5.336385176828e+06 -1.041489543429e-03 -6.976405543417e-04 -1.034163376551e-01 6.209191509320e+06 2.364740014984e+06  1.029066405399e-01
1.600000000000e-01 2.073739273996e-07 2.297829013842e-03 -5.596311414987e+06 -7.576705212380e+03 -7.911245250703e+06 -5.422922996475e+06 -1.043099653265e-03 -6.943845558081e-04 -1.034792963418e-01 6.310159887388e+06 2.406353495132e+06  1.029687337005e-01
1.700000000000e-01 2.028134406469e-07 2.299133266188e-03 -5.679893323488e+06 -6.467447833589e+03 -8.034043277877e+06 -5.505466017679e+06 -1.044602987760e-03 -6.911753202545e-04 -1.035384249453e-01 6.406467539682e+06 2.446058137171e+06  1.030270510957e-01
1.800000000000e-01 1.990208233901e-07 2.300434217463e-03 -5.764470058271e+06 -5.538593331400e+03 -8.158389428617e+06 -5.589026428569e+06 -1.046051776205e-03 -6.885303365695e-04 -1.035974325563e-01 6.503961971819e+06 2.486306568087e+06  1.030852860515e-01
1.900000000000e-01 1.946944239462e-07 2.301663514396e-03 -5.845604818487e+06 -4.456327115639e+03 -8.277576642227e+06 -5.669146733839e+06 -1.047477127154e-03 -6.854886846293e-04 -1.036531281515e-01 6.597442731518e+06 2.524841593762e+06  1.031402132402e-01
2.000000000000e-01 1.907595577639e-07 2.302936960440e-03 -5.930815006758e+06 -3.461580688285e+03 -8.402836827528e+06 -5.753326701404e+06 -1.048904087977e-03 -6.827361245387e-04 -1.037108496488e-01 6.695659511897e+06 2.565382016834e+06  1.031971714067e-01
2.100000000000e-01 1.863364824965e-07 2.304215636558e-03 -6.017667611930e+06 -2.323149740188e+03 -8.530440167900e+06 -5.839101237517e+06 -1.050375740897e-03 -6.796306823415e-04 -1.037687595983e-01 6.795736339116e+06 2.606650100076e+06  1.032542893231e-01
2.200000000000e-01 1.821280429952e-07 2.305371404635e-03 -6.097285171654e+06 -1.222021699862e+03 -8.647408261565e+06 -5.917728032113e+06 -1.051709519647e-03 -6.766682094242e-04 -1.038210940916e-01 6.887473821777e+06 2.644478365873e+06  1.033059034029e-01
2.300000000000e-01 1.775556150119e-07 2.306659154658e-03 -6.187217771378e+06 -1.279919281976e+01 -8.779541325520e+06 -6.006547235450e+06 -1.053187628995e-03 -6.734608827773e-04 -1.038793867573e-01 6.991102110783e+06 2.687217843464e+06  1.033633995227e-01
2.400000000000e-01 1.738532886454e-07 2.307778063131e-03 -6.266426566140e+06 9.762520096210e+02 -8.895971524292e+06 -6.084796201381e+06 -1.054444368254e-03 -6.708749706640e-04 -1.039300558161e-01 7.082398097271e+06 2.724904465381e+06  1.034133942606e-01
2.500000000000e-01 1.694483494585e-07 2.308939104337e-03 -6.349730388262e+06 2.179408974733e+03 -9.018343616011e+06 -6.167060389963e+06 -1.055788094353e-03 -6.677682541471e-04 -1.039825840713e-01 7.178378131412e+06 2.764480911643e+06  1.034651953446e-01
2.600000000000e-01 1.661826924001e-07 2.310042699261e-03 -6.429874073205e+06 3.070956232314e+03 -9.136204425574e+06 -6.246256482822e+06 -1.056996939204e-03 -6.654989176959e-04 -1.040325597747e-01 7.270778327200e+06 2.802659013518e+06  1.035145270239e-01
2.700000000000e-01 1.628861696855e-07 2.311198750121e-03 -6.514897535070e+06 3.978651323744e+03 -9.261264240230e+06 -6.330284574900e+06 -1.058250446566e-03 -6.632190428600e-04 -1.040849059793e-01 7.368815450067e+06 2.843180332027e+06  1.035662069741e-01
2.800000000000e-01 1.604789250031e-07 2.312256414853e-03 -6.593623316161e+06 4.641564037509e+03 -9.377160416831e+06 -6.408128638128e+06 -1.059346751400e-03 -6.615774009754e-04 -1.041328298758e-01 7.459637457040e+06 2.880778196429e+06  1.036135548682e-01
2.900000000000e-01 1.579884523367e-07 2.313373152357e-03 -6.677764189064e+06 5.333856910319e+03 -9.501050842181e+06 -6.491336944606e+06 -1.060491987063e-03 -6.598845588784e-04 -1.041834260468e-01 7.556717325284e+06 2.920980236887e+06  1.036635498161e-01
3.000000000000e-01 1.560630953567e-07 2.314368909995e-03 -6.753685061550e+06 5.870639967884e+03 -9.612874381249e+06 -6.566431009046e+06 -1.061495070817e-03 -6.585895419465e-04 -1.042285487098e-01 7.644330150615e+06 2.957283521458e+06  1.037081494763e-01
3.100000000000e-01 1.540729872622e-07 2.315384520328e-03 -6.832004243774e+06 6.433295321404e+03 -9.728238662496e+06 -6.643901210842e+06 -1.062513307287e-03 -6.572473612450e-04 -1.042745636057e-01 7.734714705704e+06 2.994740589650e+06  1.037536329991e-01
3.200000000000e-01 1.523957879314e-07 2.316342153817e-03 -6.906672532207e+06 6.908148157613e+03 -9.838254694376e+06 -6.717772272515e+06 -1.063458698878e-03 -6.561287142896e-04 -1.043179550939e-01 7.820899833033e+06 3.030474728642e+06  1.037965335512e-01
3.300000000000e-01 1.508676472155e-07 2.317295769496e-03 -6.981825251139e+06 7.339650320119e+03 -9.949012468130e+06 -6.792134318306e+06 -1.064386109237e-03 -6.551243999558e-04 -1.043611669566e-01 7.907657345858e+06 3.066462579774e+06  1.038392655686e-01
3.400000000000e-01 1.493776768403e-07 2.318107803780e-03 -7.046483198146e+06 7.773177965105e+03 -1.004427861980e+07 -6.856102317610e+06 -1.065187264131e-03 -6.541240005466e-04 -1.043979469830e-01 7.982288045185e+06 3.097406409995e+06  1.038756286588e-01
3.500000000000e-01 1.483003629429e-07 2.318847792704e-03 -7.105906379254e+06 8.079857125660e+03 -1.013187174149e+07 -6.914907704183e+06 -1.065898229352e-03 -6.534245064808e-04 -1.044314733639e-01 8.050895274976e+06 3.125875572476e+06  1.039087885417e-01
3.600000000000e-01 1.470652324199e-07 2.319489433930e-03 -7.157866404147e+06 8.444590415390e+03 -1.020841213662e+07 -6.966307235255e+06 -1.066538216404e-03 -6.525967579365e-04 -1.044605186385e-01 8.110861925341e+06 3.150729775717e+06  1.039375003083e-01
3.700000000000e-01 1.459544694646e-07 2.320057747880e-03 -7.204207685629e+06 8.773761714123e+03 -1.027666817451e+07 -7.012146013174e+06 -1.067108020424e-03 -6.518548528480e-04 -1.044862359820e-01 8.164340624436e+06 3.172890476911e+06  1.039629206641e-01
3.800000000000e-01 1.450577964167e-07 2.320572954434e-03 -7.246467036482e+06 9.037030284718e+03 -1.033892589117e+07 -7.053953164908e+06 -1.067617592914e-03 -6.512659377072e-04 -1.045095499991e-01 8.213115364187e+06 3.193109705169e+06  1.039859704773e-01
3.900000000000e-01 1.441383941724e-07 2.321045924126e-03 -7.285486275111e+06 9.310807185761e+03 -1.039639086285e+07 -7.092547634366e+06 -1.068093568925e-03 -6.506563475918e-04 -1.045309399047e-01 8.258141590774e+06 3.211763759855e+06  1.040071125338e-01
4.000000000000e-01 1.432360421740e-07 2.321482029833e-03 -7.321652008463e+06 9.581729545012e+03 -1.044964094569e+07 -7.128315192270e+06 -1.068537437575e-03 -6.500559638159e-04 -1.045506524448e-01 8.299869382140e+06 3.229043940044e+06  1.040265933831e-01
4.100000000000e-01 1.423364811798e-07 2.321892413725e-03 -7.355849242172e+06 9.854072396523e+03 -1.049998193017e+07 -7.162132140892e+06 -1.068959323043e-03 -6.494550928189e-04 -1.045691931950e-01 8.339321104410e+06 3.245375209991e+06  1.040449133849e-01
4.200000000000e-01 1.414478786726e-07 2.322292631068e-03 -7.389349535080e+06 1.012440989364e+04 -1.054929483371e+07 -7.195259493779e+06 -1.069371149784e-03 -6.488613646431e-04 -1.045872692799e-01 8.377967954190e+06 3.261371898298e+06  1.040627738669e-01
4.300000000000e-01 1.405752345531e-07 2.322690711987e-03 -7.422816564399e+06 1.039086202825e+04 -1.059856209046e+07 -7.228355677500e+06 -1.069778800187e-03 -6.482789010700e-04 -1.046052461437e-01 8.416578110786e+06 3.277355166050e+06  1.040805374186e-01
4.400000000000e-01 1.397329005136e-07 2.323078877317e-03 -7.455590441588e+06 1.064881268222e+04 -1.064681075953e+07 -7.260767542337e+06 -1.070174955826e-03 -6.477176115343e-04 -1.046227716295e-01 8.454389581150e+06 3.293008664704e+06  1.040978557041e-01
4.500000000000e-01 1.388994551611e-07 2.323469791803e-03 -7.488737052757e+06 1.090498734108e+04 -1.069561330521e+07 -7.293550410370e+06 -1.070571238369e-03 -6.471627481921e-04 -1.046404199941e-01 8.492633589447e+06 3.308844101563e+06  1.041152969269e-01
4.600000000000e-01 1.380827947560e-07 2.323857931230e-03 -7.521788848350e+06 1.115686711810e+04 -1.074428016643e+07 -7.326241418675e+06 -1.070962555326e-03 -6.466196812043e-04 -1.046579411342e-01 8.530770144485e+06 3.324637185288e+06  1.041326136146e-01
4.700000000000e-01 1.372802348555e-07 2.324244338889e-03 -7.554833114458e+06 1.140531739391e+04 -1.079294009703e+07 -7.358926964230e+06 -1.071349913422e-03 -6.460864410553e-04 -1.046753825585e-01 8.568900058572e+06 3.340429817709e+06  1.041498527384e-01
4.800000000000e-01 1.364923103224e-07 2.324628933110e-03 -7.587861652113e+06 1.165010247194e+04 -1.084158121163e+07 -7.391598994229e+06 -1.071733190836e-03 -6.455634480438e-04 -1.046927408289e-01 8.607013952658e+06 3.356218232818e+06  1.041670109277e-01
4.900000000000e-01 1.357205231426e-07 2.325009869475e-03 -7.620713883207e+06 1.189072574150e+04 -1.088996656434e+07 -7.424098479694e+06 -1.072110769404e-03 -6.450516521674e-04 -1.047099325660e-01 8.644926309081e+06 3.371925312514e+06  1.041840056247e-01
5.000000000000e-01 1.349503921209e-07 2.325386482116e-03 -7.653330032936e+06 1.213198651655e+04 -1.093800570539e+07 -7.456365311856e+06 -1.072483066897e-03 -6.445406901305e-04 -1.047269270098e-01 8.682567016728e+06 3.387520650494e+06  1.042008056738e-01
5.100000000000e-01 1.341726799698e-07 2.325769606968e-03 -7.686650523092e+06 1.237689774763e+04 -1.098708776714e+07 -7.489331293244e+06 -1.072859264653e-03 -6.440242790085e-04 -1.047442160309e-01 8.721023194491e+06 3.403457092178e+06  1.042178982620e-01
5.200000000000e-01 1.334035832098e-07 2.326152402294e-03 -7.720083658555e+06 1.261998585069e+04 -1.103634081515e+07 -7.522410953014e+06 -1.073232730123e-03 -6.435140092030e-04 -1.047614901018e-01 8.759611808905e+06 3.419451322025e+06  1.042349773716e-01
5.300000000000e-01 1.326475086573e-07 2.326529144175e-03 -7.753126793444e+06 1.285992783147e+04 -1.108502224385e+07 -7.555106171590e+06 -1.073598731339e-03 -6.430125462362e-04 -1.047784896478e-01 8.797751736294e+06 3.435261212975e+06  1.042517858310e-01
5.400000000000e-01 1.318858047992e-07 2.326911901002e-03 -7.786840431645e+06 1.310292209006e+04 -1.113469726961e+07 -7.588467218256e+06 -1.073968048445e-03 -6.425069443093e-04 -1.047957620212e-01 8.836668306503e+06 3.451396459102e+06  1.042688653936e-01
5.500000000000e-01 1.311328467449e-07 2.327292613116e-03 -7.820516594175e+06 1.334414114813e+04 -1.118432161319e+07 -7.621793171214e+06 -1.074333276321e-03 -6.420072616768e-04 -1.048129421345e-01 8.875543792861e+06 3.467517303587e+06  1.042858548382e-01
5.600000000000e-01 1.303911172893e-07 2.327667003308e-03 -7.853773108774e+06 1.358282567108e+04 -1.123333037251e+07 -7.654705181985e+06 -1.074691009022e-03 -6.415149647999e-04 -1.048298360064e-01 8.913936221088e+06 3.483439431903e+06  1.043025619053e-01
5.700000000000e-01 1.296448811693e-07 2.328047673900e-03 -7.887731330889e+06 1.382420692774e+04 -1.128337944693e+07 -7.688314134513e+06 -1.075052132979e-03 -6.410192988446e-04 -1.048470154029e-01 8.953141637444e+06 3.499702458704e+06  1.043195527486e-01
5.800000000000e-01 1.289130020487e-07 2.328421553988e-03 -7.921224248451e+06 1.406191089468e+04 -1.133274621360e+07 -7.721464157178e+06 -1.075405142354e-03 -6.405333070570e-04 -1.048638878371e-01 8.991811539743e+06 3.515745349696e+06  1.043362408421e-01
5.900000000000e-01 1.281788827043e-07 2.328800695348e-03 -7.955332909236e+06 1.430154310089e+04 -1.138302674003e+07 -7.755226078690e+06 -1.075760580412e-03 -6.400455280471e-04 -1.048809999793e-01 9.031195242651e+06 3.532088092366e+06  1.043531674024e-01
6.000000000000e-01 1.274604253975e-07 2.329172027359e-03 -7.988879169748e+06 1.453703127646e+04 -1.143248160881e+07 -7.788432857615e+06 -1.076107091206e-03 -6.395682548561e-04 -1.048977592376e-01 9.069931212057e+06 3.548164013619e+06  1.043697457103e-01
6.100000000000e-01 1.267434070493e-07 2.329547376021e-03 -8.022931446176e+06 1.477315947685e+04 -1.148268869056e+07 -7.822142991970e+06 -1.076454833627e-03 -6.390917836145e-04 -1.049147021788e-01 9.109254376235e+06 3.564487374245e+06  1.043865071018e-01
6.200000000000e-01 1.260419070370e-07 2.329915390571e-03 -8.056457443051e+06 1.500509885071e+04 -1.153212350356e+07 -7.855333754739e+06 -1.076794112157e-03 -6.386257754274e-04 -1.049313140680e-01 9.147971567118e+06 3.580561344065e+06  1.044029418411e-01
6.300000000000e-01 1.253468828446e-07 2.330282959992e-03 -8.090082052269e+06 1.523592498396e+04 -1.158170880041e+07 -7.888624187870e+06 -1.077130903541e-03 -6.381639935842e-04 -1.049479074704e-01 9.186805013516e+06 3.596686626277e+06  1.044193594064e-01
6.400000000000e-01 1.246525406840e-07 2.330654869387e-03 -8.124246630316e+06 1.546764718074e+04 -1.163209661811e+07 -7.922451633448e+06 -1.077469244659e-03 -6.377024332162e-04 -1.049646995969e-01 9.226264960625e+06 3.613075847428e+06  1.044359749274e-01
6.500000000000e-01 1.239736374901e-07 2.331019836775e-03 -8.157912420667e+06 1.569510905684e+04 -1.168175281601e+07 -7.955786917782e+06 -1.077799543001e-03 -6.372512952416e-04 -1.049811787898e-01 9.265150718153e+06 3.629228963858e+06  1.044522817035e-01
6.600000000000e-01 1.232959915355e-07 2.331389584998e-03 -8.192162008223e+06 1.592324802708e+04 -1.173227653881e+07 -7.989702718359e+06 -1.078131725355e-03 -6.368007776374e-04 -1.049978769889e-01 9.304713755129e+06 3.645667343173e+06  1.044688065577e-01
6.700000000000e-01 1.226425637265e-07 2.331751447946e-03 -8.225818454197e+06 1.614378925831e+04 -1.178193075427e+07 -8.023033432806e+06 -1.078454538136e-03 -6.363671665682e-04 -1.050142201627e-01 9.343594213759e+06 3.661825314006e+06  1.044849813503e-01
6.800000000000e-01 1.219916280025e-07 2.332110021939e-03 -8.259306056928e+06 1.636474669740e+04 -1.183133888995e+07 -8.056198137395e+06 -1.078773231101e-03 -6.359345054514e-04 -1.050304158209e-01 9.382281028091e+06 3.677904696860e+06  1.045010106949e-01
6.900000000000e-01 1.213436342545e-07 2.332472367072e-03 -8.293285222562e+06 1.658570565215e+04 -1.188147841547e+07 -8.089851969623e+06 -1.079093009580e-03 -6.355036884420e-04 -1.050467849380e-01 9.421538535886e+06 3.694225026761e+06  1.045172129893e-01
7.000000000000e-01 1.207104100943e-07 2.332827683258e-03 -8.326740462966e+06 1.680246859087e+04 -1.193084889367e+07 -8.122988547046e+06 -1.079404950517e-03 -6.350828138419e-04 -1.050628375186e-01 9.460192634561e+06 3.710296940989e+06  1.045331028245e-01
7.100000000000e-01 1.200855578871e-07 2.333181931160e-03 -8.360229915097e+06 1.701727264990e+04 -1.198027505022e+07 -8.156161002803e+06 -1.079714005661e-03 -6.346674830941e-04 -1.050788441215e-01 9.498888656040e+06 3.726389450552e+06  1.045489482157e-01
7.200000000000e-01 1.194639380950e-07 2.333539753392e-03 -8.394195337188e+06 1.723193052205e+04 -1.203040959318e+07 -8.189807112146e+06 -1.080024056740e-03 -6.342541884573e-04 -1.050950154424e-01 9.538137347503e+06 3.742715439081e+06  1.045649578635e-01
7.300000000000e-01 1.188575046554e-07 2.333890447764e-03 -8.427617913080e+06 1.744212672513e+04 -1.207974702903e+07 -8.222917140359e+06 -1.080326313161e-03 -6.338511555188e-04 -1.051108659031e-01 9.576760694157e+06 3.758783822117e+06  1.045806507126e-01
7.400000000000e-01 1.182588879449e-07 2.334239678559e-03 -8.461034222864e+06 1.765053460930e+04 -1.212907994203e+07 -8.256022742644e+06 -1.080625591804e-03 -6.334531899231e-04 -1.051266524871e-01 9.615378969181e+06 3.774853005279e+06  1.045962812560e-01
7.500000000000e-01 1.176646831098e-07 2.334591835009e-03 -8.494866216119e+06 1.785829889850e+04 -1.217903222077e+07 -8.289542244359e+06 -1.080925386092e-03 -6.330581095068e-04 -1.051425745083e-01 9.654480227082e+06 3.791126671111e+06  1.046120470295e-01
7.600000000000e-01 1.170874432602e-07 2.334935710215e-03 -8.528033189224e+06 1.806079861164e+04 -1.222800670848e+07 -8.322404492030e+06 -1.081216569124e-03 -6.326746087187e-04 -1.051581234455e-01 9.692814796578e+06 3.807083728531e+06  1.046274442098e-01
7.700000000000e-01 1.165189216102e-07 2.335278197124e-03 -8.561196179873e+06 1.826103122379e+04 -1.227698015576e+07 -8.355264592045e+06 -1.081504866589e-03 -6.322969404410e-04 -1.051736120798e-01 9.731146975894e+06 3.823042775632e+06  1.046427826257e-01
7.800000000000e-01 1.159592202182e-07 2.335619025160e-03 -8.594327832629e+06 1.845893015163e+04 -1.232591207901e+07 -8.388095400460e+06 -1.081790100969e-03 -6.319251819027e-04 -1.051890281394e-01 9.769445104032e+06 3.838990582846e+06  1.046580500950e-01
7.900000000000e-01 1.154077414142e-07 2.335957955963e-03 -8.627403639445e+06 1.865472105131e+04 -1.237476602393e+07 -8.420872524190e+06 -1.082072189015e-03 -6.315588554624e-04 -1.052043607636e-01 9.807680729188e+06 3.854915157381e+06  1.046732357899e-01
8.000000000000e-01 1.148595857070e-07 2.336300069878e-03 -8.660921384678e+06 1.885016916161e+04 -1.242427788716e+07 -8.454089428184e+06 -1.082355212681e-03 -6.311946564534e-04 -1.052198405773e-01 9.846429566673e+06 3.871056703021e+06  1.046885682445e-01
8.100000000000e-01 1.143257337338e-07 2.336635151605e-03 -8.693877203586e+06 1.904118286144e+04 -1.247296375472e+07 -8.486750994149e+06 -1.082630968864e-03 -6.308401344098e-04 -1.052350039559e-01 9.884530650818e+06 3.886930922978e+06  1.047035880519e-01
8.200000000000e-01 1.138002182051e-07 2.336968921705e-03 -8.726830527959e+06 1.922993986198e+04 -1.252165026891e+07 -8.519411645318e+06 -1.082904198097e-03 -6.304911929674e-04 -1.052501104688e-01 9.922630814064e+06 3.902807464054e+06  1.047185523494e-01
8.300000000000e-01 1.132834406688e-07 2.337300590138e-03 -8.759701745212e+06 1.941619277311e+04 -1.257021986241e+07 -8.551992503635e+06 -1.083174238064e-03 -6.301482398900e-04 -1.052651242876e-01 9.960638037085e+06 3.918648012296e+06  1.047334256449e-01
8.400000000000e-01 1.127758913788e-07 2.337630102685e-03 -8.792483762973e+06 1.959981533857e+04 -1.261866196060e+07 -8.584486496831e+06 -1.083441096660e-03 -6.298114599654e-04 -1.052800429865e-01 9.998544073467e+06 3.934449075264e+06  1.047482055123e-01
8.500000000000e-01 1.122767494591e-07 2.337957737895e-03 -8.825202440428e+06 1.978102355886e+04 -1.266701480801e+07 -8.616919261455e+06 -1.083705005832e-03 -6.294804070153e-04 -1.052948791632e-01 1.003637883663e+07 3.950223146859e+06  1.047629044254e-01
8.600000000000e-01 1.117865571785e-07 2.338283173254e-03 -8.857823766537e+06 1.995959963935e+04 -1.271522813866e+07 -8.649257082100e+06 -1.083965718100e-03 -6.291554325708e-04 -1.053096182040e-01 1.007410299577e+07 3.965953825906e+06  1.047775078999e-01
8.700000000000e-01 1.112987801009e-07 2.338611404730e-03 -8.890850255046e+06 2.013808035836e+04 -1.276404456067e+07 -8.681998003361e+06 -1.084227348018e-03 -6.288318964348e-04 -1.053244867982e-01 1.011229760636e+07 3.981883394940e+06  1.047922404948e-01
8.800000000000e-01 1.108236799901e-07 2.338932696676e-03 -8.923299035033e+06 2.031248801439e+04 -1.281201097248e+07 -8.714167632508e+06 -1.084482151685e-03 -6.285169492735e-04 -1.053390429632e-01 1.014982588001e+07 3.997537498132e+06  1.048066642091e-01
8.900000000000e-01 1.103561982892e-07 2.339252213293e-03 -8.955688218573e+06 2.048472831871e+04 -1.285989319550e+07 -8.746279539598e+06 -1.084734319205e-03 -6.282071018378e-04 -1.053535211440e-01 1.018728698456e+07 4.013166053835e+06  1.048210113404e-01
9.000000000000e-01 1.098959501289e-07 2.339569754579e-03 -8.987995771945e+06 2.065490846463e+04 -1.290765859050e+07 -8.778311852503e+06 -1.084983725508e-03 -6.279021174869e-04 -1.053679121760e-01 1.022465540498e+07 4.028758381395e+06  1.048352727822e-01
9.100000000000e-01 1.094422035811e-07 2.339885348030e-03 -9.020222917439e+06 2.082333944532e+04 -1.295530883040e+07 -8.810265726447e+06 -1.085230454108e-03 -6.276013945721e-04 -1.053822172944e-01 1.026193249143e+07 4.044314970849e+06  1.048494497173e-01
9.200000000000e-01 1.089967251542e-07 2.340198946126e-03 -9.052362772072e+06 2.098923388580e+04 -1.300283414783e+07 -8.842134499039e+06 -1.085474327442e-03 -6.273063195433e-04 -1.053964344329e-01 1.029911047298e+07 4.059832808903e+06  1.048635401918e-01
9.300000000000e-01 1.085585143253e-07 2.340510813789e-03 -9.084441100322e+06 2.115297135730e+04 -1.305027222431e+07 -8.873943546995e+06 -1.085715715293e-03 -6.270161696684e-04 -1.054105754766e-01 1.033621895721e+07 4.075324013749e+06  1.048775558944e-01
9.400000000000e-01 1.081274323714e-07 2.340820923789e-03 -9.116453681940e+06 2.131458134159e+04 -1.309761674883e+07 -8.905688656711e+06 -1.085954631139e-03 -6.267308545882e-04 -1.054246391766e-01 1.037325302916e+07 4.090786492763e+06  1.048914955682e-01
9.500000000000e-01 1.077032137276e-07 2.341129413556e-03 -9.148413181146e+06 2.147413404581e+04 -1.314488643004e+07 -8.937382376429e+06 -1.086191197233e-03 -6.264502141299e-04 -1.054386317091e-01 1.041022732920e+07 4.106226346745e+06  1.049053653252e-01
9.600000000000e-01 1.072865933450e-07 2.341435875625e-03 -9.180275808419e+06 2.163133340129e+04 -1.319201645637e+07 -8.968981265070e+06 -1.086425122940e-03 -6.261747337429e-04 -1.054525345597e-01 1.044709117662e+07 4.121622382319e+06  1.049191468045e-01
9.700000000000e-01 1.068774765085e-07 2.341741019548e-03 -9.212113892134e+06 2.178615144598e+04 -1.323911388716e+07 -9.000557077438e+06 -1.086656935094e-03 -6.259044328400e-04 -1.054663799450e-01 1.048392828558e+07 4.137009601958e+06  1.049328719606e-01
9.800000000000e-01 1.064749914623e-07 2.342044647709e-03 -9.243905713976e+06 2.193892922628e+04 -1.328614639060e+07 -9.032088193506e+06 -1.086886562940e-03 -6.256386703972e-04 -1.054801587974e-01 1.052071343269e+07 4.152377354820e+06  1.049465317498e-01
9.900000000000e-01 1.060791607476e-07 2.342346774516e-03 -9.275651690641e+06 2.208961999438e+04 -1.333311440164e+07 -9.063574954258e+06 -1.087114089001e-03 -6.253774966411e-04 -1.054938717311e-01 1.055744701551e+07 4.167725698377e+06  1.049601267465e-01
1.000000000000e+00 1.056896114320e-07 2.342647308598e-03 -9.307340787925e+06 2.223836790180e+04 -1.338000157103e+07 -9.095006406909e+06 -1.087339458120e-03 -6.251206231436e-04 -1.055075145150e-01 1.059411625529e+07 4.183049280739e+06  1.049736527417e-01
1.050000000000e+00 1.039163459428e-07 2.344118715039e-03 -9.464047659333e+06 2.292034622601e+04 -1.361192425109e+07 -9.250457704302e+06 -1.088427154036e-03 -6.239555398801e-04 -1.055743599477e-01 1.077547653824e+07 4.258875636937e+06  1.050399358028e-01
1.100000000000e+00 1.021507863380e-07 2.345538774481e-03 -9.617855655886e+06 2.361571225610e+04 -1.383959277984e+07 -9.403042899341e+06 -1.089469122378e-03 -6.227865706934e-04 -1.056389046143e-01 1.095349711169e+07 4.333331854216e+06  1.051039408192e-01
1.150000000000e+00 1.005576768515e-07 2.346936678445e-03 -9.771752710558e+06 2.424792237030e+04 -1.406746133022e+07 -9.555739273862e+06 -1.090475871675e-03 -6.217424269069e-04 -1.057024823456e-01 1.113165110488e+07 4.407887137513e+06  1.051669986070e-01
1.200000000000e+00 9.901629602948e-08 2.348292877975e-03 -9.923464844990e+06 2.487102300186e+04 -1.429213600798e+07 -9.706280187979e+06 -1.091442587601e-03 -6.207294278422e-04 -1.057641915940e-01 1.130729368031e+07 4.481419524774e+06  1.052282083976e-01
1.250000000000e+00 9.759112040676e-08 2.349627270502e-03 -1.007507363045e+07 2.545262207373e+04 -1.451670878698e+07 -9.856735623714e+06 -1.092380016501e-03 -6.197994581519e-04 -1.058249352896e-01 1.148283934705e+07 4.554944085661e+06  1.052884686596e-01
1.300000000000e+00 9.624214367981e-08 2.350931107976e-03 -1.022548587926e+07 2.600993468338e+04 -1.473954485246e+07 -1.000601496163e+07 -1.093287047193e-03 -6.189222398625e-04 -1.058843070581e-01 1.165701523112e+07 4.627918550752e+06  1.053473730595e-01