 TITLE = "Time curves in points"
 VARIABLES = "TIME"  "PRESSURE1"  "PRESSURE2"  "PRESSURE_W"  "SATURATION1" SATURATION2  "VELOCITY_X1"  "VELOCITY_Y1"  "VELOCITY_X2"  "VELOCITY_Y2"  p_(1st_Invariant)  q_(2nd_Invariant)   Effective_Strain
 ZONE T="POINT=POINT4"
0.000000000000e+00 8.400000000000e+07 1.000000000000e+05 -8.390000000000e+07 6.601393844892e-01 3.398606155108e-01 0.000000000000e+00 0.000000000000e+00 0.000000000000e+00 0.000000000000e+00 1.000000000000e+05 0.000000000000e+00  0.000000000000e+00
1.000000000000e-03 -9.008061603601e-314 1.000000000000e+05 1.000000000000e+05 1.000000000000e+00 0.000000000000e+00 2.245940050175e-06 3.928132542536e-04 2.869929712784e-13 -6.033750217782e-14 -3.213319465274e+05 1.963418788650e+05  4.219737056859e-01
2.000000000000e-03 -9.008061603601e-314 1.000000000000e+05 1.000000000000e+05 1.000000000000e+00 0.000000000000e+00 2.228286714009e-06 3.926518363027e-04 5.983051441935e-13 -1.180543213891e-13 -7.723393096469e+05 3.706279880126e+05  1.245844211853e+00
3.000000000000e-03 -9.008061603601e-314 1.000000000000e+05 1.000000000000e+05 1.000000000000e+00 0.000000000000e+00 2.210776779619e-06 3.924904951590e-04 9.064217524993e-13 -1.738558882760e-13 -2.220659604400e+06 1.091306770451e+06  1.620386081372e+00
4.000000000000e-03 -9.008061603601e-314 1.000000000000e+05 1.000000000000e+05 1.000000000000e+00 0.000000000000e+00 2.193409065309e-06 3.923292317507e-04 1.211902897752e-12 -2.280996856717e-13 -6.514938059334e+06 3.589515972668e+06  1.755244299903e+00
5.000000000000e-03 -9.008061603601e-314 1.000000000000e+05 1.000000000000e+05 1.000000000000e+00 0.000000000000e+00 2.176182796305e-06 3.921680469433e-04 1.512939754746e-12 -2.801299611177e-13 -1.807883896550e+07 9.993547355124e+06  1.794261473537e+00
6.000000000000e-03 -9.008061603601e-314 1.000000000000e+05 1.000000000000e+05 1.000000000000e+00 0.000000000000e+00 2.159096736843e-06 3.920069418230e-04 1.810265470889e-12 -3.306394776381e-13 -4.168162252460e+07 2.549841556055e+07  1.802513571634e+00
7.000000000000e-03 -9.008061603601e-314 1.000000000000e+05 1.000000000000e+05 1.000000000000e+00 0.000000000000e+00 2.142039905138e-06 3.918458202656e-04 2.104381338841e-12 -3.794644059819e-13 -3.276083631975e+07 2.258669152599e+07  1.802060938778e+00
8.000000000000e-03 -9.008061603601e-314 1.000000000000e+05 1.000000000000e+05 1.000000000000e+00 0.000000000000e+00 2.124233216145e-06 3.916839885890e-04 2.394590828775e-12 -4.262338896602e-13 -3.114508752731e+07 2.352740981591e+07  1.802783081602e+00
9.000000000000e-03 -9.008061603601e-314 1.000000000000e+05 1.000000000000e+05 1.000000000000e+00 0.000000000000e+00 2.106869585259e-06 3.915219730326e-04 2.680237597640e-12 -4.711694572586e-13 -3.034285085019e+07 2.475587972433e+07  1.803638279602e+00
1.000000000000e-02 -9.008061603601e-314 1.000000000000e+05 1.000000000000e+05 1.000000000000e+00 0.000000000000e+00 2.089685545553e-06 3.913600057928e-04 2.963395063895e-12 -5.142629213650e-13 -2.960031331171e+07 2.589956571395e+07  1.804458452735e+00
2.000000000000e-02 -9.008061603601e-314 1.000000000000e+05 1.000000000000e+05 1.000000000000e+00 0.000000000000e+00 1.927857918307e-06 3.897526579303e-04 5.585906828585e-12 -7.881167950574e-13 -6.071812707767e+07 7.676660536607e+07  1.866383673464e+00
3.000000000000e-02 -9.008061603601e-314 1.000000000000e+05 1.000000000000e+05 1.000000000000e+00 0.000000000000e+00 1.778617885156e-06 3.881460017023e-04 7.872596255124e-12 -9.105143543520e-13 -3.400117335665e+07 4.574992483122e+07  1.850321837334e+00
4.000000000000e-02 -9.008061603601e-314 1.000000000000e+05 1.000000000000e+05 1.000000000000e+00 0.000000000000e+00 1.638069102513e-06 3.865413872287e-04 1.003777454558e-11 -9.610982031333e-13 -3.585224687155e+07 6.414751769435e+07  1.958971822334e+00
5.000000000000e-02 -9.008061603601e-314 1.000000000000e+05 1.000000000000e+05 1.000000000000e+00 0.000000000000e+00 1.505920474239e-06 3.849286738517e-04 1.223201101511e-11 -1.027008987145e-12 -1.935811427231e+07 5.380184923606e+07  1.980749074004e+00
6.000000000000e-02 -9.008061603601e-314 1.000000000000e+05 1.000000000000e+05 1.000000000000e+00 0.000000000000e+00 1.384179133729e-06 3.833083524124e-04 1.431842377324e-11 -1.047936505896e-12 -2.985949354677e+07 6.352953320814e+07  1.984995845677e+00
7.000000000000e-02 -9.008061603601e-314 1.000000000000e+05 1.000000000000e+05 1.000000000000e+00 0.000000000000e+00 1.269526674451e-06 3.816815011684e-04 1.629000470635e-11 -1.039976565323e-12 -1.809801422325e+07 6.508065004687e+07  2.102837171754e+00
8.000000000000e-02 -9.008061603601e-314 1.000000000000e+05 1.000000000000e+05 1.000000000000e+00 0.000000000000e+00 1.162094270833e-06 3.800599209772e-04 1.812714564115e-11 -9.946091477100e-13 -2.428534038015e+07 6.698018526609e+07  2.089525769482e+00
9.000000000000e-02 -9.008061603601e-314 1.000000000000e+05 1.000000000000e+05 1.000000000000e+00 0.000000000000e+00 1.062770780885e-06 3.784592470892e-04 1.987828016928e-11 -9.245261422226e-13 -1.421957063091e+07 7.094087244781e+07  2.122741175011e+00
1.000000000000e-01 -9.008061603601e-314 1.000000000000e+05 1.000000000000e+05 1.000000000000e+00 0.000000000000e+00 9.699536416792e-07 3.768598769476e-04 2.152316843838e-11 -8.460982829903e-13 -1.731112408312e+07 7.030567772945e+07  2.110141545319e+00
1.100000000000e-01 -9.008061603601e-314 1.000000000000e+05 1.000000000000e+05 1.000000000000e+00 0.000000000000e+00 8.819750345157e-07 3.752670965681e-04 2.304784344116e-11 -7.382735791225e-13 -1.440100562528e+07 7.302171416724e+07  2.118368799871e+00
1.200000000000e-01 -9.008061603601e-314 1.000000000000e+05 1.000000000000e+05 1.000000000000e+00 0.000000000000e+00 8.011430945772e-07 3.736809195678e-04 2.448230620247e-11 -6.345170494997e-13 -1.352586298766e+07 7.370091847855e+07  2.117053691471e+00
1.300000000000e-01 -9.008061603601e-314 1.000000000000e+05 1.000000000000e+05 1.000000000000e+00 0.000000000000e+00 7.269258776435e-07 3.721052282155e-04 2.583547267955e-11 -5.337912603103e-13 -1.221330477120e+07 7.507579319539e+07  2.120232443075e+00
1.400000000000e-01 -9.008061603601e-314 1.000000000000e+05 1.000000000000e+05 1.000000000000e+00 0.000000000000e+00 6.552752903206e-07 3.705337716147e-04 2.705923925855e-11 -3.946935091503e-13 -1.109349363702e+07 7.575321936161e+07  2.120663566074e+00
1.500000000000e-01 -9.008061603601e-314 1.000000000000e+05 1.000000000000e+05 1.000000000000e+00 0.000000000000e+00 5.896038523278e-07 3.689457726045e-04 2.819735280828e-11 -2.698971409352e-13 -1.017526973281e+07 7.667784902781e+07  2.122151884013e+00
1.600000000000e-01 -9.008061603601e-314 1.000000000000e+05 1.000000000000e+05 1.000000000000e+00 0.000000000000e+00 5.294360672020e-07 3.673682328725e-04 2.924718788273e-11 -1.527044185683e-13 -9.249081900414e+06 7.732179613065e+07  2.122937742463e+00
1.700000000000e-01 -9.008061603601e-314 1.000000000000e+05 1.000000000000e+05 1.000000000000e+00 0.000000000000e+00 4.728531823011e-07 3.658018507499e-04 3.020088954394e-11 -2.856381496439e-14 -8.460201783733e+06 7.793582292213e+07  2.123996963887e+00
1.800000000000e-01 -9.008061603601e-314 1.000000000000e+05 1.000000000000e+05 1.000000000000e+00 0.000000000000e+00 4.196068348106e-07 3.642363486568e-04 3.106310671589e-11 5.559017956057e-14 -7.748219345680e+06 7.847573267551e+07  2.124845826028e+00
1.900000000000e-01 -9.008061603601e-314 1.000000000000e+05 1.000000000000e+05 1.000000000000e+00 0.000000000000e+00 3.709430060402e-07 3.626899768763e-04 3.183468191754e-11 1.319303523315e-13 -7.043614603278e+06 7.896720935272e+07  2.125694413148e+00
2.000000000000e-01 -9.008061603601e-314 1.000000000000e+05 1.000000000000e+05 1.000000000000e+00 0.000000000000e+00 3.265044039015e-07 3.611647171779e-04 3.254862250545e-11 1.990434899665e-13 -6.298415862392e+06 7.950453391365e+07  2.126535657956e+00
2.100000000000e-01 -9.008061603601e-314 1.000000000000e+05 1.000000000000e+05 1.000000000000e+00 0.000000000000e+00 2.840276251460e-07 3.596392229990e-04 3.315042872173e-11 6.347198096537e-13 -5.806451236464e+06 7.992957962266e+07  2.127323714249e+00
2.200000000000e-01 -9.008061603601e-314 1.000000000000e+05 1.000000000000e+05 1.000000000000e+00 0.000000000000e+00 2.447748770675e-07 3.581261605757e-04 3.365814960260e-11 1.473548364094e-12 -5.117709962933e+06 8.032558287241e+07  2.128299543768e+00
2.300000000000e-01 -9.008061603601e-314 1.000000000000e+05 1.000000000000e+05 1.000000000000e+00 0.000000000000e+00 2.090575405128e-07 3.566285136894e-04 3.412013976434e-11 2.356925111958e-12 -4.700345481126e+06 8.067265025584e+07  2.129123899658e+00
2.400000000000e-01 -9.008061603601e-314 1.000000000000e+05 1.000000000000e+05 1.000000000000e+00 0.000000000000e+00 1.766072864236e-07 3.551408501890e-04 3.450575508116e-11 3.261859565648e-12 -4.243867919146e+06 8.094229819603e+07  2.130174939100e+00
2.500000000000e-01 -9.008061603601e-314 1.000000000000e+05 1.000000000000e+05 1.000000000000e+00 0.000000000000e+00 1.454290358432e-07 3.536573049561e-04 3.478512734756e-11 4.205089578297e-12 -3.808786934671e+06 8.119181620905e+07  2.130981736487e+00
2.600000000000e-01 -9.008061603601e-314 1.000000000000e+05 1.000000000000e+05 1.000000000000e+00 0.000000000000e+00 1.169283230699e-07 3.521870534311e-04 3.498637580637e-11 5.186245801819e-12 -3.401975485367e+06 8.142128902279e+07  2.131973957186e+00
2.700000000000e-01 -9.008061603601e-314 1.000000000000e+05 1.000000000000e+05 1.000000000000e+00 0.000000000000e+00 9.146722269257e-08 3.507272174910e-04 3.513939608350e-11 6.195118237780e-12 -3.069204408017e+06 8.162021252544e+07  2.132861715788e+00
2.800000000000e-01 -9.008061603601e-314 1.000000000000e+05 1.000000000000e+05 1.000000000000e+00 0.000000000000e+00 6.850124246670e-08 3.492525079019e-04 3.523591878420e-11 7.153962272185e-12 -2.675416800478e+06 8.180262188559e+07  2.133783741896e+00
2.900000000000e-01 -9.008061603601e-314 1.000000000000e+05 1.000000000000e+05 1.000000000000e+00 0.000000000000e+00 4.672270374028e-08 3.477874294943e-04 3.523336336837e-11 8.147127649988e-12 -2.388573924846e+06 8.197046475942e+07  2.134644739284e+00
3.000000000000e-01 -9.008061603601e-314 1.000000000000e+05 1.000000000000e+05 1.000000000000e+00 0.000000000000e+00 2.655716915994e-08 3.463349187338e-04 3.515577412891e-11 9.169066062396e-12 -2.034791197245e+06 8.212189750963e+07  2.135561910117e+00
3.100000000000e-01 -9.008061603601e-314 1.000000000000e+05 1.000000000000e+05 1.000000000000e+00 0.000000000000e+00 8.481201774893e-09 3.448946379237e-04 3.502905055206e-11 1.019581001808e-11 -1.740846232273e+06 8.225494619953e+07  2.136396394490e+00
3.200000000000e-01 -9.008061603601e-314 1.000000000000e+05 1.000000000000e+05 1.000000000000e+00 0.000000000000e+00 -7.740954692318e-09 3.434706651288e-04 3.484730383149e-11 1.122195731309e-11 -1.463384656875e+06 8.238278640868e+07  2.137248784361e+00
3.300000000000e-01 -9.008061603601e-314 1.000000000000e+05 1.000000000000e+05 1.000000000000e+00 0.000000000000e+00 -2.240360954588e-08 3.420603849274e-04 3.461034355609e-11 1.226779876559e-11 -1.227636142249e+06 8.249251349407e+07  2.137976775028e+00
3.400000000000e-01 -9.008061603601e-314 1.000000000000e+05 1.000000000000e+05 1.000000000000e+00 0.000000000000e+00 -3.654113464626e-08 3.406582623232e-04 3.426062236680e-11 1.334097175448e-11 -1.032227949045e+06 8.259775891152e+07  2.138729474258e+00
3.500000000000e-01 -9.008061603601e-314 1.000000000000e+05 1.000000000000e+05 1.000000000000e+00 0.000000000000e+00 -4.907045620260e-08 3.392677341157e-04 3.385884989351e-11 1.440838825433e-11 -8.766937012765e+05 8.269690096975e+07  2.139432391689e+00
3.600000000000e-01 -9.008061603601e-314 1.000000000000e+05 1.000000000000e+05 1.000000000000e+00 0.000000000000e+00 -6.013380465061e-08 3.378879656417e-04 3.341779490614e-11 1.546634292089e-11 -7.585847250736e+05 8.277473485676e+07  2.140111601652e+00
3.700000000000e-01 -9.008061603601e-314 1.000000000000e+05 1.000000000000e+05 1.000000000000e+00 0.000000000000e+00 -6.985188523882e-08 3.365221851431e-04 3.293362364470e-11 1.653206395255e-11 -6.817346581087e+05 8.283979677771e+07  2.140721766839e+00
3.800000000000e-01 -9.008061603601e-314 1.000000000000e+05 1.000000000000e+05 1.000000000000e+00 0.000000000000e+00 -7.882377543541e-08 3.351663247215e-04 3.236481697528e-11 1.761248432148e-11 -6.201451310528e+05 8.289921268760e+07  2.141274943925e+00
3.900000000000e-01 -9.008061603601e-314 1.000000000000e+05 1.000000000000e+05 1.000000000000e+00 0.000000000000e+00 -8.722656600039e-08 3.338193219801e-04 3.171403460742e-11 1.870162394842e-11 -5.819009473185e+05 8.295279427525e+07  2.141825410128e+00
4.000000000000e-01 -9.008061603601e-314 1.000000000000e+05 1.000000000000e+05 1.000000000000e+00 0.000000000000e+00 -9.450843991339e-08 3.324810828238e-04 3.102542847734e-11 1.976248169494e-11 -5.609438075937e+05 8.300215776123e+07  2.142357514339e+00
4.100000000000e-01 -9.008061603601e-314 1.000000000000e+05 1.000000000000e+05 1.000000000000e+00 0.000000000000e+00 -1.007636676650e-07 3.311560947746e-04 3.029595939060e-11 2.082503562653e-11 -5.527754505643e+05 8.304859390863e+07  2.142876715745e+00
4.200000000000e-01 -9.008061603601e-314 1.000000000000e+05 1.000000000000e+05 1.000000000000e+00 0.000000000000e+00 -1.060488970440e-07 3.298440491770e-04 2.952037406934e-11 2.188918460397e-11 -5.486760698045e+05 8.309348380774e+07  2.143386311932e+00
4.300000000000e-01 -9.008061603601e-314 1.000000000000e+05 1.000000000000e+05 1.000000000000e+00 0.000000000000e+00 -1.104872418923e-07 3.285391825956e-04 2.870418590245e-11 2.296093416100e-11 -5.440333344784e+05 8.313751616231e+07  2.143886631174e+00
4.400000000000e-01 -9.008061603601e-314 1.000000000000e+05 1.000000000000e+05 1.000000000000e+00 0.000000000000e+00 -1.146747001821e-07 3.272404785736e-04 2.779657029965e-11 2.402192029126e-11 -5.377280652887e+05 8.317748279056e+07  2.144353782521e+00
4.500000000000e-01 -9.008061603601e-314 1.000000000000e+05 1.000000000000e+05 1.000000000000e+00 0.000000000000e+00 -1.181007790721e-07 3.259518576508e-04 2.685218776677e-11 2.506095252927e-11 -5.326299011633e+05 8.321899389373e+07  2.144830426985e+00
4.600000000000e-01 -9.008061603601e-314 1.000000000000e+05 1.000000000000e+05 1.000000000000e+00 0.000000000000e+00 -1.208618420905e-07 3.246763086780e-04 2.586066657244e-11 2.609667218746e-11 -5.270692361453e+05 8.325931029225e+07  2.145296259495e+00
4.700000000000e-01 -9.008061603601e-314 1.000000000000e+05 1.000000000000e+05 1.000000000000e+00 0.000000000000e+00 -1.229637777447e-07 3.234157846976e-04 2.485659836743e-11 2.712859611132e-11 -5.212700566152e+05 8.329879521390e+07  2.145753886129e+00
4.800000000000e-01 -9.008061603601e-314 1.000000000000e+05 1.000000000000e+05 1.000000000000e+00 0.000000000000e+00 -1.244746376460e-07 3.221516726466e-04 2.381915372861e-11 2.809418583131e-11 -5.153628249792e+05 8.333768341930e+07  2.146204869614e+00
4.900000000000e-01 -9.008061603601e-314 1.000000000000e+05 1.000000000000e+05 1.000000000000e+00 0.000000000000e+00 -1.261021325543e-07 3.208868003688e-04 2.298831490904e-11 2.896605350036e-11 -5.076589244017e+05 8.337551946037e+07  2.146643621482e+00
5.000000000000e-01 -9.008061603601e-314 1.000000000000e+05 1.000000000000e+05 1.000000000000e+00 0.000000000000e+00 -1.272501007375e-07 3.196316904930e-04 2.306941078933e-11 2.968730060081e-11 -4.976875624417e+05 8.341053567634e+07  2.147053633054e+00
5.100000000000e-01 -9.008061603601e-314 1.000000000000e+05 1.000000000000e+05 1.000000000000e+00 0.000000000000e+00 -1.279250043998e-07 3.183887852850e-04 2.314663278932e-11 3.040019304964e-11 -4.878159933361e+05 8.344813106726e+07  2.147473520174e+00
5.200000000000e-01 -9.008061603601e-314 1.000000000000e+05 1.000000000000e+05 1.000000000000e+00 0.000000000000e+00 -1.281774968370e-07 3.171578807952e-04 2.323672818513e-11 3.110603878060e-11 -4.763855610026e+05 8.348548961682e+07  2.147884264399e+00
5.300000000000e-01 -9.008061603601e-314 1.000000000000e+05 1.000000000000e+05 1.000000000000e+00 0.000000000000e+00 -1.280475305812e-07 3.159388034214e-04 2.332775144303e-11 3.180239070928e-11 -4.625282156133e+05 8.351983339590e+07  2.148268344351e+00
5.400000000000e-01 -9.008061603601e-314 1.000000000000e+05 1.000000000000e+05 1.000000000000e+00 0.000000000000e+00 -1.276036226500e-07 3.147305421291e-04 2.342178918843e-11 3.249070175008e-11 -4.489383603087e+05 8.355672004954e+07  2.148661349814e+00
5.500000000000e-01 -9.008061603601e-314 1.000000000000e+05 1.000000000000e+05 1.000000000000e+00 0.000000000000e+00 -1.272758615470e-07 3.135251490559e-04 2.346308836685e-11 3.314893410803e-11 -4.336858070688e+05 8.359318211070e+07  2.149044212989e+00
5.600000000000e-01 -9.008061603601e-314 1.000000000000e+05 1.000000000000e+05 1.000000000000e+00 0.000000000000e+00 -1.264330981822e-07 3.123278291412e-04 2.356529865191e-11 3.379602646495e-11 -4.162610271331e+05 8.362688139553e+07  2.149403121059e+00
5.700000000000e-01 -9.008061603601e-314 1.000000000000e+05 1.000000000000e+05 1.000000000000e+00 0.000000000000e+00 -1.253195223749e-07 3.111416940857e-04 2.369297866572e-11 3.446534940141e-11 -3.988398643127e+05 8.366341047546e+07  2.149772195105e+00
5.800000000000e-01 -9.008061603601e-314 1.000000000000e+05 1.000000000000e+05 1.000000000000e+00 0.000000000000e+00 -1.239705672565e-07 3.099665886997e-04 2.378857320625e-11 3.515070497761e-11 -3.791068979461e+05 8.369684954442e+07  2.150116543335e+00
5.900000000000e-01 -9.008061603601e-314 1.000000000000e+05 1.000000000000e+05 1.000000000000e+00 0.000000000000e+00 -1.224126406727e-07 3.088023497835e-04 2.388278573829e-11 3.582270698063e-11 -3.594206106120e+05 8.373305863821e+07  2.150470135551e+00
6.000000000000e-01 -9.008061603601e-314 1.000000000000e+05 1.000000000000e+05 1.000000000000e+00 0.000000000000e+00 -1.206740878311e-07 3.076488187285e-04 2.398692824423e-11 3.648030449466e-11 -3.374966589057e+05 8.376610135350e+07  2.150799189031e+00
6.100000000000e-01 -9.008061603601e-314 1.000000000000e+05 1.000000000000e+05 1.000000000000e+00 0.000000000000e+00 -1.190408342404e-07 3.064990172067e-04 2.404703484742e-11 3.710853810938e-11 -3.155557380780e+05 8.380167442031e+07  2.151135743787e+00
6.200000000000e-01 -9.008061603601e-314 1.000000000000e+05 1.000000000000e+05 1.000000000000e+00 0.000000000000e+00 -1.173353704243e-07 3.053578506639e-04 2.411769673284e-11 3.829439529853e-11 -2.910528121991e+05 8.383413282867e+07  2.151449218181e+00
6.300000000000e-01 -9.008061603601e-314 1.000000000000e+05 1.000000000000e+05 1.000000000000e+00 0.000000000000e+00 -1.154866271256e-07 3.042270354120e-04 2.419240054663e-11 3.973580999067e-11 -2.660321398142e+05 8.386664830863e+07  2.151757153691e+00
6.400000000000e-01 -9.008061603601e-314 1.000000000000e+05 1.000000000000e+05 1.000000000000e+00 0.000000000000e+00 -1.135053443176e-07 3.031077188498e-04 2.426289431864e-11 4.117959381244e-11 -2.410001041274e+05 8.390167047302e+07  2.152072633725e+00
6.500000000000e-01 -9.008061603601e-314 1.000000000000e+05 1.000000000000e+05 1.000000000000e+00 0.000000000000e+00 -1.114144176237e-07 3.019984262704e-04 2.434157241388e-11 4.262458561098e-11 -2.140022550838e+05 8.393376721711e+07  2.152367245745e+00
6.600000000000e-01 -9.008061603601e-314 1.000000000000e+05 1.000000000000e+05 1.000000000000e+00 0.000000000000e+00 -1.092334597936e-07 3.008990226039e-04 2.442905102596e-11 4.406579572378e-11 -1.871759535561e+05 8.396865768823e+07  2.152670590628e+00
6.700000000000e-01 -9.008061603601e-314 1.000000000000e+05 1.000000000000e+05 1.000000000000e+00 0.000000000000e+00 -1.069348664371e-07 2.998087407977e-04 2.453211333732e-11 4.550980960984e-11 -1.579674957825e+05 8.400041337139e+07  2.152952750126e+00
6.800000000000e-01 -9.008061603601e-314 1.000000000000e+05 1.000000000000e+05 1.000000000000e+00 0.000000000000e+00 -1.047005551515e-07 2.987182742239e-04 2.461441035282e-11 4.694025778384e-11 -1.283689407391e+05 8.403192307579e+07  2.153227797365e+00
6.900000000000e-01 -9.008061603601e-314 1.000000000000e+05 1.000000000000e+05 1.000000000000e+00 0.000000000000e+00 -1.024140971700e-07 2.976369789904e-04 2.470261698446e-11 4.836677439471e-11 -9.891237605669e+04 8.406600167647e+07  2.153510270244e+00
7.000000000000e-01 -9.008061603601e-314 1.000000000000e+05 1.000000000000e+05 1.000000000000e+00 0.000000000000e+00 -1.000788444239e-07 2.965650637178e-04 2.479350963304e-11 4.978925922319e-11 -6.726555976003e+04 8.409715165919e+07  2.153773745542e+00
7.100000000000e-01 -9.008061603601e-314 1.000000000000e+05 1.000000000000e+05 1.000000000000e+00 0.000000000000e+00 -9.771107016124e-08 2.955024124992e-04 2.490746317977e-11 5.120862139006e-11 -3.530384092777e+04 8.412834627530e+07  2.154032618599e+00
7.200000000000e-01 -9.008061603601e-314 1.000000000000e+05 1.000000000000e+05 1.000000000000e+00 0.000000000000e+00 -9.531578320999e-08 2.944489091974e-04 2.502215588538e-11 5.262295678764e-11 -3.496667365925e+03 8.416203785822e+07  2.154298392056e+00
7.300000000000e-01 -9.008061603601e-314 1.000000000000e+05 1.000000000000e+05 1.000000000000e+00 0.000000000000e+00 -9.290189630716e-08 2.934044426598e-04 2.513789705243e-11 5.403177771562e-11 3.039210936431e+04 8.419281108074e+07  2.154546169350e+00
7.400000000000e-01 -9.008061603601e-314 1.000000000000e+05 1.000000000000e+05 1.000000000000e+00 0.000000000000e+00 -9.047802306281e-08 2.923689007431e-04 2.525125101047e-11 5.543494115626e-11 6.442868472994e+04 8.422374232123e+07  2.154790031233e+00
7.500000000000e-01 -9.008061603601e-314 1.000000000000e+05 1.000000000000e+05 1.000000000000e+00 0.000000000000e+00 -8.814385302387e-08 2.913388742421e-04 2.535044576282e-11 5.682902144564e-11 9.824615138649e+04 8.425713977505e+07  2.155040306085e+00
7.600000000000e-01 -9.008061603601e-314 1.000000000000e+05 1.000000000000e+05 1.000000000000e+00 0.000000000000e+00 -8.588351504999e-08 2.903141819431e-04 2.544376513644e-11 5.820552042672e-11 1.341804918413e+05 8.428727175676e+07  2.155271803931e+00
7.700000000000e-01 -9.008061603601e-314 1.000000000000e+05 1.000000000000e+05 1.000000000000e+00 0.000000000000e+00 -8.361795437440e-08 2.892981000579e-04 2.553501264020e-11 5.957456839938e-11 1.706945120421e+05 8.431740971347e+07  2.155499110172e+00
7.800000000000e-01 -9.008061603601e-314 1.000000000000e+05 1.000000000000e+05 1.000000000000e+00 0.000000000000e+00 -8.135597883552e-08 2.882905229983e-04 2.563698647148e-11 6.093605590113e-11 2.078291249482e+05 8.434741941560e+07  2.155721860394e+00
7.900000000000e-01 -9.008061603601e-314 1.000000000000e+05 1.000000000000e+05 1.000000000000e+00 0.000000000000e+00 -7.904055026719e-08 2.872893731773e-04 2.577797971782e-11 6.229127818438e-11 2.451103911232e+05 8.437739362403e+07  2.155940456624e+00
8.000000000000e-01 -9.008061603601e-314 1.000000000000e+05 1.000000000000e+05 1.000000000000e+00 0.000000000000e+00 -7.671504597090e-08 2.862954197717e-04 2.569565806842e-11 6.362587534498e-11 2.820074354676e+05 8.441002201867e+07  2.156166034448e+00
8.100000000000e-01 -9.008061603601e-314 1.000000000000e+05 1.000000000000e+05 1.000000000000e+00 0.000000000000e+00 -7.441385159019e-08 2.853096676394e-04 2.512209582331e-11 6.493143641158e-11 3.208526600026e+05 8.443959580911e+07  2.156375450933e+00
8.200000000000e-01 -9.008061603601e-314 1.000000000000e+05 1.000000000000e+05 1.000000000000e+00 0.000000000000e+00 -7.214535086487e-08 2.843320239902e-04 2.454456842325e-11 6.622863046056e-11 3.601509674925e+05 8.446923197988e+07  2.156581395854e+00
8.300000000000e-01 -9.008061603601e-314 1.000000000000e+05 1.000000000000e+05 1.000000000000e+00 0.000000000000e+00 -6.996393033791e-08 2.833601837596e-04 2.393750657289e-11 6.752143614320e-11 4.000026182112e+05 8.449864246909e+07  2.156782799650e+00
8.400000000000e-01 -9.008061603601e-314 1.000000000000e+05 1.000000000000e+05 1.000000000000e+00 0.000000000000e+00 -6.785877807701e-08 2.823930137888e-04 2.328772024571e-11 6.879917395265e-11 4.403711165001e+05 8.452784842354e+07  2.156979808452e+00
8.500000000000e-01 -9.008061603601e-314 1.000000000000e+05 1.000000000000e+05 1.000000000000e+00 0.000000000000e+00 -6.578158717120e-08 2.814328255380e-04 2.262788073767e-11 7.006563189451e-11 4.812265665339e+05 8.455690516079e+07  2.157172770485e+00
8.600000000000e-01 -9.008061603601e-314 1.000000000000e+05 1.000000000000e+05 1.000000000000e+00 0.000000000000e+00 -6.373351725938e-08 2.804803735716e-04 2.195388881673e-11 7.132259217956e-11 5.222381677658e+05 8.458569471241e+07  2.157361268264e+00
8.700000000000e-01 -9.008061603601e-314 1.000000000000e+05 1.000000000000e+05 1.000000000000e+00 0.000000000000e+00 -6.171872117886e-08 2.795355661683e-04 2.128298095631e-11 7.257175168105e-11 5.627378489091e+05 8.461715877176e+07  2.157556360027e+00
8.800000000000e-01 -9.008061603601e-314 1.000000000000e+05 1.000000000000e+05 1.000000000000e+00 0.000000000000e+00 -5.973830016587e-08 2.785948904890e-04 2.059694115292e-11 7.378330811057e-11 6.049872737051e+05 8.464563628223e+07  2.157737209319e+00
8.900000000000e-01 -9.008061603601e-314 1.000000000000e+05 1.000000000000e+05 1.000000000000e+00 0.000000000000e+00 -5.779531420547e-08 2.776523962326e-04 1.990405856768e-11 7.491026023637e-11 6.475457601395e+05 8.467416261831e+07  2.157914972803e+00
9.000000000000e-01 -9.008061603601e-314 1.000000000000e+05 1.000000000000e+05 1.000000000000e+00 0.000000000000e+00 -5.588009007934e-08 2.767171321025e-04 1.919986407510e-11 7.602672475432e-11 6.904537827863e+05 8.470262238632e+07  2.158089392949e+00
9.100000000000e-01 -9.008061603601e-314 1.000000000000e+05 1.000000000000e+05 1.000000000000e+00 0.000000000000e+00 -5.396483591438e-08 2.757869900437e-04 1.851694907704e-11 7.713368945083e-11 7.336711057238e+05 8.473105721233e+07  2.158260690245e+00
9.200000000000e-01 -9.008061603601e-314 1.000000000000e+05 1.000000000000e+05 1.000000000000e+00 0.000000000000e+00 -5.213963702465e-08 2.748616944015e-04 1.779514174603e-11 7.823062761004e-11 7.773009628551e+05 8.475926608187e+07  2.158428226574e+00
9.300000000000e-01 -9.008061603601e-314 1.000000000000e+05 1.000000000000e+05 1.000000000000e+00 0.000000000000e+00 -5.037002986743e-08 2.739429108756e-04 1.705004925873e-11 7.931573562313e-11 8.213064038366e+05 8.478732398761e+07  2.158592380037e+00
9.400000000000e-01 -9.008061603601e-314 1.000000000000e+05 1.000000000000e+05 1.000000000000e+00 0.000000000000e+00 -4.864057395952e-08 2.730303589486e-04 1.630126374387e-11 8.038208137019e-11 8.656718026728e+05 8.481523480945e+07  2.158753226001e+00
9.500000000000e-01 -9.008061603601e-314 1.000000000000e+05 1.000000000000e+05 1.000000000000e+00 0.000000000000e+00 -4.695311083876e-08 2.721248434534e-04 1.555406496454e-11 8.143513690772e-11 9.103862634394e+05 8.484301600483e+07  2.158910911939e+00
9.600000000000e-01 -9.008061603601e-314 1.000000000000e+05 1.000000000000e+05 1.000000000000e+00 0.000000000000e+00 -4.530094925235e-08 2.712265121419e-04 1.478713553487e-11 8.247523067905e-11 9.556464475560e+05 8.487060323559e+07  2.159065068491e+00
9.700000000000e-01 -9.008061603601e-314 1.000000000000e+05 1.000000000000e+05 1.000000000000e+00 0.000000000000e+00 -4.368343245667e-08 2.703352787790e-04 1.400112808133e-11 8.350481644050e-11 1.001254047859e+06 8.489807576943e+07  2.159216460416e+00
9.800000000000e-01 -9.008061603601e-314 1.000000000000e+05 1.000000000000e+05 1.000000000000e+00 0.000000000000e+00 -4.210688691467e-08 2.694510654033e-04 1.321966546613e-11 8.452068376336e-11 1.047223099977e+06 8.492544549674e+07  2.159364973023e+00
9.900000000000e-01 -9.008061603601e-314 1.000000000000e+05 1.000000000000e+05 1.000000000000e+00 0.000000000000e+00 -4.057012625624e-08 2.685737997219e-04 1.242416407835e-11 8.552459330674e-11 1.093534202508e+06 8.495271661386e+07  2.159510716561e+00
1.000000000000e+00 -9.008061603601e-314 1.000000000000e+05 1.000000000000e+05 1.000000000000e+00 0.000000000000e+00 -3.907380257894e-08 2.677034011746e-04 1.162839635286e-11 8.651473863089e-11 1.140159580434e+06 8.497991236922e+07  2.159653780650e+00
1.050000000000e+00 -9.008061603601e-314 1.000000000000e+05 1.000000000000e+05 1.000000000000e+00 0.000000000000e+00 -3.272145071633e-08 2.634949772659e-04 7.652694400093e-12 9.147716388956e-11 1.374405719625e+06 8.508607154019e+07  2.160291936092e+00
1.100000000000e+00 -9.008061603601e-314 1.000000000000e+05 1.000000000000e+05 1.000000000000e+00 0.000000000000e+00 -2.708137407391e-08 2.594253324828e-04 3.491028877882e-12 9.603700502360e-11 1.606319935225e+06 8.520047627942e+07  2.160865427004e+00
1.150000000000e+00 -9.008061603601e-314 1.000000000000e+05 1.000000000000e+05 1.000000000000e+00 0.000000000000e+00 -2.209697392344e-08 2.554813190697e-04 -9.304758118213e-13 1.017330503711e-10 1.859723697123e+06 8.533567690738e+07  2.161391414760e+00
1.200000000000e+00 -9.008061603601e-314 1.000000000000e+05 1.000000000000e+05 1.000000000000e+00 0.000000000000e+00 -1.767739491105e-08 2.516605066661e-04 -5.484239777634e-12 1.091286135117e-10 2.109115974773e+06 8.546052145911e+07  2.161877221176e+00
1.250000000000e+00 -9.008061603601e-314 1.000000000000e+05 1.000000000000e+05 1.000000000000e+00 0.000000000000e+00 -1.369970980194e-08 2.479660880597e-04 -1.027730062383e-11 1.162708738343e-10 2.366191566381e+06 8.558119446607e+07  2.162321800354e+00
1.300000000000e+00 -9.008061603601e-314 1.000000000000e+05 1.000000000000e+05 1.000000000000e+00 0.000000000000e+00 -1.009724779249e-08 2.443800898089e-04 -1.063009396062e-11 1.234813067885e-10 2.626184568191e+06 8.570079136521e+07  2.162733770111e+00
1.350000000000e+00 -9.008061603601e-314 1.000000000000e+05 1.000000000000e+05 1.000000000000e+00 0.000000000000e+00 -6.843957178227e-09 2.409106010841e-04 -1.040854621124e-11 1.305677625979e-10 2.890231990082e+06 8.581757996970e+07  2.163115351405e+00
1.400000000000e+00 -9.008061603601e-314 1.000000000000e+05 1.000000000000e+05 1.000000000000e+00 0.000000000000e+00 -3.768791033686e-09 2.375454656307e-04 -1.021434673307e-11 1.374745264701e-10 3.160624277096e+06 8.593123063059e+07  2.163468143132e+00