 TITLE = "Time curves in points"
 VARIABLES = "TIME"  "DISPLACEMENT_X1"  "DISPLACEMENT_Y1"  "STRESS_XX"  "STRESS_XY"  "STRESS_YY"  "STRESS_ZZ"  "STRAIN_XX"  "STRAIN_XY"  "STRAIN_YY"  p_(1st_Invariant)  q_(2nd_Invariant)   Effective_Strain
 ZONE T="POINT=POINT4"
0.000000000000e+00 0.000000000000e+00 0.000000000000e+00 -1.000000000000e+05 0.000000000000e+00 -1.000000000000e+05 -1.000000000000e+05 0.000000000000e+00 0.000000000000e+00 0.000000000000e+00 1.000000000000e+05 0.000000000000e+00  0.000000000000e+00
1.000000000000e-03 -6.568649086716e-05 0.000000000000e+00 2.485177156256e+05 -2.359418596854e+04 2.277252781430e+05 1.637981554782e+05 2.983767648148e-01 -3.776923276071e-02 2.494633776032e-01 -2.133470497489e+05 8.670790047436e+04  2.847913970392e-01
2.000000000000e-03 -2.914728714933e-04 0.000000000000e+00 3.647394803309e+05 -2.896850328289e+04 2.756720239480e+05 2.294943362392e+05 8.558907244531e-01 -1.317374064704e-01 9.450653170113e-01 -2.899686135060e+05 1.292123924470e+05  9.321421455877e-01
3.000000000000e-03 -5.625808081257e-04 0.000000000000e+00 4.343639320970e+05 -3.525900501614e+04 -4.169301225290e+05 -1.844546881900e+04 1.127631483907e+00 -1.518880418347e-01 1.277098378323e+00 3.372197503272e+02 7.402658727951e+05  1.237597116887e+00
4.000000000000e-03 -7.356299832529e-04 0.000000000000e+00 1.835415120244e+05 -3.188519513668e+05 -9.189026761922e+06 -3.576077928100e+06 1.249446244091e+00 -1.480449185838e-01 1.446639563489e+00 4.193854392666e+06 8.188252817201e+06  1.382799865536e+00
5.000000000000e-03 -7.703072105259e-04 0.000000000000e+00 6.868008397146e+06 -1.516202844682e+06 1.287941034158e+06 3.491452401447e+06 1.282331515248e+00 -1.489319146398e-01 1.522176537864e+00 -3.882467277584e+06 5.531137808384e+06  1.440834038584e+00
6.000000000000e-03 -7.559407584320e-04 0.000000000000e+00 6.751027419185e+06 -2.220873201555e+06 9.950015656753e+06 6.773832832373e+06 1.290725734254e+00 -1.485197470659e-01 1.550384369735e+00 -7.824958636103e+06 4.995790719655e+06  1.461067403232e+00
7.000000000000e-03 -7.569530402209e-04 0.000000000000e+00 1.157159027235e+07 -2.663923390543e+06 1.477671794451e+07 1.044242142038e+07 1.295672877421e+00 -1.519071405654e-01 1.561025609221e+00 -1.226357654575e+07 6.037918475531e+06  1.470448215057e+00
8.000000000000e-03 -7.577424414916e-04 0.000000000000e+00 1.531030428111e+07 -2.597445064416e+06 1.999225939589e+07 1.372690235513e+07 1.296134746825e+00 -1.518757619607e-01 1.563964411834e+00 -1.634315534404e+07 7.216747514641e+06  1.472426598390e+00
9.000000000000e-03 -7.573121626297e-04 0.000000000000e+00 1.375761552163e+07 -2.490765857823e+06 1.862107853082e+07 1.231283868363e+07 1.295993911519e+00 -1.517112949554e-01 1.564144743217e+00 -1.489717757869e+07 7.167915661965e+06  1.472438753747e+00
1.000000000000e-02 -7.572463805976e-04 0.000000000000e+00 1.307161961390e+07 -2.419079573122e+06 1.839439968542e+07 1.172972511930e+07 1.295858376415e+00 -1.515497305338e-01 1.564828790836e+00 -1.439858147287e+07 7.404803558610e+06  1.472767307679e+00
2.000000000000e-02 -7.232753908983e-04 0.000000000000e+00 2.044913279630e+07 -1.027599691379e+05 3.791997701691e+07 2.156115363132e+07 1.289628794676e+00 -1.123765777034e-01 1.605367265072e+00 -2.664342114818e+07 1.694316157550e+07  1.485901786258e+00
3.000000000000e-02 -6.630116029837e-04 0.000000000000e+00 2.560871775142e+06 -3.966144483801e+06 1.855846608520e+07 6.142317520227e+06 1.293470449626e+00 -4.348046722624e-01 1.571986122189e+00 -9.087218460189e+06 1.608248014020e+07  1.636476057020e+00
4.000000000000e-02 -8.554371556638e-04 0.000000000000e+00 1.109741191869e+07 2.972659629837e+06 2.057823271956e+07 9.829893283533e+06 1.550610741822e+00 9.090518343048e-02 1.564209205354e+00 -1.383517930726e+07 1.140262247972e+07  1.565393168381e+00
5.000000000000e-02 -7.904745460837e-04 0.000000000000e+00 6.363267948519e+06 -3.818399681761e+06 1.915110656244e+07 5.286631560937e+06 1.556062523478e+00 5.847434536028e-02 1.570831758175e+00 -1.026700202397e+07 1.490625181211e+07  1.566776406216e+00
6.000000000000e-02 -9.920003723153e-04 0.000000000000e+00 1.821154456507e+07 4.992143617215e+06 2.517180832122e+07 1.185699412256e+07 1.555336161522e+00 2.889023328524e-01 1.565377856751e+00 -1.841344900295e+07 1.441594338564e+07  1.638652890785e+00
7.000000000000e-02 -9.340285092733e-04 0.000000000000e+00 -4.715770043366e+05 -2.672686030456e+06 1.299218723067e+07 -1.139428182489e+06 1.502242666081e+00 2.162902001371e-01 1.567728579090e+00 -3.793727347947e+06 1.456504429210e+07  1.581057088524e+00
8.000000000000e-02 -9.594599510402e-04 0.000000000000e+00 1.697915645842e+07 3.263864860007e+06 2.867536859156e+07 1.159613027984e+07 1.610738658683e+00 3.466006944149e-01 1.582251409056e+00 -1.908355177661e+07 1.614613906414e+07  1.705813928838e+00
9.000000000000e-02 -1.025226680165e-03 0.000000000000e+00 1.751946563534e+06 1.734588174221e+06 1.781235417302e+07 1.830683628241e+05 1.600263628013e+00 3.317952397426e-01 1.584048711887e+00 -6.582456366458e+06 1.716453562398e+07  1.692755949772e+00
1.000000000000e-01 -8.927504495797e-04 0.000000000000e+00 5.189860153904e+06 -8.555951699192e+05 2.373664279813e+07 3.432701348608e+06 1.624123410925e+00 3.315859570525e-01 1.594738127243e+00 -1.078640143355e+07 1.954114953724e+07  1.709023920953e+00
1.100000000000e-01 -9.475318359260e-04 0.000000000000e+00 -3.780609642978e+06 2.234313594247e+05 1.625039066503e+07 -3.879968144492e+06 1.611135878215e+00 3.392120790367e-01 1.594316832127e+00 -2.863270959188e+06 2.008459261083e+07  1.707084776303e+00
1.200000000000e-01 -8.537628662631e-04 0.000000000000e+00 -1.940300196863e+06 -1.401023150869e+06 1.863065344871e+07 -2.601081807109e+06 1.622821181816e+00 3.227561657013e-01 1.601438819403e+00 -4.696423814911e+06 2.104951951249e+07  1.706405775431e+00
1.300000000000e-01 -9.072310246311e-04 0.000000000000e+00 -5.226809071777e+06 -4.944627225224e+05 1.582738290316e+07 -5.397960665625e+06 1.612599682996e+00 3.332690905731e-01 1.602316568980e+00 -1.734204388585e+06 2.115762820476e+07  1.707982960637e+00
1.400000000000e-01 -8.631986183272e-04 0.000000000000e+00 -5.744932811138e+06 -1.229585034646e+06 1.614585717874e+07 -5.637300129110e+06 1.618883096240e+00 3.260956995101e-01 1.607445988049e+00 -1.587874746163e+06 2.194077812679e+07  1.709214194106e+00
1.500000000000e-01 -8.722325201782e-04 0.000000000000e+00 -6.140482778476e+06 -1.073607207347e+06 1.582910185274e+07 -6.078999779320e+06 1.617557665768e+00 3.287398759714e-01 1.610267167555e+00 -1.203206431649e+06 2.201757412571e+07  1.711421301240e+00
1.600000000000e-01 -8.682381939430e-04 0.000000000000e+00 -6.434920971263e+06 -1.150519713006e+06 1.584167900003e+07 -6.280619958251e+06 1.617094432659e+00 3.291061162228e-01 1.613545897744e+00 -1.042046023505e+06 2.228911169095e+07  1.712951017218e+00
1.700000000000e-01 -8.689985661608e-04 0.000000000000e+00 -6.659211988051e+06 -1.151165320185e+06 1.578445426255e+07 -6.446087416554e+06 1.616327796273e+00 3.302021030201e-01 1.616701361497e+00 -8.930516193162e+05 2.242667663481e+07  1.714706906421e+00
1.800000000000e-01 -8.696412460010e-04 0.000000000000e+00 -6.912809941446e+06 -1.157811681946e+06 1.571606538407e+07 -6.614177591701e+06 1.615368312009e+00 3.315911717903e-01 1.619870772403e+00 -7.296926169754e+05 2.257031345020e+07  1.716556524868e+00
1.900000000000e-01 -8.704584763199e-04 0.000000000000e+00 -7.070832205805e+06 -1.160881252636e+06 1.566838124867e+07 -6.714247920412e+06 1.614548300754e+00 3.328433892297e-01 1.623220904531e+00 -6.277670408188e+05 2.265244954854e+07  1.718487105706e+00
2.000000000000e-01 -8.713001198924e-04 0.000000000000e+00 -7.251834010925e+06 -1.158206414672e+06 1.559603595694e+07 -6.812133240268e+06 1.613501214836e+00 3.345691364467e-01 1.626890019379e+00 -5.106895685820e+05 2.271996036749e+07  1.720749198444e+00
2.100000000000e-01 -8.718378994870e-04 0.000000000000e+00 -7.405244512938e+06 -1.151444896692e+06 1.554154711818e+07 -6.884539195351e+06 1.612514687260e+00 3.362636250343e-01 1.630690483324e+00 -4.172544699650e+05 2.277839633987e+07  1.723096744487e+00
2.200000000000e-01 -8.732370743503e-04 0.000000000000e+00 -7.560421164115e+06 -1.143070613373e+06 1.548024950804e+07 -6.954626063718e+06 1.611405996736e+00 3.382070099148e-01 1.634670547021e+00 -3.217340934040e+05 2.282983571130e+07  1.725633537610e+00
2.300000000000e-01 -8.722034045772e-04 0.000000000000e+00 -7.680828323109e+06 -1.137715414969e+06 1.544556626130e+07 -6.979761083436e+06 1.610606072171e+00 3.397434435673e-01 1.638878114780e+00 -2.616589515860e+05 2.286901076194e+07  1.728196509066e+00
2.400000000000e-01 -8.729659650671e-04 0.000000000000e+00 -7.799214672738e+06 -1.124610884810e+06 1.541251303322e+07 -7.006563823799e+06 1.609283998239e+00 3.416328890130e-01 1.642810528393e+00 -2.022448455616e+05 2.290868943696e+07  1.730610243894e+00
2.500000000000e-01 -8.706098405493e-04 0.000000000000e+00 -7.910298983636e+06 -1.114822185342e+06 1.538755768508e+07 -7.012010256683e+06 1.608154465973e+00 3.430108563985e-01 1.646915215072e+00 -1.550828149202e+05 2.294335048549e+07  1.732906747834e+00
2.600000000000e-01 -8.683489606947e-04 0.000000000000e+00 -8.017237287565e+06 -1.102964667524e+06 1.536649973007e+07 -7.020461769954e+06 1.606584045932e+00 3.442343279879e-01 1.650840236280e+00 -1.096002241828e+05 2.298116565682e+07  1.734838325052e+00
2.700000000000e-01 -8.622309135462e-04 0.000000000000e+00 -8.112220807561e+06 -1.091279198675e+06 1.536182263665e+07 -7.009632953956e+06 1.605461609392e+00 3.451074136373e-01 1.654674789203e+00 -7.998962504405e+04 2.302035819199e+07  1.736731461109e+00
2.800000000000e-01 -8.555056230068e-04 0.000000000000e+00 -8.187617910072e+06 -1.078112392982e+06 1.536101652367e+07 -6.986991463695e+06 1.604360140901e+00 3.459954284016e-01 1.658227914155e+00 -6.213571663484e+04 2.304763660934e+07  1.738515175781e+00
2.900000000000e-01 -8.490010562818e-04 0.000000000000e+00 -8.259293609836e+06 -1.061786834430e+06 1.536270543874e+07 -6.952653275833e+06 1.603338592319e+00 3.471692607056e-01 1.661576206456e+00 -5.025285102508e+04 2.306995589792e+07  1.740413848005e+00
3.000000000000e-01 -8.436173692180e-04 0.000000000000e+00 -8.315186343743e+06 -1.041401463960e+06 1.536544990395e+07 -6.908122750136e+06 1.602532084386e+00 3.483100774602e-01 1.664413632131e+00 -4.738027002514e+04 2.307998593895e+07  1.742143881346e+00
3.100000000000e-01 -8.393760060382e-04 0.000000000000e+00 -8.375675742052e+06 -1.016257504762e+06 1.536416484240e+07 -6.873821792305e+06 1.601427319384e+00 3.504834233881e-01 1.667226483446e+00 -3.822243601418e+04 2.309285952110e+07  1.744358752778e+00
3.200000000000e-01 -8.340072584225e-04 0.000000000000e+00 -8.429487410915e+06 -9.870639344421e+05 1.535532499853e+07 -6.842209250930e+06 1.600734201387e+00 3.520817184374e-01 1.669665533427e+00 -2.787611222898e+04 2.309559537368e+07  1.746232190215e+00
3.300000000000e-01 -8.280250689064e-04 0.000000000000e+00 -8.486074218793e+06 -9.607144915547e+05 1.533377039041e+07 -6.807727869107e+06 1.600021555779e+00 3.533559030204e-01 1.671770822464e+00 -1.332276750480e+04 2.308663707492e+07  1.747740968260e+00
3.400000000000e-01 -8.231054004588e-04 0.000000000000e+00 -8.556305638735e+06 -9.403660793024e+05 1.530291355533e+07 -6.775358002524e+06 1.598743483306e+00 3.549916470201e-01 1.673956907584e+00 9.583361975505e+03 2.307801898121e+07  1.749268980143e+00
3.500000000000e-01 -8.168150184966e-04 0.000000000000e+00 -8.613459819682e+06 -9.220628719681e+05 1.527115198503e+07 -6.743245961944e+06 1.597849546021e+00 3.558620107743e-01 1.675924516814e+00 2.851793220018e+04 2.306195240588e+07  1.750395452907e+00
3.600000000000e-01 -8.113123246458e-04 0.000000000000e+00 -8.660167849116e+06 -9.092114928080e+05 1.524762431902e+07 -6.709379676425e+06 1.596877323807e+00 3.568177809520e-01 1.677830746154e+00 4.064106884162e+04 2.304840687051e+07  1.751513663869e+00
3.700000000000e-01 -8.075265813402e-04 0.000000000000e+00 -8.735325901735e+06 -8.932003148121e+05 1.519449036687e+07 -6.682801616131e+06 1.595635027194e+00 3.580909456119e-01 1.679566971295e+00 7.454571699870e+04 2.302446207749e+07  1.752628836104e+00
3.800000000000e-01 -8.044309255205e-04 0.000000000000e+00 -8.792207157953e+06 -8.843693086895e+05 1.515401746370e+07 -6.654451509897e+06 1.594333110007e+00 3.592886860731e-01 1.681118602252e+00 9.754706805001e+04 2.300319158572e+07  1.753584857058e+00
3.900000000000e-01 -8.025787903602e-04 0.000000000000e+00 -8.861064781626e+06 -8.744405526528e+05 1.510763885755e+07 -6.632165499074e+06 1.592569303997e+00 3.610050655736e-01 1.682763227318e+00 1.285304743837e+05 2.298557936293e+07  1.754715355160e+00
4.000000000000e-01 -8.003151880952e-04 0.000000000000e+00 -8.926677065624e+06 -8.714083435322e+05 1.503996091820e+07 -6.611562030198e+06 1.590983506262e+00 3.620086390248e-01 1.684198225259e+00 1.660927258729e+05 2.294672149641e+07  1.755383532362e+00
4.100000000000e-01 -7.990678300138e-04 0.000000000000e+00 -9.001219038120e+06 -8.655146094309e+05 1.497896820172e+07 -6.580175731710e+06 1.589341298632e+00 3.632950309902e-01 1.685615985464e+00 2.008088560367e+05 2.291508467284e+07  1.756199804488e+00
4.200000000000e-01 -7.980628488289e-04 0.000000000000e+00 -9.045094999922e+06 -8.639249869182e+05 1.494312510802e+07 -6.528001736951e+06 1.587750628112e+00 3.644802046716e-01 1.686933104057e+00 2.099905429501e+05 2.288294068441e+07  1.756930197212e+00
4.300000000000e-01 -7.980933998593e-04 0.000000000000e+00 -9.095724162565e+06 -8.615580563521e+05 1.490399674780e+07 -6.488830411967e+06 1.585731484404e+00 3.661506878925e-01 1.688235418454e+00 2.268526089111e+05 2.285704756084e+07  1.757781013482e+00
4.400000000000e-01 -7.980382849945e-04 0.000000000000e+00 -9.155836421544e+06 -8.577280038754e+05 1.485752979852e+07 -6.444536898351e+06 1.584002856854e+00 3.673899276100e-01 1.689377794583e+00 2.476145071247e+05 2.282745202441e+07  1.758410989261e+00
4.500000000000e-01 -7.980106010228e-04 0.000000000000e+00 -9.209666368138e+06 -8.597164502743e+05 1.481559245590e+07 -6.383775201681e+06 1.582311460374e+00 3.685461066972e-01 1.690436328709e+00 2.592830379731e+05 2.279305361044e+07  1.758967441821e+00
4.600000000000e-01 -7.984029966433e-04 0.000000000000e+00 -9.248494621671e+06 -8.582624565366e+05 1.477661355145e+07 -6.340859179657e+06 1.580634621263e+00 3.696632623432e-01 1.691453077084e+00 2.709134166260e+05 2.275991550741e+07  1.759489359618e+00
4.700000000000e-01 -7.989340745946e-04 0.000000000000e+00 -9.318197959037e+06 -8.571567841160e+05 1.472890326020e+07 -6.277953652491e+06 1.578940349540e+00 3.707496297102e-01 1.692478928230e+00 2.890827837756e+05 2.272886387787e+07  1.759994358846e+00
4.800000000000e-01 -7.992706940467e-04 0.000000000000e+00 -9.355601420164e+06 -8.602016378739e+05 1.469531467419e+07 -6.218030013583e+06 1.577330646874e+00 3.716951896635e-01 1.693411308224e+00 2.927722531865e+05 2.269469746973e+07  1.760402288178e+00
4.900000000000e-01 -8.000472003049e-04 0.000000000000e+00 -9.446905555244e+06 -8.582631419731e+05 1.465143399068e+07 -6.202929215553e+06 1.575665882545e+00 3.726763797020e-01 1.694330617295e+00 3.328002600401e+05 2.269997257515e+07  1.760807575705e+00
5.000000000000e-01 -8.010043798675e-04 0.000000000000e+00 -9.492087470722e+06 -8.610523917296e+05 1.461286158373e+07 -6.159856649508e+06 1.574248762107e+00 3.734238757248e-01 1.695005510869e+00 3.463608454989e+05 2.267274378289e+07  1.761044772999e+00
5.100000000000e-01 -8.019131325861e-04 0.000000000000e+00 -9.556708285374e+06 -8.643776719000e+05 1.457161035485e+07 -6.126306685584e+06 1.572635344256e+00 3.743127125324e-01 1.695735456473e+00 3.704682053685e+05 2.265866366217e+07  1.761322563097e+00
5.200000000000e-01 -8.026311712904e-04 0.000000000000e+00 -9.649745760660e+06 -8.642405236608e+05 1.452347338166e+07 -6.111037245005e+06 1.571107753834e+00 3.751329464686e-01 1.696437557948e+00 4.124365413355e+05 2.266198888623e+07  1.761581091964e+00
5.300000000000e-01 -8.034316543465e-04 0.000000000000e+00 -9.707034218306e+06 -8.723390006730e+05 1.448143142737e+07 -6.053994861401e+06 1.569834482236e+00 3.757611485215e-01 1.697041467041e+00 4.265325507775e+05 2.263510715338e+07  1.761773297545e+00
5.400000000000e-01 -8.037989927867e-04 0.000000000000e+00 -9.763527029905e+06 -8.758652880990e+05 1.443943047316e+07 -6.014831255053e+06 1.568430571862e+00 3.764105955201e-01 1.697696370326e+00 4.463092706000e+05 2.261432659589e+07  1.761954410554e+00
5.500000000000e-01 -8.041507011595e-04 0.000000000000e+00 -9.839016111270e+06 -8.787066419607e+05 1.438603473806e+07 -6.000227473094e+06 1.567083927037e+00 3.770978340011e-01 1.698361418044e+00 4.844029487690e+05 2.260333853636e+07  1.762190962804e+00
5.600000000000e-01 -8.042120788005e-04 0.000000000000e+00 -9.921059857759e+06 -8.843064414299e+05 1.433240593146e+07 -5.988883008512e+06 1.565930354888e+00 3.775200307288e-01 1.698940149339e+00 5.258456449372e+05 2.259800200282e+07  1.762293300564e+00
5.700000000000e-01 -8.042309047848e-04 0.000000000000e+00 -9.999146116701e+06 -8.900873406262e+05 1.428066037628e+07 -5.976437808594e+06 1.564807479125e+00 3.779110007711e-01 1.699497517910e+00 5.649745163400e+05 2.259197584524e+07  1.762378508391e+00
5.800000000000e-01 -8.044617032134e-04 0.000000000000e+00 -1.008971853847e+07 -8.937265783235e+05 1.422528516819e+07 -5.965778566896e+06 1.563581065554e+00 3.784855231335e-01 1.700095648061e+00 6.100706457243e+05 2.259090330287e+07  1.762562756284e+00
5.900000000000e-01 -8.043734888417e-04 0.000000000000e+00 -1.019843632924e+07 -8.991213190944e+05 1.416616743080e+07 -5.967237637815e+06 1.562528008641e+00 3.788073656624e-01 1.700620060324e+00 6.665021787506e+05 2.260244979295e+07  1.762617642000e+00
6.000000000000e-01 -8.046487468189e-04 0.000000000000e+00 -1.027499186236e+07 -9.031660178343e+05 1.411522226104e+07 -5.953525821983e+06 1.561497131658e+00 3.792105001886e-01 1.701124761809e+00 7.044318077670e+05 2.259653199584e+07  1.762724913768e+00
6.100000000000e-01 -8.047187465373e-04 0.000000000000e+00 -1.037855436029e+07 -9.047385138803e+05 1.405558157580e+07 -5.957420630650e+06 1.560354363548e+00 3.796675564128e-01 1.701684632258e+00 7.601311383773e+05 2.260536430126e+07  1.762852134003e+00
6.200000000000e-01 -8.045919437583e-04 0.000000000000e+00 -1.049665165427e+07 -9.091400159534e+05 1.399300984552e+07 -5.971686142179e+06 1.559372161726e+00 3.799286309095e-01 1.702174838298e+00 8.251093169751e+05 2.262484400558e+07  1.762882286321e+00
6.300000000000e-01 -8.047492463997e-04 0.000000000000e+00 -1.057942420497e+07 -9.105106010030e+05 1.393773315251e+07 -5.969706363401e+06 1.558403070247e+00 3.802456319348e-01 1.702645396468e+00 8.704658052880e+05 2.262322732147e+07  1.762944662741e+00
6.400000000000e-01 -8.047253854833e-04 0.000000000000e+00 -1.069325587684e+07 -9.100929016623e+05 1.387296289005e+07 -5.987331480190e+06 1.557320866077e+00 3.806055317702e-01 1.703169965530e+00 9.358748223273e+05 2.263896790867e+07  1.763018944325e+00
6.500000000000e-01 -8.045484378711e-04 0.000000000000e+00 -1.082093895655e+07 -9.127361822705e+05 1.380658579672e+07 -6.014587970431e+06 1.556388126622e+00 3.807965960338e-01 1.703627611102e+00 1.009647043420e+06 2.266598154518e+07  1.763009754524e+00
6.600000000000e-01 -8.046118005873e-04 0.000000000000e+00 -1.091535157090e+07 -9.110780869954e+05 1.374271292587e+07 -6.028963668114e+06 1.555460765808e+00 3.810333834922e-01 1.704065023490e+00 1.067200771046e+06 2.266932405790e+07  1.763022640193e+00
6.700000000000e-01 -8.044267169351e-04 0.000000000000e+00 -1.102673235539e+07 -9.108237239576e+05 1.367208616400e+07 -6.055412082807e+06 1.554525784878e+00 3.811858842089e-01 1.704513216961e+00 1.136686091398e+06 2.268146211910e+07  1.762984404689e+00
6.800000000000e-01 -8.042786709387e-04 0.000000000000e+00 -1.114970830646e+07 -9.094561655067e+05 1.360157176416e+07 -6.089129356737e+06 1.553616120788e+00 3.813430241683e-01 1.704953845610e+00 1.212421966344e+06 2.270376288388e+07  1.762956151735e+00
6.900000000000e-01 -8.041387770909e-04 0.000000000000e+00 -1.127366571288e+07 -9.066365065353e+05 1.352804754858e+07 -6.126987175381e+06 1.552702594693e+00 3.814782090965e-01 1.705377148674e+00 1.290868446563e+06 2.272515796647e+07  1.762903830376e+00
7.000000000000e-01 -8.040048525535e-04 0.000000000000e+00 -1.141832031678e+07 -9.048235759679e+05 1.345919199556e+07 -6.174155590819e+06 1.551800793318e+00 3.816054210592e-01 1.705795939505e+00 1.377761304011e+06 2.276809669464e+07  1.762849423336e+00
7.100000000000e-01 -8.041244656291e-04 0.000000000000e+00 -1.153445797504e+07 -8.922843861034e+05 1.339169940278e+07 -6.211305095982e+06 1.550826626249e+00 3.818866793170e-01 1.706242505983e+00 1.451354556078e+06 2.278929674354e+07  1.762881933740e+00
7.200000000000e-01 -8.039397862956e-04 0.000000000000e+00 -1.166552063906e+07 -8.862086528014e+05 1.331576403144e+07 -6.260380022839e+06 1.549940406763e+00 3.819740912714e-01 1.706654767379e+00 1.536712210154e+06 2.281685494937e+07  1.762806056941e+00
7.300000000000e-01 -8.037766712923e-04 0.000000000000e+00 -1.182667913048e+07 -8.821975158395e+05 1.324219699344e+07 -6.324193103677e+06 1.549063221937e+00 3.820532248038e-01 1.707058230154e+00 1.636225080239e+06 2.287180752331e+07  1.762724466389e+00
7.400000000000e-01 -8.037527088654e-04 0.000000000000e+00 -1.195083633921e+07 -8.697824765234e+05 1.317147010181e+07 -6.373444037915e+06 1.548198327230e+00 3.821758426873e-01 1.707450126964e+00 1.717603425107e+06 2.289956750538e+07  1.762670613108e+00
7.500000000000e-01 -8.036250761769e-04 0.000000000000e+00 -1.212301186115e+07 -8.634678761383e+05 1.309670961759e+07 -6.447269799152e+06 1.547317744536e+00 3.822371317511e-01 1.707844878218e+00 1.824524014237e+06 2.296398257599e+07  1.762572926235e+00
7.600000000000e-01 -8.035714179346e-04 0.000000000000e+00 -1.225750434862e+07 -8.491179958014e+05 1.302748674375e+07 -6.505370584603e+06 1.546472018371e+00 3.823330170236e-01 1.708226939601e+00 1.911796063157e+06 2.300300351057e+07  1.762505439816e+00
7.700000000000e-01 -8.035539157330e-04 0.000000000000e+00 -1.240253693799e+07 -8.329965180200e+05 1.295006214185e+07 -6.572558091468e+06 1.545583024728e+00 3.824191769260e-01 1.708625878106e+00 2.008344295868e+06 2.304385963139e+07  1.762424297805e+00
7.800000000000e-01 -8.033488170649e-04 0.000000000000e+00 -1.259128430144e+07 -8.257366073363e+05 1.287383194313e+07 -6.660929991625e+06 1.544729035361e+00 3.824305426439e-01 1.709009747784e+00 2.126127449978e+06 2.312292387551e+07  1.762300908311e+00
7.900000000000e-01 -8.032729412695e-04 0.000000000000e+00 -1.272472316157e+07 -8.060616512713e+05 1.280218923551e+07 -6.726127512966e+06 1.543898840660e+00 3.824940890632e-01 1.709387754451e+00 2.216220479674e+06 2.316095824471e+07  1.762218356909e+00
8.000000000000e-01 -8.030886911809e-04 0.000000000000e+00 -1.288462727980e+07 -7.910070703791e+05 1.272365777351e+07 -6.806633418442e+06 1.543059745804e+00 3.824900489864e-01 1.709775499153e+00 2.322534308243e+06 2.321543344314e+07  1.762094152490e+00
8.100000000000e-01 -8.028295417835e-04 0.000000000000e+00 -1.304706370516e+07 -7.769420789703e+05 1.264497451609e+07 -6.890317874946e+06 1.542236092420e+00 3.824594943092e-01 1.710156913687e+00 2.430802354673e+06 2.327268602834e+07  1.761955990530e+00
8.200000000000e-01 -8.026839859285e-04 0.000000000000e+00 -1.321438143942e+07 -7.591066131899e+05 1.256505847765e+07 -6.978468379849e+06 1.541387283842e+00 3.824569201134e-01 1.710544465342e+00 2.542597113876e+06 2.333316345093e+07  1.761830163951e+00
8.300000000000e-01 -8.024611978674e-04 0.000000000000e+00 -1.338132988922e+07 -7.425345312252e+05 1.248477975199e+07 -7.068625434116e+06 1.540571396578e+00 3.824137576380e-01 1.710914735916e+00 2.655058523782e+06 2.339390588445e+07  1.761682151662e+00
8.400000000000e-01 -8.022052436658e-04 0.000000000000e+00 -1.355225899108e+07 -7.262457599261e+05 1.240472574424e+07 -7.162294715407e+06 1.539767049697e+00 3.823523613572e-01 1.711285631171e+00 2.769942654082e+06 2.345878925995e+07  1.761527699468e+00
8.500000000000e-01 -8.019349733843e-04 0.000000000000e+00 -1.372701037899e+07 -7.101554228066e+05 1.232536936908e+07 -7.259237441714e+06 1.538978612235e+00 3.822825166237e-01 1.711654009443e+00 2.886959483876e+06 2.352808242916e+07  1.761373178071e+00
8.600000000000e-01 -8.016767032977e-04 0.000000000000e+00 -1.391160816640e+07 -6.947016877619e+05 1.224919594125e+07 -7.361052819195e+06 1.538204495831e+00 3.822129873297e-01 1.712022259658e+00 3.007821681450e+06 2.360884332164e+07  1.761224930224e+00
8.700000000000e-01 -8.014371566758e-04 0.000000000000e+00 -1.410338431473e+07 -6.797574691530e+05 1.217632113996e+07 -7.466830368867e+06 1.537445414213e+00 3.821464421726e-01 1.712382329450e+00 3.131297847882e+06 2.369907793102e+07  1.761080632424e+00
8.800000000000e-01 -8.012460710112e-04 0.000000000000e+00 -1.427524059587e+07 -6.593930274287e+05 1.210361770365e+07 -7.565531124652e+06 1.536702446135e+00 3.820958047395e-01 1.712736481465e+00 3.245718005624e+06 2.377339455138e+07  1.760950292951e+00
8.900000000000e-01 -8.010448131672e-04 0.000000000000e+00 -1.446873819407e+07 -6.431146575691e+05 1.203329888527e+07 -7.674065833918e+06 1.535967996305e+00 3.820233302395e-01 1.713093482529e+00 3.369835047570e+06 2.386825658472e+07  1.760811084772e+00
9.000000000000e-01 -8.008457912513e-04 0.000000000000e+00 -1.465441983683e+07 -6.250212877600e+05 1.196202616255e+07 -7.781265959013e+06 1.535260653723e+00 3.819556181042e-01 1.713437788817e+00 3.491219877763e+06 2.395638678228e+07  1.760679128588e+00
9.100000000000e-01 -8.006501059940e-04 0.000000000000e+00 -1.484444323570e+07 -6.080623184381e+05 1.189134414151e+07 -7.891555215755e+06 1.534571760622e+00 3.818815682238e-01 1.713777213097e+00 3.614884769983e+06 2.404918422915e+07  1.760548012938e+00
9.200000000000e-01 -8.004656881456e-04 0.000000000000e+00 -1.503539263141e+07 -5.912788688398e+05 1.182159151998e+07 -8.003345133669e+06 1.533907333560e+00 3.818118734591e-01 1.714109780005e+00 3.739048748366e+06 2.414407864512e+07  1.760425915489e+00
9.300000000000e-01 -8.003149200286e-04 0.000000000000e+00 -1.525844390572e+07 -5.786229492957e+05 1.175393027252e+07 -8.130444688455e+06 1.533263090478e+00 3.817402101576e-01 1.714436150104e+00 3.878319440552e+06 2.426802346998e+07  1.760307391231e+00
9.400000000000e-01 -8.001954882103e-04 0.000000000000e+00 -1.544486468777e+07 -5.645293818195e+05 1.170295740328e+07 -8.237103444361e+06 1.532701475544e+00 3.817062352671e-01 1.714748937437e+00 3.993003576284e+06 2.437697944347e+07  1.760238181356e+00
9.500000000000e-01 -8.001470007098e-04 0.000000000000e+00 -1.564699513816e+07 -5.475440329986e+05 1.164266524616e+07 -8.355164730764e+06 1.532105831803e+00 3.816761596692e-01 1.715054158774e+00 4.119831540921e+06 2.449090019962e+07  1.760154720880e+00
9.600000000000e-01 -8.001280022966e-04 0.000000000000e+00 -1.585721787980e+07 -5.312975150421e+05 1.157996862527e+07 -8.479276526973e+06 1.531556931492e+00 3.816634567204e-01 1.715351059088e+00 4.252175260502e+06 2.460995936906e+07  1.760096323619e+00
9.700000000000e-01 -8.000927321065e-04 0.000000000000e+00 -1.604128681511e+07 -5.174498171726e+05 1.152911171162e+07 -8.588635474106e+06 1.531074243156e+00 3.816636277181e-01 1.715638282035e+00 4.366936859199e+06 2.471840573987e+07  1.760066715443e+00
9.800000000000e-01 -8.001216416529e-04 0.000000000000e+00 -1.625276787154e+07 -5.015399056877e+05 1.146824786848e+07 -8.714669341711e+06 1.530564162963e+00 3.816657555371e-01 1.715923489403e+00 4.499729781590e+06 2.484086395316e+07  1.760027081045e+00
9.900000000000e-01 -8.001529424100e-04 0.000000000000e+00 -1.645984650190e+07 -4.873522800372e+05 1.141236152678e+07 -8.838908416366e+06 1.530135548074e+00 3.816882526162e-01 1.716191247489e+00 4.628797797162e+06 2.496475200635e+07  1.760022648978e+00
1.000000000000e+00 -8.001293526895e-04 0.000000000000e+00 -1.663341101670e+07 -4.764507604510e+05 1.137491773959e+07 -8.941713262865e+06 1.529741927578e+00 3.817104653411e-01 1.716462062045e+00 4.733402179993e+06 2.507744226700e+07  1.760033246866e+00
1.050000000000e+00 -7.982495390159e-04 0.000000000000e+00 -1.870341739977e+07 -2.853405343265e+05 1.001413462448e+07 -1.033072633355e+07 1.525934253106e+00 3.828611893991e-01 1.719382438680e+00 6.340003036279e+06 2.558516789744e+07  1.760918745688e+00
1.100000000000e+00 -8.033189571447e-04 0.000000000000e+00 -1.880035559206e+07 -2.086247015309e+05 9.273894792347e+06 -1.071542322312e+07 1.527947667994e+00 3.819075544589e-01 1.713960637914e+00 6.747294674277e+06 2.503361386593e+07  1.758124888957e+00
1.150000000000e+00 -7.863723277871e-04 0.000000000000e+00 -1.848919484370e+07 -6.354825803999e+05 1.342397777090e+07 -9.055105305699e+06 1.524298638169e+00 3.765881063010e-01 1.720240210830e+00 4.706774126165e+06 2.841817056361e+07  1.756703935218e+00
1.200000000000e+00 -7.871424020805e-04 0.000000000000e+00 -1.949332961525e+07 -2.551621259500e+05 1.109283818240e+07 -1.047610272752e+07 1.524008621975e+00 3.790320549072e-01 1.720574635089e+00 6.292198053454e+06 2.722529981038e+07  1.758352829235e+00
1.250000000000e+00 -7.901394875478e-04 0.000000000000e+00 -2.030140793542e+07 -2.536753371305e+05 1.107969481550e+07 -1.097636873421e+07 1.523078457081e+00 3.801986508225e-01 1.721091884092e+00 6.732693951376e+06 2.791581999813e+07  1.759039604687e+00
1.300000000000e+00 -7.905939007538e-04 0.000000000000e+00 -2.104074733822e+07 -2.252885881532e+05 1.106279500127e+07 -1.145447182951e+07 1.522158600597e+00 3.806196004845e-01 1.722080096591e+00 7.144141388822e+06 2.854703087966e+07  1.759506031624e+00
1.350000000000e+00 -7.906779880259e-04 0.000000000000e+00 -2.164518011686e+07 -1.996914298153e+05 1.111603614452e+07 -1.183840878603e+07 1.521437762290e+00 3.807410580935e-01 1.722904491363e+00 7.455850919458e+06 2.912572623071e+07  1.759764773160e+00