 TITLE = "Profiles along polylines"
 VARIABLES = "DIST" "PRESSURE1" "PRESSURE2" "PRESSURE_W" "SATURATION1" SATURATION2 "VELOCITY_X1" "VELOCITY_Y1" "VELOCITY_X2" "VELOCITY_Y2"  p_(1st_Invariant)  q_(2nd_Invariant)   Effective_Strain
 ZONE T="TIME=0.000000000000e+00"
0.000000000000e+00 8.400000000000e+07 1.000000000000e+05 -8.390000000000e+07 6.601393844892e-01 3.398606155108e-01 0.000000000000e+00 0.000000000000e+00 0.000000000000e+00 0.000000000000e+00 1.000000000000e+05 0.000000000000e+00  0.000000000000e+00
5.000000000000e-03 8.400000000000e+07 1.000000000000e+05 -8.390000000000e+07 6.601393844892e-01 3.398606155108e-01 0.000000000000e+00 0.000000000000e+00 0.000000000000e+00 0.000000000000e+00 1.000000000000e+05 0.000000000000e+00  0.000000000000e+00
1.000000000000e-02 8.400000000000e+07 1.000000000000e+05 -8.390000000000e+07 6.601393844892e-01 3.398606155108e-01 0.000000000000e+00 0.000000000000e+00 0.000000000000e+00 0.000000000000e+00 1.000000000000e+05 0.000000000000e+00  0.000000000000e+00
1.500000000000e-02 8.400000000000e+07 1.000000000000e+05 -8.390000000000e+07 6.601393844892e-01 3.398606155108e-01 0.000000000000e+00 0.000000000000e+00 0.000000000000e+00 0.000000000000e+00 1.000000000000e+05 0.000000000000e+00  0.000000000000e+00
2.000000000000e-02 8.400000000000e+07 1.000000000000e+05 -8.390000000000e+07 6.601393844892e-01 3.398606155108e-01 0.000000000000e+00 0.000000000000e+00 0.000000000000e+00 0.000000000000e+00 1.000000000000e+05 0.000000000000e+00  0.000000000000e+00
2.500000000000e-02 8.400000000000e+07 1.000000000000e+05 -8.390000000000e+07 6.601393844892e-01 3.398606155108e-01 0.000000000000e+00 0.000000000000e+00 0.000000000000e+00 0.000000000000e+00 1.000000000000e+05 0.000000000000e+00  0.000000000000e+00
3.000000000000e-02 8.400000000000e+07 1.000000000000e+05 -8.390000000000e+07 6.601393844892e-01 3.398606155108e-01 0.000000000000e+00 0.000000000000e+00 0.000000000000e+00 0.000000000000e+00 1.000000000000e+05 0.000000000000e+00  0.000000000000e+00
3.500000000000e-02 8.400000000000e+07 1.000000000000e+05 -8.390000000000e+07 6.601393844892e-01 3.398606155108e-01 0.000000000000e+00 0.000000000000e+00 0.000000000000e+00 0.000000000000e+00 1.000000000000e+05 0.000000000000e+00  0.000000000000e+00
4.000000000000e-02 8.400000000000e+07 1.000000000000e+05 -8.390000000000e+07 6.601393844892e-01 3.398606155108e-01 0.000000000000e+00 0.000000000000e+00 0.000000000000e+00 0.000000000000e+00 1.000000000000e+05 0.000000000000e+00  0.000000000000e+00
4.500000000000e-02 8.400000000000e+07 1.000000000000e+05 -8.390000000000e+07 6.601393844892e-01 3.398606155108e-01 0.000000000000e+00 0.000000000000e+00 0.000000000000e+00 0.000000000000e+00 1.000000000000e+05 0.000000000000e+00  0.000000000000e+00
5.000000000000e-02 8.400000000000e+07 1.000000000000e+05 -8.390000000000e+07 6.601393844892e-01 3.398606155108e-01 0.000000000000e+00 0.000000000000e+00 0.000000000000e+00 0.000000000000e+00 1.000000000000e+05 0.000000000000e+00  0.000000000000e+00
 TITLE = "Profiles along polylines"
 VARIABLES = "DIST" "PRESSURE1" "PRESSURE2" "PRESSURE_W" "SATURATION1" SATURATION2 "VELOCITY_X1" "VELOCITY_Y1" "VELOCITY_X2" "VELOCITY_Y2"  p_(1st_Invariant)  q_(2nd_Invariant)   Effective_Strain
 ZONE T="TIME=1.000000000000e-02"
0.000000000000e+00 8.399996860436e+07 1.000000000000e+05 -8.389996860436e+07 6.601394589867e-01 3.398605410133e-01 7.254908909269e-11 -1.497342432845e-10 0.000000000000e+00 -1.327419941735e-15 1.085277842267e+06 3.842388956661e+05  4.372231070919e-02
5.000000000000e-03 8.400004005841e+07 1.000000209367e+05 -8.390004003747e+07 6.601392735272e-01 3.398607264728e-01 -8.946965671430e-11 -2.523911436058e-11 1.042616561146e-15 -2.833138847915e-15 1.083607335821e+06 3.844707796277e+05  4.485283185333e-02
1.000000000000e-02 8.399999352293e+07 9.999996414732e+04 -8.389999355878e+07 6.601395502267e-01 3.398604497733e-01 4.745353555755e-10 1.088728329180e-10 -4.966843797883e-15 -1.899775400842e-15 1.099844638636e+06 4.044421718928e+05  4.359170492677e-02
1.500000000000e-02 8.399886971754e+07 9.999977272524e+04 -8.389886994481e+07 6.601443350888e-01 3.398556649112e-01 -1.644806454302e-09 -3.300268292729e-09 2.107991943684e-14 1.530351131674e-14 1.077133088649e+06 3.913947861100e+05  4.156374504788e-02
2.000000000000e-02 8.400956910569e+07 1.000024599238e+05 -8.390956664576e+07 6.601164831099e-01 3.398835168901e-01 -1.219186689872e-08 1.755329022745e-08 3.045890546473e-14 -1.180529465769e-13 1.055960739355e+06 4.457478984923e+05  4.771448410441e-02
2.500000000000e-02 8.396564186859e+07 9.998952474554e+04 -8.386565234384e+07 6.602664499878e-01 3.397335500122e-01 1.340440340427e-07 -4.225476272754e-08 -5.284163274905e-13 4.043064780730e-13 1.211205887728e+06 7.626446098572e+05  5.391015769234e-02
3.000000000000e-02 8.397532882278e+07 1.000209081015e+05 -8.387530791468e+07 6.601234309267e-01 3.398765690733e-01 -7.167285073154e-07 -2.183132118481e-07 2.663900656341e-12 -6.160699191586e-13 1.325043526479e+06 5.405962259888e+05  3.106523903510e-02
3.500000000000e-02 8.531411863878e+07 1.000454435474e+05 -8.521407319524e+07 6.563194165757e-01 3.436805834243e-01 1.760649690424e-06 3.108891273313e-06 -7.074610614839e-12 -1.694232250506e-12 1.594971221359e+06 8.860429566953e+05  1.286618431807e-01
4.000000000000e-02 7.395228666578e+07 9.946668263961e+04 -7.385281998314e+07 6.905353841126e-01 3.094646158874e-01 1.172639131498e-06 -2.225727408995e-05 3.290806754726e-12 9.427227698566e-12 -2.752405944214e+06 1.088955739745e+07  8.795496030616e-01
4.500000000000e-02 1.358488715667e+08 1.016556469810e+05 -1.357472159197e+08 4.854376620317e-01 5.145623379683e-01 -1.292454983295e-05 -2.440523370927e-05 8.363174778725e-11 3.244189304683e-11 1.800554681616e+07 8.927229582765e+06  1.996749177979e+00
5.000000000000e-02 2.274925069045e-313 1.000000000000e+05 1.000000000000e+05 9.835511870656e-01 1.644881293444e-02 0.000000000000e+00 5.327550679130e-04 0.000000000000e+00 6.258777948419e-12 -1.070637513821e+07 8.681053849788e+07  2.887527389785e+00
 TITLE = "Profiles along polylines"
 VARIABLES = "DIST" "PRESSURE1" "PRESSURE2" "PRESSURE_W" "SATURATION1" SATURATION2 "VELOCITY_X1" "VELOCITY_Y1" "VELOCITY_X2" "VELOCITY_Y2"  p_(1st_Invariant)  q_(2nd_Invariant)   Effective_Strain
 ZONE T="TIME=1.000000000000e-01"
0.000000000000e+00 8.400002045983e+07 1.000000000000e+05 -8.390002045983e+07 6.601393318250e-01 3.398606681750e-01 -3.237441064795e-11 -5.027897293183e-12 0.000000000000e+00 1.076889194145e-15 1.573256619942e+06 5.678073741506e+05  4.531500520127e-02
5.000000000000e-03 8.399997554420e+07 1.000000886900e+05 -8.389997545551e+07 6.601394521226e-01 3.398605478774e-01 3.144366824076e-11 -8.739390658048e-11 5.717260040511e-15 -4.895357755467e-15 1.582597797231e+06 5.742374196615e+05  4.638843748129e-02
1.000000000000e-02 8.400004577145e+07 9.999991644151e+04 -8.390004585501e+07 6.601391971415e-01 3.398608028585e-01 -2.011952192099e-10 -1.721263487655e-11 -2.510618394238e-14 -6.233790218285e-15 1.604985692626e+06 6.046592559940e+05  4.518061301007e-02
1.500000000000e-02 8.400018621768e+07 9.999836122190e+04 -8.390018785646e+07 6.601383288298e-01 3.398616711702e-01 1.113996494480e-09 2.404415655896e-10 1.017773322299e-13 1.237913373100e-13 1.588834564941e+06 6.106327897098e+05  4.335731740066e-02
2.000000000000e-02 8.399762248999e+07 1.000150785291e+05 -8.389760741146e+07 6.601457683668e-01 3.398542316332e-01 -3.823886079884e-09 -3.679488022517e-09 2.958878871891e-13 -7.602053606202e-13 1.568907760164e+06 6.543013410818e+05  4.932636373776e-02
2.500000000000e-02 8.401494400900e+07 9.993791288618e+04 -8.391500609611e+07 6.600957764539e-01 3.399042235461e-01 2.498114831826e-08 3.062051131479e-08 -3.881068589096e-12 2.579794783442e-12 1.754591024245e+06 9.528110657930e+05  5.539375601888e-02
3.000000000000e-02 8.389324658486e+07 1.001026508336e+05 -8.379314393403e+07 6.604371421605e-01 3.395628578395e-01 -1.598130368055e-07 -3.064823360986e-07 1.979061152343e-11 -2.895563940827e-12 1.784751661464e+06 7.256272116440e+05  3.158647003543e-02
3.500000000000e-02 8.489945256849e+07 1.005227639054e+05 -8.479892980458e+07 6.575588019128e-01 3.424411980872e-01 1.842675106559e-07 2.610542871441e-06 -5.584227651325e-11 -1.968352994505e-11 1.850005507017e+06 4.842059133625e+05  1.263019316986e-01
4.000000000000e-02 7.762220014724e+07 9.521656501280e+04 -7.752698358223e+07 6.786441090210e-01 3.213558909790e-01 2.804875117117e-06 -1.792447778798e-05 3.405233077487e-11 1.028158404826e-10 -1.146760570437e+06 9.907731624742e+06  8.531044928427e-01
4.500000000000e-02 1.199609696001e+08 1.162888338460e+05 -1.198446807662e+08 5.342592215953e-01 4.657407784047e-01 -1.285716875360e-05 -5.215844658781e-06 7.021357173109e-10 2.633204473712e-10 2.203365670557e+06 1.089770734348e+07  2.101674023277e+00
5.000000000000e-02 2.274925069045e-313 1.000000000000e+05 1.000000000000e+05 9.908030085674e-01 9.196991432578e-03 0.000000000000e+00 4.847358180472e-04 0.000000000000e+00 5.475302998135e-11 9.445414576135e+05 1.151728116785e+08  2.565820103436e+00
 TITLE = "Profiles along polylines"
 VARIABLES = "DIST" "PRESSURE1" "PRESSURE2" "PRESSURE_W" "SATURATION1" SATURATION2 "VELOCITY_X1" "VELOCITY_Y1" "VELOCITY_X2" "VELOCITY_Y2"  p_(1st_Invariant)  q_(2nd_Invariant)   Effective_Strain
 ZONE T="TIME=1.000000000000e+00"
0.000000000000e+00 8.400002526668e+07 1.000000000000e+05 -8.390002526668e+07 6.601393102600e-01 3.398606897400e-01 -3.191378332752e-11 -2.172203785564e-11 0.000000000000e+00 7.219192322773e-16 9.601480093668e+06 3.893193667509e+06  5.311080130345e-02
5.000000000000e-03 8.399999377394e+07 1.000000786891e+05 -8.389999369525e+07 6.601393951241e-01 3.398606048759e-01 3.361675881646e-11 -6.970099370895e-11 5.159196577689e-15 -6.118941126338e-15 9.637488477728e+06 3.951321186852e+06  5.411990230856e-02
1.000000000000e-02 8.400000473183e+07 9.999983048491e+04 -8.390000490135e+07 6.601393451035e-01 3.398606548965e-01 -1.874117464620e-10 4.771730016602e-11 -2.972340400186e-14 1.023645245295e-15 9.690153622000e+06 3.981137549593e+06  5.278254396650e-02
1.500000000000e-02 8.400010966842e+07 9.999873801674e+04 -8.390011093040e+07 6.601386706883e-01 3.398613293117e-01 1.234314108426e-09 -9.349371772053e-10 1.621780280404e-13 8.076915307142e-14 9.643086125689e+06 4.070013212153e+06  5.146235167126e-02
2.000000000000e-02 8.399958051560e+07 1.000149054096e+05 -8.389956561019e+07 6.601425731719e-01 3.398574268281e-01 -6.678956057560e-09 5.821352224952e-09 1.718994786405e-14 -6.793726306315e-13 9.635537181688e+06 4.082499295120e+06  5.725285343967e-02
2.500000000000e-02 8.399826720541e+07 9.993052592132e+04 -8.389833667949e+07 6.601402826715e-01 3.398597173285e-01 3.122097680350e-08 -4.975627674701e-08 -4.495842282680e-12 1.664153718671e-12 9.896355763543e+06 4.485772159311e+06  6.275676405533e-02
3.000000000000e-02 8.405143587747e+07 1.000453518409e+05 -8.395139052563e+07 6.600356905117e-01 3.399643094883e-01 -9.844252508224e-08 4.315361126146e-07 3.561512982593e-11 1.624497243606e-11 9.962491838517e+06 4.358363796757e+06  3.814220297293e-02
3.500000000000e-02 8.329785435610e+07 1.023839726894e+05 -8.319547038341e+07 6.620629614375e-01 3.379370385625e-01 2.133820213443e-07 -2.741765846909e-06 -1.347252038976e-10 -2.104922461352e-10 9.341427214921e+06 4.716182737883e+06  1.387289652984e-01
4.000000000000e-02 8.934878028151e+07 7.721425273601e+04 -8.927156602878e+07 6.435804799334e-01 3.564195200666e-01 2.174595387115e-06 8.528047708607e-06 4.269736680116e-10 1.571102086507e-09 1.161342686042e+07 6.123739544674e+06  7.853106742044e-01
4.500000000000e-02 6.135815307002e+07 2.356815311166e+05 -6.112247153891e+07 7.603568671606e-01 2.396431328394e-01 6.184752081875e-06 9.005082507484e-05 2.653254806090e-09 1.527717559164e-09 -4.137799177360e+06 3.827870948578e+07  2.017000590754e+00
5.000000000000e-02 2.274925069045e-313 1.000000000000e+05 1.000000000000e+05 1.000000000000e+00 0.000000000000e+00 0.000000000000e+00 2.651546390965e-04 0.000000000000e+00 1.671313616688e-10 6.409121274928e+05 1.119451265466e+08  2.535882424074e+00
 TITLE = "Profiles along polylines"
 VARIABLES = "DIST" "PRESSURE1" "PRESSURE2" "PRESSURE_W" "SATURATION1" SATURATION2 "VELOCITY_X1" "VELOCITY_Y1" "VELOCITY_X2" "VELOCITY_Y2"  p_(1st_Invariant)  q_(2nd_Invariant)   Effective_Strain
 ZONE T="TIME=5.000000000000e+00"
0.000000000000e+00 8.400005907798e+07 1.000000000000e+05 -8.390005907798e+07 6.601391983473e-01 3.398608016527e-01 -7.000557817298e-12 4.623617958826e-11 0.000000000000e+00 -5.374111453481e-15 2.217967007761e+07 9.166977566849e+06  5.653461635217e-02
5.000000000000e-03 8.399997273106e+07 9.999990689352e+04 -8.389997282416e+07 6.601394436000e-01 3.398605564000e-01 -5.073985749048e-11 -1.358645534699e-10 -4.630492669370e-15 -1.964590064399e-15 2.222960453071e+07 9.235521646861e+06  5.754686121138e-02
1.000000000000e-02 8.400030110635e+07 1.000000442775e+05 -8.390030106207e+07 6.601384189591e-01 3.398615810409e-01 2.739379932721e-10 -1.377313475148e-10 3.132187316144e-14 -1.809920694832e-14 2.229159644983e+07 9.280792538159e+06  5.618971955494e-02
1.500000000000e-02 8.399939975404e+07 1.000004093377e+05 -8.389939934471e+07 6.601410410621e-01 3.398589589379e-01 -1.652175020477e-10 7.233248993045e-09 -1.707113619323e-13 2.500505300167e-13 2.223022891312e+07 9.468141006881e+06  5.497377774508e-02
2.000000000000e-02 8.398853946111e+07 1.000060197062e+05 -8.388853344140e+07 6.601654169225e-01 3.398345830775e-01 -1.071920283297e-08 -4.083718844198e-08 4.756447503820e-13 -9.425591067450e-13 2.228813153290e+07 9.510073794934e+06  6.068297252045e-02
2.500000000000e-02 8.409366666100e+07 9.996339008837e+04 -8.399370327091e+07 6.597836046449e-01 3.402163953551e-01 4.465806371879e-08 -1.813204623690e-07 -2.773957569706e-12 -9.521244014114e-12 2.259624461692e+07 9.974701282067e+06  6.612247000356e-02
3.000000000000e-02 8.420688299674e+07 9.925662338955e+04 -8.410762637335e+07 6.599016573816e-01 3.400983426184e-01 4.861442122818e-07 2.284195983701e-06 3.507286601513e-11 1.110926140758e-10 2.269677696891e+07 1.025749551294e+07  4.148974038179e-02
3.500000000000e-02 7.930618502911e+07 1.093068370463e+05 -7.919687819206e+07 6.796392089220e-01 3.203607910780e-01 9.436780504282e-07 1.650918412512e-05 3.422080366893e-11 2.533967595264e-10 2.108921225168e+07 9.945596338055e+06  1.428992754168e-01
4.000000000000e-02 5.808293888694e+07 1.089558605770e+05 -5.797398302636e+07 7.685146603643e-01 2.314853396357e-01 7.719731561502e-07 5.149741767815e-05 9.912650571226e-10 5.131959311620e-09 1.486032707026e+07 5.869365224882e+06  7.862532712523e-01
4.500000000000e-02 2.798081578173e+07 6.105369147135e+05 -2.737027886702e+07 9.172702666200e-01 8.272973338005e-02 1.203818816116e-06 9.547298180057e-05 3.786984075324e-09 1.499723362761e-09 -3.782366263213e+06 3.884873107932e+07  1.983523480887e+00
5.000000000000e-02 2.274925069045e-313 1.000000000000e+05 1.000000000000e+05 1.000000000000e+00 0.000000000000e+00 0.000000000000e+00 1.190566396464e-04 0.000000000000e+00 4.222410219898e-10 2.313597745564e+07 1.148942015366e+08  2.506842898687e+00
 TITLE = "Profiles along polylines"
 VARIABLES = "DIST" "PRESSURE1" "PRESSURE2" "PRESSURE_W" "SATURATION1" SATURATION2 "VELOCITY_X1" "VELOCITY_Y1" "VELOCITY_X2" "VELOCITY_Y2"  p_(1st_Invariant)  q_(2nd_Invariant)   Effective_Strain
 ZONE T="TIME=1.000000000000e+01"
0.000000000000e+00 8.399999234267e+07 1.000000000000e+05 -8.389999234267e+07 6.601394691710e-01 3.398605308290e-01 -5.383978286791e-11 1.200250954961e-10 0.000000000000e+00 3.692856696341e-15 3.007124172307e+07 1.252189444357e+07  5.774256048176e-02
5.000000000000e-03 8.399984688009e+07 1.000001651673e+05 -8.389984671492e+07 6.601396188315e-01 3.398603811685e-01 -4.433368875718e-10 -1.224307520108e-09 -1.948364916798e-14 -4.132533297827e-14 3.013074415268e+07 1.259173024505e+07  5.875273462183e-02
1.000000000000e-02 8.400281517498e+07 9.999674196280e+04 -8.390281843301e+07 6.601281605806e-01 3.398718394194e-01 -6.106266261798e-10 -9.354067719968e-09 9.310827880365e-15 -2.676264931979e-13 3.019876823303e+07 1.264628518012e+07  5.739532804546e-02
1.500000000000e-02 8.401588496245e+07 9.998616495965e+04 -8.391589879749e+07 6.600719301086e-01 3.399280698914e-01 1.722919926685e-08 4.309542334060e-08 3.852973415363e-13 1.070044148023e-12 3.014051790764e+07 1.288237076494e+07  5.619972688105e-02
2.000000000000e-02 8.389871247682e+07 1.000822936740e+05 -8.379863018314e+07 6.606579052107e-01 3.393420947893e-01 1.089627156527e-07 7.573775910289e-07 3.146650780371e-12 2.516907916263e-11 3.016027260632e+07 1.293673874749e+07  6.189995788214e-02
2.500000000000e-02 8.256282647064e+07 1.017130123380e+05 -8.246111345830e+07 6.660537305987e-01 3.339462694013e-01 3.373195175643e-07 4.264217774073e-06 1.837937697847e-11 1.265145053982e-10 2.994972039700e+07 1.312534665920e+07  6.724421169204e-02
3.000000000000e-02 7.653391958816e+07 1.082583857310e+05 -7.642566120243e+07 6.895386429352e-01 3.104613570648e-01 5.357502583072e-07 1.423937284150e-05 -9.596208271481e-12 5.169134821587e-10 2.803212382858e+07 1.209469723635e+07  4.216280699239e-02
3.500000000000e-02 6.173079380559e+07 1.359031984932e+05 -6.159489060710e+07 7.513191461605e-01 2.486808538395e-01 4.628882697359e-07 3.320872097926e-05 3.563505425372e-10 1.098856714543e-09 2.308323623594e+07 9.182667363317e+06  1.424382831720e-01
4.000000000000e-02 4.038606819070e+07 2.104545171844e+05 -4.017561367352e+07 8.521483293996e-01 1.478516706004e-01 1.087014318475e-07 5.754191831713e-05 7.402263946448e-10 6.060711416783e-09 1.634709462922e+07 5.306171381941e+06  7.870560396052e-01
4.500000000000e-02 1.963431601546e+07 8.716634154067e+05 -1.876265260005e+07 9.526546097252e-01 4.734539027477e-02 1.468932482012e-07 7.399151234419e-05 3.636780410219e-09 5.666850255218e-10 -1.822151299622e+04 3.873651714435e+07  1.981295847247e+00
5.000000000000e-02 2.274925069045e-313 1.000000000000e+05 1.000000000000e+05 1.000000000000e+00 0.000000000000e+00 0.000000000000e+00 8.162153119588e-05 0.000000000000e+00 5.024878800789e-10 3.747452732255e+07 1.196905242345e+08  2.508666462089e+00
 ZONE T="TIME=1.800000000000e+01"
0.000000000000e+00 8.398995472718e+07 1.000000000000e+05 -8.388995472718e+07 6.601822697683e-01 3.398177302317e-01 1.516922138631e-08 4.201481370162e-08 0.000000000000e+00 1.725271666765e-12 3.803032156827e+07 1.591721233986e+07  5.867747927881e-02
5.000000000000e-03 8.395615394324e+07 1.000486591097e+05 -8.385610528413e+07 6.603231689132e-01 3.396768310868e-01 1.750911945718e-08 1.326196334541e-07 4.234751645969e-13 4.173765401244e-12 3.808384047682e+07 1.598286527823e+07  5.968493395212e-02
1.000000000000e-02 8.373332466141e+07 1.002879359493e+05 -8.363303672546e+07 6.611807103381e-01 3.388192896619e-01 4.383273354195e-08 6.281849805668e-07 1.341796818114e-12 1.946741295346e-11 3.809198262573e+07 1.603100736820e+07  5.832420266820e-02
1.500000000000e-02 8.284092367393e+07 1.012693302646e+05 -8.273965434367e+07 6.641580357568e-01 3.358419642432e-01 1.321646641600e-07 2.236627113149e-06 4.997517039645e-12 7.033246112087e-11 3.795699780758e+07 1.619714010056e+07  5.711413532932e-02
2.000000000000e-02 7.999414575906e+07 1.045808575389e+05 -7.988956490152e+07 6.751489643753e-01 3.248510356247e-01 2.655626801753e-07 6.119549371088e-06 9.119235407299e-12 1.953740182078e-10 3.704234892680e+07 1.581642404593e+07  6.270458472469e-02
2.500000000000e-02 7.324506897532e+07 1.135041770023e+05 -7.313156479832e+07 7.025265201834e-01 2.974734798166e-01 3.502037874923e-07 1.371242177751e-05 3.366984347044e-11 4.494172316786e-10 3.470424179962e+07 1.479621932494e+07  6.773939825094e-02
3.000000000000e-02 6.135242151719e+07 1.371388829655e+05 -6.121528263423e+07 7.523238400781e-01 2.476761599219e-01 3.000040505329e-07 2.536029556570e-05 -1.596414771946e-11 9.032975733891e-10 3.098805778250e+07 1.223656626185e+07  4.224493359644e-02
3.500000000000e-02 4.568201394960e+07 1.814863560505e+05 -4.550052759355e+07 8.253304378089e-01 1.746695621911e-01 7.286439272958e-08 3.924999290915e-05 5.531589729018e-10 2.096571051256e-09 2.551452306236e+07 7.843840501176e+06  1.418550536563e-01
4.000000000000e-02 2.944393966092e+07 4.256227494858e+05 -2.901831691144e+07 9.052047375732e-01 9.479526242677e-02 -1.595061386259e-07 5.097118785768e-05 4.825107973331e-10 7.232220608863e-09 2.050623458639e+07 5.578691896343e+06  7.877798820069e-01
4.500000000000e-02 1.471398905521e+07 9.878958826937e+05 -1.372609317252e+07 9.704126763574e-01 2.958732364255e-02 -1.533257142480e-08 5.675413636009e-05 1.608362742297e-09 -1.049963470322e-09 8.318151760099e+06 3.976973159220e+07  1.980007834179e+00
5.000000000000e-02 2.274925069045e-313 1.000000000000e+05 1.000000000000e+05 1.000000000000e+00 0.000000000000e+00 0.000000000000e+00 5.982143809400e-05 0.000000000000e+00 3.958270721127e-10 4.790270614463e+07 1.193005996143e+08  2.508255886539e+00
