 TITLE = "Time curves in points"
 VARIABLES = "TIME"  "DISPLACEMENT_X1"  "DISPLACEMENT_Y1"  "STRESS_XX"  "STRESS_XY"  "STRESS_YY"  "STRESS_ZZ"  "STRAIN_XX"  "STRAIN_XY"  "STRAIN_YY"  p_(1st_Invariant)  q_(2nd_Invariant)   Effective_Strain
 ZONE T="POINT=POINT4"
0.000000000000e+00 0.000000000000e+00 0.000000000000e+00 -1.000000000000e+05 0.000000000000e+00 -1.000000000000e+05 -1.000000000000e+05 0.000000000000e+00 0.000000000000e+00 0.000000000000e+00 1.000000000000e+05 0.000000000000e+00  0.000000000000e+00
1.000000000000e-03 1.314367776040e-05 0.000000000000e+00 2.618478004174e+05 1.185540563614e+04 4.513522369128e+05 2.507957995909e+05 2.632052640626e-02 -3.453407500936e-03 4.344754097580e-01 -3.213319456404e+05 1.963418785967e+05  4.219737057796e-01
2.000000000000e-03 2.239122006347e-04 0.000000000000e+00 6.608441325016e+05 -8.506066246827e+03 1.018855432516e+06 6.373183604499e+05 1.304952254438e-01 1.846600716960e-02 1.305543169195e+00 -7.723393084891e+05 3.706279868189e+05  1.245844211997e+00
3.000000000000e-03 3.064091969767e-04 0.000000000000e+00 1.836637801955e+06 -2.743654509958e+04 2.947110551465e+06 1.878230452521e+06 1.471517358861e-01 3.266143405649e-03 1.688933050066e+00 -2.220659601981e+06 1.091306768499e+06  1.620386081755e+00
4.000000000000e-03 4.100989539732e-04 0.000000000000e+00 5.115305149371e+06 -2.640488412046e+05 8.874852081700e+06 5.554656939605e+06 1.619888248537e-01 -1.711413394840e-02 1.830372470244e+00 -6.514938056892e+06 3.589515960182e+06  1.755244300503e+00
5.000000000000e-03 4.575972911863e-04 0.000000000000e+00 1.421347998834e+07 -1.027865122871e+06 2.459715598464e+07 1.542588078035e+07 1.726191929674e-01 -2.317154080207e-02 1.873882095072e+00 -1.807883891778e+07 9.993547218438e+06  1.794261474244e+00
6.000000000000e-03 4.762858411099e-04 0.000000000000e+00 3.156685368907e+07 -2.658079273413e+06 5.826837146974e+07 3.520964106305e+07 1.749490425425e-01 -2.645916896780e-02 1.883024448070e+00 -4.168162207395e+07 2.549841477578e+07  1.802513572240e+00
7.000000000000e-03 4.721811118823e-04 0.000000000000e+00 2.397842143659e+07 -2.936494896883e+06 4.732955545908e+07 2.697453028142e+07 1.747003437092e-01 -2.690907372539e-02 1.882443811847e+00 -3.276083572570e+07 2.258669068285e+07  1.802060939219e+00
8.000000000000e-03 4.716311286019e-04 0.000000000000e+00 2.201362625363e+07 -3.009754027880e+06 4.633704504679e+07 2.508459360633e+07 1.745492640926e-01 -2.699865820783e-02 1.883100201410e+00 -3.114508830225e+07 2.352740901957e+07  1.802783082462e+00
9.000000000000e-03 4.711376433613e-04 0.000000000000e+00 2.075601502665e+07 -3.040794678006e+06 4.636602882761e+07 2.390650741945e+07 1.744230732064e-01 -2.707579068252e-02 1.883901324108e+00 -3.034285042457e+07 2.475587914747e+07  1.803638279754e+00
1.000000000000e-02 4.706616099921e-04 0.000000000000e+00 1.960666285972e+07 -3.010830703642e+06 4.641348031025e+07 2.278079711743e+07 1.743218089148e-01 -2.716341124668e-02 1.884677437168e+00 -2.960031342913e+07 2.589956480484e+07  1.804458452804e+00
2.000000000000e-02 4.438734467067e-04 0.000000000000e+00 2.491822478894e+07 3.310515984848e+06 1.101170694812e+08 4.711908864927e+07 2.170046293177e-01 -2.080711336916e-01 1.930092004373e+00 -6.071812763981e+07 7.676660790495e+07  1.866383680962e+00
3.000000000000e-02 4.440375506393e-04 0.000000000000e+00 1.585300977268e+07 6.054572316533e+05 6.429557308471e+07 2.185494196240e+07 1.136314497737e-01 -2.422303652300e-05 1.904518864470e+00 -3.400117493993e+07 4.574992771068e+07  1.850321856750e+00
4.000000000000e-02 4.179943908096e-04 0.000000000000e+00 8.230529622325e+06 -4.079386693334e+05 7.793409620941e+07 2.139211226354e+07 1.718249694757e-01 -3.878834798811e-01 1.920051800225e+00 -3.585224603176e+07 6.414752093754e+07  1.958971841454e+00
5.000000000000e-02 3.993267199277e-04 0.000000000000e+00 -1.334077169843e+06 1.810491332851e+06 5.501184821501e+07 4.396552031842e+06 1.448313315182e-01 -4.111328798275e-01 1.916472097069e+00 -1.935810769234e+07 5.380185358996e+07  1.980749086185e+00
6.000000000000e-02 3.960065770423e-04 0.000000000000e+00 6.728458872397e+06 7.602027694840e+06 7.119514904995e+07 1.165487085796e+07 2.106021943277e-01 -4.445664574762e-01 1.925747509635e+00 -2.985949292677e+07 6.352957325182e+07  1.984995745388e+00
7.000000000000e-02 4.723521865784e-04 0.000000000000e+00 -6.594653107691e+06 -3.108900980751e+06 6.118300636081e+07 -2.945792064614e+05 1.036417791342e-01 -5.424552077056e-01 1.930941626987e+00 -1.809792468222e+07 6.508066983836e+07  2.102837111307e+00
8.000000000000e-02 4.094060216199e-04 0.000000000000e+00 8.925065670825e+05 6.743714526483e+06 6.822388884972e+07 3.739614500008e+06 1.194760804572e-01 -5.307053273490e-01 1.933361965253e+00 -2.428533663894e+07 6.698025386549e+07  2.089525531360e+00
9.000000000000e-02 4.634175043720e-04 0.000000000000e+00 -1.219058467956e+07 -3.601331302194e+06 6.120996909813e+07 -6.360632274445e+06 9.749677640937e-02 -5.565661828609e-01 1.938086441324e+00 -1.421958404804e+07 7.094093787320e+07  2.122740031830e+00
1.000000000000e-01 4.278313180052e-04 0.000000000000e+00 -7.309529766485e+06 3.023164394159e+06 6.402864567171e+07 -4.785776692122e+06 1.054075362793e-01 -5.429544967649e-01 1.939489621585e+00 -1.731111307103e+07 7.030564154968e+07  2.110140439630e+00
1.100000000000e-01 4.447358535015e-04 0.000000000000e+00 -1.131443515390e+07 -4.058662937629e+05 6.305370491072e+07 -8.535983403930e+06 1.023822550781e-01 -5.485855324591e-01 1.942428579012e+00 -1.440109545097e+07 7.302195522060e+07  2.118367048399e+00
1.200000000000e-01 4.346400440414e-04 0.000000000000e+00 -1.163578918208e+07 1.345621607957e+06 6.263042114150e+07 -1.041670845614e+07 1.046509830330e-01 -5.457036997258e-01 1.944497744311e+00 -1.352597450110e+07 7.370109728209e+07  2.117051555611e+00
1.300000000000e-01 4.386355699547e-04 0.000000000000e+00 -1.320834547955e+07 3.884801491943e+05 6.225987941372e+07 -1.241109227543e+07 1.043117349747e-01 -5.471472334428e-01 1.946649393854e+00 -1.221348055291e+07 7.507578869107e+07  2.120230343660e+00
1.400000000000e-01 4.346798956468e-04 0.000000000000e+00 -1.413814796249e+07 7.290383662350e+05 6.158896722732e+07 -1.416943926882e+07 1.055401411649e-01 -5.461563280663e-01 1.948552852815e+00 -1.109379333200e+07 7.575329065654e+07  2.120661831250e+00
1.500000000000e-01 4.331843395202e-04 0.000000000000e+00 -1.510865156720e+07 5.497435846616e+05 6.128906065071e+07 -1.565398942967e+07 1.061050903829e-01 -5.460350214957e-01 1.950581000016e+00 -1.017547321794e+07 7.667774804088e+07  2.122150015579e+00
1.600000000000e-01 4.302013981458e-04 0.000000000000e+00 -1.599624433943e+07 6.231739500910e+05 6.078858881881e+07 -1.704445023280e+07 1.069307363336e-01 -5.453388149560e-01 1.952438623445e+00 -9.249298082194e+06 7.732179958258e+07  2.122936252066e+00
1.700000000000e-01 4.277140231809e-04 0.000000000000e+00 -1.677005296658e+07 5.903045228828e+05 6.040607098432e+07 -1.825485447776e+07 1.076937505582e-01 -5.449098830390e-01 1.954340934989e+00 -8.460387846663e+06 7.793584122450e+07  2.123995402732e+00
1.800000000000e-01 4.244382887947e-04 0.000000000000e+00 -1.744961808649e+07 6.088252410094e+05 6.004929299207e+07 -1.935446764083e+07 1.085168844638e-01 -5.443200276730e-01 1.956172873865e+00 -7.748402421581e+06 7.847576339826e+07  2.124844304530e+00
1.900000000000e-01 4.212510779573e-04 0.000000000000e+00 -1.812583790701e+07 5.963920384783e+05 5.966758813215e+07 -2.041037530796e+07 1.092117628356e-01 -5.437473595516e-01 1.957929660093e+00 -7.043791639060e+06 7.896724186504e+07  2.125692919117e+00
2.000000000000e-01 4.179989221236e-04 0.000000000000e+00 -1.880454671908e+07 5.695277526156e+05 5.927345514572e+07 -2.157313030631e+07 1.099500555632e-01 -5.431912237833e-01 1.959682561113e+00 -6.298592706775e+06 7.950457842382e+07  2.126534190968e+00
2.100000000000e-01 4.143564829978e-04 0.000000000000e+00 -1.926643556480e+07 6.150899660651e+05 5.905813166137e+07 -2.237183323113e+07 1.106116286028e-01 -5.425528638795e-01 1.961409962949e+00 -5.806620955145e+06 7.992962692964e+07  2.127322273444e+00
2.200000000000e-01 4.119350582650e-04 0.000000000000e+00 -1.987451222539e+07 5.477638005291e+05 5.862591320444e+07 -2.339779030075e+07 1.110029885558e-01 -5.421528045350e-01 1.963018863408e+00 -5.117870226103e+06 8.032564499851e+07  2.128298088034e+00
2.300000000000e-01 4.081133025323e-04 0.000000000000e+00 -2.022026826435e+07 5.874408137762e+05 5.843113822811e+07 -2.410938182824e+07 1.115187152552e-01 -5.415596868769e-01 1.964679076810e+00 -4.700496045174e+06 8.067272438373e+07  2.129122470766e+00
2.400000000000e-01 4.055057440316e-04 0.000000000000e+00 -2.062356967727e+07 5.794195971530e+05 5.814774655986e+07 -2.479213979794e+07 1.115309554869e-01 -5.411369962488e-01 1.966216224768e+00 -4.244012361550e+06 8.094237564478e+07  2.130173506656e+00
2.500000000000e-01 4.022311007775e-04 0.000000000000e+00 -2.101162282819e+07 6.220715352066e+05 5.787185067530e+07 -2.543344533967e+07 1.117674117833e-01 -5.406205715081e-01 1.967662028435e+00 -3.808927502480e+06 8.119189949869e+07  2.130980320724e+00
2.600000000000e-01 3.996184729818e-04 0.000000000000e+00 -2.137931703912e+07 6.266116167479e+05 5.761185935628e+07 -2.602620506992e+07 1.117979935194e-01 -5.402760734954e-01 1.969073882238e+00 -3.402112415750e+06 8.142137677039e+07  2.131972547364e+00
2.700000000000e-01 3.967726060086e-04 0.000000000000e+00 -2.169727809710e+07 6.677645231476e+05 5.740665584306e+07 -2.650139277025e+07 1.119767835397e-01 -5.399223517733e-01 1.970444063827e+00 -3.069328325237e+06 8.162030372844e+07  2.132860299725e+00
2.800000000000e-01 3.946010227481e-04 0.000000000000e+00 -2.207774521094e+07 6.826122037504e+05 5.713010559747e+07 -2.702574924504e+07 1.119664624543e-01 -5.396472465281e-01 1.971699068571e+00 -2.675537047166e+06 8.180272010882e+07  2.133782319742e+00
2.900000000000e-01 3.922114303130e-04 0.000000000000e+00 -2.236861478200e+07 7.231218640268e+05 5.695156172098e+07 -2.741687916132e+07 1.121057537331e-01 -5.393831576446e-01 1.972944562075e+00 -2.388689259222e+06 8.197056368600e+07  2.134643314488e+00
3.000000000000e-01 3.905650791231e-04 0.000000000000e+00 -2.272891193780e+07 7.352960458775e+05 5.669602626344e+07 -2.786240652563e+07 1.120824013384e-01 -5.392674072215e-01 1.974052844195e+00 -2.034902600002e+06 8.212200098740e+07  2.135560470390e+00
3.100000000000e-01 3.887922169108e-04 0.000000000000e+00 -2.302815414543e+07 7.582815555250e+05 5.648812083706e+07 -2.823711106270e+07 1.120811853074e-01 -5.390815946898e-01 1.975137998464e+00 -1.740951876313e+06 8.225504873632e+07  2.136394952779e+00
3.200000000000e-01 3.873037024850e-04 0.000000000000e+00 -2.332747552658e+07 7.773210429111e+05 5.629439203788e+07 -2.857646057722e+07 1.120645392541e-01 -5.389994265411e-01 1.976148449355e+00 -1.463485311360e+06 8.238288848466e+07  2.137247326541e+00
3.300000000000e-01 3.857837789578e-04 0.000000000000e+00 -2.359009860586e+07 8.094610974726e+05 5.613070146495e+07 -2.885742405543e+07 1.121566728558e-01 -5.389238955983e-01 1.977064331420e+00 -1.227726267886e+06 8.249261641020e+07  2.137975310462e+00
3.400000000000e-01 3.848771693384e-04 0.000000000000e+00 -2.382179484071e+07 8.287126561209e+05 5.600526580380e+07 -2.908652829306e+07 1.120693295188e-01 -5.389166676085e-01 1.977868243180e+00 -1.032314223343e+06 8.259785420968e+07  2.138728004676e+00
3.500000000000e-01 3.843348793789e-04 0.000000000000e+00 -2.401505683458e+07 8.499268997232e+05 5.591579723163e+07 -2.927043643412e+07 1.119618128188e-01 -5.389570528443e-01 1.978567407747e+00 -8.767679876429e+05 8.269700450154e+07  2.139430895170e+00
3.600000000000e-01 3.842975995574e-04 0.000000000000e+00 -2.416284838454e+07 8.616109326323e+05 5.584964937644e+07 -2.941084812670e+07 1.118143328115e-01 -5.390882636437e-01 1.979145559671e+00 -7.586509550627e+05 8.277483909414e+07  2.140110095087e+00
3.700000000000e-01 3.844589579418e-04 0.000000000000e+00 -2.426356931354e+07 8.681465602858e+05 5.581623920402e+07 -2.950728887515e+07 1.116499861141e-01 -5.392248455656e-01 1.979634654211e+00 -6.817936717750e+05 8.283990234672e+07  2.140720253588e+00
3.800000000000e-01 3.848415891377e-04 0.000000000000e+00 -2.434920715768e+07 8.741355511115e+05 5.579446056311e+07 -2.958464888538e+07 1.114525292284e-01 -5.393706558398e-01 1.980037452777e+00 -6.202015066821e+05 8.289931945984e+07  2.141273432268e+00
3.900000000000e-01 3.854039800019e-04 0.000000000000e+00 -2.440838264041e+07 8.775217106789e+05 5.579211006359e+07 -2.963786606422e+07 1.112281565171e-01 -5.395442373027e-01 1.980401552476e+00 -5.819537863192e+05 8.295290113721e+07  2.141823883989e+00
4.000000000000e-01 3.861141154221e-04 0.000000000000e+00 -2.444837444144e+07 8.793721748083e+05 5.580423373187e+07 -2.967287313008e+07 1.109802736709e-01 -5.397311776173e-01 1.980723226347e+00 -5.609953867853e+05 8.300226525580e+07  2.142355980477e+00
4.100000000000e-01 3.869294334798e-04 0.000000000000e+00 -2.447420406275e+07 8.800880798196e+05 5.582719188179e+07 -2.969450588254e+07 1.107149649347e-01 -5.399275518232e-01 1.981014611064e+00 -5.528273121655e+05 8.304870215841e+07  2.142875174424e+00
4.200000000000e-01 3.877755849130e-04 0.000000000000e+00 -2.449531818270e+07 8.804422437327e+05 5.585318555346e+07 -2.971168164410e+07 1.104439321613e-01 -5.401241669235e-01 1.981292444516e+00 -5.487285755573e+05 8.309359202190e+07  2.143384760512e+00
4.300000000000e-01 3.886037657169e-04 0.000000000000e+00 -2.451670272289e+07 8.810609796696e+05 5.587805800239e+07 -2.972909722757e+07 1.101746725721e-01 -5.403141117234e-01 1.981566334658e+00 -5.440860173086e+05 8.313762459264e+07  2.143885069916e+00
4.400000000000e-01 3.893819056972e-04 0.000000000000e+00 -2.453757518282e+07 8.812909149602e+05 5.589851129055e+07 -2.974759262835e+07 1.099209055261e-01 -5.404871752855e-01 1.981824564157e+00 -5.377811597951e+05 8.317759147596e+07  2.144352214033e+00
4.500000000000e-01 3.901760019064e-04 0.000000000000e+00 -2.455838909533e+07 8.822019947892e+05 5.592122725598e+07 -2.976478809530e+07 1.096571853411e-01 -5.406636986297e-01 1.982085859165e+00 -5.326833551187e+05 8.321910281762e+07  2.144828850987e+00
4.600000000000e-01 3.909541272234e-04 0.000000000000e+00 -2.457919054189e+07 8.832107425271e+05 5.594267550427e+07 -2.978211664714e+07 1.093964228696e-01 -5.408344870921e-01 1.982341259219e+00 -5.271227717448e+05 8.325941901164e+07  2.145294672057e+00
4.700000000000e-01 3.917193840679e-04 0.000000000000e+00 -2.459996214845e+07 8.844165513318e+05 5.596332720121e+07 -2.979939241779e+07 1.091373142411e-01 -5.410006044545e-01 1.982592185274e+00 -5.213242116577e+05 8.329890424918e+07  2.145752292832e+00
4.800000000000e-01 3.924746120153e-04 0.000000000000e+00 -2.462070859542e+07 8.858374544785e+05 5.598347135918e+07 -2.981651074883e+07 1.088789624401e-01 -5.411630154043e-01 1.982839147877e+00 -5.154173383060e+05 8.333779263900e+07  2.146203269365e+00
4.900000000000e-01 3.932084861986e-04 0.000000000000e+00 -2.464286689663e+07 8.874364038045e+05 5.600111038154e+07 -2.983510137016e+07 1.086264203659e-01 -5.413197163404e-01 1.983079929272e+00 -5.077140382484e+05 8.337562856788e+07  2.146642014162e+00
5.000000000000e-01 3.938769977962e-04 0.000000000000e+00 -2.466589284416e+07 8.891446050597e+05 5.601456818036e+07 -2.985544612919e+07 1.083978393148e-01 -5.414633117628e-01 1.983310695115e+00 -4.977430690069e+05 8.341064404715e+07  2.147052017265e+00
5.100000000000e-01 3.945462621401e-04 0.000000000000e+00 -2.469063114126e+07 8.918177417195e+05 5.602988741205e+07 -2.987563712235e+07 1.081652477375e-01 -5.416106971861e-01 1.983547407450e+00 -4.878730494832e+05 8.344824018928e+07  2.147471905198e+00
5.200000000000e-01 3.951905028450e-04 0.000000000000e+00 -2.471702784683e+07 8.946089786806e+05 5.604349559459e+07 -2.989713795670e+07 1.079416825694e-01 -5.417538796878e-01 1.983781578719e+00 -4.764432636879e+05 8.348559796105e+07  2.147882640163e+00
5.300000000000e-01 3.957840504791e-04 0.000000000000e+00 -2.474429485548e+07 8.971252253809e+05 5.605263656916e+07 -2.992058118357e+07 1.077369828852e-01 -5.418850606023e-01 1.984004803157e+00 -4.625868433697e+05 8.351994145283e+07  2.148266715662e+00
5.400000000000e-01 3.963765882483e-04 0.000000000000e+00 -2.477304825834e+07 9.005729245366e+05 5.606377729625e+07 -2.994373567030e+07 1.075287812100e-01 -5.420192936077e-01 1.984233762511e+00 -4.489977892050e+05 8.355682751966e+07  2.148659714540e+00
5.500000000000e-01 3.969443425623e-04 0.000000000000e+00 -2.480341656254e+07 9.041994374075e+05 5.607297273072e+07 -2.996831837589e+07 1.073286751246e-01 -5.421488855802e-01 1.984459027666e+00 -4.337459307643e+05 8.359328857894e+07  2.149042568475e+00
5.600000000000e-01 3.974676942169e-04 0.000000000000e+00 -2.483450123090e+07 9.075475939117e+05 5.607812513872e+07 -2.999465746144e+07 1.071451764106e-01 -5.422673751699e-01 1.984674581340e+00 -4.163221487894e+05 8.362698750612e+07  2.149401473209e+00
5.700000000000e-01 3.979925380875e-04 0.000000000000e+00 -2.486748544741e+07 9.118076852412e+05 5.608520921355e+07 -3.002101616071e+07 1.069568105530e-01 -5.423891196000e-01 1.984896462584e+00 -3.989025351406e+05 8.366351671850e+07  2.149770546539e+00
5.800000000000e-01 3.984746655327e-04 0.000000000000e+00 -2.490111101500e+07 9.156090730953e+05 5.608788754626e+07 -3.004926580387e+07 1.067853204583e-01 -5.425002636686e-01 1.985107469436e+00 -3.791702424642e+05 8.369695517998e+07  2.150114890152e+00
5.900000000000e-01 3.989582393877e-04 0.000000000000e+00 -2.493653213224e+07 9.202772228858e+05 5.609249871634e+07 -3.007751092742e+07 1.066088913554e-01 -5.426140040697e-01 1.985324300245e+00 -3.594852188939e+05 8.373316405774e+07  2.150468479766e+00
6.000000000000e-01 3.994014205018e-04 0.000000000000e+00 -2.497244402601e+07 9.244405744011e+05 5.609272555620e+07 -3.010759608854e+07 1.064486944258e-01 -5.427172824289e-01 1.985530059042e+00 -3.375618138826e+05 8.376620589477e+07  2.150797527271e+00
6.100000000000e-01 3.998449583865e-04 0.000000000000e+00 -2.501004890874e+07 9.293464872425e+05 5.609465834549e+07 -3.013774380843e+07 1.062843151509e-01 -5.428226327817e-01 1.985740490674e+00 -3.156218761095e+05 8.380177827581e+07  2.151134076670e+00
6.200000000000e-01 4.002520350939e-04 0.000000000000e+00 -2.504847979535e+07 9.336931020747e+05 5.609191944873e+07 -3.017007973765e+07 1.061351312327e-01 -5.429185077664e-01 1.985940178831e+00 -2.911199719108e+05 8.383423637137e+07  2.151447549141e+00
6.300000000000e-01 4.006439522310e-04 0.000000000000e+00 -2.508760554074e+07 9.382061332945e+05 5.608870648268e+07 -3.020279895133e+07 1.059898018211e-01 -5.430113558469e-01 1.986138012826e+00 -2.661006635377e+05 8.386675185051e+07  2.151755485052e+00
6.400000000000e-01 4.010373243961e-04 0.000000000000e+00 -2.512838639147e+07 9.433918118132e+05 5.608718761024e+07 -3.023559188674e+07 1.058399188234e-01 -5.431060383608e-01 1.986340594369e+00 -2.410697773458e+05 8.390177351268e+07  2.152070961819e+00
6.500000000000e-01 4.013989930221e-04 0.000000000000e+00 -2.516948535749e+07 9.480125335347e+05 5.608172058214e+07 -3.027001721452e+07 1.057035012204e-01 -5.431924064872e-01 1.986533122804e+00 -2.140726700432e+05 8.393386944182e+07  2.152365569134e+00
6.600000000000e-01 4.017638249589e-04 0.000000000000e+00 -2.521222244066e+07 9.533438897313e+05 5.607832709414e+07 -3.030436140020e+07 1.055614560898e-01 -5.432808697313e-01 1.986731021523e+00 -1.872477510908e+05 8.396876020817e+07  2.152668916403e+00
6.700000000000e-01 4.020982824044e-04 0.000000000000e+00 -2.525554840974e+07 9.580347385891e+05 5.607042573240e+07 -3.034075739002e+07 1.054328402944e-01 -5.433610808061e-01 1.986918439941e+00 -1.580399775449e+05 8.400051479758e+07  2.152951069727e+00
6.800000000000e-01 4.024192540913e-04 0.000000000000e+00 -2.529919721115e+07 9.627392080194e+05 5.606197042250e+07 -3.037744601921e+07 1.053083880147e-01 -5.434379087712e-01 1.987102701372e+00 -1.284423973798e+05 8.403202402996e+07  2.153226114962e+00
6.900000000000e-01 4.027429932516e-04 0.000000000000e+00 -2.534435239564e+07 9.680443680611e+05 5.605540445723e+07 -3.041409126300e+07 1.051789122424e-01 -5.435162113601e-01 1.987291670206e+00 -9.898693286241e+04 8.406610201916e+07  2.153508585055e+00
7.000000000000e-01 4.030406583691e-04 0.000000000000e+00 -2.539000843422e+07 9.727228120555e+05 5.604466318004e+07 -3.045263286951e+07 1.050613931351e-01 -5.435874619110e-01 1.987470917620e+00 -6.734062543679e+04 8.409725105196e+07  2.153772055611e+00
7.100000000000e-01 4.033283389778e-04 0.000000000000e+00 -2.543609244337e+07 9.774351370227e+05 5.603364261331e+07 -3.049140881225e+07 1.049464134876e-01 -5.436563595673e-01 1.987648191845e+00 -3.538045256422e+04 8.412844570855e+07  2.154030929939e+00
7.200000000000e-01 4.036191130937e-04 0.000000000000e+00 -2.548361640174e+07 9.826721457417e+05 5.602447482413e+07 -3.053013491379e+07 1.048265923928e-01 -5.437267286680e-01 1.987829674473e+00 -3.574502867920e+03 8.416213702889e+07  2.154296703000e+00
7.300000000000e-01 4.038865000000e-04 0.000000000000e+00 -2.553151900706e+07 9.872692987350e+05 5.601124713392e+07 -3.057066848838e+07 1.047179591265e-01 -5.437906341018e-01 1.988001703829e+00 3.031345384049e+04 8.419290960127e+07  2.154544477479e+00
7.400000000000e-01 4.041456061348e-04 0.000000000000e+00 -2.557972772228e+07 9.919286137596e+05 5.599798129785e+07 -3.061130060563e+07 1.046111394324e-01 -5.438521544957e-01 1.988172215092e+00 6.434901002193e+04 8.422384039196e+07  2.154788338654e+00
7.500000000000e-01 4.044079894202e-04 0.000000000000e+00 -2.562928138963e+07 9.970457698962e+05 5.598661258639e+07 -3.065182803870e+07 1.044997046332e-01 -5.439150904883e-01 1.988346544266e+00 9.816561397746e+04 8.425723743364e+07  2.155038611895e+00
7.600000000000e-01 4.046484690215e-04 0.000000000000e+00 -2.567901327459e+07 1.001411088616e+06 5.597091422641e+07 -3.069419739669e+07 1.043999207705e-01 -5.439718846430e-01 1.988510500778e+00 1.340988149594e+05 8.428736930985e+07  2.155270110746e+00
7.700000000000e-01 4.048811780537e-04 0.000000000000e+00 -2.572938310784e+07 1.005742123264e+06 5.595464304349e+07 -3.073709559165e+07 1.043022935798e-01 -5.440267849486e-01 1.988672372850e+00 1.706118853313e+05 8.431750697069e+07  2.155497416732e+00
7.800000000000e-01 4.051064368457e-04 0.000000000000e+00 -2.578034612814e+07 1.009991471066e+06 5.593766750291e+07 -3.078055792033e+07 1.042070587414e-01 -5.440797472347e-01 1.988831901180e+00 2.077455151868e+05 8.434751622590e+07  2.155720165871e+00
7.900000000000e-01 4.053247279978e-04 0.000000000000e+00 -2.583147667941e+07 1.014197587445e+06 5.592052396311e+07 -3.082412431196e+07 1.041138444454e-01 -5.441306480980e-01 1.988989469019e+00 2.450256760874e+05 8.437749025742e+07  2.155938762324e+00
8.000000000000e-01 4.055472579149e-04 0.000000000000e+00 -2.588388610234e+07 1.018876724775e+06 5.590556921989e+07 -3.086744800895e+07 1.040154657052e-01 -5.441828183304e-01 1.989151357039e+00 2.819216304657e+05 8.441011808090e+07  2.156164338091e+00
8.100000000000e-01 4.057517445504e-04 0.000000000000e+00 -2.593642152803e+07 1.022864862506e+06 5.588659583706e+07 -3.091247202686e+07 1.039270539310e-01 -5.442299505636e-01 1.989304080979e+00 3.207659059431e+05 8.443969133796e+07  2.156373753296e+00
8.200000000000e-01 4.059505079739e-04 0.000000000000e+00 -2.598948670846e+07 1.026808308336e+06 5.586721473646e+07 -3.095791790056e+07 1.038402412273e-01 -5.442755314982e-01 1.989454982415e+00 3.600632908563e+05 8.446932741890e+07  2.156579699439e+00
8.300000000000e-01 4.061430575911e-04 0.000000000000e+00 -2.604300019596e+07 1.030618599908e+06 5.584713008282e+07 -3.100387184178e+07 1.037558072639e-01 -5.443194574448e-01 1.989603311873e+00 3.999139849706e+05 8.449873747003e+07  2.156781102397e+00
8.400000000000e-01 4.063296251612e-04 0.000000000000e+00 -2.609693361604e+07 1.034296601379e+06 5.582639275652e+07 -3.105030408247e+07 1.036736570171e-01 -5.443617862702e-01 1.989749143476e+00 4.402816473294e+05 8.452794317068e+07  2.156978111601e+00
8.500000000000e-01 4.065108840999e-04 0.000000000000e+00 -2.615128950873e+07 1.037862416778e+06 5.580506872874e+07 -3.109719011912e+07 1.035934980379e-01 -5.444025635552e-01 1.989892686321e+00 4.811369663721e+05 8.455699891681e+07  2.157171070043e+00
8.600000000000e-01 4.066863027159e-04 0.000000000000e+00 -2.620566201275e+07 1.041272848358e+06 5.578341149821e+07 -3.114419269989e+07 1.035157134406e-01 -5.444418862319e-01 1.990033579834e+00 5.221477381443e+05 8.458578818874e+07  2.157359568653e+00
8.700000000000e-01 4.068659686898e-04 0.000000000000e+00 -2.626117894014e+07 1.045126603101e+06 5.576408337587e+07 -3.119084471387e+07 1.034329061151e-01 -5.444821664242e-01 1.990178689864e+00 5.626467593783e+05 8.461725154909e+07  2.157554659038e+00
8.800000000000e-01 4.070313739357e-04 0.000000000000e+00 -2.631663742080e+07 1.048334878265e+06 5.574098078981e+07 -3.123902919752e+07 1.033587558702e-01 -5.445182840244e-01 1.990315436479e+00 6.048952761692e+05 8.464572883702e+07  2.157735508979e+00
8.900000000000e-01 4.071925511830e-04 0.000000000000e+00 -2.637244894444e+07 1.051482501033e+06 5.571760370965e+07 -3.128751385631e+07 1.032859320244e-01 -5.445530732201e-01 1.990450473669e+00 6.474530303677e+05 8.467425459726e+07  2.157913271710e+00
9.000000000000e-01 4.073493596919e-04 0.000000000000e+00 -2.642858172199e+07 1.054553307647e+06 5.569383365594e+07 -3.133633274057e+07 1.032145842302e-01 -5.445863976249e-01 1.990583701070e+00 6.903602688724e+05 8.470271390765e+07  2.158087691851e+00
9.100000000000e-01 4.075021093544e-04 0.000000000000e+00 -2.648501798838e+07 1.057561833742e+06 5.566973836483e+07 -3.138545098757e+07 1.031445474830e-01 -5.446182755597e-01 1.990715270625e+00 7.335768703736e+05 8.473114790445e+07  2.158258987897e+00
9.200000000000e-01 4.076505663393e-04 0.000000000000e+00 -2.654174118678e+07 1.060423129364e+06 5.564508023902e+07 -3.143495712561e+07 1.030764143977e-01 -5.446490138874e-01 1.990844490265e+00 7.772060244561e+05 8.475935661921e+07  2.158426525256e+00
9.300000000000e-01 4.077950935500e-04 0.000000000000e+00 -2.659875899695e+07 1.063165479518e+06 5.561994603342e+07 -3.148481946258e+07 1.030098895820e-01 -5.446786204642e-01 1.990971634199e+00 8.212108087040e+05 8.478741398603e+07  2.158590678222e+00
9.400000000000e-01 4.079358606768e-04 0.000000000000e+00 -2.665605560903e+07 1.065791812217e+06 5.559435428632e+07 -3.153502528432e+07 1.029449174750e-01 -5.447071146221e-01 1.991096747386e+00 8.655755356759e+05 8.481532447185e+07  2.158751524678e+00
9.500000000000e-01 4.080730614397e-04 0.000000000000e+00 -2.671363010996e+07 1.068308465582e+06 5.556832758004e+07 -3.158556517070e+07 1.028813955703e-01 -5.447345438706e-01 1.991219905438e+00 9.102892335389e+05 8.484310529444e+07  2.158909210797e+00
9.600000000000e-01 4.082065670561e-04 0.000000000000e+00 -2.677163229169e+07 1.070678212544e+06 5.554162571524e+07 -3.163663940057e+07 1.028196545193e-01 -5.447609745033e-01 1.991340793992e+00 9.555486590069e+05 8.487069210716e+07  2.159063367465e+00
9.700000000000e-01 4.083356771586e-04 0.000000000000e+00 -2.682991076653e+07 1.072930258334e+06 5.551449990195e+07 -3.168805618170e+07 1.027595697395e-01 -5.447865912806e-01 1.991460049699e+00 1.001155682096e+06 8.489816372800e+07  2.159214757957e+00
9.800000000000e-01 4.084614554925e-04 0.000000000000e+00 -2.688848972971e+07 1.075076720327e+06 5.548694479606e+07 -3.173982713158e+07 1.027008493389e-01 -5.448112838408e-01 1.991577505126e+00 1.047124021742e+06 8.492553258161e+07  2.159363268901e+00
9.900000000000e-01 4.085839502743e-04 0.000000000000e+00 -2.694735030335e+07 1.077116148377e+06 5.545898321909e+07 -3.179193523402e+07 1.026434870914e-01 -5.448351201372e-01 1.991693226648e+00 1.093434106096e+06 8.495280352601e+07  2.159509013856e+00
1.000000000000e+00 4.087032673800e-04 0.000000000000e+00 -2.700647633899e+07 1.079069520039e+06 5.543065699051e+07 -3.184435695395e+07 1.025873485870e-01 -5.448580125904e-01 1.991807320706e+00 1.140058767477e+06 8.497999895744e+07  2.159652077681e+00
1.050000000000e+00 4.092021010862e-04 0.000000000000e+00 -2.729382533716e+07 1.080648732347e+06 5.526822314285e+07 -3.209730305446e+07 1.023409092638e-01 -5.449681798279e-01 1.992311271846e+00 1.374301749589e+06 8.508615405935e+07  2.160290228097e+00
1.100000000000e+00 4.095920190094e-04 0.000000000000e+00 -2.758169692035e+07 1.080530282751e+06 5.511366616763e+07 -3.235060607625e+07 1.021177934903e-01 -5.450456196883e-01 1.992781529301e+00 1.606212276323e+06 8.520055681771e+07  2.160863715558e+00
1.150000000000e+00 4.099619997097e-04 0.000000000000e+00 -2.789678112034e+07 1.083035736116e+06 5.495136230414e+07 -3.263342071624e+07 1.019175110628e-01 -5.451120283173e-01 1.993218706574e+00 1.859613177477e+06 8.533575639410e+07  2.161389708491e+00
1.200000000000e+00 4.104012952574e-04 0.000000000000e+00 -2.819875416198e+07 1.081300385994e+06 5.478595031604e+07 -3.291420067532e+07 1.017479841911e-01 -5.451891599315e-01 1.993616281866e+00 2.109001507088e+06 8.546060016224e+07  2.161875517692e+00
1.250000000000e+00 4.108060649344e-04 0.000000000000e+00 -2.850532676138e+07 1.077353367811e+06 5.461003256677e+07 -3.320291884149e+07 1.016014962194e-01 -5.452577781743e-01 1.993985744665e+00 2.366071012033e+06 8.558127395728e+07  2.162320099532e+00
1.300000000000e+00 4.111797106380e-04 0.000000000000e+00 -2.881316813108e+07 1.071817719416e+06 5.443043908663e+07 -3.349545806974e+07 1.014722071490e-01 -5.453201985842e-01 1.994332048102e+00 2.626062371398e+06 8.570086969156e+07  2.162732070589e+00
1.350000000000e+00 4.115268650514e-04 0.000000000000e+00 -2.912268154390e+07 1.064858625436e+06 5.424486954919e+07 -3.379251165569e+07 1.013591534792e-01 -5.453770146037e-01 1.994656719956e+00 2.890107883466e+06 8.581765529685e+07  2.163113648429e+00
1.400000000000e+00 4.118434369206e-04 0.000000000000e+00 -2.943660981892e+07 1.056345075441e+06 5.405085039434e+07 -3.409573273330e+07 1.012603706517e-01 -5.454279849508e-01 1.994960853464e+00 3.160497385961e+06 8.593130612815e+07  2.163466444012e+00