 TITLE = "Time curves in points"
 VARIABLES = "TIME"  "PRESSURE1"  "PRESSURE2"  "PRESSURE_W"  "SATURATION1" SATURATION2  "VELOCITY_X1"  "VELOCITY_Y1"  "VELOCITY_X2"  "VELOCITY_Y2"  p_(1st_Invariant)  q_(2nd_Invariant)   Effective_Strain
 ZONE T="POINT=POINT4"
0.000000000000e+00 8.400000000000e+07 1.000000000000e+05 -8.390000000000e+07 6.601393844892e-01 3.398606155108e-01 0.000000000000e+00 0.000000000000e+00 0.000000000000e+00 0.000000000000e+00 1.000000000000e+05 0.000000000000e+00  0.000000000000e+00
1.000000000000e-03 -9.008061603601e-314 1.000000000000e+05 1.000000000000e+05 1.000000000000e+00 0.000000000000e+00 2.245940050175e-06 3.928132542536e-04 2.869929712784e-13 -6.033750217782e-14 -2.133470497489e+05 8.670790047436e+04  2.847913970392e-01
2.000000000000e-03 -9.008061603601e-314 1.000000000000e+05 1.000000000000e+05 1.000000000000e+00 0.000000000000e+00 2.228286714009e-06 3.926518363027e-04 5.983051441935e-13 -1.180543213891e-13 -2.899686135060e+05 1.292123924470e+05  9.321421455877e-01
3.000000000000e-03 -9.008061603601e-314 1.000000000000e+05 1.000000000000e+05 1.000000000000e+00 0.000000000000e+00 2.210776779619e-06 3.924904951590e-04 9.064217524993e-13 -1.738558882760e-13 3.372197503272e+02 7.402658727951e+05  1.237597116887e+00
4.000000000000e-03 -9.008061603601e-314 1.000000000000e+05 1.000000000000e+05 1.000000000000e+00 0.000000000000e+00 2.193409065309e-06 3.923292317507e-04 1.211902897752e-12 -2.280996856717e-13 4.193854392666e+06 8.188252817201e+06  1.382799865536e+00
5.000000000000e-03 -9.008061603601e-314 1.000000000000e+05 1.000000000000e+05 1.000000000000e+00 0.000000000000e+00 2.176182796305e-06 3.921680469433e-04 1.512939754746e-12 -2.801299611177e-13 -3.882467277584e+06 5.531137808384e+06  1.440834038584e+00
6.000000000000e-03 -9.008061603601e-314 1.000000000000e+05 1.000000000000e+05 1.000000000000e+00 0.000000000000e+00 2.159096736843e-06 3.920069418230e-04 1.810265470889e-12 -3.306394776381e-13 -7.824958636103e+06 4.995790719655e+06  1.461067403232e+00
7.000000000000e-03 -9.008061603601e-314 1.000000000000e+05 1.000000000000e+05 1.000000000000e+00 0.000000000000e+00 2.142039905138e-06 3.918458202656e-04 2.104381338841e-12 -3.794644059819e-13 -1.226357654575e+07 6.037918475531e+06  1.470448215057e+00
8.000000000000e-03 -9.008061603601e-314 1.000000000000e+05 1.000000000000e+05 1.000000000000e+00 0.000000000000e+00 2.124233216145e-06 3.916839885890e-04 2.394590828775e-12 -4.262338896602e-13 -1.634315534404e+07 7.216747514641e+06  1.472426598390e+00
9.000000000000e-03 -9.008061603601e-314 1.000000000000e+05 1.000000000000e+05 1.000000000000e+00 0.000000000000e+00 2.106869585259e-06 3.915219730326e-04 2.680237597640e-12 -4.711694572586e-13 -1.489717757869e+07 7.167915661965e+06  1.472438753747e+00
1.000000000000e-02 -9.008061603601e-314 1.000000000000e+05 1.000000000000e+05 1.000000000000e+00 0.000000000000e+00 2.089685545553e-06 3.913600057928e-04 2.963395063895e-12 -5.142629213650e-13 -1.439858147287e+07 7.404803558610e+06  1.472767307679e+00
2.000000000000e-02 -9.008061603601e-314 1.000000000000e+05 1.000000000000e+05 1.000000000000e+00 0.000000000000e+00 1.927857918307e-06 3.897526579303e-04 5.585906828585e-12 -7.881167950574e-13 -2.664342114818e+07 1.694316157550e+07  1.485901786258e+00
3.000000000000e-02 -9.008061603601e-314 1.000000000000e+05 1.000000000000e+05 1.000000000000e+00 0.000000000000e+00 1.778617885156e-06 3.881460017023e-04 7.872596255124e-12 -9.105143543520e-13 -9.087218460189e+06 1.608248014020e+07  1.636476057020e+00
4.000000000000e-02 -9.008061603601e-314 1.000000000000e+05 1.000000000000e+05 1.000000000000e+00 0.000000000000e+00 1.638069102513e-06 3.865413872287e-04 1.003777454558e-11 -9.610982031333e-13 -1.383517930726e+07 1.140262247972e+07  1.565393168381e+00
5.000000000000e-02 -9.008061603601e-314 1.000000000000e+05 1.000000000000e+05 1.000000000000e+00 0.000000000000e+00 1.505920474239e-06 3.849286738517e-04 1.223201101511e-11 -1.027008987145e-12 -1.026700202397e+07 1.490625181211e+07  1.566776406216e+00
6.000000000000e-02 -9.008061603601e-314 1.000000000000e+05 1.000000000000e+05 1.000000000000e+00 0.000000000000e+00 1.384179133729e-06 3.833083524124e-04 1.431842377324e-11 -1.047936505896e-12 -1.841344900295e+07 1.441594338564e+07  1.638652890785e+00
7.000000000000e-02 -9.008061603601e-314 1.000000000000e+05 1.000000000000e+05 1.000000000000e+00 0.000000000000e+00 1.269526674451e-06 3.816815011684e-04 1.629000470635e-11 -1.039976565323e-12 -3.793727347947e+06 1.456504429210e+07  1.581057088524e+00
8.000000000000e-02 -9.008061603601e-314 1.000000000000e+05 1.000000000000e+05 1.000000000000e+00 0.000000000000e+00 1.162094270833e-06 3.800599209772e-04 1.812714564115e-11 -9.946091477100e-13 -1.908355177661e+07 1.614613906414e+07  1.705813928838e+00
9.000000000000e-02 -9.008061603601e-314 1.000000000000e+05 1.000000000000e+05 1.000000000000e+00 0.000000000000e+00 1.062770780885e-06 3.784592470892e-04 1.987828016928e-11 -9.245261422226e-13 -6.582456366458e+06 1.716453562398e+07  1.692755949772e+00
1.000000000000e-01 -9.008061603601e-314 1.000000000000e+05 1.000000000000e+05 1.000000000000e+00 0.000000000000e+00 9.699536416792e-07 3.768598769476e-04 2.152316843838e-11 -8.460982829903e-13 -1.078640143355e+07 1.954114953724e+07  1.709023920953e+00
1.100000000000e-01 -9.008061603601e-314 1.000000000000e+05 1.000000000000e+05 1.000000000000e+00 0.000000000000e+00 8.819750345157e-07 3.752670965681e-04 2.304784344116e-11 -7.382735791225e-13 -2.863270959188e+06 2.008459261083e+07  1.707084776303e+00
1.200000000000e-01 -9.008061603601e-314 1.000000000000e+05 1.000000000000e+05 1.000000000000e+00 0.000000000000e+00 8.011430945772e-07 3.736809195678e-04 2.448230620247e-11 -6.345170494997e-13 -4.696423814911e+06 2.104951951249e+07  1.706405775431e+00
1.300000000000e-01 -9.008061603601e-314 1.000000000000e+05 1.000000000000e+05 1.000000000000e+00 0.000000000000e+00 7.269258776435e-07 3.721052282155e-04 2.583547267955e-11 -5.337912603103e-13 -1.734204388585e+06 2.115762820476e+07  1.707982960637e+00
1.400000000000e-01 -9.008061603601e-314 1.000000000000e+05 1.000000000000e+05 1.000000000000e+00 0.000000000000e+00 6.552752903206e-07 3.705337716147e-04 2.705923925855e-11 -3.946935091503e-13 -1.587874746163e+06 2.194077812679e+07  1.709214194106e+00
1.500000000000e-01 -9.008061603601e-314 1.000000000000e+05 1.000000000000e+05 1.000000000000e+00 0.000000000000e+00 5.896038523278e-07 3.689457726045e-04 2.819735280828e-11 -2.698971409352e-13 -1.203206431649e+06 2.201757412571e+07  1.711421301240e+00
1.600000000000e-01 -9.008061603601e-314 1.000000000000e+05 1.000000000000e+05 1.000000000000e+00 0.000000000000e+00 5.294360672020e-07 3.673682328725e-04 2.924718788273e-11 -1.527044185683e-13 -1.042046023505e+06 2.228911169095e+07  1.712951017218e+00
1.700000000000e-01 -9.008061603601e-314 1.000000000000e+05 1.000000000000e+05 1.000000000000e+00 0.000000000000e+00 4.728531823011e-07 3.658018507499e-04 3.020088954394e-11 -2.856381496439e-14 -8.930516193162e+05 2.242667663481e+07  1.714706906421e+00
1.800000000000e-01 -9.008061603601e-314 1.000000000000e+05 1.000000000000e+05 1.000000000000e+00 0.000000000000e+00 4.196068348106e-07 3.642363486568e-04 3.106310671589e-11 5.559017956057e-14 -7.296926169754e+05 2.257031345020e+07  1.716556524868e+00
1.900000000000e-01 -9.008061603601e-314 1.000000000000e+05 1.000000000000e+05 1.000000000000e+00 0.000000000000e+00 3.709430060402e-07 3.626899768763e-04 3.183468191754e-11 1.319303523315e-13 -6.277670408188e+05 2.265244954854e+07  1.718487105706e+00
2.000000000000e-01 -9.008061603601e-314 1.000000000000e+05 1.000000000000e+05 1.000000000000e+00 0.000000000000e+00 3.265044039015e-07 3.611647171779e-04 3.254862250545e-11 1.990434899665e-13 -5.106895685820e+05 2.271996036749e+07  1.720749198444e+00
2.100000000000e-01 -9.008061603601e-314 1.000000000000e+05 1.000000000000e+05 1.000000000000e+00 0.000000000000e+00 2.840276251460e-07 3.596392229990e-04 3.315042872173e-11 6.347198096537e-13 -4.172544699650e+05 2.277839633987e+07  1.723096744487e+00
2.200000000000e-01 -9.008061603601e-314 1.000000000000e+05 1.000000000000e+05 1.000000000000e+00 0.000000000000e+00 2.447748770675e-07 3.581261605757e-04 3.365814960260e-11 1.473548364094e-12 -3.217340934040e+05 2.282983571130e+07  1.725633537610e+00
2.300000000000e-01 -9.008061603601e-314 1.000000000000e+05 1.000000000000e+05 1.000000000000e+00 0.000000000000e+00 2.090575405128e-07 3.566285136894e-04 3.412013976434e-11 2.356925111958e-12 -2.616589515860e+05 2.286901076194e+07  1.728196509066e+00
2.400000000000e-01 -9.008061603601e-314 1.000000000000e+05 1.000000000000e+05 1.000000000000e+00 0.000000000000e+00 1.766072864236e-07 3.551408501890e-04 3.450575508116e-11 3.261859565648e-12 -2.022448455616e+05 2.290868943696e+07  1.730610243894e+00
2.500000000000e-01 -9.008061603601e-314 1.000000000000e+05 1.000000000000e+05 1.000000000000e+00 0.000000000000e+00 1.454290358432e-07 3.536573049561e-04 3.478512734756e-11 4.205089578297e-12 -1.550828149202e+05 2.294335048549e+07  1.732906747834e+00
2.600000000000e-01 -9.008061603601e-314 1.000000000000e+05 1.000000000000e+05 1.000000000000e+00 0.000000000000e+00 1.169283230699e-07 3.521870534311e-04 3.498637580637e-11 5.186245801819e-12 -1.096002241828e+05 2.298116565682e+07  1.734838325052e+00
2.700000000000e-01 -9.008061603601e-314 1.000000000000e+05 1.000000000000e+05 1.000000000000e+00 0.000000000000e+00 9.146722269257e-08 3.507272174910e-04 3.513939608350e-11 6.195118237780e-12 -7.998962504405e+04 2.302035819199e+07  1.736731461109e+00
2.800000000000e-01 -9.008061603601e-314 1.000000000000e+05 1.000000000000e+05 1.000000000000e+00 0.000000000000e+00 6.850124246670e-08 3.492525079019e-04 3.523591878420e-11 7.153962272185e-12 -6.213571663484e+04 2.304763660934e+07  1.738515175781e+00
2.900000000000e-01 -9.008061603601e-314 1.000000000000e+05 1.000000000000e+05 1.000000000000e+00 0.000000000000e+00 4.672270374028e-08 3.477874294943e-04 3.523336336837e-11 8.147127649988e-12 -5.025285102508e+04 2.306995589792e+07  1.740413848005e+00
3.000000000000e-01 -9.008061603601e-314 1.000000000000e+05 1.000000000000e+05 1.000000000000e+00 0.000000000000e+00 2.655716915994e-08 3.463349187338e-04 3.515577412891e-11 9.169066062396e-12 -4.738027002514e+04 2.307998593895e+07  1.742143881346e+00
3.100000000000e-01 -9.008061603601e-314 1.000000000000e+05 1.000000000000e+05 1.000000000000e+00 0.000000000000e+00 8.481201774893e-09 3.448946379237e-04 3.502905055206e-11 1.019581001808e-11 -3.822243601418e+04 2.309285952110e+07  1.744358752778e+00
3.200000000000e-01 -9.008061603601e-314 1.000000000000e+05 1.000000000000e+05 1.000000000000e+00 0.000000000000e+00 -7.740954692318e-09 3.434706651288e-04 3.484730383149e-11 1.122195731309e-11 -2.787611222898e+04 2.309559537368e+07  1.746232190215e+00
3.300000000000e-01 -9.008061603601e-314 1.000000000000e+05 1.000000000000e+05 1.000000000000e+00 0.000000000000e+00 -2.240360954588e-08 3.420603849274e-04 3.461034355609e-11 1.226779876559e-11 -1.332276750480e+04 2.308663707492e+07  1.747740968260e+00
3.400000000000e-01 -9.008061603601e-314 1.000000000000e+05 1.000000000000e+05 1.000000000000e+00 0.000000000000e+00 -3.654113464626e-08 3.406582623232e-04 3.426062236680e-11 1.334097175448e-11 9.583361975505e+03 2.307801898121e+07  1.749268980143e+00
3.500000000000e-01 -9.008061603601e-314 1.000000000000e+05 1.000000000000e+05 1.000000000000e+00 0.000000000000e+00 -4.907045620260e-08 3.392677341157e-04 3.385884989351e-11 1.440838825433e-11 2.851793220018e+04 2.306195240588e+07  1.750395452907e+00
3.600000000000e-01 -9.008061603601e-314 1.000000000000e+05 1.000000000000e+05 1.000000000000e+00 0.000000000000e+00 -6.013380465061e-08 3.378879656417e-04 3.341779490614e-11 1.546634292089e-11 4.064106884162e+04 2.304840687051e+07  1.751513663869e+00
3.700000000000e-01 -9.008061603601e-314 1.000000000000e+05 1.000000000000e+05 1.000000000000e+00 0.000000000000e+00 -6.985188523882e-08 3.365221851431e-04 3.293362364470e-11 1.653206395255e-11 7.454571699870e+04 2.302446207749e+07  1.752628836104e+00
3.800000000000e-01 -9.008061603601e-314 1.000000000000e+05 1.000000000000e+05 1.000000000000e+00 0.000000000000e+00 -7.882377543541e-08 3.351663247215e-04 3.236481697528e-11 1.761248432148e-11 9.754706805001e+04 2.300319158572e+07  1.753584857058e+00
3.900000000000e-01 -9.008061603601e-314 1.000000000000e+05 1.000000000000e+05 1.000000000000e+00 0.000000000000e+00 -8.722656600039e-08 3.338193219801e-04 3.171403460742e-11 1.870162394842e-11 1.285304743837e+05 2.298557936293e+07  1.754715355160e+00
4.000000000000e-01 -9.008061603601e-314 1.000000000000e+05 1.000000000000e+05 1.000000000000e+00 0.000000000000e+00 -9.450843991339e-08 3.324810828238e-04 3.102542847734e-11 1.976248169494e-11 1.660927258729e+05 2.294672149641e+07  1.755383532362e+00
4.100000000000e-01 -9.008061603601e-314 1.000000000000e+05 1.000000000000e+05 1.000000000000e+00 0.000000000000e+00 -1.007636676650e-07 3.311560947746e-04 3.029595939060e-11 2.082503562653e-11 2.008088560367e+05 2.291508467284e+07  1.756199804488e+00
4.200000000000e-01 -9.008061603601e-314 1.000000000000e+05 1.000000000000e+05 1.000000000000e+00 0.000000000000e+00 -1.060488970440e-07 3.298440491770e-04 2.952037406934e-11 2.188918460397e-11 2.099905429501e+05 2.288294068441e+07  1.756930197212e+00
4.300000000000e-01 -9.008061603601e-314 1.000000000000e+05 1.000000000000e+05 1.000000000000e+00 0.000000000000e+00 -1.104872418923e-07 3.285391825956e-04 2.870418590245e-11 2.296093416100e-11 2.268526089111e+05 2.285704756084e+07  1.757781013482e+00
4.400000000000e-01 -9.008061603601e-314 1.000000000000e+05 1.000000000000e+05 1.000000000000e+00 0.000000000000e+00 -1.146747001821e-07 3.272404785736e-04 2.779657029965e-11 2.402192029126e-11 2.476145071247e+05 2.282745202441e+07  1.758410989261e+00
4.500000000000e-01 -9.008061603601e-314 1.000000000000e+05 1.000000000000e+05 1.000000000000e+00 0.000000000000e+00 -1.181007790721e-07 3.259518576508e-04 2.685218776677e-11 2.506095252927e-11 2.592830379731e+05 2.279305361044e+07  1.758967441821e+00
4.600000000000e-01 -9.008061603601e-314 1.000000000000e+05 1.000000000000e+05 1.000000000000e+00 0.000000000000e+00 -1.208618420905e-07 3.246763086780e-04 2.586066657244e-11 2.609667218746e-11 2.709134166260e+05 2.275991550741e+07  1.759489359618e+00
4.700000000000e-01 -9.008061603601e-314 1.000000000000e+05 1.000000000000e+05 1.000000000000e+00 0.000000000000e+00 -1.229637777447e-07 3.234157846976e-04 2.485659836743e-11 2.712859611132e-11 2.890827837756e+05 2.272886387787e+07  1.759994358846e+00
4.800000000000e-01 -9.008061603601e-314 1.000000000000e+05 1.000000000000e+05 1.000000000000e+00 0.000000000000e+00 -1.244746376460e-07 3.221516726466e-04 2.381915372861e-11 2.809418583131e-11 2.927722531865e+05 2.269469746973e+07  1.760402288178e+00
4.900000000000e-01 -9.008061603601e-314 1.000000000000e+05 1.000000000000e+05 1.000000000000e+00 0.000000000000e+00 -1.261021325543e-07 3.208868003688e-04 2.298831490904e-11 2.896605350036e-11 3.328002600401e+05 2.269997257515e+07  1.760807575705e+00
5.000000000000e-01 -9.008061603601e-314 1.000000000000e+05 1.000000000000e+05 1.000000000000e+00 0.000000000000e+00 -1.272501007375e-07 3.196316904930e-04 2.306941078933e-11 2.968730060081e-11 3.463608454989e+05 2.267274378289e+07  1.761044772999e+00
5.100000000000e-01 -9.008061603601e-314 1.000000000000e+05 1.000000000000e+05 1.000000000000e+00 0.000000000000e+00 -1.279250043998e-07 3.183887852850e-04 2.314663278932e-11 3.040019304964e-11 3.704682053685e+05 2.265866366217e+07  1.761322563097e+00
5.200000000000e-01 -9.008061603601e-314 1.000000000000e+05 1.000000000000e+05 1.000000000000e+00 0.000000000000e+00 -1.281774968370e-07 3.171578807952e-04 2.323672818513e-11 3.110603878060e-11 4.124365413355e+05 2.266198888623e+07  1.761581091964e+00
5.300000000000e-01 -9.008061603601e-314 1.000000000000e+05 1.000000000000e+05 1.000000000000e+00 0.000000000000e+00 -1.280475305812e-07 3.159388034214e-04 2.332775144303e-11 3.180239070928e-11 4.265325507775e+05 2.263510715338e+07  1.761773297545e+00
5.400000000000e-01 -9.008061603601e-314 1.000000000000e+05 1.000000000000e+05 1.000000000000e+00 0.000000000000e+00 -1.276036226500e-07 3.147305421291e-04 2.342178918843e-11 3.249070175008e-11 4.463092706000e+05 2.261432659589e+07  1.761954410554e+00
5.500000000000e-01 -9.008061603601e-314 1.000000000000e+05 1.000000000000e+05 1.000000000000e+00 0.000000000000e+00 -1.272758615470e-07 3.135251490559e-04 2.346308836685e-11 3.314893410803e-11 4.844029487690e+05 2.260333853636e+07  1.762190962804e+00
5.600000000000e-01 -9.008061603601e-314 1.000000000000e+05 1.000000000000e+05 1.000000000000e+00 0.000000000000e+00 -1.264330981822e-07 3.123278291412e-04 2.356529865191e-11 3.379602646495e-11 5.258456449372e+05 2.259800200282e+07  1.762293300564e+00
5.700000000000e-01 -9.008061603601e-314 1.000000000000e+05 1.000000000000e+05 1.000000000000e+00 0.000000000000e+00 -1.253195223749e-07 3.111416940857e-04 2.369297866572e-11 3.446534940141e-11 5.649745163400e+05 2.259197584524e+07  1.762378508391e+00
5.800000000000e-01 -9.008061603601e-314 1.000000000000e+05 1.000000000000e+05 1.000000000000e+00 0.000000000000e+00 -1.239705672565e-07 3.099665886997e-04 2.378857320625e-11 3.515070497761e-11 6.100706457243e+05 2.259090330287e+07  1.762562756284e+00
5.900000000000e-01 -9.008061603601e-314 1.000000000000e+05 1.000000000000e+05 1.000000000000e+00 0.000000000000e+00 -1.224126406727e-07 3.088023497835e-04 2.388278573829e-11 3.582270698063e-11 6.665021787506e+05 2.260244979295e+07  1.762617642000e+00
6.000000000000e-01 -9.008061603601e-314 1.000000000000e+05 1.000000000000e+05 1.000000000000e+00 0.000000000000e+00 -1.206740878311e-07 3.076488187285e-04 2.398692824423e-11 3.648030449466e-11 7.044318077670e+05 2.259653199584e+07  1.762724913768e+00
6.100000000000e-01 -9.008061603601e-314 1.000000000000e+05 1.000000000000e+05 1.000000000000e+00 0.000000000000e+00 -1.190408342404e-07 3.064990172067e-04 2.404703484742e-11 3.710853810938e-11 7.601311383773e+05 2.260536430126e+07  1.762852134003e+00
6.200000000000e-01 -9.008061603601e-314 1.000000000000e+05 1.000000000000e+05 1.000000000000e+00 0.000000000000e+00 -1.173353704243e-07 3.053578506639e-04 2.411769673284e-11 3.829439529853e-11 8.251093169751e+05 2.262484400558e+07  1.762882286321e+00
6.300000000000e-01 -9.008061603601e-314 1.000000000000e+05 1.000000000000e+05 1.000000000000e+00 0.000000000000e+00 -1.154866271256e-07 3.042270354120e-04 2.419240054663e-11 3.973580999067e-11 8.704658052880e+05 2.262322732147e+07  1.762944662741e+00
6.400000000000e-01 -9.008061603601e-314 1.000000000000e+05 1.000000000000e+05 1.000000000000e+00 0.000000000000e+00 -1.135053443176e-07 3.031077188498e-04 2.426289431864e-11 4.117959381244e-11 9.358748223273e+05 2.263896790867e+07  1.763018944325e+00
6.500000000000e-01 -9.008061603601e-314 1.000000000000e+05 1.000000000000e+05 1.000000000000e+00 0.000000000000e+00 -1.114144176237e-07 3.019984262704e-04 2.434157241388e-11 4.262458561098e-11 1.009647043420e+06 2.266598154518e+07  1.763009754524e+00
6.600000000000e-01 -9.008061603601e-314 1.000000000000e+05 1.000000000000e+05 1.000000000000e+00 0.000000000000e+00 -1.092334597936e-07 3.008990226039e-04 2.442905102596e-11 4.406579572378e-11 1.067200771046e+06 2.266932405790e+07  1.763022640193e+00
6.700000000000e-01 -9.008061603601e-314 1.000000000000e+05 1.000000000000e+05 1.000000000000e+00 0.000000000000e+00 -1.069348664371e-07 2.998087407977e-04 2.453211333732e-11 4.550980960984e-11 1.136686091398e+06 2.268146211910e+07  1.762984404689e+00
6.800000000000e-01 -9.008061603601e-314 1.000000000000e+05 1.000000000000e+05 1.000000000000e+00 0.000000000000e+00 -1.047005551515e-07 2.987182742239e-04 2.461441035282e-11 4.694025778384e-11 1.212421966344e+06 2.270376288388e+07  1.762956151735e+00
6.900000000000e-01 -9.008061603601e-314 1.000000000000e+05 1.000000000000e+05 1.000000000000e+00 0.000000000000e+00 -1.024140971700e-07 2.976369789904e-04 2.470261698446e-11 4.836677439471e-11 1.290868446563e+06 2.272515796647e+07  1.762903830376e+00
7.000000000000e-01 -9.008061603601e-314 1.000000000000e+05 1.000000000000e+05 1.000000000000e+00 0.000000000000e+00 -1.000788444239e-07 2.965650637178e-04 2.479350963304e-11 4.978925922319e-11 1.377761304011e+06 2.276809669464e+07  1.762849423336e+00
7.100000000000e-01 -9.008061603601e-314 1.000000000000e+05 1.000000000000e+05 1.000000000000e+00 0.000000000000e+00 -9.771107016124e-08 2.955024124992e-04 2.490746317977e-11 5.120862139006e-11 1.451354556078e+06 2.278929674354e+07  1.762881933740e+00
7.200000000000e-01 -9.008061603601e-314 1.000000000000e+05 1.000000000000e+05 1.000000000000e+00 0.000000000000e+00 -9.531578320999e-08 2.944489091974e-04 2.502215588538e-11 5.262295678764e-11 1.536712210154e+06 2.281685494937e+07  1.762806056941e+00
7.300000000000e-01 -9.008061603601e-314 1.000000000000e+05 1.000000000000e+05 1.000000000000e+00 0.000000000000e+00 -9.290189630716e-08 2.934044426598e-04 2.513789705243e-11 5.403177771562e-11 1.636225080239e+06 2.287180752331e+07  1.762724466389e+00
7.400000000000e-01 -9.008061603601e-314 1.000000000000e+05 1.000000000000e+05 1.000000000000e+00 0.000000000000e+00 -9.047802306281e-08 2.923689007431e-04 2.525125101047e-11 5.543494115626e-11 1.717603425107e+06 2.289956750538e+07  1.762670613108e+00
7.500000000000e-01 -9.008061603601e-314 1.000000000000e+05 1.000000000000e+05 1.000000000000e+00 0.000000000000e+00 -8.814385302387e-08 2.913388742421e-04 2.535044576282e-11 5.682902144564e-11 1.824524014237e+06 2.296398257599e+07  1.762572926235e+00
7.600000000000e-01 -9.008061603601e-314 1.000000000000e+05 1.000000000000e+05 1.000000000000e+00 0.000000000000e+00 -8.588351504999e-08 2.903141819431e-04 2.544376513644e-11 5.820552042672e-11 1.911796063157e+06 2.300300351057e+07  1.762505439816e+00
7.700000000000e-01 -9.008061603601e-314 1.000000000000e+05 1.000000000000e+05 1.000000000000e+00 0.000000000000e+00 -8.361795437440e-08 2.892981000579e-04 2.553501264020e-11 5.957456839938e-11 2.008344295868e+06 2.304385963139e+07  1.762424297805e+00
7.800000000000e-01 -9.008061603601e-314 1.000000000000e+05 1.000000000000e+05 1.000000000000e+00 0.000000000000e+00 -8.135597883552e-08 2.882905229983e-04 2.563698647148e-11 6.093605590113e-11 2.126127449978e+06 2.312292387551e+07  1.762300908311e+00
7.900000000000e-01 -9.008061603601e-314 1.000000000000e+05 1.000000000000e+05 1.000000000000e+00 0.000000000000e+00 -7.904055026719e-08 2.872893731773e-04 2.577797971782e-11 6.229127818438e-11 2.216220479674e+06 2.316095824471e+07  1.762218356909e+00
8.000000000000e-01 -9.008061603601e-314 1.000000000000e+05 1.000000000000e+05 1.000000000000e+00 0.000000000000e+00 -7.671504597090e-08 2.862954197717e-04 2.569565806842e-11 6.362587534498e-11 2.322534308243e+06 2.321543344314e+07  1.762094152490e+00
8.100000000000e-01 -9.008061603601e-314 1.000000000000e+05 1.000000000000e+05 1.000000000000e+00 0.000000000000e+00 -7.441385159019e-08 2.853096676394e-04 2.512209582331e-11 6.493143641158e-11 2.430802354673e+06 2.327268602834e+07  1.761955990530e+00
8.200000000000e-01 -9.008061603601e-314 1.000000000000e+05 1.000000000000e+05 1.000000000000e+00 0.000000000000e+00 -7.214535086487e-08 2.843320239902e-04 2.454456842325e-11 6.622863046056e-11 2.542597113876e+06 2.333316345093e+07  1.761830163951e+00
8.300000000000e-01 -9.008061603601e-314 1.000000000000e+05 1.000000000000e+05 1.000000000000e+00 0.000000000000e+00 -6.996393033791e-08 2.833601837596e-04 2.393750657289e-11 6.752143614320e-11 2.655058523782e+06 2.339390588445e+07  1.761682151662e+00
8.400000000000e-01 -9.008061603601e-314 1.000000000000e+05 1.000000000000e+05 1.000000000000e+00 0.000000000000e+00 -6.785877807701e-08 2.823930137888e-04 2.328772024571e-11 6.879917395265e-11 2.769942654082e+06 2.345878925995e+07  1.761527699468e+00
8.500000000000e-01 -9.008061603601e-314 1.000000000000e+05 1.000000000000e+05 1.000000000000e+00 0.000000000000e+00 -6.578158717120e-08 2.814328255380e-04 2.262788073767e-11 7.006563189451e-11 2.886959483876e+06 2.352808242916e+07  1.761373178071e+00
8.600000000000e-01 -9.008061603601e-314 1.000000000000e+05 1.000000000000e+05 1.000000000000e+00 0.000000000000e+00 -6.373351725938e-08 2.804803735716e-04 2.195388881673e-11 7.132259217956e-11 3.007821681450e+06 2.360884332164e+07  1.761224930224e+00
8.700000000000e-01 -9.008061603601e-314 1.000000000000e+05 1.000000000000e+05 1.000000000000e+00 0.000000000000e+00 -6.171872117886e-08 2.795355661683e-04 2.128298095631e-11 7.257175168105e-11 3.131297847882e+06 2.369907793102e+07  1.761080632424e+00
8.800000000000e-01 -9.008061603601e-314 1.000000000000e+05 1.000000000000e+05 1.000000000000e+00 0.000000000000e+00 -5.973830016587e-08 2.785948904890e-04 2.059694115292e-11 7.378330811057e-11 3.245718005624e+06 2.377339455138e+07  1.760950292951e+00
8.900000000000e-01 -9.008061603601e-314 1.000000000000e+05 1.000000000000e+05 1.000000000000e+00 0.000000000000e+00 -5.779531420547e-08 2.776523962326e-04 1.990405856768e-11 7.491026023637e-11 3.369835047570e+06 2.386825658472e+07  1.760811084772e+00
9.000000000000e-01 -9.008061603601e-314 1.000000000000e+05 1.000000000000e+05 1.000000000000e+00 0.000000000000e+00 -5.588009007934e-08 2.767171321025e-04 1.919986407510e-11 7.602672475432e-11 3.491219877763e+06 2.395638678228e+07  1.760679128588e+00
9.100000000000e-01 -9.008061603601e-314 1.000000000000e+05 1.000000000000e+05 1.000000000000e+00 0.000000000000e+00 -5.396483591438e-08 2.757869900437e-04 1.851694907704e-11 7.713368945083e-11 3.614884769983e+06 2.404918422915e+07  1.760548012938e+00
9.200000000000e-01 -9.008061603601e-314 1.000000000000e+05 1.000000000000e+05 1.000000000000e+00 0.000000000000e+00 -5.213963702465e-08 2.748616944015e-04 1.779514174603e-11 7.823062761004e-11 3.739048748366e+06 2.414407864512e+07  1.760425915489e+00
9.300000000000e-01 -9.008061603601e-314 1.000000000000e+05 1.000000000000e+05 1.000000000000e+00 0.000000000000e+00 -5.037002986743e-08 2.739429108756e-04 1.705004925873e-11 7.931573562313e-11 3.878319440552e+06 2.426802346998e+07  1.760307391231e+00
9.400000000000e-01 -9.008061603601e-314 1.000000000000e+05 1.000000000000e+05 1.000000000000e+00 0.000000000000e+00 -4.864057395952e-08 2.730303589486e-04 1.630126374387e-11 8.038208137019e-11 3.993003576284e+06 2.437697944347e+07  1.760238181356e+00
9.500000000000e-01 -9.008061603601e-314 1.000000000000e+05 1.000000000000e+05 1.000000000000e+00 0.000000000000e+00 -4.695311083876e-08 2.721248434534e-04 1.555406496454e-11 8.143513690772e-11 4.119831540921e+06 2.449090019962e+07  1.760154720880e+00
9.600000000000e-01 -9.008061603601e-314 1.000000000000e+05 1.000000000000e+05 1.000000000000e+00 0.000000000000e+00 -4.530094925235e-08 2.712265121419e-04 1.478713553487e-11 8.247523067905e-11 4.252175260502e+06 2.460995936906e+07  1.760096323619e+00
9.700000000000e-01 -9.008061603601e-314 1.000000000000e+05 1.000000000000e+05 1.000000000000e+00 0.000000000000e+00 -4.368343245667e-08 2.703352787790e-04 1.400112808133e-11 8.350481644050e-11 4.366936859199e+06 2.471840573987e+07  1.760066715443e+00
9.800000000000e-01 -9.008061603601e-314 1.000000000000e+05 1.000000000000e+05 1.000000000000e+00 0.000000000000e+00 -4.210688691467e-08 2.694510654033e-04 1.321966546613e-11 8.452068376336e-11 4.499729781590e+06 2.484086395316e+07  1.760027081045e+00
9.900000000000e-01 -9.008061603601e-314 1.000000000000e+05 1.000000000000e+05 1.000000000000e+00 0.000000000000e+00 -4.057012625624e-08 2.685737997219e-04 1.242416407835e-11 8.552459330674e-11 4.628797797162e+06 2.496475200635e+07  1.760022648978e+00
1.000000000000e+00 -9.008061603601e-314 1.000000000000e+05 1.000000000000e+05 1.000000000000e+00 0.000000000000e+00 -3.907380257894e-08 2.677034011746e-04 1.162839635286e-11 8.651473863089e-11 4.733402179993e+06 2.507744226700e+07  1.760033246866e+00
1.050000000000e+00 -9.008061603601e-314 1.000000000000e+05 1.000000000000e+05 1.000000000000e+00 0.000000000000e+00 -3.272145071633e-08 2.634949772659e-04 7.652694400093e-12 9.147716388956e-11 6.340003036279e+06 2.558516789744e+07  1.760918745688e+00
1.100000000000e+00 -9.008061603601e-314 1.000000000000e+05 1.000000000000e+05 1.000000000000e+00 0.000000000000e+00 -2.708137407391e-08 2.594253324828e-04 3.491028877882e-12 9.603700502360e-11 6.747294674277e+06 2.503361386593e+07  1.758124888957e+00
1.150000000000e+00 -9.008061603601e-314 1.000000000000e+05 1.000000000000e+05 1.000000000000e+00 0.000000000000e+00 -2.209697392344e-08 2.554813190697e-04 -9.304758118213e-13 1.017330503711e-10 4.706774126165e+06 2.841817056361e+07  1.756703935218e+00
1.200000000000e+00 -9.008061603601e-314 1.000000000000e+05 1.000000000000e+05 1.000000000000e+00 0.000000000000e+00 -1.767739491105e-08 2.516605066661e-04 -5.484239777634e-12 1.091286135117e-10 6.292198053454e+06 2.722529981038e+07  1.758352829235e+00
1.250000000000e+00 -9.008061603601e-314 1.000000000000e+05 1.000000000000e+05 1.000000000000e+00 0.000000000000e+00 -1.369970980194e-08 2.479660880597e-04 -1.027730062383e-11 1.162708738343e-10 6.732693951376e+06 2.791581999813e+07  1.759039604687e+00
1.300000000000e+00 -9.008061603601e-314 1.000000000000e+05 1.000000000000e+05 1.000000000000e+00 0.000000000000e+00 -1.009724779249e-08 2.443800898089e-04 -1.063009396062e-11 1.234813067885e-10 7.144141388822e+06 2.854703087966e+07  1.759506031624e+00
1.350000000000e+00 -9.008061603601e-314 1.000000000000e+05 1.000000000000e+05 1.000000000000e+00 0.000000000000e+00 -6.843957178227e-09 2.409106010841e-04 -1.040854621124e-11 1.305677625979e-10 7.455850919458e+06 2.912572623071e+07  1.759764773160e+00
1.400000000000e+00 -9.008061603601e-314 1.000000000000e+05 1.000000000000e+05 1.000000000000e+00 0.000000000000e+00 -3.768791033686e-09 2.375454656307e-04 -1.021434673307e-11 1.374745264701e-10 7.682729291637e+06 2.960039410523e+07  1.759969487118e+00