 TITLE = "Profiles along polylines"
 VARIABLES = "DIST" "DISPLACEMENT_X1" "DISPLACEMENT_Y1" "STRESS_XX" "STRESS_XY" "STRESS_YY" "STRESS_ZZ" "STRAIN_XX" "STRAIN_XY" "STRAIN_YY"  p_(1st_Invariant)  q_(2nd_Invariant)   Effective_Strain
 ZONE T="TIME=0.000000000000e+00"
0.000000000000e+00 0.000000000000e+00 0.000000000000e+00 -1.000000000000e+05 0.000000000000e+00 -1.000000000000e+05 -1.000000000000e+05 0.000000000000e+00 0.000000000000e+00 0.000000000000e+00 1.000000000000e+05 0.000000000000e+00  0.000000000000e+00
5.000000000000e-03 0.000000000000e+00 0.000000000000e+00 -1.000000000000e+05 0.000000000000e+00 -1.000000000000e+05 -1.000000000000e+05 0.000000000000e+00 0.000000000000e+00 0.000000000000e+00 1.000000000000e+05 0.000000000000e+00  0.000000000000e+00
1.000000000000e-02 0.000000000000e+00 0.000000000000e+00 -1.000000000000e+05 0.000000000000e+00 -1.000000000000e+05 -1.000000000000e+05 0.000000000000e+00 0.000000000000e+00 0.000000000000e+00 1.000000000000e+05 0.000000000000e+00  0.000000000000e+00
1.500000000000e-02 0.000000000000e+00 0.000000000000e+00 -1.000000000000e+05 0.000000000000e+00 -1.000000000000e+05 -1.000000000000e+05 0.000000000000e+00 0.000000000000e+00 0.000000000000e+00 1.000000000000e+05 0.000000000000e+00  0.000000000000e+00
2.000000000000e-02 0.000000000000e+00 0.000000000000e+00 -1.000000000000e+05 0.000000000000e+00 -1.000000000000e+05 -1.000000000000e+05 0.000000000000e+00 0.000000000000e+00 0.000000000000e+00 1.000000000000e+05 0.000000000000e+00  0.000000000000e+00
2.500000000000e-02 0.000000000000e+00 0.000000000000e+00 -1.000000000000e+05 0.000000000000e+00 -1.000000000000e+05 -1.000000000000e+05 0.000000000000e+00 0.000000000000e+00 0.000000000000e+00 1.000000000000e+05 0.000000000000e+00  0.000000000000e+00
3.000000000000e-02 0.000000000000e+00 0.000000000000e+00 -1.000000000000e+05 0.000000000000e+00 -1.000000000000e+05 -1.000000000000e+05 0.000000000000e+00 0.000000000000e+00 0.000000000000e+00 1.000000000000e+05 0.000000000000e+00  0.000000000000e+00
3.500000000000e-02 0.000000000000e+00 0.000000000000e+00 -1.000000000000e+05 0.000000000000e+00 -1.000000000000e+05 -1.000000000000e+05 0.000000000000e+00 0.000000000000e+00 0.000000000000e+00 1.000000000000e+05 0.000000000000e+00  0.000000000000e+00
4.000000000000e-02 0.000000000000e+00 0.000000000000e+00 -1.000000000000e+05 0.000000000000e+00 -1.000000000000e+05 -1.000000000000e+05 0.000000000000e+00 0.000000000000e+00 0.000000000000e+00 1.000000000000e+05 0.000000000000e+00  0.000000000000e+00
4.500000000000e-02 0.000000000000e+00 0.000000000000e+00 -1.000000000000e+05 0.000000000000e+00 -1.000000000000e+05 -1.000000000000e+05 0.000000000000e+00 0.000000000000e+00 0.000000000000e+00 1.000000000000e+05 0.000000000000e+00  0.000000000000e+00
5.000000000000e-02 0.000000000000e+00 0.000000000000e+00 -1.000000000000e+05 0.000000000000e+00 -1.000000000000e+05 -1.000000000000e+05 0.000000000000e+00 0.000000000000e+00 0.000000000000e+00 1.000000000000e+05 0.000000000000e+00  0.000000000000e+00
 TITLE = "Profiles along polylines"
 VARIABLES = "DIST" "DISPLACEMENT_X1" "DISPLACEMENT_Y1" "STRESS_XX" "STRESS_XY" "STRESS_YY" "STRESS_ZZ" "STRAIN_XX" "STRAIN_XY" "STRAIN_YY"  p_(1st_Invariant)  q_(2nd_Invariant)   Effective_Strain
 ZONE T="TIME=1.000000000000e-02"
0.000000000000e+00 0.000000000000e+00 0.000000000000e+00 -2.981792962614e+06 1.191682651658e+00 -4.422917302978e+06 -2.981884042277e+06 5.085027399689e-06 -1.039478583054e-07 -1.017628983500e-01 3.462198102623e+06 1.441078802693e+06  1.017654409591e-01
5.000000000000e-03 0.000000000000e+00 5.088380050826e-04 -2.981706406785e+06 -5.108434975865e+01 -4.423040667462e+06 -2.981898928007e+06 7.889132855665e-06 -1.055589619864e-06 -1.017747107987e-01 3.462215334085e+06 1.441238012426e+06  1.017786556109e-01
1.000000000000e-02 0.000000000000e+00 1.017762851643e-03 -2.980683617541e+06 -6.872450515752e+02 -4.424481074571e+06 -2.982065620621e+06 3.116731466322e-05 -8.632130715325e-06 -1.018008912981e-01 3.462410104244e+06 1.443107442723e+06  1.018164796310e-01
1.500000000000e-02 0.000000000000e+00 1.526830632444e-03 -2.978582280607e+06 -1.963911226490e+03 -4.436591708083e+06 -2.986067856678e+06 3.730264669960e-05 3.557458766305e-05 -1.018028690455e-01 3.467080615123e+06 1.454285066560e+06  1.018215441372e-01
2.000000000000e-02 0.000000000000e+00 2.037437830582e-03 -2.961656270979e+06 -1.485048110680e+04 -4.479626033255e+06 -2.996522643500e+06 2.782794519289e-04 -3.318177740869e-04 -1.025444565600e-01 3.479268315911e+06 1.501060749696e+06  1.026854874601e-01
2.500000000000e-02 0.000000000000e+00 2.547956936363e-03 -3.100129983877e+06 -8.516170193106e+04 -4.930138782911e+06 -3.232049559992e+06 1.146702512853e-03 -1.657342937046e-03 -1.004276542783e-01 3.754106108927e+06 1.773887972922e+06  1.010466707559e-01
3.000000000000e-02 0.000000000000e+00 3.045057872709e-03 -2.882281508202e+06 2.333792766844e+05 -4.291884175207e+06 -2.889800784744e+06 -6.707272762154e-03 9.944926067736e-03 -9.855223848118e-02 3.354655489385e+06 1.462817379729e+06  9.691862120470e-02
3.500000000000e-02 0.000000000000e+00 3.658339836353e-03 -2.966380644715e+06 4.252357959009e+05 -4.684836041179e+06 -3.080478300174e+06 2.751757751284e-02 -3.214320629059e-02 -1.411285564902e-01 3.577231662023e+06 1.820030752272e+06  1.663056212327e-01
4.000000000000e-02 0.000000000000e+00 3.942323160730e-03 -1.362682922113e+05 1.443401934875e+06 1.182473013352e+06 3.973558375407e+05 6.524308513415e-02 4.829138285765e-02 8.630108573162e-02 -4.811868528940e+05 2.751426647778e+06  1.143248067903e-01
4.500000000000e-02 0.000000000000e+00 4.904258076246e-03 -6.744129348839e+06 4.812855429081e+06 -7.594733899297e+06 -4.616623735503e+06 -2.298306523220e-01 1.327267441323e-01 -1.738487205597e-01 6.318495661213e+06 8.749297476688e+06  3.097400641818e-01
5.000000000000e-02 0.000000000000e+00 0.000000000000e+00 1.542718535217e+07 3.306237646547e+06 7.614851727406e+07 2.797949965608e+07 -3.034471695912e-01 4.343559938614e-02 1.773520513477e+00 -3.985173409410e+07 5.581434514211e+07  1.944552629878e+00
 TITLE = "Profiles along polylines"
 VARIABLES = "DIST" "DISPLACEMENT_X1" "DISPLACEMENT_Y1" "STRESS_XX" "STRESS_XY" "STRESS_YY" "STRESS_ZZ" "STRAIN_XX" "STRAIN_XY" "STRAIN_YY"  p_(1st_Invariant)  q_(2nd_Invariant)   Effective_Strain
 ZONE T="TIME=1.000000000000e-01"
0.000000000000e+00 0.000000000000e+00 0.000000000000e+00 -4.989654494804e+06 -2.200906833956e+02 -7.441724181853e+06 -4.992551016667e+06 1.059351331716e-05 -1.017827084962e-06 -1.040852966172e-01 5.807976564441e+06 2.450622739600e+06  1.040905937931e-01
5.000000000000e-03 0.000000000000e+00 5.204473633941e-04 -4.990624903423e+06 -3.144932103652e+03 -7.446354711742e+06 -4.994792489997e+06 1.568509280576e-05 -1.425332672928e-05 -1.040934529728e-01 5.810590701721e+06 2.453654716022e+06  1.041012993328e-01
1.000000000000e-02 0.000000000000e+00 1.041010455800e-03 -4.985083073486e+06 -1.178435755574e+04 -7.460672472230e+06 -4.998300910723e+06 5.502860248988e-05 -5.498159870952e-05 -1.041297032840e-01 5.814685485480e+06 2.469091383061e+06  1.041572720224e-01
1.500000000000e-02 0.000000000000e+00 1.561589230836e-03 -4.980452029605e+06 -2.173113448980e+04 -7.523600460029e+06 -5.021599797998e+06 1.130551912623e-04 -6.501451658695e-05 -1.040855442649e-01 5.841884095877e+06 2.523106997737e+06  1.041421787662e-01
2.000000000000e-02 0.000000000000e+00 2.083609919459e-03 -4.968342780970e+06 -1.480929731318e+04 -7.627246981344e+06 -5.058340183478e+06 4.068288953671e-04 -3.231935689550e-04 -1.048851040512e-01 5.884643315264e+06 2.615193024145e+06  1.050906000309e-01
2.500000000000e-02 0.000000000000e+00 2.605838570862e-03 -5.185727276631e+06 -1.077279337800e+05 -8.218367316209e+06 -5.381031894153e+06 1.299201510505e-03 -1.763866227262e-03 -1.026675563454e-01 6.261708828998e+06 2.945772703963e+06  1.033684408656e-01
3.000000000000e-02 0.000000000000e+00 3.113830089067e-03 -4.946405501547e+06 3.519642777595e+05 -7.228256490886e+06 -4.891008192255e+06 -6.828003457589e-03 1.051088125402e-02 -1.005779628973e-01 5.688556728229e+06 2.389133266040e+06  9.903149724997e-02
3.500000000000e-02 0.000000000000e+00 3.734342662063e-03 -5.592801248394e+06 1.093175602365e+06 -6.148620630824e+06 -4.719758669008e+06 2.500292384809e-02 -2.878128578535e-02 -1.403371652653e-01 5.487060182742e+06 2.267485658484e+06  1.622146505289e-01
4.000000000000e-02 0.000000000000e+00 4.023018404247e-03 -2.081019960383e+06 1.905834724348e+06 3.172247513306e+05 -7.020164113871e+05 6.102175147372e-02 5.529306211526e-02 8.287142857523e-02 8.219372068133e+05 3.904184742835e+06  1.212696840207e-01
4.500000000000e-02 0.000000000000e+00 4.978349774484e-03 -5.982809075357e+06 -4.353167565217e+06 -4.083145546348e+06 -2.770116014254e+06 -2.951513731451e-01 1.497743148799e-01 -1.658960896303e-01 4.278690211986e+06 8.042218968843e+06  3.646483554927e-01
5.000000000000e-02 0.000000000000e+00 0.000000000000e+00 -2.549912142305e+07 7.163942078862e+06 3.964913421124e+07 -1.459983427768e+07 5.758357793396e-01 -4.660286220406e-02 1.777959645453e+00 1.499404964960e+05 6.170078059165e+07  1.573349944498e+00
 TITLE = "Profiles along polylines"
 VARIABLES = "DIST" "DISPLACEMENT_X1" "DISPLACEMENT_Y1" "STRESS_XX" "STRESS_XY" "STRESS_YY" "STRESS_ZZ" "STRAIN_XX" "STRAIN_XY" "STRAIN_YY"  p_(1st_Invariant)  q_(2nd_Invariant)   Effective_Strain
 ZONE T="TIME=1.000000000000e+00"
0.000000000000e+00 0.000000000000e+00 0.000000000000e+00 -9.268328651603e+06 -1.139267058924e+03 -1.388078492320e+07 -9.279644852243e+06 2.205201432222e-05 -3.619463994218e-06 -1.066097310895e-01 1.080958614235e+07 4.606809017848e+06  1.066207589913e-01
5.000000000000e-03 0.000000000000e+00 5.330883193545e-04 -9.281745141137e+06 -1.670168287832e+04 -1.389715811752e+07 -9.291561719853e+06 2.383103881571e-05 -5.159706215741e-05 -1.065985940076e-01 1.082348832617e+07 4.610603277409e+06  1.066105489824e-01
1.000000000000e-02 0.000000000000e+00 1.066048601378e-03 -9.275532369543e+06 -1.198467647717e+04 -1.391592822140e+07 -9.296583469915e+06 6.581496281235e-05 -5.274889027447e-05 -1.066276333165e-01 1.082934802029e+07 4.629952728625e+06  1.066605951575e-01
1.500000000000e-02 0.000000000000e+00 1.598971738208e-03 -9.276225548460e+06 -7.684068310646e+03 -1.397413533119e+07 -9.320124147020e+06 1.157279086983e-04 -2.532853407655e-05 -1.065869298619e-01 1.085682834222e+07 4.676133968643e+06  1.066448499339e-01
2.000000000000e-02 0.000000000000e+00 2.133447824044e-03 -9.274826139374e+06 -9.786845908794e+03 -1.407589202671e+07 -9.360379720998e+06 3.987706690589e-04 -3.132227699257e-04 -1.073465237155e-01 1.090369929569e+07 4.758896094125e+06  1.075478318816e-01
2.500000000000e-02 0.000000000000e+00 2.667959245824e-03 -9.530646506895e+06 -7.699042918399e+04 -1.470250223812e+07 -9.712843057608e+06 1.278697916323e-03 -1.684689649452e-03 -1.050339471550e-01 1.131533060088e+07 5.084955810159e+06  1.057193754727e-01
3.000000000000e-02 0.000000000000e+00 3.187732475614e-03 -9.346504365911e+06 6.148376450992e+05 -1.338220420433e+07 -9.110968687321e+06 -7.053097474853e-03 1.112566147295e-02 -1.029170916428e-01 1.061322575252e+07 4.292665550822e+06  1.014254932778e-01
3.500000000000e-02 0.000000000000e+00 3.816899026124e-03 -9.756676017637e+06 1.924575149521e+06 -1.033185860256e+07 -8.078395955153e+06 2.379710463563e-02 -2.642811618786e-02 -1.410824009887e-01 9.388976858451e+06 3.901889921199e+06  1.610069398879e-01
4.000000000000e-02 0.000000000000e+00 4.133633721106e-03 -8.147487615116e+06 -6.738099979887e+05 -8.721930941094e+06 -6.642170075322e+06 6.076739991535e-02 4.758339950601e-02 7.420029941241e-02 7.837196210511e+06 2.196074995248e+06  1.071538229965e-01
4.500000000000e-02 0.000000000000e+00 5.083825224156e-03 -8.633535850489e+06 -5.451307728577e+06 5.360215082246e+06 -2.192966169789e+06 -2.868664918698e-01 1.580065996579e-01 -1.359698220421e-01 1.822095646011e+06 1.537298093597e+07  3.696934506057e-01
5.000000000000e-02 0.000000000000e+00 0.000000000000e+00 -2.661511593165e+07 7.533390949948e+06 2.950093435358e+07 -2.109676413318e+07 5.893367752445e-01 -4.174696385295e-02 1.769297856252e+00 6.070315237085e+06 5.513665873796e+07  1.562129595365e+00
 TITLE = "Profiles along polylines"
 VARIABLES = "DIST" "DISPLACEMENT_X1" "DISPLACEMENT_Y1" "STRESS_XX" "STRESS_XY" "STRESS_YY" "STRESS_ZZ" "STRAIN_XX" "STRAIN_XY" "STRAIN_YY"  p_(1st_Invariant)  q_(2nd_Invariant)   Effective_Strain
 ZONE T="TIME=5.000000000000e+00"
0.000000000000e+00 0.000000000000e+00 0.000000000000e+00 -1.891832827246e+07 -1.698835204078e+03 -2.837627274375e+07 -1.893783919373e+07 2.692398365771e-05 -4.291417055544e-06 -1.094721627752e-01 2.207748006998e+07 9.448204577921e+06  1.094856275022e-01
5.000000000000e-03 0.000000000000e+00 5.473922440844e-04 -1.894274817785e+07 -2.691807733450e+04 -2.839125234644e+07 -1.895360091866e+07 2.448526851302e-05 -6.379323647764e-05 -1.094549896772e-01 2.209586714765e+07 9.443197572208e+06  1.094672901296e-01
1.000000000000e-02 0.000000000000e+00 1.094630316530e-03 -1.893053656479e+07 -1.606602753222e+04 -2.841004759306e+07 -1.895622758704e+07 6.858583187648e-05 -5.772130618375e-05 -1.094845513694e-01 2.209893724830e+07 9.466732561270e+06  1.095189060247e-01
1.500000000000e-02 0.000000000000e+00 1.641800793905e-03 -1.893421108310e+07 -8.878012883788e+02 -2.848573843937e+07 -1.898797255993e+07 1.215488562327e-04 -1.734861726266e-05 -1.094434143686e-01 2.213597402747e+07 9.524760536725e+06  1.095042435139e-01
2.000000000000e-02 0.000000000000e+00 2.190537518240e-03 -1.892941068399e+07 9.443714081985e+03 -2.861455793618e+07 -1.903781300179e+07 4.122193411631e-04 -2.910273561431e-04 -1.102037510278e-01 2.219392720732e+07 9.631417522870e+06  1.104115884941e-01
2.500000000000e-02 0.000000000000e+00 2.739373650744e-03 -1.922372268710e+07 -1.185094851760e+04 -2.941665812834e+07 -1.947370620210e+07 1.317780266599e-03 -1.606019811804e-03 -1.078598371747e-01 2.270469567251e+07 1.007029196062e+07  1.085603725310e-01
3.000000000000e-02 0.000000000000e+00 3.273256914339e-03 -1.891056614074e+07 1.016532340842e+06 -2.772350625181e+07 -1.867206834118e+07 -7.062763533650e-03 1.163776864189e-02 -1.057778539089e-01 2.176871357791e+07 9.106408481170e+06  1.043938025648e-01
3.500000000000e-02 0.000000000000e+00 3.916237025040e-03 -1.795363789027e+07 2.047390703636e+06 -2.293145192873e+07 -1.650140564079e+07 2.396239925870e-02 -2.630719836693e-02 -1.441336513849e-01 1.912883181993e+07 6.833152952077e+06  1.639472482192e-01
4.000000000000e-02 0.000000000000e+00 4.246273826457e-03 -1.157620983400e+07 -3.250307989192e+06 -1.180496997494e+07 -1.032563190938e+07 6.111448234935e-02 4.176008006447e-02 7.148626028108e-02 1.123560390611e+07 5.796193992936e+06  9.852985552921e-02
4.500000000000e-02 0.000000000000e+00 5.116984949812e-03 -5.771434815630e+06 -4.384921382039e+06 8.133516231044e+06 4.492052806544e+05 -2.845806709281e-01 1.635570460625e-01 -1.176490632820e-01 -9.370955653560e+05 1.425583871191e+07  3.762971338507e-01
5.000000000000e-02 0.000000000000e+00 0.000000000000e+00 -4.992092966315e+07 8.097644565765e+06 1.361023318942e+07 -4.747296665771e+07 5.936154680803e-01 -4.098929210053e-02 1.777703780068e+00 2.792788771048e+07 6.390144585578e+07  1.569196596447e+00
 TITLE = "Profiles along polylines"
 VARIABLES = "DIST" "DISPLACEMENT_X1" "DISPLACEMENT_Y1" "STRESS_XX" "STRESS_XY" "STRESS_YY" "STRESS_ZZ" "STRAIN_XX" "STRAIN_XY" "STRAIN_YY"  p_(1st_Invariant)  q_(2nd_Invariant)   Effective_Strain
 ZONE T="TIME=1.000000000000e+01"
0.000000000000e+00 0.000000000000e+00 0.000000000000e+00 -2.564955407338e+07 -2.042460252396e+03 -3.848678316025e+07 -2.567453495652e+07 2.890369472644e-05 -4.541106688618e-06 -1.106925172897e-01 2.993695739672e+07 1.282475738049e+07  1.107069722463e-01
5.000000000000e-03 0.000000000000e+00 5.534904273435e-04 -2.568126063042e+07 -3.334714864806e+04 -3.849970461084e+07 -2.569238771857e+07 2.458589170956e-05 -6.844850793788e-05 -1.106729161845e-01 2.995778431994e+07 1.281301424460e+07  1.106852746718e-01
1.000000000000e-02 0.000000000000e+00 1.106816725732e-03 -2.566551360948e+07 -1.803839682718e+04 -3.851913753217e+07 -2.569380525882e+07 6.952491454976e-05 -5.914283110759e-05 -1.107030231512e-01 2.995948546682e+07 1.283953948917e+07  1.107378493578e-01
1.500000000000e-02 0.000000000000e+00 1.660068069677e-03 -2.567375595885e+07 3.525197622775e+03 -3.861048654137e+07 -2.573334054790e+07 1.236461145821e-04 -1.411387274657e-05 -1.106627269396e-01 3.000586101604e+07 1.290704288339e+07  1.107246044738e-01
2.000000000000e-02 0.000000000000e+00 2.214886782289e-03 -2.564736691190e+07 1.769746250781e+04 -3.871614593772e+07 -2.576796373287e+07 4.166651283856e-04 -2.848897203128e-04 -1.114182560593e-01 3.004382552750e+07 1.300893597552e+07  1.116282624676e-01
2.500000000000e-02 0.000000000000e+00 2.769663337895e-03 -2.564400291493e+07 -5.783344275683e+03 -3.904873067181e+07 -2.592657320061e+07 1.329799269249e-03 -1.601150125474e-03 -1.089925171856e-01 3.020643559579e+07 1.326570370511e+07  1.096985249829e-01
3.000000000000e-02 0.000000000000e+00 3.308512357218e-03 -2.391471515307e+07 1.020908860813e+06 -3.490750254637e+07 -2.372373216720e+07 -7.045059406367e-03 1.164234055829e-02 -1.066002397230e-01 2.751531662221e+07 1.122960592545e+07  1.052087032069e-01
3.500000000000e-02 0.000000000000e+00 3.953984409063e-03 -2.064937224689e+07 1.779899798692e+06 -2.573888377123e+07 -1.929913164223e+07 2.400988526793e-02 -2.656721468786e-02 -1.441561216351e-01 2.189579588678e+07 6.640969224829e+06  1.641221637238e-01
4.000000000000e-02 0.000000000000e+00 4.278718701095e-03 -1.474707664693e+07 -2.832438214200e+06 -1.170702177820e+07 -1.325698903960e+07 6.091333055192e-02 4.237317265613e-02 7.360587340353e-02 1.323702915491e+07 5.567806148627e+06  1.001555631209e-01
4.500000000000e-02 0.000000000000e+00 5.136500643208e-03 -1.067967947624e+07 -4.771757275992e+06 5.505979296670e+06 -4.094871676393e+06 -2.855754757957e-01 1.624068883941e-01 -1.129441937255e-01 3.089523951987e+06 1.634211718363e+07  3.757441198533e-01
5.000000000000e-02 0.000000000000e+00 0.000000000000e+00 -6.474424185698e+07 8.152823505592e+06 3.541307505613e+06 -6.174222097065e+07 5.934662310407e-01 -4.099062257635e-02 1.778800832026e+00 4.098171844067e+07 6.831060919851e+07  1.570260180755e+00
 ZONE T="TIME=1.800000000000e+01"
0.000000000000e+00 0.000000000000e+00 0.000000000000e+00 -3.247459538482e+07 -2.337488581623e+03 -4.873874121104e+07 -3.250547895682e+07 3.052914384424e-05 -4.706840407922e-06 -1.116383213181e-01 3.790627185089e+07 1.624872655701e+07  1.116535893180e-01
5.000000000000e-03 0.000000000000e+00 5.582140650734e-04 -3.250637284434e+07 -4.021274937302e+04 -4.873565459397e+07 -3.251745339822e+07 2.458220744373e-05 -7.223210854116e-05 -1.116154844976e-01 3.791982694551e+07 1.622389381907e+07  1.116278477413e-01
1.000000000000e-02 0.000000000000e+00 1.116236678915e-03 -3.243393992672e+07 -2.147459323795e+04 -4.867202931032e+07 -3.246616121265e+07 7.060418539360e-05 -6.103230593913e-05 -1.116382364503e-01 3.785737681656e+07 1.622204538258e+07  1.116736053159e-01
1.500000000000e-02 0.000000000000e+00 1.674076600630e-03 -3.224548475981e+07 7.511470375007e+03 -4.844780445760e+07 -3.231237282679e+07 1.256733921048e-04 -1.194881826809e-05 -1.115669137669e-01 3.766855401474e+07 1.616898466275e+07  1.116298054379e-01
2.000000000000e-02 0.000000000000e+00 2.233165159815e-03 -3.160360997869e+07 2.212356875748e+04 -4.752032133234e+07 -3.173322975068e+07 4.192220200923e-04 -2.823954421835e-04 -1.122177754113e-01 3.695238702057e+07 1.585234523536e+07  1.124290365939e-01
2.500000000000e-02 0.000000000000e+00 2.791410388877e-03 -3.032284955122e+07 -1.598051147003e+04 -4.563591231330e+07 -3.061453367888e+07 1.332542238229e-03 -1.607146365448e-03 -1.095481431627e-01 3.552443184780e+07 1.516934934539e+07  1.102556013336e-01
3.000000000000e-02 0.000000000000e+00 3.332145768242e-03 -2.703503145696e+07 8.993302494368e+05 -3.853432403555e+07 -2.690875474616e+07 -7.022859895780e-03 1.156092115218e-02 -1.067574560988e-01 3.082603674622e+07 1.166739701697e+07  1.053456075518e-01
3.500000000000e-02 0.000000000000e+00 3.977097112500e-03 -2.361277152164e+07 1.502033200908e+06 -2.772336731231e+07 -2.238346191429e+07 2.406256576341e-02 -2.680524903654e-02 -1.436590410786e-01 2.457320024942e+07 5.498154778859e+06  1.637965091385e-01
4.000000000000e-02 0.000000000000e+00 4.295778685051e-03 -2.014745449761e+07 -2.572325655560e+06 -1.450900626185e+07 -1.861741780802e+07 6.088549697875e-02 4.272580724406e-02 7.530536358309e-02 1.775795952249e+07 6.734735031204e+06  1.013381510280e-01
4.500000000000e-02 0.000000000000e+00 5.143886998755e-03 -1.980181199131e+07 -4.975546464276e+06 -4.315654559552e+05 -1.301396230509e+07 -2.858505501720e-01 1.619849302094e-01 -1.102000131370e-01 1.108244658412e+07 1.908054559468e+07  3.755944600093e-01
5.000000000000e-02 0.000000000000e+00 0.000000000000e+00 -7.422240800071e+07 8.290275411858e+06 -6.845910664450e+06 -7.113971294731e+07 5.934560981069e-01 -4.095190997963e-02 1.778275788136e+00 5.073601053749e+07 6.743574872614e+07  1.569763512526e+00
