 TITLE = "Time curves in points"
 VARIABLES = "TIME"  "PRESSURE1"  "PRESSURE2"  "PRESSURE_W"  "SATURATION1" SATURATION2  "VELOCITY_X1"  "VELOCITY_Y1"  "VELOCITY_X2"  "VELOCITY_Y2"  p_(1st_Invariant)  q_(2nd_Invariant)   Effective_Strain
 ZONE T="POINT=POINT4"
0.000000000000e+00 8.400000000000e+07 1.000000000000e+05 -8.390000000000e+07 6.601393844892e-01 3.398606155108e-01 0.000000000000e+00 0.000000000000e+00 0.000000000000e+00 0.000000000000e+00 1.000000000000e+05 0.000000000000e+00  0.000000000000e+00
1.000000000000e-03 -1.244434314116e-313 1.000000000000e+05 1.000000000000e+05 1.000000000000e+00 0.000000000000e+00 2.245940086805e-06 3.928132542103e-04 2.868722598033e-13 -6.036658899473e-14 -2.133470497300e+05 8.670790033925e+04  2.847913968363e-01
2.000000000000e-03 -1.244434314116e-313 1.000000000000e+05 1.000000000000e+05 1.000000000000e+00 0.000000000000e+00 2.228286564512e-06 3.926518362089e-04 5.991790222671e-13 -1.181577695835e-13 -2.899686203655e+05 1.292123964077e+05  9.321421217798e-01
3.000000000000e-03 -1.244434314116e-313 1.000000000000e+05 1.000000000000e+05 1.000000000000e+00 0.000000000000e+00 2.210776655795e-06 3.924904951556e-04 9.071568225394e-13 -1.741853671347e-13 3.372220227093e+02 7.402659471290e+05  1.237597065395e+00
4.000000000000e-03 -1.244434314116e-313 1.000000000000e+05 1.000000000000e+05 1.000000000000e+00 0.000000000000e+00 2.193409167145e-06 3.923292316165e-04 1.211623043898e-12 -2.282881264068e-13 4.193852144248e+06 8.188247941329e+06  1.382799783015e+00
5.000000000000e-03 -1.244434314116e-313 1.000000000000e+05 1.000000000000e+05 1.000000000000e+00 0.000000000000e+00 2.176182751237e-06 3.921680469427e-04 1.513355768553e-12 -2.806458761225e-13 -3.882244995151e+06 5.531368790022e+06  1.440834137009e+00
6.000000000000e-03 -1.244434314116e-313 1.000000000000e+05 1.000000000000e+05 1.000000000000e+00 0.000000000000e+00 2.159096487992e-06 3.920069418772e-04 1.811649908114e-12 -3.312339744880e-13 -7.824371260759e+06 4.994420003637e+06  1.461066898887e+00
7.000000000000e-03 -1.244434314116e-313 1.000000000000e+05 1.000000000000e+05 1.000000000000e+00 0.000000000000e+00 2.142039756851e-06 3.918458202148e-04 2.105350474472e-12 -3.799556488898e-13 -1.226264761886e+07 6.037629723259e+06  1.470447722947e+00
8.000000000000e-03 -1.244434314116e-313 1.000000000000e+05 1.000000000000e+05 1.000000000000e+00 0.000000000000e+00 2.124233213100e-06 3.916839886931e-04 2.394739483786e-12 -4.268768576261e-13 -1.633857130123e+07 7.215065715492e+06  1.472426350222e+00
9.000000000000e-03 -1.244434314116e-313 1.000000000000e+05 1.000000000000e+05 1.000000000000e+00 0.000000000000e+00 2.106869592809e-06 3.915219730650e-04 2.680402381045e-12 -4.717867911257e-13 -1.492821539120e+07 7.178515677531e+06  1.472448513276e+00
1.000000000000e-02 -1.244434314116e-313 1.000000000000e+05 1.000000000000e+05 1.000000000000e+00 0.000000000000e+00 2.089685548304e-06 3.913600058151e-04 2.963570511529e-12 -5.148155403230e-13 -1.440070723703e+07 7.432065063653e+06  1.472778579479e+00
2.000000000000e-02 -1.244434314116e-313 1.000000000000e+05 1.000000000000e+05 1.000000000000e+00 0.000000000000e+00 1.927858121195e-06 3.897526576734e-04 5.585193040490e-12 -7.881242885886e-13 -2.674426478336e+07 1.721846011595e+07  1.485940213523e+00
3.000000000000e-02 -1.244434314116e-313 1.000000000000e+05 1.000000000000e+05 1.000000000000e+00 0.000000000000e+00 1.778617600576e-06 3.881460030389e-04 7.873406241049e-12 -9.126635251017e-13 -1.059219164638e+07 1.488029401760e+07  1.635600233420e+00
4.000000000000e-02 -1.244434314116e-313 1.000000000000e+05 1.000000000000e+05 1.000000000000e+00 0.000000000000e+00 1.638068561652e-06 3.865413875611e-04 1.004102047931e-11 -9.635009803159e-13 -1.068289617948e+07 8.778976930179e+06  1.476351868587e+00
5.000000000000e-02 -1.244434314116e-313 1.000000000000e+05 1.000000000000e+05 1.000000000000e+00 0.000000000000e+00 1.505919720179e-06 3.849286733534e-04 1.223688273211e-11 -1.028380693144e-12 -4.031181683797e+06 1.140610379194e+07  1.496800382741e+00
6.000000000000e-02 -1.244434314116e-313 1.000000000000e+05 1.000000000000e+05 1.000000000000e+00 0.000000000000e+00 1.384179132422e-06 3.833083526375e-04 1.431904315934e-11 -1.049724453568e-12 -4.155542550246e+06 1.516454537219e+07  1.464898062057e+00
7.000000000000e-02 -1.244434314116e-313 1.000000000000e+05 1.000000000000e+05 1.000000000000e+00 0.000000000000e+00 1.269526933404e-06 3.816815010152e-04 1.628940303532e-11 -1.040894667074e-12 -5.201173274520e+06 1.648528736838e+07  1.475799683734e+00
8.000000000000e-02 -1.244434314116e-313 1.000000000000e+05 1.000000000000e+05 1.000000000000e+00 0.000000000000e+00 1.162093949137e-06 3.800599214954e-04 1.812923901347e-11 -9.967389660646e-13 -4.960604772835e+06 1.809725124958e+07  1.477691741818e+00
9.000000000000e-02 -1.244434314116e-313 1.000000000000e+05 1.000000000000e+05 1.000000000000e+00 0.000000000000e+00 1.062771561643e-06 3.784592501830e-04 1.987302537858e-11 -9.290489655231e-13 -5.220800947475e+06 1.904476307327e+07  1.481477965699e+00
1.000000000000e-01 -1.244434314116e-313 1.000000000000e+05 1.000000000000e+05 1.000000000000e+00 0.000000000000e+00 9.699550987605e-07 3.768598793586e-04 2.151488731261e-11 -8.500380794413e-13 -4.781350708978e+06 1.998262732789e+07  1.484344680513e+00
1.100000000000e-01 -1.244434314116e-313 1.000000000000e+05 1.000000000000e+05 1.000000000000e+00 0.000000000000e+00 8.819747344008e-07 3.752670995999e-04 2.304763073590e-11 -7.419197481880e-13 -4.547940897130e+06 2.066322240528e+07  1.487127366951e+00
1.200000000000e-01 -1.244434314116e-313 1.000000000000e+05 1.000000000000e+05 1.000000000000e+00 0.000000000000e+00 8.011423006671e-07 3.736809241195e-04 2.448318585609e-11 -6.385315337877e-13 -4.183329481522e+06 2.134078121025e+07  1.489633296381e+00
1.300000000000e-01 -1.244434314116e-313 1.000000000000e+05 1.000000000000e+05 1.000000000000e+00 0.000000000000e+00 7.269264627624e-07 3.721052335617e-04 2.582819974125e-11 -5.371333273029e-13 -3.891727188817e+06 2.185569231911e+07  1.492260939529e+00
1.400000000000e-01 -1.244434314116e-313 1.000000000000e+05 1.000000000000e+05 1.000000000000e+00 0.000000000000e+00 6.552771097254e-07 3.705337763653e-04 2.704631734111e-11 -3.984019480493e-13 -3.521070381139e+06 2.248972379154e+07  1.494891742106e+00
1.500000000000e-01 -1.244434314116e-313 1.000000000000e+05 1.000000000000e+05 1.000000000000e+00 0.000000000000e+00 5.896076047035e-07 3.689457768993e-04 2.817486917655e-11 -2.739013493222e-13 -3.298936305191e+06 2.292403422825e+07  1.497821828040e+00
1.600000000000e-01 -1.244434314116e-313 1.000000000000e+05 1.000000000000e+05 1.000000000000e+00 0.000000000000e+00 5.294385477056e-07 3.673682392520e-04 2.922879914640e-11 -1.568941569729e-13 -2.991178954522e+06 2.346367048379e+07  1.500489884020e+00
1.700000000000e-01 -1.244434314116e-313 1.000000000000e+05 1.000000000000e+05 1.000000000000e+00 0.000000000000e+00 4.728556606604e-07 3.658018580018e-04 3.018129851731e-11 -3.263132540679e-14 -2.748781586252e+06 2.386168933255e+07  1.503332593247e+00
1.800000000000e-01 -1.244434314116e-313 1.000000000000e+05 1.000000000000e+05 1.000000000000e+00 0.000000000000e+00 4.196115163022e-07 3.642363555964e-04 3.103184179256e-11 5.232502158522e-14 -2.497209185916e+06 2.426674467793e+07  1.506063451604e+00
1.900000000000e-01 -1.244434314116e-313 1.000000000000e+05 1.000000000000e+05 1.000000000000e+00 0.000000000000e+00 3.709471379114e-07 3.626899823475e-04 3.180710008990e-11 1.293931589613e-13 -2.280166097235e+06 2.455520276938e+07  1.508604970788e+00
2.000000000000e-01 -1.244434314116e-313 1.000000000000e+05 1.000000000000e+05 1.000000000000e+00 0.000000000000e+00 3.265103750942e-07 3.611647235037e-04 3.251045437981e-11 1.959894192290e-13 -2.073383765108e+06 2.484800500093e+07  1.511279075558e+00
2.100000000000e-01 -1.244434314116e-313 1.000000000000e+05 1.000000000000e+05 1.000000000000e+00 0.000000000000e+00 2.840345399673e-07 3.596392309782e-04 3.310560227510e-11 6.304908367301e-13 -1.901454188833e+06 2.507400234335e+07  1.513919856378e+00
2.200000000000e-01 -1.244434314116e-313 1.000000000000e+05 1.000000000000e+05 1.000000000000e+00 0.000000000000e+00 2.447800908727e-07 3.581261684750e-04 3.362172744173e-11 1.469118771500e-12 -1.768650583254e+06 2.528861238431e+07  1.516378775665e+00
2.300000000000e-01 -1.244434314116e-313 1.000000000000e+05 1.000000000000e+05 1.000000000000e+00 0.000000000000e+00 2.090653547498e-07 3.566285204897e-04 3.407047309804e-11 2.353414855645e-12 -1.690843958199e+06 2.546332929983e+07  1.518803467432e+00
2.400000000000e-01 -1.244434314116e-313 1.000000000000e+05 1.000000000000e+05 1.000000000000e+00 0.000000000000e+00 1.766148515714e-07 3.551408582881e-04 3.445559244141e-11 3.257818880654e-12 -1.615869807235e+06 2.561149099666e+07  1.520902113578e+00
2.500000000000e-01 -1.244434314116e-313 1.000000000000e+05 1.000000000000e+05 1.000000000000e+00 0.000000000000e+00 1.454391298201e-07 3.536573138390e-04 3.472034187265e-11 4.201077099525e-12 -1.586647057643e+06 2.573405646175e+07  1.523048996079e+00
2.600000000000e-01 -1.244434314116e-313 1.000000000000e+05 1.000000000000e+05 1.000000000000e+00 0.000000000000e+00 1.169379556833e-07 3.521870608047e-04 3.492431512334e-11 5.183083391669e-12 -1.557234579676e+06 2.585278501030e+07  1.524797107770e+00
2.700000000000e-01 -1.244434314116e-313 1.000000000000e+05 1.000000000000e+05 1.000000000000e+00 0.000000000000e+00 9.147653115711e-08 3.507272262729e-04 3.507691935546e-11 6.191562251000e-12 -1.508347812809e+06 2.594912252529e+07  1.526569552263e+00
2.800000000000e-01 -1.244434314116e-313 1.000000000000e+05 1.000000000000e+05 1.000000000000e+00 0.000000000000e+00 6.850967161563e-08 3.492525172449e-04 3.517722877743e-11 7.149157304254e-12 -1.486765197803e+06 2.604865619071e+07  1.528448961017e+00
2.900000000000e-01 -1.244434314116e-313 1.000000000000e+05 1.000000000000e+05 1.000000000000e+00 0.000000000000e+00 4.673103869545e-08 3.477874387438e-04 3.517442904653e-11 8.142604442662e-12 -1.427539050208e+06 2.612588330223e+07  1.530004787124e+00
3.000000000000e-01 -1.244434314116e-313 1.000000000000e+05 1.000000000000e+05 1.000000000000e+00 0.000000000000e+00 2.656657351640e-08 3.463349274692e-04 3.509091642875e-11 9.165185090632e-12 -1.387128768876e+06 2.620258161415e+07  1.531753605711e+00
3.100000000000e-01 -1.244434314116e-313 1.000000000000e+05 1.000000000000e+05 1.000000000000e+00 0.000000000000e+00 8.491681841079e-09 3.448946449713e-04 3.495925918149e-11 1.019276406647e-11 -1.309829037333e+06 2.625601311744e+07  1.533145172907e+00
3.200000000000e-01 -1.244434314116e-313 1.000000000000e+05 1.000000000000e+05 1.000000000000e+00 0.000000000000e+00 -7.732899449326e-09 3.434706734600e-04 3.478842508856e-11 1.121786806336e-11 -1.248940540892e+06 2.630548665184e+07  1.534612302246e+00
3.300000000000e-01 -1.244434314116e-313 1.000000000000e+05 1.000000000000e+05 1.000000000000e+00 0.000000000000e+00 -2.239403135254e-08 3.420603935462e-04 3.454311374815e-11 1.226299132827e-11 -1.164343258984e+06 2.635237588731e+07  1.535903779710e+00
3.400000000000e-01 -1.244434314116e-313 1.000000000000e+05 1.000000000000e+05 1.000000000000e+00 0.000000000000e+00 -3.653163350704e-08 3.406582711426e-04 3.419334280498e-11 1.333534297487e-11 -1.060874382979e+06 2.639390902170e+07  1.537006181445e+00
3.500000000000e-01 -1.244434314116e-313 1.000000000000e+05 1.000000000000e+05 1.000000000000e+00 0.000000000000e+00 -4.906235622795e-08 3.392677414881e-04 3.379954405607e-11 1.440268435750e-11 -9.662129790456e+05 2.643214416514e+07  1.538244978882e+00
3.600000000000e-01 -1.244434314116e-313 1.000000000000e+05 1.000000000000e+05 1.000000000000e+00 0.000000000000e+00 -6.012532715186e-08 3.378879739580e-04 3.335552084886e-11 1.545988278021e-11 -8.625063973253e+05 2.647537360928e+07  1.538886817469e+00
3.700000000000e-01 -1.244434314116e-313 1.000000000000e+05 1.000000000000e+05 1.000000000000e+00 0.000000000000e+00 -6.984306306193e-08 3.365221936241e-04 3.286947198705e-11 1.652449894829e-11 -7.541066430364e+05 2.651675499933e+07  1.539528912501e+00
3.800000000000e-01 -1.244434314116e-313 1.000000000000e+05 1.000000000000e+05 1.000000000000e+00 0.000000000000e+00 -7.881692826126e-08 3.351663331891e-04 3.230975545054e-11 1.760559653730e-11 -6.552664330526e+05 2.655535423776e+07  1.540080704232e+00
3.900000000000e-01 -1.244434314116e-313 1.000000000000e+05 1.000000000000e+05 1.000000000000e+00 0.000000000000e+00 -8.721705371782e-08 3.338193319477e-04 3.164382459262e-11 1.869467641922e-11 -5.307833154882e+05 2.659278994023e+07  1.540444887968e+00
4.000000000000e-01 -1.244434314116e-313 1.000000000000e+05 1.000000000000e+05 1.000000000000e+00 0.000000000000e+00 -9.449821870356e-08 3.324810921540e-04 3.095166529911e-11 1.975570267645e-11 -4.276877815100e+05 2.664522300652e+07  1.540793424568e+00
4.100000000000e-01 -1.244434314116e-313 1.000000000000e+05 1.000000000000e+05 1.000000000000e+00 0.000000000000e+00 -1.007534389527e-07 3.311561048282e-04 3.022106994750e-11 2.081797335541e-11 -3.406885615532e+05 2.668596560959e+07  1.540939983529e+00
4.200000000000e-01 -1.244434314116e-313 1.000000000000e+05 1.000000000000e+05 1.000000000000e+00 0.000000000000e+00 -1.060396915214e-07 3.298440611585e-04 2.944889777309e-11 2.188079464928e-11 -2.682628144690e+05 2.672480242853e+07  1.540844531112e+00
4.300000000000e-01 -1.244434314116e-313 1.000000000000e+05 1.000000000000e+05 1.000000000000e+00 0.000000000000e+00 -1.104756037468e-07 3.285391939010e-04 2.862052315494e-11 2.295309524379e-11 -2.057713097797e+05 2.675947975823e+07  1.540716818923e+00
4.400000000000e-01 -1.244434314116e-313 1.000000000000e+05 1.000000000000e+05 1.000000000000e+00 0.000000000000e+00 -1.146630208252e-07 3.272404899315e-04 2.771199615795e-11 2.401423450939e-11 -1.519713960864e+05 2.679492730428e+07  1.540482212572e+00
4.500000000000e-01 -1.244434314116e-313 1.000000000000e+05 1.000000000000e+05 1.000000000000e+00 0.000000000000e+00 -1.180886434379e-07 3.259518668977e-04 2.676660248607e-11 2.505344152506e-11 -1.072837602506e+05 2.682614289669e+07  1.540258176366e+00
4.600000000000e-01 -1.244434314116e-313 1.000000000000e+05 1.000000000000e+05 1.000000000000e+00 0.000000000000e+00 -1.208520356298e-07 3.246763189270e-04 2.578546498770e-11 2.608823474813e-11 -6.246081400470e+04 2.686729824833e+07  1.540022958078e+00
4.700000000000e-01 -1.244434314116e-313 1.000000000000e+05 1.000000000000e+05 1.000000000000e+00 0.000000000000e+00 -1.229505970801e-07 3.234157949722e-04 2.476498375025e-11 2.711934530530e-11 -1.100373956978e+04 2.690508484626e+07  1.539841436030e+00
4.800000000000e-01 -1.244434314116e-313 1.000000000000e+05 1.000000000000e+05 1.000000000000e+00 0.000000000000e+00 -1.244613977953e-07 3.221516811612e-04 2.372788533521e-11 2.808537099404e-11 3.338067811290e+04 2.694499743706e+07  1.539804447756e+00
4.900000000000e-01 -1.244434314116e-313 1.000000000000e+05 1.000000000000e+05 1.000000000000e+00 0.000000000000e+00 -1.260906301488e-07 3.208868067083e-04 2.290649610106e-11 2.895718601070e-11 9.390216913539e+04 2.699276511689e+07  1.539752950147e+00
5.000000000000e-01 -1.244434314116e-313 1.000000000000e+05 1.000000000000e+05 1.000000000000e+00 0.000000000000e+00 -1.272375312951e-07 3.196316943520e-04 2.298332953594e-11 2.967916693183e-11 1.442954933300e+05 2.703523848611e+07  1.539804502791e+00
5.100000000000e-01 -1.244434314116e-313 1.000000000000e+05 1.000000000000e+05 1.000000000000e+00 0.000000000000e+00 -1.279139183188e-07 3.183887853085e-04 2.306967769395e-11 3.039265969402e-11 2.236897024184e+05 2.711068584055e+07  1.539856539196e+00
5.200000000000e-01 -1.244434314116e-313 1.000000000000e+05 1.000000000000e+05 1.000000000000e+00 0.000000000000e+00 -1.281697571071e-07 3.171578812938e-04 2.317487240299e-11 3.109808429835e-11 2.763600071022e+05 2.715853812960e+07  1.539939432985e+00
5.300000000000e-01 -1.244434314116e-313 1.000000000000e+05 1.000000000000e+05 1.000000000000e+00 0.000000000000e+00 -1.280414576022e-07 3.159388022332e-04 2.327454965516e-11 3.179492456068e-11 3.718120807314e+05 2.723729493719e+07  1.540066998612e+00
5.400000000000e-01 -1.244434314116e-313 1.000000000000e+05 1.000000000000e+05 1.000000000000e+00 0.000000000000e+00 -1.275996798678e-07 3.147305397243e-04 2.337852995702e-11 3.248494536364e-11 4.222967778830e+05 2.729247670257e+07  1.540197155384e+00
5.500000000000e-01 -1.244434314116e-313 1.000000000000e+05 1.000000000000e+05 1.000000000000e+00 0.000000000000e+00 -1.272749570577e-07 3.135251495067e-04 2.343171316598e-11 3.314329786411e-11 4.982949841909e+05 2.734992754063e+07  1.540342972298e+00
5.600000000000e-01 -1.244434314116e-313 1.000000000000e+05 1.000000000000e+05 1.000000000000e+00 0.000000000000e+00 -1.264293807066e-07 3.123278279773e-04 2.352245478562e-11 3.378927600032e-11 5.763285115121e+05 2.740606517509e+07  1.540519581687e+00
5.700000000000e-01 -1.244434314116e-313 1.000000000000e+05 1.000000000000e+05 1.000000000000e+00 0.000000000000e+00 -1.253142124760e-07 3.111416923144e-04 2.364269965184e-11 3.445908145676e-11 6.528499707015e+05 2.745721889474e+07  1.540720840633e+00
5.800000000000e-01 -1.244434314116e-313 1.000000000000e+05 1.000000000000e+05 1.000000000000e+00 0.000000000000e+00 -1.239664289896e-07 3.099665834838e-04 2.374543526553e-11 3.514653494083e-11 7.319787748852e+05 2.750956170601e+07  1.540921114034e+00
5.900000000000e-01 -1.244434314116e-313 1.000000000000e+05 1.000000000000e+05 1.000000000000e+00 0.000000000000e+00 -1.224097645318e-07 3.088023441921e-04 2.384565108450e-11 3.581887378412e-11 8.321416960324e+05 2.759831519555e+07  1.541108367547e+00
6.000000000000e-01 -1.244434314116e-313 1.000000000000e+05 1.000000000000e+05 1.000000000000e+00 0.000000000000e+00 -1.206740128314e-07 3.076488114936e-04 2.396328441902e-11 3.647849077158e-11 9.041118911265e+05 2.764631578192e+07  1.541300020202e+00
6.100000000000e-01 -1.244434314116e-313 1.000000000000e+05 1.000000000000e+05 1.000000000000e+00 0.000000000000e+00 -1.190449672425e-07 3.064990126443e-04 2.404203306355e-11 3.710485872819e-11 9.877085403105e+05 2.770555190211e+07  1.541506785844e+00
6.200000000000e-01 -1.244434314116e-313 1.000000000000e+05 1.000000000000e+05 1.000000000000e+00 0.000000000000e+00 -1.173377884921e-07 3.053578433070e-04 2.410653405978e-11 3.829240853232e-11 1.076876730189e+06 2.775804881684e+07  1.541717496579e+00
6.300000000000e-01 -1.244434314116e-313 1.000000000000e+05 1.000000000000e+05 1.000000000000e+00 0.000000000000e+00 -1.154845276400e-07 3.042270268584e-04 2.416094964472e-11 3.973490937822e-11 1.165944391644e+06 2.781014276314e+07  1.541948956474e+00
6.400000000000e-01 -1.244434314116e-313 1.000000000000e+05 1.000000000000e+05 1.000000000000e+00 0.000000000000e+00 -1.135046677661e-07 3.031077121627e-04 2.423760214159e-11 4.117676721712e-11 1.252770886365e+06 2.785743737023e+07  1.542189782959e+00
6.500000000000e-01 -1.244434314116e-313 1.000000000000e+05 1.000000000000e+05 1.000000000000e+00 0.000000000000e+00 -1.114140677195e-07 3.019984211010e-04 2.431716005024e-11 4.262087994734e-11 1.375437794854e+06 2.795824010129e+07  1.542413843428e+00
6.600000000000e-01 -1.244434314116e-313 1.000000000000e+05 1.000000000000e+05 1.000000000000e+00 0.000000000000e+00 -1.092326389366e-07 3.008990108694e-04 2.440633237365e-11 4.406530766087e-11 1.447236365903e+06 2.800567966485e+07  1.542639248701e+00
6.700000000000e-01 -1.244434314116e-313 1.000000000000e+05 1.000000000000e+05 1.000000000000e+00 0.000000000000e+00 -1.069342159804e-07 2.998087331848e-04 2.450799447890e-11 4.550739099104e-11 1.542843429690e+06 2.806337938916e+07  1.542874399122e+00
6.800000000000e-01 -1.244434314116e-313 1.000000000000e+05 1.000000000000e+05 1.000000000000e+00 0.000000000000e+00 -1.047004520511e-07 2.987182668846e-04 2.459258571449e-11 4.693803555974e-11 1.643196223056e+06 2.811997375025e+07  1.543126321015e+00
6.900000000000e-01 -1.244434314116e-313 1.000000000000e+05 1.000000000000e+05 1.000000000000e+00 0.000000000000e+00 -1.024156515044e-07 2.976369738556e-04 2.468646890592e-11 4.836497507171e-11 1.739243331256e+06 2.817292735666e+07  1.543380823591e+00
7.000000000000e-01 -1.244434314116e-313 1.000000000000e+05 1.000000000000e+05 1.000000000000e+00 0.000000000000e+00 -1.000815555611e-07 2.965650589966e-04 2.478221381702e-11 4.978804266996e-11 1.844639308020e+06 2.823505744298e+07  1.543628926867e+00
7.100000000000e-01 -1.244434314116e-313 1.000000000000e+05 1.000000000000e+05 1.000000000000e+00 0.000000000000e+00 -9.771189833390e-08 2.955024094101e-04 2.488749905587e-11 5.120588347802e-11 1.947918343869e+06 2.830195379047e+07  1.543897212181e+00
7.200000000000e-01 -1.244434314116e-313 1.000000000000e+05 1.000000000000e+05 1.000000000000e+00 0.000000000000e+00 -9.531458337500e-08 2.944489059092e-04 2.499329094532e-11 5.262052639867e-11 2.045532809383e+06 2.836447499763e+07  1.544150511883e+00
7.300000000000e-01 -1.244434314116e-313 1.000000000000e+05 1.000000000000e+05 1.000000000000e+00 0.000000000000e+00 -9.290061180510e-08 2.934044409643e-04 2.510825317123e-11 5.402788747451e-11 2.158347541328e+06 2.844339705189e+07  1.544392431139e+00
7.400000000000e-01 -1.244434314116e-313 1.000000000000e+05 1.000000000000e+05 1.000000000000e+00 0.000000000000e+00 -9.048045747266e-08 2.923688989922e-04 2.523817168151e-11 5.543130972696e-11 2.259043484207e+06 2.851162474056e+07  1.544653261573e+00
7.500000000000e-01 -1.244434314116e-313 1.000000000000e+05 1.000000000000e+05 1.000000000000e+00 0.000000000000e+00 -8.814446120019e-08 2.913388710778e-04 2.533116306240e-11 5.682464996249e-11 2.360041177502e+06 2.857919735015e+07  1.544910561670e+00
7.600000000000e-01 -1.244434314116e-313 1.000000000000e+05 1.000000000000e+05 1.000000000000e+00 0.000000000000e+00 -8.588254036661e-08 2.903141766167e-04 2.541884164137e-11 5.820233733462e-11 2.465341789974e+06 2.865162785856e+07  1.545165007010e+00
7.700000000000e-01 -1.244434314116e-313 1.000000000000e+05 1.000000000000e+05 1.000000000000e+00 0.000000000000e+00 -8.361646966118e-08 2.892980931427e-04 2.550911271775e-11 5.957175273740e-11 2.571730181166e+06 2.872544937472e+07  1.545417657662e+00
7.800000000000e-01 -1.244434314116e-313 1.000000000000e+05 1.000000000000e+05 1.000000000000e+00 0.000000000000e+00 -8.135348564593e-08 2.882905173833e-04 2.560635861057e-11 6.093215486983e-11 2.676555076067e+06 2.879951673458e+07  1.545670174263e+00
7.900000000000e-01 -1.244434314116e-313 1.000000000000e+05 1.000000000000e+05 1.000000000000e+00 0.000000000000e+00 -7.903582420213e-08 2.872893681617e-04 2.573868947744e-11 6.228484764544e-11 2.781025594799e+06 2.887565879157e+07  1.545917651237e+00
8.000000000000e-01 -1.244434314116e-313 1.000000000000e+05 1.000000000000e+05 1.000000000000e+00 0.000000000000e+00 -7.670587815150e-08 2.862954191570e-04 2.563441449977e-11 6.361766276135e-11 2.884934128699e+06 2.895712865858e+07  1.546164066411e+00
8.100000000000e-01 -1.244434314116e-313 1.000000000000e+05 1.000000000000e+05 1.000000000000e+00 0.000000000000e+00 -7.440422808783e-08 2.853096702288e-04 2.505702361838e-11 6.492111140152e-11 2.987996913359e+06 2.904369865059e+07  1.546406892577e+00
8.200000000000e-01 -1.244434314116e-313 1.000000000000e+05 1.000000000000e+05 1.000000000000e+00 0.000000000000e+00 -7.213556379834e-08 2.843320228205e-04 2.448071025702e-11 6.621951424515e-11 3.090892945284e+06 2.913204642772e+07  1.546641929815e+00
8.300000000000e-01 -1.244434314116e-313 1.000000000000e+05 1.000000000000e+05 1.000000000000e+00 0.000000000000e+00 -6.995137560116e-08 2.833601843158e-04 2.385990127447e-11 6.751228395899e-11 3.192973491593e+06 2.922406415208e+07  1.546870897743e+00
8.400000000000e-01 -1.244434314116e-313 1.000000000000e+05 1.000000000000e+05 1.000000000000e+00 0.000000000000e+00 -6.784706947305e-08 2.823930130146e-04 2.321478462965e-11 6.878901525787e-11 3.294065829730e+06 2.932038978805e+07  1.547093887191e+00
8.500000000000e-01 -1.244434314116e-313 1.000000000000e+05 1.000000000000e+05 1.000000000000e+00 0.000000000000e+00 -6.577263795270e-08 2.814328252572e-04 2.256664682502e-11 7.005393559098e-11 3.393489825730e+06 2.941785229085e+07  1.547308158539e+00
8.600000000000e-01 -1.244434314116e-313 1.000000000000e+05 1.000000000000e+05 1.000000000000e+00 0.000000000000e+00 -6.372763104182e-08 2.804803701792e-04 2.190696064805e-11 7.131226884755e-11 3.495203871326e+06 2.952085618464e+07  1.547514635419e+00
8.700000000000e-01 -1.244434314116e-313 1.000000000000e+05 1.000000000000e+05 1.000000000000e+00 0.000000000000e+00 -6.171355407988e-08 2.795355631714e-04 2.123834984388e-11 7.256183069928e-11 3.594652244928e+06 2.962607988132e+07  1.547714822659e+00
8.800000000000e-01 -1.244434314116e-313 1.000000000000e+05 1.000000000000e+05 1.000000000000e+00 0.000000000000e+00 -5.973444537812e-08 2.785948860234e-04 2.055814940375e-11 7.377462460108e-11 3.692208965285e+06 2.973269020979e+07  1.547904299327e+00
8.900000000000e-01 -1.244434314116e-313 1.000000000000e+05 1.000000000000e+05 1.000000000000e+00 0.000000000000e+00 -5.779330732228e-08 2.776523925631e-04 1.987269930217e-11 7.490094469400e-11 3.787834876247e+06 2.984229398938e+07  1.548092796114e+00
9.000000000000e-01 -1.244434314116e-313 1.000000000000e+05 1.000000000000e+05 1.000000000000e+00 0.000000000000e+00 -5.587988969102e-08 2.767171278013e-04 1.917625450752e-11 7.601797367930e-11 3.881161324665e+06 2.995500953430e+07  1.548277286389e+00
9.100000000000e-01 -1.244434314116e-313 1.000000000000e+05 1.000000000000e+05 1.000000000000e+00 0.000000000000e+00 -5.396738878643e-08 2.757869895146e-04 1.850262991434e-11 7.712390672889e-11 3.973422580541e+06 3.006976308422e+07  1.548457371266e+00
9.200000000000e-01 -1.244434314116e-313 1.000000000000e+05 1.000000000000e+05 1.000000000000e+00 0.000000000000e+00 -5.214374172557e-08 2.748616911300e-04 1.778975298963e-11 7.822071525605e-11 4.062992475465e+06 3.018667938524e+07  1.548635506246e+00
9.300000000000e-01 -1.244434314116e-313 1.000000000000e+05 1.000000000000e+05 1.000000000000e+00 0.000000000000e+00 -5.037486894695e-08 2.739429079280e-04 1.704733071260e-11 7.930668501932e-11 4.150571300505e+06 3.030520291254e+07  1.548810034105e+00
9.400000000000e-01 -1.244434314116e-313 1.000000000000e+05 1.000000000000e+05 1.000000000000e+00 0.000000000000e+00 -4.864683298553e-08 2.730303550137e-04 1.630607349946e-11 8.037218541000e-11 4.236449022823e+06 3.042488310759e+07  1.548980716973e+00
9.500000000000e-01 -1.244434314116e-313 1.000000000000e+05 1.000000000000e+05 1.000000000000e+00 0.000000000000e+00 -4.695920627399e-08 2.721248394772e-04 1.555853311072e-11 8.142559686921e-11 4.320933896318e+06 3.054541466055e+07  1.549147395297e+00
9.600000000000e-01 -1.244434314116e-313 1.000000000000e+05 1.000000000000e+05 1.000000000000e+00 0.000000000000e+00 -4.530747100029e-08 2.712265074384e-04 1.479394927258e-11 8.246642514181e-11 4.403233921007e+06 3.066751540060e+07  1.549311200267e+00
9.700000000000e-01 -1.244434314116e-313 1.000000000000e+05 1.000000000000e+05 1.000000000000e+00 0.000000000000e+00 -4.369409482585e-08 2.703352758188e-04 1.402432260206e-11 8.349543542453e-11 4.484630003488e+06 3.078884057630e+07  1.549469731137e+00
9.800000000000e-01 -1.244434314116e-313 1.000000000000e+05 1.000000000000e+05 1.000000000000e+00 0.000000000000e+00 -4.211900716363e-08 2.694510663669e-04 1.324691624652e-11 8.451077707642e-11 4.564872080011e+06 3.091022258573e+07  1.549624068543e+00
9.900000000000e-01 -1.244434314116e-313 1.000000000000e+05 1.000000000000e+05 1.000000000000e+00 0.000000000000e+00 -4.058280272882e-08 2.685737996480e-04 1.245564078817e-11 8.551400153604e-11 4.644396733052e+06 3.103149326397e+07  1.549774167779e+00
1.000000000000e+00 -1.244434314116e-313 1.000000000000e+05 1.000000000000e+05 1.000000000000e+00 0.000000000000e+00 -3.908402311332e-08 2.677034010943e-04 1.165065796876e-11 8.650451128977e-11 4.723751670094e+06 3.114856286024e+07  1.549915878318e+00
1.050000000000e+00 -1.244434314116e-313 1.000000000000e+05 1.000000000000e+05 1.000000000000e+00 0.000000000000e+00 -3.273572849911e-08 2.634949950403e-04 7.686197514925e-12 9.146066789560e-11 5.822372552412e+06 3.166334532360e+07  1.550560358953e+00
1.100000000000e+00 -1.244434314116e-313 1.000000000000e+05 1.000000000000e+05 1.000000000000e+00 0.000000000000e+00 -2.710060538477e-08 2.594253711017e-04 3.537322514630e-12 9.601595635691e-11 5.824870985274e+06 3.142926930276e+07  1.548965580446e+00
1.150000000000e+00 -1.244434314116e-313 1.000000000000e+05 1.000000000000e+05 1.000000000000e+00 0.000000000000e+00 -2.211798573860e-08 2.554813482646e-04 -8.672750640271e-13 1.017145727983e-10 5.040348098662e+06 3.407728869977e+07  1.554221849224e+00
1.200000000000e+00 -1.244434314116e-313 1.000000000000e+05 1.000000000000e+05 1.000000000000e+00 0.000000000000e+00 -1.769302639802e-08 2.516605361579e-04 -5.437576266820e-12 1.091107803809e-10 6.251829020104e+06 3.333692594746e+07  1.553263049717e+00
1.250000000000e+00 -1.244434314116e-313 1.000000000000e+05 1.000000000000e+05 1.000000000000e+00 0.000000000000e+00 -1.368978192697e-08 2.479661300968e-04 -1.032987436123e-11 1.162481399080e-10 6.357805865443e+06 3.391953039891e+07  1.553351171862e+00
1.300000000000e+00 -1.244434314116e-313 1.000000000000e+05 1.000000000000e+05 1.000000000000e+00 0.000000000000e+00 -1.009638585688e-08 2.443801163919e-04 -1.064534108173e-11 1.234627410081e-10 6.616565046771e+06 3.449572101424e+07  1.553966443097e+00
1.350000000000e+00 -1.244434314116e-313 1.000000000000e+05 1.000000000000e+05 1.000000000000e+00 0.000000000000e+00 -6.856214809152e-09 2.409106357315e-04 -1.037759525135e-11 1.305432517780e-10 6.859858506659e+06 3.498987816554e+07  1.554569909275e+00
1.400000000000e+00 -1.244434314116e-313 1.000000000000e+05 1.000000000000e+05 1.000000000000e+00 0.000000000000e+00 -3.787565200365e-09 2.375454834003e-04 -1.014623088650e-11 1.374493733722e-10 7.112873029999e+06 3.553712570695e+07  1.555163259173e+00