VARIABLES  = "X","Y","Z", "DISPLACEMENT_X1", "DISPLACEMENT_Y1", "STRESS_XX", "STRESS_XY", "STRESS_YY", "STRESS_ZZ", "STRAIN_XX", "STRAIN_XY", "STRAIN_YY"
ZONE T="0.000000000000e+00s", N=32, E=38, F=FEPOINT, ET=QUADRILATERAL
STRANDID=1, SOLUTIONTIME=0.000000000000e+00
1.000000000000e-02 0.000000000000e+00 5.000000000000e-02 0.000000000000e+00 0.000000000000e+00 -1.000000000000e+05 0.000000000000e+00 -1.000000000000e+05 -1.000000000000e+05 0.000000000000e+00 0.000000000000e+00 0.000000000000e+00 
1.000000000000e-02 0.000000000000e+00 4.500000000000e-02 0.000000000000e+00 0.000000000000e+00 -1.000000000000e+05 0.000000000000e+00 -1.000000000000e+05 -1.000000000000e+05 0.000000000000e+00 0.000000000000e+00 0.000000000000e+00 
5.000000000000e-03 0.000000000000e+00 5.000000000000e-02 0.000000000000e+00 0.000000000000e+00 -1.000000000000e+05 0.000000000000e+00 -1.000000000000e+05 -1.000000000000e+05 0.000000000000e+00 0.000000000000e+00 0.000000000000e+00 
5.000000000000e-03 0.000000000000e+00 4.300000000000e-02 0.000000000000e+00 0.000000000000e+00 -1.000000000000e+05 0.000000000000e+00 -1.000000000000e+05 -1.000000000000e+05 0.000000000000e+00 0.000000000000e+00 0.000000000000e+00 
1.000000000000e-02 0.000000000000e+00 4.000000000000e-02 0.000000000000e+00 0.000000000000e+00 -1.000000000000e+05 0.000000000000e+00 -1.000000000000e+05 -1.000000000000e+05 0.000000000000e+00 0.000000000000e+00 0.000000000000e+00 
0.000000000000e+00 0.000000000000e+00 5.000000000000e-02 0.000000000000e+00 0.000000000000e+00 -1.000000000000e+05 0.000000000000e+00 -1.000000000000e+05 -1.000000000000e+05 0.000000000000e+00 0.000000000000e+00 0.000000000000e+00 
0.000000000000e+00 0.000000000000e+00 4.500000000000e-02 0.000000000000e+00 0.000000000000e+00 -1.000000000000e+05 0.000000000000e+00 -1.000000000000e+05 -1.000000000000e+05 0.000000000000e+00 0.000000000000e+00 0.000000000000e+00 
6.000000000000e-03 0.000000000000e+00 3.800000000000e-02 0.000000000000e+00 0.000000000000e+00 -1.000000000000e+05 0.000000000000e+00 -1.000000000000e+05 -1.000000000000e+05 0.000000000000e+00 0.000000000000e+00 0.000000000000e+00 
0.000000000000e+00 0.000000000000e+00 4.000000000000e-02 0.000000000000e+00 0.000000000000e+00 -1.000000000000e+05 0.000000000000e+00 -1.000000000000e+05 -1.000000000000e+05 0.000000000000e+00 0.000000000000e+00 0.000000000000e+00 
1.000000000000e-02 0.000000000000e+00 3.500000000000e-02 0.000000000000e+00 0.000000000000e+00 -1.000000000000e+05 0.000000000000e+00 -1.000000000000e+05 -1.000000000000e+05 0.000000000000e+00 0.000000000000e+00 0.000000000000e+00 
0.000000000000e+00 0.000000000000e+00 3.500000000000e-02 0.000000000000e+00 0.000000000000e+00 -1.000000000000e+05 0.000000000000e+00 -1.000000000000e+05 -1.000000000000e+05 0.000000000000e+00 0.000000000000e+00 0.000000000000e+00 
4.000000000000e-03 0.000000000000e+00 3.300000000000e-02 0.000000000000e+00 0.000000000000e+00 -1.000000000000e+05 0.000000000000e+00 -1.000000000000e+05 -1.000000000000e+05 0.000000000000e+00 0.000000000000e+00 0.000000000000e+00 
1.000000000000e-02 0.000000000000e+00 3.000000000000e-02 0.000000000000e+00 0.000000000000e+00 -1.000000000000e+05 0.000000000000e+00 -1.000000000000e+05 -1.000000000000e+05 0.000000000000e+00 0.000000000000e+00 0.000000000000e+00 
0.000000000000e+00 0.000000000000e+00 3.000000000000e-02 0.000000000000e+00 0.000000000000e+00 -1.000000000000e+05 0.000000000000e+00 -1.000000000000e+05 -1.000000000000e+05 0.000000000000e+00 0.000000000000e+00 0.000000000000e+00 
4.000000000000e-03 0.000000000000e+00 2.800000000000e-02 0.000000000000e+00 0.000000000000e+00 -1.000000000000e+05 0.000000000000e+00 -1.000000000000e+05 -1.000000000000e+05 0.000000000000e+00 0.000000000000e+00 0.000000000000e+00 
1.000000000000e-02 0.000000000000e+00 2.500000000000e-02 0.000000000000e+00 0.000000000000e+00 -1.000000000000e+05 0.000000000000e+00 -1.000000000000e+05 -1.000000000000e+05 0.000000000000e+00 0.000000000000e+00 0.000000000000e+00 
0.000000000000e+00 0.000000000000e+00 2.500000000000e-02 0.000000000000e+00 0.000000000000e+00 -1.000000000000e+05 0.000000000000e+00 -1.000000000000e+05 -1.000000000000e+05 0.000000000000e+00 0.000000000000e+00 0.000000000000e+00 
4.000000000000e-03 0.000000000000e+00 2.300000000000e-02 0.000000000000e+00 0.000000000000e+00 -1.000000000000e+05 0.000000000000e+00 -1.000000000000e+05 -1.000000000000e+05 0.000000000000e+00 0.000000000000e+00 0.000000000000e+00 
1.000000000000e-02 0.000000000000e+00 2.000000000000e-02 0.000000000000e+00 0.000000000000e+00 -1.000000000000e+05 0.000000000000e+00 -1.000000000000e+05 -1.000000000000e+05 0.000000000000e+00 0.000000000000e+00 0.000000000000e+00 
0.000000000000e+00 0.000000000000e+00 2.000000000000e-02 0.000000000000e+00 0.000000000000e+00 -1.000000000000e+05 0.000000000000e+00 -1.000000000000e+05 -1.000000000000e+05 0.000000000000e+00 0.000000000000e+00 0.000000000000e+00 
4.000000000000e-03 0.000000000000e+00 1.800000000000e-02 0.000000000000e+00 0.000000000000e+00 -1.000000000000e+05 0.000000000000e+00 -1.000000000000e+05 -1.000000000000e+05 0.000000000000e+00 0.000000000000e+00 0.000000000000e+00 
1.000000000000e-02 0.000000000000e+00 1.500000000000e-02 0.000000000000e+00 0.000000000000e+00 -1.000000000000e+05 0.000000000000e+00 -1.000000000000e+05 -1.000000000000e+05 0.000000000000e+00 0.000000000000e+00 0.000000000000e+00 
0.000000000000e+00 0.000000000000e+00 1.500000000000e-02 0.000000000000e+00 0.000000000000e+00 -1.000000000000e+05 0.000000000000e+00 -1.000000000000e+05 -1.000000000000e+05 0.000000000000e+00 0.000000000000e+00 0.000000000000e+00 
4.000000000000e-03 0.000000000000e+00 1.300000000000e-02 0.000000000000e+00 0.000000000000e+00 -1.000000000000e+05 0.000000000000e+00 -1.000000000000e+05 -1.000000000000e+05 0.000000000000e+00 0.000000000000e+00 0.000000000000e+00 
1.000000000000e-02 0.000000000000e+00 1.000000000000e-02 0.000000000000e+00 0.000000000000e+00 -1.000000000000e+05 0.000000000000e+00 -1.000000000000e+05 -1.000000000000e+05 0.000000000000e+00 0.000000000000e+00 0.000000000000e+00 
0.000000000000e+00 0.000000000000e+00 1.000000000000e-02 0.000000000000e+00 0.000000000000e+00 -1.000000000000e+05 0.000000000000e+00 -1.000000000000e+05 -1.000000000000e+05 0.000000000000e+00 0.000000000000e+00 0.000000000000e+00 
5.000000000000e-03 0.000000000000e+00 7.000000000000e-03 0.000000000000e+00 0.000000000000e+00 -1.000000000000e+05 0.000000000000e+00 -1.000000000000e+05 -1.000000000000e+05 0.000000000000e+00 0.000000000000e+00 0.000000000000e+00 
1.000000000000e-02 0.000000000000e+00 5.000000000000e-03 0.000000000000e+00 0.000000000000e+00 -1.000000000000e+05 0.000000000000e+00 -1.000000000000e+05 -1.000000000000e+05 0.000000000000e+00 0.000000000000e+00 0.000000000000e+00 
0.000000000000e+00 0.000000000000e+00 5.000000000000e-03 0.000000000000e+00 0.000000000000e+00 -1.000000000000e+05 0.000000000000e+00 -1.000000000000e+05 -1.000000000000e+05 0.000000000000e+00 0.000000000000e+00 0.000000000000e+00 
1.000000000000e-02 0.000000000000e+00 0.000000000000e+00 0.000000000000e+00 0.000000000000e+00 -1.000000000000e+05 0.000000000000e+00 -1.000000000000e+05 -1.000000000000e+05 0.000000000000e+00 0.000000000000e+00 0.000000000000e+00 
5.000000000000e-03 0.000000000000e+00 0.000000000000e+00 0.000000000000e+00 0.000000000000e+00 -1.000000000000e+05 0.000000000000e+00 -1.000000000000e+05 -1.000000000000e+05 0.000000000000e+00 0.000000000000e+00 0.000000000000e+00 
0.000000000000e+00 0.000000000000e+00 0.000000000000e+00 0.000000000000e+00 0.000000000000e+00 -1.000000000000e+05 0.000000000000e+00 -1.000000000000e+05 -1.000000000000e+05 0.000000000000e+00 0.000000000000e+00 0.000000000000e+00 
14  17  15  14
15  17  18  15
18  17  20  18
14  15  12  14
30  28  31  30
12  15  13  12
18  20  21  18
21  20  23  21
18  21  19  18
21  23  24  21
24  23  26  24
21  24  22  21
5  2  4  5
4  2  3  4
5  4  8  5
8  4  9  8
5  8  10  5
24  26  27  24
27  26  29  27
24  27  25  24
10  8  12  10
27  29  31  27
19  16  18  19
6  7  3  6
25  22  24  25
1  3  2  1
13  10  12  13
9  11  8  9
32  31  29  32
15  18  16  15
14  12  11  14
11  12  8  11
28  25  27  28
7  9  4  7
16  13  15  16
22  19  21  22
7  4  3  7
28  27  31  28
VARIABLES  = "X","Y","Z", "DISPLACEMENT_X1", "DISPLACEMENT_Y1", "STRESS_XX", "STRESS_XY", "STRESS_YY", "STRESS_ZZ", "STRAIN_XX", "STRAIN_XY", "STRAIN_YY"
ZONE T="1.000000000000e-03s", N=32, E=38, F=FEPOINT, ET=QUADRILATERAL
STRANDID=1, SOLUTIONTIME=1.000000000000e-03
1.000000000000e-02 0.000000000000e+00 5.000000000000e-02 0.000000000000e+00 0.000000000000e+00 -2.683092192343e+04 2.040117039541e-01 9.713190386647e+03 -2.684710756277e+04 1.661725638930e-06 4.189040321191e-08 3.753523922807e-03 
1.000000000000e-02 0.000000000000e+00 4.500000000000e-02 0.000000000000e+00 -1.875803017754e-05 -2.690160616444e+04 -5.727901200529e+00 9.600431180904e+03 -2.692044486798e+04 1.934106897230e-06 -1.176129046509e-06 3.749476607686e-03 
5.000000000000e-03 0.000000000000e+00 5.000000000000e-02 -4.199779267826e-09 0.000000000000e+00 -2.687056224515e+04 -4.441457474577e-01 9.690344884551e+03 -2.687206459386e+04 1.542411336252e-07 -9.119792681131e-08 3.753740706450e-03 
5.000000000000e-03 0.000000000000e+00 4.300000000000e-02 -1.305221052913e-08 -2.627419353807e-05 -2.680876317832e+04 4.059546953866e+01 9.795310596842e+03 -2.680548489073e+04 -3.365708592374e-07 8.335603078605e-06 3.757681670057e-03 
1.000000000000e-02 0.000000000000e+00 4.000000000000e-02 0.000000000000e+00 -3.747961684546e-05 -2.682857694228e+04 4.171016906537e+01 9.391891096931e+03 -2.697463927060e+04 1.499573237472e-05 8.564488048090e-06 3.733630451067e-03 
0.000000000000e+00 0.000000000000e+00 5.000000000000e-02 0.000000000000e+00 0.000000000000e+00 -2.685694408979e+04 1.444094783746e+00 9.742584968674e+03 -2.684576278468e+04 -1.147947324562e-06 2.965207955959e-07 3.756403702677e-03 
0.000000000000e+00 0.000000000000e+00 4.500000000000e-02 0.000000000000e+00 -1.877648130381e-05 -2.694324114948e+04 3.662595607461e+00 9.671681892625e+03 -2.690859490509e+04 -3.557014424031e-06 7.520529647320e-07 3.755575084566e-03 
6.000000000000e-03 0.000000000000e+00 3.800000000000e-02 -6.484819266759e-08 -4.500430469204e-05 -2.748529822021e+04 2.770231460074e+02 8.935509477503e+03 -2.741938607435e+04 -6.766980308515e-06 5.688208598019e-05 3.732435943323e-03 
0.000000000000e+00 0.000000000000e+00 4.000000000000e-02 0.000000000000e+00 -3.756495833021e-05 -2.689540878288e+04 -4.136959065016e+01 9.835319996048e+03 -2.682408886366e+04 -7.322178372306e-06 -8.494555946834e-06 3.763699309597e-03 
1.000000000000e-02 0.000000000000e+00 3.500000000000e-02 0.000000000000e+00 -5.617618394506e-05 -2.480245930614e+04 -2.471619662617e+02 1.177691087922e+04 -2.521179906260e+04 4.202554833013e-05 -5.075059040574e-05 3.797507554027e-03 
0.000000000000e+00 0.000000000000e+00 3.500000000000e-02 0.000000000000e+00 -5.644204796371e-05 -2.579668731952e+04 2.046191721761e+02 1.190469517760e+04 -2.555783516082e+04 -2.452215496067e-05 4.201513668683e-05 3.846153114744e-03 
4.000000000000e-03 0.000000000000e+00 3.300000000000e-02 -2.251820012987e-07 -6.391813192747e-05 -2.475416028177e+04 8.408307206403e+02 1.236181116827e+04 -2.495853453538e+04 2.098242337083e-05 1.726505746381e-04 3.831555492241e-03 
1.000000000000e-02 0.000000000000e+00 3.000000000000e-02 0.000000000000e+00 -7.479384640180e-05 -3.477406062288e+04 -3.359899835727e+01 -4.496845352061e+03 -3.569990002010e+04 9.505284478112e-05 -6.898994329359e-06 3.203513612585e-03 
0.000000000000e+00 0.000000000000e+00 3.000000000000e-02 0.000000000000e+00 -7.581284685850e-05 -2.914626756233e+04 -7.550170807816e+01 1.004868238516e+04 -2.763407272399e+04 -1.552520034026e-04 -1.550301739205e-05 3.868762857873e-03 
4.000000000000e-03 0.000000000000e+00 2.800000000000e-02 -8.409117696485e-07 -8.372191870033e-05 -2.901860928608e+04 4.532524550915e+03 1.558685587250e+04 -2.537747513784e+04 -3.738231058862e-04 9.306783744546e-04 4.205671317062e-03 
1.000000000000e-02 0.000000000000e+00 2.500000000000e-02 0.000000000000e+00 -9.003827275120e-05 1.112858094735e+03 2.244668755152e+03 1.737825093873e+04 -1.263041871318e+04 1.410976418946e-03 4.609053177245e-04 3.080890084264e-03 
0.000000000000e+00 0.000000000000e+00 2.500000000000e-02 0.000000000000e+00 -9.637828693387e-05 -4.471071500506e+02 -3.454413476073e+03 5.018555308963e+04 -1.326642874768e+02 -3.228280055758e-05 -7.093062337537e-04 5.166003650716e-03 
4.000000000000e-03 0.000000000000e+00 2.300000000000e-02 -5.475998895964e-06 -1.001611280612e-04 -5.304488329472e+04 2.400538724884e+04 -3.069624333666e+04 -5.339090558189e+04 8.691837918151e-07 4.795396729490e-03 2.197902253759e-03 
1.000000000000e-02 0.000000000000e+00 2.000000000000e-02 0.000000000000e+00 -1.049808963974e-04 8.316466297406e+04 -1.883860272103e+04 1.513977615774e+05 7.393235110641e+04 8.636308437188e-04 -4.296875555841e-03 7.813862327085e-03 
0.000000000000e+00 0.000000000000e+00 2.000000000000e-02 0.000000000000e+00 -1.415673849914e-04 -8.819746660716e+04 3.148809647593e+04 5.801428465217e+04 -3.201733406358e+04 -1.085438640418e-02 6.500693298333e-03 1.275619396439e-02 
4.000000000000e-03 0.000000000000e+00 1.800000000000e-02 -2.826286055133e-05 -1.460819913539e-04 7.859457786836e+04 3.236684373457e+04 1.672351947935e+05 7.754006920178e+04 6.872138544287e-04 1.043131296797e-02 1.450374977696e-02 
1.000000000000e-02 0.000000000000e+00 1.500000000000e-02 0.000000000000e+00 -9.697602030342e-05 -1.784165265093e+05 1.110877610997e+04 -2.297229593848e+05 -1.824042805771e+05 1.483319762648e-02 1.914721587212e-02 -7.351031302540e-02 
0.000000000000e+00 0.000000000000e+00 1.500000000000e-02 0.000000000000e+00 -9.984775054299e-05 -3.103835384288e+04 -2.715531279301e+03 -1.015521598871e+05 -7.308761802068e+04 5.838483645929e-03 -2.008654176620e-02 -2.294711426121e-02 
4.000000000000e-03 0.000000000000e+00 1.300000000000e-02 -1.482733534976e-05 -1.232292546188e-04 -9.186580745021e+04 2.826706748346e+05 4.489262056908e+05 1.239700334037e+05 -3.461705984754e-02 6.243851153294e-02 -7.768102182949e-03 
1.000000000000e-02 0.000000000000e+00 1.000000000000e-02 0.000000000000e+00 2.036669606199e-04 3.465407937116e+05 -1.784049723898e+05 3.704131792180e+05 2.641601099935e+05 8.790360700128e-02 -6.467564594499e-02 2.036890225439e-01 
0.000000000000e+00 0.000000000000e+00 1.000000000000e-02 0.000000000000e+00 -6.174784832604e-04 1.008394259252e+05 -7.237366931991e+02 2.065750908204e+05 9.972116915899e+04 -1.247018367071e-01 1.720907634046e-01 3.473105587019e-01 
5.000000000000e-03 0.000000000000e+00 7.000000000000e-03 -7.773703688132e-04 3.536589181400e-04 3.683925583972e+05 2.503523194035e+05 -9.317184436048e+05 -2.445164279602e+05 3.109169714337e-01 2.150039375583e-01 -1.991854494675e-01 
1.000000000000e-02 0.000000000000e+00 5.000000000000e-03 0.000000000000e+00 -1.417456456111e-03 -2.694758950837e+05 -1.941579161526e+04 -3.197653314319e+05 -2.516740178951e+05 -2.800495830722e-01 -3.276133313960e-01 -4.764754966049e-01 
0.000000000000e+00 0.000000000000e+00 5.000000000000e-03 0.000000000000e+00 -1.129409347216e-03 -3.075945737270e+05 4.996569188527e+03 -3.372099647632e+05 -2.721265483349e+05 -5.625206711008e-01 1.696257812235e-01 -6.427969335491e-01 
1.000000000000e-02 0.000000000000e+00 0.000000000000e+00 0.000000000000e+00 0.000000000000e+00 1.488723233327e+05 4.558231519721e+04 7.385655753459e+05 3.111357824382e+05 -1.656589435342e-01 4.994705106647e-02 6.361225571226e-01 
5.000000000000e-03 0.000000000000e+00 0.000000000000e+00 -6.568649070836e-05 0.000000000000e+00 2.485177151551e+05 -2.359418597712e+04 2.277252785940e+05 1.637981554409e+05 2.983767646379e-01 -3.776923244901e-02 2.494633776855e-01 
0.000000000000e+00 0.000000000000e+00 0.000000000000e+00 0.000000000000e+00 0.000000000000e+00 8.104232481417e+04 -6.441786904498e+04 9.300348646224e+05 3.488726573374e+05 -2.038640769021e-01 -5.675483505486e-02 6.537646394123e-01 
14  17  15  14
15  17  18  15
18  17  20  18
14  15  12  14
30  28  31  30
12  15  13  12
18  20  21  18
21  20  23  21
18  21  19  18
21  23  24  21
24  23  26  24
21  24  22  21
5  2  4  5
4  2  3  4
5  4  8  5
8  4  9  8
5  8  10  5
24  26  27  24
27  26  29  27
24  27  25  24
10  8  12  10
27  29  31  27
19  16  18  19
6  7  3  6
25  22  24  25
1  3  2  1
13  10  12  13
9  11  8  9
32  31  29  32
15  18  16  15
14  12  11  14
11  12  8  11
28  25  27  28
7  9  4  7
16  13  15  16
22  19  21  22
7  4  3  7
28  27  31  28
VARIABLES  = "X","Y","Z", "DISPLACEMENT_X1", "DISPLACEMENT_Y1", "STRESS_XX", "STRESS_XY", "STRESS_YY", "STRESS_ZZ", "STRAIN_XX", "STRAIN_XY", "STRAIN_YY"
ZONE T="1.000000000000e-02s", N=32, E=38, F=FEPOINT, ET=QUADRILATERAL
STRANDID=1, SOLUTIONTIME=1.000000000000e-02
1.000000000000e-02 0.000000000000e+00 5.000000000000e-02 0.000000000000e+00 0.000000000000e+00 -9.485445346653e+05 1.592131680039e+03 -1.352027441356e+06 -9.402287813735e+05 1.114364277007e-04 1.014539805755e-04 -4.486764601106e-02 
1.000000000000e-02 0.000000000000e+00 4.500000000000e-02 0.000000000000e+00 2.270451587686e-04 -9.469045471099e+05 3.466199662476e+03 -1.408742151404e+06 -9.622587030761e+05 3.601605107750e-04 -1.122138062768e-04 -4.640935161377e-02 
5.000000000000e-03 0.000000000000e+00 5.000000000000e-02 -1.518672424771e-07 0.000000000000e+00 -9.716132851719e+05 1.510503578695e+03 -1.463971936892e+06 -9.942340843373e+05 3.810671146439e-04 1.036218718936e-05 -4.452877231076e-02 
5.000000000000e-03 0.000000000000e+00 4.300000000000e-02 -5.851731532307e-07 3.131328373380e-04 -9.688569535081e+05 1.345361485924e+04 -1.404551500424e+06 -9.693633801502e+05 3.959062296826e-05 1.024002315267e-03 -4.451358350767e-02 
1.000000000000e-02 0.000000000000e+00 4.000000000000e-02 0.000000000000e+00 4.554739408021e-04 -9.809027436228e+05 3.041148879404e+04 -1.501963264843e+06 -1.013146342351e+06 8.565458066853e-04 1.353652914189e-03 -4.408969871368e-02 
0.000000000000e+00 0.000000000000e+00 5.000000000000e-02 0.000000000000e+00 0.000000000000e+00 -9.703054469685e+05 1.362064056708e+02 -1.341004220005e+06 -9.445238598281e+05 -5.681910281736e-04 5.696478881075e-05 -4.400352583982e-02 
0.000000000000e+00 0.000000000000e+00 4.500000000000e-02 0.000000000000e+00 2.230275299208e-04 -9.682467803165e+05 -3.170737254889e+03 -1.339483215348e+06 -9.430920117975e+05 -8.199258904223e-04 2.552232036437e-04 -4.525499499741e-02 
6.000000000000e-03 0.000000000000e+00 3.800000000000e-02 -1.490397560751e-06 5.371193718060e-04 -9.465569897887e+05 2.143147609943e+04 -1.357054279916e+06 -9.414445564906e+05 -9.347210464721e-05 1.512486013891e-03 -4.432201946336e-02 
0.000000000000e+00 0.000000000000e+00 4.000000000000e-02 0.000000000000e+00 4.466036305492e-04 -9.732654200054e+05 -4.518360350990e+03 -1.369258847679e+06 -9.570096482235e+05 -5.525439166652e-04 -5.488954723325e-04 -4.385498122237e-02 
1.000000000000e-02 0.000000000000e+00 3.500000000000e-02 0.000000000000e+00 6.649258897284e-04 -9.786680746592e+05 -5.187710143426e+04 -1.466061936044e+06 -9.978924528136e+05 5.414691458894e-04 -1.784642278096e-03 -4.137751099935e-02 
0.000000000000e+00 0.000000000000e+00 3.500000000000e-02 0.000000000000e+00 6.640019745247e-04 -9.566231257799e+05 1.527062881654e+04 -1.337233291186e+06 -9.375428489826e+05 -5.555874917843e-04 1.113557584659e-03 -4.179397568530e-02 
4.000000000000e-03 0.000000000000e+00 3.300000000000e-02 -8.808759817803e-07 7.537920928607e-04 -1.000687591478e+06 2.095816475543e+04 -1.443221826615e+06 -9.975633554365e+05 -2.320697023843e-04 1.269278398358e-03 -4.072094241327e-02 
1.000000000000e-02 0.000000000000e+00 3.000000000000e-02 0.000000000000e+00 8.857256414347e-04 -9.800185640045e+05 1.754018328261e+04 -1.517451218357e+06 -1.018986830374e+06 1.142675383391e-03 1.500448890363e-03 -4.338616921937e-02 
0.000000000000e+00 0.000000000000e+00 3.000000000000e-02 0.000000000000e+00 8.905610085714e-04 -9.020081081505e+05 -5.342217666268e+04 -1.346479575047e+06 -9.193945348683e+05 8.247664984523e-04 -4.018857185477e-03 -4.678622027127e-02 
4.000000000000e-03 0.000000000000e+00 2.800000000000e-02 1.108014102754e-06 9.501930584983e-04 -9.239860938948e+05 -4.737876429597e+04 -1.257530859957e+06 -8.926119031617e+05 -1.411764212041e-03 -4.841123523624e-03 -4.177084139656e-02 
1.000000000000e-02 0.000000000000e+00 2.500000000000e-02 0.000000000000e+00 1.065267696210e-03 -1.126200295462e+06 -4.367708096397e+04 -1.517519077589e+06 -1.077488046419e+06 -1.579746835892e-03 -1.229257091533e-03 -3.034308586638e-02 
0.000000000000e+00 0.000000000000e+00 2.500000000000e-02 0.000000000000e+00 1.095854608787e-03 -8.790785316161e+05 7.512650613443e+04 -1.702077467292e+06 -1.052461664275e+06 7.240649679637e-03 3.878182819323e-03 -4.950089446693e-02 
4.000000000000e-03 0.000000000000e+00 2.300000000000e-02 1.182204924592e-05 1.189956374289e-03 -9.716161832919e+05 -1.655921487525e+05 -1.356503335849e+06 -9.511721931658e+05 -5.652479301810e-05 -1.317482238976e-02 -4.208849845394e-02 
1.000000000000e-02 0.000000000000e+00 2.000000000000e-02 0.000000000000e+00 1.216900306965e-03 -6.955366019600e+05 -1.581611623522e+04 -9.682488852595e+05 -6.854413898038e+05 -4.681873258192e-03 -1.954293310094e-03 -2.651823700651e-02 
0.000000000000e+00 0.000000000000e+00 2.000000000000e-02 0.000000000000e+00 1.309039012672e-03 -1.143664891122e+06 4.637049715054e+04 -1.681422286594e+06 -1.150043401721e+06 -5.379604530328e-03 7.114445253625e-03 -3.082337604864e-02 
4.000000000000e-03 0.000000000000e+00 1.800000000000e-02 -9.387696531033e-06 1.327413855506e-03 -6.943939788570e+05 -1.051237407097e+05 -1.300450736248e+06 -8.185310844155e+05 5.510877935040e-03 -2.575613977401e-02 -2.179484132586e-02 
1.000000000000e-02 0.000000000000e+00 1.500000000000e-02 0.000000000000e+00 1.392915600004e-03 -1.988709688435e+06 1.745944543302e+05 -2.804627672663e+06 -1.936865407811e+06 1.088551162351e-02 4.905941124666e-02 -1.461259504747e-01 
0.000000000000e+00 0.000000000000e+00 1.500000000000e-02 0.000000000000e+00 1.635941762633e-03 -1.225702597750e+06 -4.077686851429e+04 -2.176793733824e+06 -1.382417332502e+06 1.625845848806e-02 -4.676505648784e-02 -9.083897404072e-02 
4.000000000000e-03 0.000000000000e+00 1.300000000000e-02 -1.145725463310e-04 1.668953678375e-03 -2.584126181611e+06 3.691327250084e+05 -3.093640245050e+06 -2.295655331787e+06 -4.631368211352e-02 7.785515427584e-02 -9.119762373042e-02 
1.000000000000e-02 0.000000000000e+00 1.000000000000e-02 0.000000000000e+00 1.942854842456e-03 6.326976454422e+06 -2.458629624628e+06 9.725176317037e+06 6.444394740089e+06 1.679887710371e-01 -8.752654821440e-02 3.435866350385e-01 
0.000000000000e+00 0.000000000000e+00 1.000000000000e-02 0.000000000000e+00 9.398113890460e-04 -2.446065611133e+06 3.224593083318e+06 8.328453159317e+06 2.374830284456e+06 -2.128541933849e-01 2.816708718692e-01 6.018185410180e-01 
5.000000000000e-03 0.000000000000e+00 7.000000000000e-03 -1.392914986937e-03 2.473168333389e-03 1.016982950811e+07 2.686858650502e+06 -9.369204927844e+06 3.244347812094e+05 6.649269108679e-01 4.211976344264e-01 -5.080962553321e-01 
1.000000000000e-02 0.000000000000e+00 5.000000000000e-03 0.000000000000e+00 -1.162814438825e-03 -1.274818549632e+07 -7.618045455883e+06 -1.579172224914e+07 -1.048916708781e+07 -9.431680507966e-01 -9.642599900674e-01 -1.013778138465e+00 
0.000000000000e+00 0.000000000000e+00 5.000000000000e-03 0.000000000000e+00 1.459323220417e-04 -1.823367691417e+07 4.222430885378e+06 -2.084058122063e+07 -1.494238231369e+07 -1.681498537539e+00 7.247953738011e-01 -1.379678094588e+00 
1.000000000000e-02 0.000000000000e+00 0.000000000000e+00 0.000000000000e+00 0.000000000000e+00 -2.212837544224e+07 1.327118159861e+07 6.665618862408e+07 1.118252150022e+07 -6.335176607867e-01 1.368172921221e-01 2.045367405973e+00 
5.000000000000e-03 0.000000000000e+00 0.000000000000e+00 -7.573336611491e-04 0.000000000000e+00 1.306000451350e+07 -2.412388307965e+06 1.842428592637e+07 1.171783127122e+07 1.295865785932e+00 -1.515151231007e-01 1.564859904905e+00 
0.000000000000e+00 0.000000000000e+00 0.000000000000e+00 0.000000000000e+00 0.000000000000e+00 -3.627110926270e+07 -8.786230666931e+06 6.211755129931e+07 6.272683378020e+06 -8.402570616376e-01 -1.593863604852e-01 2.360532981090e+00 
14  17  15  14
15  17  18  15
18  17  20  18
14  15  12  14
30  28  31  30
12  15  13  12
18  20  21  18
21  20  23  21
18  21  19  18
21  23  24  21
24  23  26  24
21  24  22  21
5  2  4  5
4  2  3  4
5  4  8  5
8  4  9  8
5  8  10  5
24  26  27  24
27  26  29  27
24  27  25  24
10  8  12  10
27  29  31  27
19  16  18  19
6  7  3  6
25  22  24  25
1  3  2  1
13  10  12  13
9  11  8  9
32  31  29  32
15  18  16  15
14  12  11  14
11  12  8  11
28  25  27  28
7  9  4  7
16  13  15  16
22  19  21  22
7  4  3  7
28  27  31  28
VARIABLES  = "X","Y","Z", "DISPLACEMENT_X1", "DISPLACEMENT_Y1", "STRESS_XX", "STRESS_XY", "STRESS_YY", "STRESS_ZZ", "STRAIN_XX", "STRAIN_XY", "STRAIN_YY"
ZONE T="1.000000000000e-01s", N=32, E=38, F=FEPOINT, ET=QUADRILATERAL
STRANDID=1, SOLUTIONTIME=1.000000000000e-01
1.000000000000e-02 0.000000000000e+00 5.000000000000e-02 0.000000000000e+00 0.000000000000e+00 -1.387328773558e+06 1.832151692490e+03 -1.981979290222e+06 -1.367723086303e+06 -4.035785809322e-06 1.100943119828e-04 -4.640012718632e-02 
1.000000000000e-02 0.000000000000e+00 4.500000000000e-02 0.000000000000e+00 2.359970899737e-04 -1.390018015886e+06 1.182337788617e+04 -2.093341652133e+06 -1.413344099288e+06 4.521308320989e-04 6.818201716937e-05 -4.815076685108e-02 
5.000000000000e-03 0.000000000000e+00 5.000000000000e-02 -2.443294453182e-07 0.000000000000e+00 -1.423028968448e+06 4.649128590286e+03 -2.181360127437e+06 -1.461755800277e+06 5.397306060393e-04 6.634997489215e-05 -4.613962949174e-02 
5.000000000000e-03 0.000000000000e+00 4.300000000000e-02 -5.919858764122e-07 3.245667568657e-04 -1.408229135958e+06 1.558763498238e+04 -2.069148144164e+06 -1.410950115269e+06 4.951283359501e-05 1.075338118453e-03 -4.610277621933e-02 
1.000000000000e-02 0.000000000000e+00 4.000000000000e-02 0.000000000000e+00 4.723310232795e-04 -1.428647304327e+06 4.016516832782e+04 -2.206929236961e+06 -1.474230758962e+06 9.793923891756e-04 1.535012718462e-03 -4.571188270953e-02 
0.000000000000e+00 0.000000000000e+00 5.000000000000e-02 0.000000000000e+00 0.000000000000e+00 -1.406007856332e+06 -7.234072244551e+02 -1.950970732439e+06 -1.362791271054e+06 -7.458836707619e-04 4.290556255019e-05 -4.568328190133e-02 
0.000000000000e+00 0.000000000000e+00 4.500000000000e-02 0.000000000000e+00 2.313446674615e-04 -1.412644048725e+06 -1.329549757164e+04 -1.964351063712e+06 -1.370798279255e+06 -9.962078471198e-04 7.721229168295e-05 -4.687832518420e-02 
6.000000000000e-03 0.000000000000e+00 3.800000000000e-02 -1.869519059232e-06 5.573857595490e-04 -1.387192346825e+06 2.679513950938e+04 -2.020335241263e+06 -1.383015189492e+06 -9.851912682525e-05 1.633616863558e-03 -4.624085012256e-02 
0.000000000000e+00 0.000000000000e+00 4.000000000000e-02 0.000000000000e+00 4.630905240671e-04 -1.417382043643e+06 -1.081958376392e+04 -2.007587660241e+06 -1.389987373994e+06 -6.552144341026e-04 -7.109034807349e-04 -4.548787361599e-02 
1.000000000000e-02 0.000000000000e+00 3.500000000000e-02 0.000000000000e+00 6.898150318442e-04 -1.419786780472e+06 -7.004158400646e+04 -2.140955828393e+06 -1.444286933259e+06 6.054810498706e-04 -2.091814131152e-03 -4.303368250056e-02 
0.000000000000e+00 0.000000000000e+00 3.500000000000e-02 0.000000000000e+00 6.891699825165e-04 -1.394824077244e+06 1.208498370490e+04 -1.995540797577e+06 -1.376138820002e+06 -5.434594200416e-04 1.010030682660e-03 -4.359118232817e-02 
4.000000000000e-03 0.000000000000e+00 3.300000000000e-02 -1.219551795977e-06 7.820970166726e-04 -1.450889268932e+06 2.759516625403e+04 -2.105516207879e+06 -1.442548637859e+06 -3.010846218385e-04 1.387028932713e-03 -4.228928796492e-02 
1.000000000000e-02 0.000000000000e+00 3.000000000000e-02 0.000000000000e+00 9.192561390188e-04 -1.423488320183e+06 1.506589594495e+04 -2.213930303863e+06 -1.475024862776e+06 1.275093280817e-03 1.476857586669e-03 -4.501031578341e-02 
0.000000000000e+00 0.000000000000e+00 3.000000000000e-02 0.000000000000e+00 9.235812586482e-04 -1.345955913964e+06 -4.682684934847e+04 -2.001677967165e+06 -1.359089399362e+06 7.771424909198e-04 -3.876586635015e-03 -4.847402615721e-02 
4.000000000000e-03 0.000000000000e+00 2.800000000000e-02 7.187169725740e-07 9.869328556518e-04 -1.364489503100e+06 -5.261704886164e+04 -1.910483193306e+06 -1.329975970584e+06 -1.445530654141e-03 -4.901063669927e-03 -4.350386765980e-02 
1.000000000000e-02 0.000000000000e+00 2.500000000000e-02 0.000000000000e+00 1.106627706778e-03 -1.610463021760e+06 -5.274164522897e+04 -2.277264841670e+06 -1.574886741572e+06 -1.441994852484e-03 -1.363276322075e-03 -3.198259238438e-02 
0.000000000000e+00 0.000000000000e+00 2.500000000000e-02 0.000000000000e+00 1.136882629622e-03 -1.375544274600e+06 1.154844461648e+05 -2.370168765216e+06 -1.518060032918e+06 6.929723681041e-03 4.535585176803e-03 -5.103961324612e-02 
4.000000000000e-03 0.000000000000e+00 2.300000000000e-02 1.134138622798e-05 1.235016197759e-03 -1.406323620571e+06 -1.640717314304e+05 -1.983411229340e+06 -1.376161359809e+06 -1.509329531444e-04 -1.304772144843e-02 -4.351607960540e-02 
1.000000000000e-02 0.000000000000e+00 2.000000000000e-02 0.000000000000e+00 1.267981722841e-03 -1.111218191843e+06 1.275054320137e+03 -1.709947204938e+06 -1.148595881422e+06 -4.185675865059e-03 -1.791639043175e-03 -2.921856973931e-02 
0.000000000000e+00 0.000000000000e+00 2.000000000000e-02 0.000000000000e+00 1.359681039692e-03 -1.542156099169e+06 -2.341828965463e+04 -2.267745095523e+06 -1.544353789699e+06 -5.395128139030e-03 6.087186778304e-03 -3.210356694223e-02 
4.000000000000e-03 0.000000000000e+00 1.800000000000e-02 -1.068731771504e-05 1.381804557952e-03 -1.269549604629e+06 4.517429818232e+03 -2.219869180790e+06 -1.414283711475e+06 5.717000714753e-03 -2.392484105675e-02 -2.441678667313e-02 