 TITLE = "Profiles along polylines"
 VARIABLES = "DIST" "DISPLACEMENT_X1" "DISPLACEMENT_Y1" "STRESS_XX" "STRESS_XY" "STRESS_YY" "STRESS_ZZ" "STRAIN_XX" "STRAIN_XY" "STRAIN_YY"  p_(1st_Invariant)  q_(2nd_Invariant)   Effective_Strain
 ZONE T="TIME=0.000000000000e+00"
0.000000000000e+00 0.000000000000e+00 0.000000000000e+00 -1.000000000000e+05 0.000000000000e+00 -1.000000000000e+05 -1.000000000000e+05 0.000000000000e+00 0.000000000000e+00 0.000000000000e+00 1.000000000000e+05 0.000000000000e+00  0.000000000000e+00
5.000000000000e-03 0.000000000000e+00 0.000000000000e+00 -1.000000000000e+05 0.000000000000e+00 -1.000000000000e+05 -1.000000000000e+05 0.000000000000e+00 0.000000000000e+00 0.000000000000e+00 1.000000000000e+05 0.000000000000e+00  0.000000000000e+00
1.000000000000e-02 0.000000000000e+00 0.000000000000e+00 -1.000000000000e+05 0.000000000000e+00 -1.000000000000e+05 -1.000000000000e+05 0.000000000000e+00 0.000000000000e+00 0.000000000000e+00 1.000000000000e+05 0.000000000000e+00  0.000000000000e+00
1.500000000000e-02 0.000000000000e+00 0.000000000000e+00 -1.000000000000e+05 0.000000000000e+00 -1.000000000000e+05 -1.000000000000e+05 0.000000000000e+00 0.000000000000e+00 0.000000000000e+00 1.000000000000e+05 0.000000000000e+00  0.000000000000e+00
2.000000000000e-02 0.000000000000e+00 0.000000000000e+00 -1.000000000000e+05 0.000000000000e+00 -1.000000000000e+05 -1.000000000000e+05 0.000000000000e+00 0.000000000000e+00 0.000000000000e+00 1.000000000000e+05 0.000000000000e+00  0.000000000000e+00
2.500000000000e-02 0.000000000000e+00 0.000000000000e+00 -1.000000000000e+05 0.000000000000e+00 -1.000000000000e+05 -1.000000000000e+05 0.000000000000e+00 0.000000000000e+00 0.000000000000e+00 1.000000000000e+05 0.000000000000e+00  0.000000000000e+00
3.000000000000e-02 0.000000000000e+00 0.000000000000e+00 -1.000000000000e+05 0.000000000000e+00 -1.000000000000e+05 -1.000000000000e+05 0.000000000000e+00 0.000000000000e+00 0.000000000000e+00 1.000000000000e+05 0.000000000000e+00  0.000000000000e+00
3.500000000000e-02 0.000000000000e+00 0.000000000000e+00 -1.000000000000e+05 0.000000000000e+00 -1.000000000000e+05 -1.000000000000e+05 0.000000000000e+00 0.000000000000e+00 0.000000000000e+00 1.000000000000e+05 0.000000000000e+00  0.000000000000e+00
4.000000000000e-02 0.000000000000e+00 0.000000000000e+00 -1.000000000000e+05 0.000000000000e+00 -1.000000000000e+05 -1.000000000000e+05 0.000000000000e+00 0.000000000000e+00 0.000000000000e+00 1.000000000000e+05 0.000000000000e+00  0.000000000000e+00
4.500000000000e-02 0.000000000000e+00 0.000000000000e+00 -1.000000000000e+05 0.000000000000e+00 -1.000000000000e+05 -1.000000000000e+05 0.000000000000e+00 0.000000000000e+00 0.000000000000e+00 1.000000000000e+05 0.000000000000e+00  0.000000000000e+00
5.000000000000e-02 0.000000000000e+00 0.000000000000e+00 -1.000000000000e+05 0.000000000000e+00 -1.000000000000e+05 -1.000000000000e+05 0.000000000000e+00 0.000000000000e+00 0.000000000000e+00 1.000000000000e+05 0.000000000000e+00  0.000000000000e+00
 TITLE = "Profiles along polylines"
 VARIABLES = "DIST" "DISPLACEMENT_X1" "DISPLACEMENT_Y1" "STRESS_XX" "STRESS_XY" "STRESS_YY" "STRESS_ZZ" "STRAIN_XX" "STRAIN_XY" "STRAIN_YY"  p_(1st_Invariant)  q_(2nd_Invariant)   Effective_Strain
 ZONE T="TIME=1.000000000000e-02"
0.000000000000e+00 0.000000000000e+00 0.000000000000e+00 -2.981793655566e+06 1.189382775137e+00 -4.422918474202e+06 -2.981884787947e+06 5.085607111017e-06 -1.039662620414e-07 -1.017628993882e-01 3.462198972572e+06 1.441079254609e+06  1.017654422873e-01
5.000000000000e-03 0.000000000000e+00 5.088380099409e-04 -2.981707026049e+06 -5.112310231605e+01 -4.423041584278e+06 -2.981899542439e+06 7.889587387332e-06 -1.055907647839e-06 -1.017747116158e-01 3.462216050922e+06 1.441238312398e+06  1.017786566553e-01
1.000000000000e-02 0.000000000000e+00 1.017762858435e-03 -2.980684104567e+06 -6.872559852462e+02 -4.424481709641e+06 -2.982066069459e+06 3.116706327837e-05 -8.632432255828e-06 -1.018008914127e-01 3.462410627889e+06 1.443107609850e+06  1.018164796199e-01
1.500000000000e-02 0.000000000000e+00 1.526830641211e-03 -2.978582724541e+06 -1.963943130858e+03 -4.436592061214e+06 -2.986068175504e+06 3.730290998041e-05 3.557397581061e-05 -1.018028697168e-01 3.467080987086e+06 1.454285037958e+06  1.018215449396e-01
2.000000000000e-02 0.000000000000e+00 2.037437839595e-03 -2.961656440456e+06 -1.485048281048e+04 -4.479626099018e+06 -2.996522737596e+06 2.782790936842e-04 -3.318180561610e-04 -1.025444562118e-01 3.479268425690e+06 1.501060682432e+06  1.026854869347e-01
2.500000000000e-02 0.000000000000e+00 2.547956946117e-03 -3.100130112807e+06 -8.516162016407e+04 -4.930138786559e+06 -3.232049613027e+06 1.146702150541e-03 -1.657342778328e-03 -1.004276548253e-01 3.754106170798e+06 1.773887870063e+06  1.010466711107e-01
3.000000000000e-02 0.000000000000e+00 3.045057881864e-03 -2.882281453302e+06 2.333793158139e+05 -4.291883880490e+06 -2.889800644892e+06 -6.707274197713e-03 9.944926636345e-03 -9.855223747906e-02 3.354655326228e+06 1.462817208475e+06  9.691861976487e-02
3.500000000000e-02 0.000000000000e+00 3.658339840560e-03 -2.966380319981e+06 4.252357519295e+05 -4.684835603569e+06 -3.080477995264e+06 2.751757675413e-02 -3.214320517975e-02 -1.411285575643e-01 3.577231306271e+06 1.820030610297e+06  1.663056211415e-01
4.000000000000e-02 0.000000000000e+00 3.942323179739e-03 -1.362673556667e+05 1.443401848076e+06 1.182473431292e+06 3.973563789619e+05 6.524309050615e-02 4.829137877051e-02 8.630108458881e-02 -4.811874848626e+05 2.751426330959e+06  1.143248021125e-01
4.500000000000e-02 0.000000000000e+00 4.904258078937e-03 -6.744128789049e+06 4.812855548246e+06 -7.594732750208e+06 -4.616623090818e+06 -2.298306523591e-01 1.327267435204e-01 -1.738487180756e-01 6.318494876691e+06 8.749297569171e+06  3.097400629397e-01
5.000000000000e-02 0.000000000000e+00 0.000000000000e+00 1.542718538671e+07 3.306237732688e+06 7.614851826022e+07 2.797950029865e+07 -3.034471706322e-01 4.343559936299e-02 1.773520514379e+00 -3.985173464853e+07 5.581434589170e+07  1.944552631406e+00
 TITLE = "Profiles along polylines"
 VARIABLES = "DIST" "DISPLACEMENT_X1" "DISPLACEMENT_Y1" "STRESS_XX" "STRESS_XY" "STRESS_YY" "STRESS_ZZ" "STRAIN_XX" "STRAIN_XY" "STRAIN_YY"  p_(1st_Invariant)  q_(2nd_Invariant)   Effective_Strain
 ZONE T="TIME=1.000000000000e-01"
0.000000000000e+00 0.000000000000e+00 0.000000000000e+00 -4.989655599101e+06 -2.200624795950e+02 -7.441725341041e+06 -4.992551922061e+06 1.059350511751e-05 -1.017720414258e-06 -1.040852954219e-01 5.807977620734e+06 2.450622893758e+06  1.040905925937e-01
5.000000000000e-03 0.000000000000e+00 5.204473662290e-04 -4.990625982573e+06 -3.144894077242e+03 -7.446355703296e+06 -4.994793318279e+06 1.568508345813e-05 -1.425327033464e-05 -1.040934548063e-01 5.810591668049e+06 2.453654753394e+06  1.041013011615e-01
1.000000000000e-02 0.000000000000e+00 1.041010455240e-03 -4.985084463227e+06 -1.178424993811e+04 -7.460672443391e+06 -4.998301455083e+06 5.502679563161e-05 -5.498132544469e-05 -1.041297008320e-01 5.814686120567e+06 2.469090382280e+06  1.041572686658e-01
1.500000000000e-02 0.000000000000e+00 1.561589234933e-03 -4.980452926726e+06 -2.173048178470e+04 -7.523598902850e+06 -5.021599534021e+06 1.130542952505e-04 -6.501365398816e-05 -1.040855469775e-01 5.841883787866e+06 2.523105093315e+06  1.041421810284e-01
2.000000000000e-02 0.000000000000e+00 2.083609934776e-03 -4.968341901708e+06 -1.480895692028e+04 -7.627244068137e+06 -5.058338666167e+06 4.068285703234e-04 -3.231929725065e-04 -1.048851126159e-01 5.884641545337e+06 2.615191287817e+06  1.050906084264e-01
2.500000000000e-02 0.000000000000e+00 2.605838665067e-03 -5.185722647630e+06 -1.077266384880e+05 -8.218367768629e+06 -5.381030225954e+06 1.299208774958e-03 -1.763861679036e-03 -1.026675947151e-01 6.261706880738e+06 2.945776296919e+06  1.033684826823e-01
3.000000000000e-02 0.000000000000e+00 3.113830343799e-03 -4.946416885861e+06 3.519627660518e+05 -7.228271718465e+06 -4.891018842566e+06 -6.827994460511e-03 1.051087601944e-02 -1.005779860371e-01 5.688569148964e+06 2.389136680718e+06  9.903152223513e-02
3.500000000000e-02 0.000000000000e+00 3.734342955255e-03 -5.592863913119e+06 1.093157463433e+06 -6.148652020680e+06 -4.719796196435e+06 2.500285301423e-02 -2.878138837144e-02 -1.403371609734e-01 5.487104043411e+06 2.267458496208e+06  1.622146595315e-01
4.000000000000e-02 0.000000000000e+00 4.023018540686e-03 -2.080994317936e+06 1.905819059271e+06 3.172615845007e+05 -7.019914399878e+05 6.102183367404e-02 5.529278551426e-02 8.287148933226e-02 8.219080578077e+05 3.904166669021e+06  1.212693451805e-01
4.500000000000e-02 0.000000000000e+00 4.978350506320e-03 -5.982762318744e+06 -4.353067229508e+06 -4.083143082157e+06 -2.770108598315e+06 -2.951511634347e-01 1.497741306321e-01 -1.658962785106e-01 4.278671333072e+06 8.042043352122e+06  3.646480159118e-01
5.000000000000e-02 0.000000000000e+00 0.000000000000e+00 -2.549917153474e+07 7.163975992831e+06 3.964915364613e+07 -1.459982876681e+07 5.758326977365e-01 -4.660257247152e-02 1.777960023307e+00 1.499488851433e+05 6.170084015489e+07  1.573350889934e+00
 TITLE = "Profiles along polylines"
 VARIABLES = "DIST" "DISPLACEMENT_X1" "DISPLACEMENT_Y1" "STRESS_XX" "STRESS_XY" "STRESS_YY" "STRESS_ZZ" "STRAIN_XX" "STRAIN_XY" "STRAIN_YY"  p_(1st_Invariant)  q_(2nd_Invariant)   Effective_Strain
 ZONE T="TIME=1.000000000000e+00"
0.000000000000e+00 0.000000000000e+00 0.000000000000e+00 -9.268302948796e+06 -1.139146935779e+03 -1.388074385580e+07 -9.279618144164e+06 2.205085890792e-05 -3.619099340295e-06 -1.066097037257e-01 1.080955498292e+07 4.606794153994e+06  1.066207310496e-01
5.000000000000e-03 0.000000000000e+00 5.330881882952e-04 -9.281718272878e+06 -1.670025712898e+04 -1.389711535887e+07 -9.291533869086e+06 2.382998744790e-05 -5.159303971306e-05 -1.065985708787e-01 1.082345583361e+07 4.610587861532e+06  1.066105253218e-01
1.000000000000e-02 0.000000000000e+00 1.066048347684e-03 -9.275505847576e+06 -1.198391953316e+04 -1.391588205909e+07 -9.296554396215e+06 6.581059369858e-05 -5.274624388947e-05 -1.066276099584e-01 1.082931410096e+07 4.629934349902e+06  1.066605696089e-01
1.500000000000e-02 0.000000000000e+00 1.598971405052e-03 -9.276199130360e+06 -7.686121162052e+03 -1.397409025082e+07 -9.320095547561e+06 1.157256360109e-04 -2.533561266540e-05 -1.065869051248e-01 1.085679497625e+07 4.676116392471e+06  1.066448240636e-01
2.000000000000e-02 0.000000000000e+00 2.133447386824e-03 -9.274795429075e+06 -9.787339096069e+03 -1.407584417529e+07 -9.360348296078e+06 3.987699963606e-04 -3.132245116507e-04 -1.073465205181e-01 1.090366263348e+07 4.758879305864e+06  1.075478283613e-01
2.500000000000e-02 0.000000000000e+00 2.667958838986e-03 -9.530608337448e+06 -7.698778163253e+04 -1.470246616073e+07 -9.712813361202e+06 1.278712490347e-03 -1.684680475253e-03 -1.050339814562e-01 1.131529595313e+07 5.084953774904e+06  1.057194167364e-01
3.000000000000e-02 0.000000000000e+00 3.187732224822e-03 -9.346478102573e+06 6.148303055110e+05 -1.338218490713e+07 -9.110950482895e+06 -7.053074606886e-03 1.112564366583e-02 -1.029171256292e-01 1.061320449753e+07 4.292664906921e+06  1.014255307343e-01
3.500000000000e-02 0.000000000000e+00 3.816898888428e-03 -9.756720714104e+06 1.924544815530e+06 -1.033189649316e+07 -8.078429027912e+06 2.379710288070e-02 -2.642830710394e-02 -1.410824088090e-01 9.389015411725e+06 3.901848424759e+06  1.610070403029e-01
4.000000000000e-02 0.000000000000e+00 4.133633592715e-03 -8.147438127207e+06 -6.737867827878e+05 -8.721861781624e+06 -6.642122215884e+06 6.076752494045e-02 4.758309372840e-02 7.420029188148e-02 7.837140708238e+06 2.196040409566e+06  1.071534401757e-01
4.500000000000e-02 0.000000000000e+00 5.083828111233e-03 -8.633734263722e+06 -5.451282917260e+06 5.360140646350e+06 -2.192999249559e+06 -2.868665895554e-01 1.580055639570e-01 -1.359703136374e-01 1.822197622310e+06 1.537303544315e+07  3.696921705473e-01
5.000000000000e-02 0.000000000000e+00 0.000000000000e+00 -2.661536900702e+07 7.533445446667e+06 2.950088483266e+07 -2.109698452628e+07 5.893317229340e-01 -4.174665415399e-02 1.769298971699e+00 6.070489566879e+06 5.513686469926e+07  1.562131578624e+00
 TITLE = "Profiles along polylines"
 VARIABLES = "DIST" "DISPLACEMENT_X1" "DISPLACEMENT_Y1" "STRESS_XX" "STRESS_XY" "STRESS_YY" "STRESS_ZZ" "STRAIN_XX" "STRAIN_XY" "STRAIN_YY"  p_(1st_Invariant)  q_(2nd_Invariant)   Effective_Strain
 ZONE T="TIME=5.000000000000e+00"
0.000000000000e+00 0.000000000000e+00 0.000000000000e+00 -1.891827346000e+07 -1.698657841967e+03 -2.837618654446e+07 -1.893778278903e+07 2.692247968363e-05 -4.290985312416e-06 -1.094721346673e-01 2.207741426450e+07 9.448173984698e+06  1.094855986420e-01
5.000000000000e-03 0.000000000000e+00 5.473921098304e-04 -1.894269150419e+07 -2.691595113883e+04 -2.839116447772e+07 -1.895354310171e+07 2.448404463674e-05 -6.378840665436e-05 -1.094549661700e-01 2.209579969454e+07 9.443166930007e+06  1.094672660017e-01
1.000000000000e-02 0.000000000000e+00 1.094630057939e-03 -1.893048061125e+07 -1.606524188710e+04 -2.840995558856e+07 -1.895616840382e+07 6.858112786467e-05 -5.771861026987e-05 -1.094845277033e-01 2.209886820121e+07 9.466698114824e+06  1.095188800002e-01
1.500000000000e-02 0.000000000000e+00 1.641800457229e-03 -1.893415494181e+07 -8.911911232750e+02 -2.848564813670e+07 -1.898791398232e+07 1.215463052305e-04 -1.735718926996e-05 -1.094433892927e-01 2.213590568694e+07 9.524727584528e+06  1.095042171645e-01
2.000000000000e-02 0.000000000000e+00 2.190537075943e-03 -1.892935019220e+07 9.442484628789e+03 -2.861446444833e+07 -1.903775140992e+07 4.122185040723e-04 -2.910298791729e-04 -1.102037481692e-01 2.219385535015e+07 9.631385065539e+06  1.104115852346e-01
2.500000000000e-02 0.000000000000e+00 2.739373237558e-03 -1.922365517655e+07 -1.184901421679e+04 -2.941657852098e+07 -1.947364735559e+07 1.317795037106e-03 -1.606011144417e-03 -1.078598718415e-01 2.270462701771e+07 1.007027569010e+07  1.085604143168e-01
3.000000000000e-02 0.000000000000e+00 3.273256656554e-03 -1.891051985743e+07 1.016516514810e+06 -2.772344423641e+07 -1.867202503561e+07 -7.062743904176e-03 1.163774125002e-02 -1.057778834048e-01 2.176866304315e+07 9.106386231313e+06  1.043938309099e-01
3.500000000000e-02 0.000000000000e+00 3.916236847597e-03 -1.795368229526e+07 2.047352453175e+06 -2.293144510887e+07 -1.650142074254e+07 2.396238380055e-02 -2.630740127232e-02 -1.441336364365e-01 1.912884938222e+07 6.833092711309e+06  1.639473226064e-01
4.000000000000e-02 0.000000000000e+00 4.246273432582e-03 -1.157610382786e+07 -3.250258475510e+06 -1.180483028859e+07 -1.032553287835e+07 6.111461157638e-02 4.175983498771e-02 7.148627045003e-02 1.123548899827e+07 5.796104090993e+06  9.852958141590e-02
4.500000000000e-02 0.000000000000e+00 5.116988235102e-03 -5.771679976602e+06 -4.384912814632e+06 8.133331379008e+06 4.491007725313e+05 -2.845806276382e-01 1.635557750077e-01 -1.176496410239e-01 -9.369173916455e+05 1.425586925258e+07  3.762954126629e-01
5.000000000000e-02 0.000000000000e+00 0.000000000000e+00 -4.992102156258e+07 8.097737476144e+06 1.361027464893e+07 -4.747312949733e+07 5.936104743945e-01 -4.098894857118e-02 1.777704791560e+00 2.792795880366e+07 6.390164375573e+07  1.569198463646e+00
 TITLE = "Profiles along polylines"
 VARIABLES = "DIST" "DISPLACEMENT_X1" "DISPLACEMENT_Y1" "STRESS_XX" "STRESS_XY" "STRESS_YY" "STRESS_ZZ" "STRAIN_XX" "STRAIN_XY" "STRAIN_YY"  p_(1st_Invariant)  q_(2nd_Invariant)   Effective_Strain
 ZONE T="TIME=1.000000000000e+01"
0.000000000000e+00 0.000000000000e+00 0.000000000000e+00 -2.564953417125e+07 -2.042255442007e+03 -3.848674819393e+07 -2.567451300914e+07 2.890202645213e-05 -4.540655123419e-06 -1.106924975221e-01 2.993693179144e+07 1.282474333586e+07  1.107069516442e-01
5.000000000000e-03 0.000000000000e+00 5.534903350441e-04 -2.568123838206e+07 -3.334465982521e+04 -3.849966803872e+07 -2.569236419037e+07 2.458461238882e-05 -6.844341935989e-05 -1.106729011709e-01 2.995775687038e+07 1.281300054063e+07  1.106852590089e-01
1.000000000000e-02 0.000000000000e+00 1.106816551548e-03 -2.566549210692e+07 -1.803764147834e+04 -3.851909632102e+07 -2.569378017334e+07 6.952008484113e-05 -5.914015202041e-05 -1.107030079526e-01 2.995945620043e+07 1.283952156302e+07  1.107378317377e-01
1.500000000000e-02 0.000000000000e+00 1.660067860576e-03 -2.567373430281e+07 3.521138721695e+03 -3.861044710266e+07 -2.573331610969e+07 1.236434227447e-04 -1.412290105873e-05 -1.106627102746e-01 3.000583250506e+07 1.290702647898e+07  1.107245864641e-01
2.000000000000e-02 0.000000000000e+00 2.214886509511e-03 -2.564734042438e+07 1.769597462050e+04 -3.871610301577e+07 -2.576793597042e+07 4.166642352584e-04 -2.848924122637e-04 -1.114182617859e-01 3.004379313686e+07 1.300892016417e+07  1.116282677657e-01
2.500000000000e-02 0.000000000000e+00 2.769663135986e-03 -2.564396888670e+07 -5.780855701497e+03 -3.904870241750e+07 -2.592654830874e+07 1.329814212373e-03 -1.601141040615e-03 -1.089925602293e-01 3.020640653765e+07 1.326570505336e+07  1.096985752173e-01
3.000000000000e-02 0.000000000000e+00 3.308512351084e-03 -2.391470374715e+07 1.020895370329e+06 -3.490748984845e+07 -2.372372256493e+07 -7.045040234566e-03 1.164231493705e-02 -1.066002763881e-01 2.751530538684e+07 1.122960005690e+07  1.052087390526e-01
3.500000000000e-02 0.000000000000e+00 3.953984514870e-03 -2.064944393052e+07 1.779870694326e+06 -2.573892695412e+07 -1.929917783529e+07 2.400987180711e-02 -2.656740894706e-02 -1.441561166963e-01 2.189584957331e+07 6.640936034172e+06  1.641222454810e-01
4.000000000000e-02 0.000000000000e+00 4.278718678263e-03 -1.474694000733e+07 -2.832420513440e+06 -1.170694448302e+07 -1.325689488435e+07 6.091348713002e-02 4.237288923912e-02 7.360583750224e-02 1.323692645823e+07 5.567754901782e+06  1.001552256289e-01
4.500000000000e-02 0.000000000000e+00 5.136504155161e-03 -1.068007349558e+07 -4.771743157128e+06 5.505699725999e+06 -4.095156660701e+06 -2.855753159153e-01 1.624056189960e-01 -1.129446882591e-01 3.089843476762e+06 1.634218504984e+07  3.757423370874e-01
5.000000000000e-02 0.000000000000e+00 0.000000000000e+00 -6.474433822687e+07 8.152941179481e+06 3.541234760789e+06 -6.174251248036e+07 5.934612804914e-01 -4.099026859361e-02 1.778801834783e+00 4.098187198214e+07 6.831076338750e+07  1.570262032470e+00
 ZONE T="TIME=1.800000000000e+01"
0.000000000000e+00 0.000000000000e+00 0.000000000000e+00 -3.247459437960e+07 -2.337255589886e+03 -4.873873379669e+07 -3.250547558899e+07 3.052739230347e-05 -4.706373210858e-06 -1.116383044749e-01 3.790626792176e+07 1.624872132573e+07  1.116535715986e-01
5.000000000000e-03 0.000000000000e+00 5.582139873282e-04 -3.250636883733e+07 -4.020992137196e+04 -4.873564504060e+07 -3.251744797448e+07 2.458087941117e-05 -7.222683366733e-05 -1.116154724337e-01 3.791982061747e+07 1.622388895937e+07  1.116278350029e-01
1.000000000000e-02 0.000000000000e+00 1.116236534482e-03 -3.243393710936e+07 -2.147390625043e+04 -4.867201582850e+07 -3.246615469392e+07 7.059933760773e-05 -6.102966309798e-05 -1.116382243371e-01 3.785736921060e+07 1.622203656060e+07  1.116735907722e-01
1.500000000000e-02 0.000000000000e+00 1.674076436796e-03 -3.224548164369e+07 7.506783806009e+03 -4.844779165944e+07 -3.231236647304e+07 1.256705535678e-04 -1.195818914085e-05 -1.115668999595e-01 3.766854659205e+07 1.616897658301e+07  1.116297902118e-01
2.000000000000e-02 0.000000000000e+00 2.233164946856e-03 -3.160360196223e+07 2.212197887054e+04 -4.752030569919e+07 -3.173322034660e+07 4.192211009566e-04 -2.823981941129e-04 -1.122177841982e-01 3.695237600267e+07 1.585233829751e+07  1.124290449392e-01
2.500000000000e-02 0.000000000000e+00 2.791410261352e-03 -3.032283344928e+07 -1.597727309353e+04 -4.563591096453e+07 -3.061452689801e+07 1.332557237001e-03 -1.607136836915e-03 -1.095481890967e-01 3.552442377060e+07 1.516935956080e+07  1.102556544662e-01
3.000000000000e-02 0.000000000000e+00 3.332145849945e-03 -2.703503437925e+07 8.993194165884e+05 -3.853433357459e+07 -2.690875989000e+07 -7.022840584553e-03 1.156089731189e-02 -1.067574953779e-01 3.082604261461e+07 1.166739995038e+07  1.053456466968e-01
3.500000000000e-02 0.000000000000e+00 3.977097315466e-03 -2.361285007029e+07 1.502011571965e+06 -2.772343132316e+07 -2.238352085037e+07 2.406255514116e-02 -2.680543629916e-02 -1.436590416440e-01 2.457326741461e+07 5.498136275081e+06  1.637965953939e-01
4.000000000000e-02 0.000000000000e+00 4.295778820335e-03 -2.014733484935e+07 -2.572330659527e+06 -1.450900938890e+07 -1.861736149188e+07 6.088566767774e-02 4.272549253823e-02 7.530529618446e-02 1.775790191004e+07 6.734664045308e+06  1.013377622707e-01
4.500000000000e-02 0.000000000000e+00 5.143890481727e-03 -1.980237607265e+07 -4.975524423091e+06 -4.319322996247e+05 -1.301443688098e+07 -2.858503508117e-01 1.619836656217e-01 -1.102004548160e-01 1.108291508442e+07 1.908067991034e+07  3.755926628900e-01
5.000000000000e-02 0.000000000000e+00 0.000000000000e+00 -7.422238531382e+07 8.290405973352e+06 -6.846049572149e+06 -7.113997698063e+07 5.934511732728e-01 -4.095155146007e-02 1.778276762949e+00 5.073613728887e+07 6.743576924723e+07  1.569765332152e+00
