 TITLE = "Time curves in points"
 VARIABLES = "TIME"  "PRESSURE1"  "PRESSURE2"  "PRESSURE_W"  "SATURATION1" SATURATION2  "VELOCITY_X1"  "VELOCITY_Y1"  "VELOCITY_X2"  "VELOCITY_Y2"  p_(1st_Invariant)  q_(2nd_Invariant)   Effective_Strain
 ZONE T="POINT=POINT4"
0.000000000000e+00 8.400000000000e+07 1.000000000000e+05 -8.390000000000e+07 6.601393844892e-01 3.398606155108e-01 0.000000000000e+00 0.000000000000e+00 0.000000000000e+00 0.000000000000e+00 1.000000000000e+05 0.000000000000e+00  0.000000000000e+00
1.000000000000e-03 -1.244434314116e-313 1.000000000000e+05 1.000000000000e+05 1.000000000000e+00 0.000000000000e+00 2.245940086805e-06 3.928132542103e-04 2.868722598033e-13 -6.036658899473e-14 -3.213267188183e+05 1.963351403757e+05  4.219740961908e-01
2.000000000000e-03 -1.244434314116e-313 1.000000000000e+05 1.000000000000e+05 1.000000000000e+00 0.000000000000e+00 2.228286564512e-06 3.926518362089e-04 5.991790222671e-13 -1.181577695835e-13 -7.721269818152e+05 3.705222029472e+05  1.245883956590e+00
3.000000000000e-03 -1.244434314116e-313 1.000000000000e+05 1.000000000000e+05 1.000000000000e+00 0.000000000000e+00 2.210776655795e-06 3.924904951556e-04 9.071568225394e-13 -1.741853671347e-13 -2.220226972874e+06 1.091232846104e+06  1.620447538120e+00
4.000000000000e-03 -1.244434314116e-313 1.000000000000e+05 1.000000000000e+05 1.000000000000e+00 0.000000000000e+00 2.193409167145e-06 3.923292316165e-04 1.211623043898e-12 -2.282881264068e-13 -6.514798263200e+06 3.588019911304e+06  1.755284133515e+00
5.000000000000e-03 -1.244434314116e-313 1.000000000000e+05 1.000000000000e+05 1.000000000000e+00 0.000000000000e+00 2.176182751237e-06 3.921680469427e-04 1.513355768553e-12 -2.806458761225e-13 -1.821788061784e+07 1.010871336726e+07  1.794268479294e+00
6.000000000000e-03 -1.244434314116e-313 1.000000000000e+05 1.000000000000e+05 1.000000000000e+00 0.000000000000e+00 2.159096487992e-06 3.920069418772e-04 1.811649908114e-12 -3.312339744880e-13 -4.184361332870e+07 2.555436962989e+07  1.802526121390e+00
7.000000000000e-03 -1.244434314116e-313 1.000000000000e+05 1.000000000000e+05 1.000000000000e+00 0.000000000000e+00 2.142039756851e-06 3.918458202148e-04 2.105350474472e-12 -3.799556488898e-13 -3.295827856400e+07 2.240874845135e+07  1.801476733715e+00
8.000000000000e-03 -1.244434314116e-313 1.000000000000e+05 1.000000000000e+05 1.000000000000e+00 0.000000000000e+00 2.124233213100e-06 3.916839886931e-04 2.394739483786e-12 -4.268768576261e-13 -3.100069074837e+07 2.330544122458e+07  1.802117515309e+00
9.000000000000e-03 -1.244434314116e-313 1.000000000000e+05 1.000000000000e+05 1.000000000000e+00 0.000000000000e+00 2.106869592809e-06 3.915219730650e-04 2.680402381045e-12 -4.717867911257e-13 -3.027057807744e+07 2.439162739247e+07  1.802927701239e+00
1.000000000000e-02 -1.244434314116e-313 1.000000000000e+05 1.000000000000e+05 1.000000000000e+00 0.000000000000e+00 2.089685548304e-06 3.913600058151e-04 2.963570511529e-12 -5.148155403230e-13 -2.951775513904e+07 2.542842732001e+07  1.803746234321e+00
2.000000000000e-02 -1.244434314116e-313 1.000000000000e+05 1.000000000000e+05 1.000000000000e+00 0.000000000000e+00 1.927858121195e-06 3.897526576734e-04 5.585193040490e-12 -7.881242885886e-13 -6.111479055692e+07 7.664625283961e+07  1.864316069138e+00
3.000000000000e-02 -1.244434314116e-313 1.000000000000e+05 1.000000000000e+05 1.000000000000e+00 0.000000000000e+00 1.778617600576e-06 3.881460030389e-04 7.873406241049e-12 -9.126635251017e-13 -3.398505763355e+07 4.517375404769e+07  1.848430938360e+00
4.000000000000e-02 -1.244434314116e-313 1.000000000000e+05 1.000000000000e+05 1.000000000000e+00 0.000000000000e+00 1.638068561652e-06 3.865413875611e-04 1.004102047931e-11 -9.635009803159e-13 -3.623225632653e+07 6.472053337958e+07  1.968646884582e+00
5.000000000000e-02 -1.244434314116e-313 1.000000000000e+05 1.000000000000e+05 1.000000000000e+00 0.000000000000e+00 1.505919720179e-06 3.849286733534e-04 1.223688273211e-11 -1.028380693144e-12 -2.034965739917e+07 5.137564676008e+07  2.004978110814e+00
6.000000000000e-02 -1.244434314116e-313 1.000000000000e+05 1.000000000000e+05 1.000000000000e+00 0.000000000000e+00 1.384179132422e-06 3.833083526375e-04 1.431904315934e-11 -1.049724453568e-12 -3.171743329740e+07 6.554511918417e+07  2.003070403972e+00
7.000000000000e-02 -1.244434314116e-313 1.000000000000e+05 1.000000000000e+05 1.000000000000e+00 0.000000000000e+00 1.269526933404e-06 3.816815010152e-04 1.628940303532e-11 -1.040894667074e-12 -2.518940667901e+07 6.369581838525e+07  2.105302002479e+00
8.000000000000e-02 -1.244434314116e-313 1.000000000000e+05 1.000000000000e+05 1.000000000000e+00 0.000000000000e+00 1.162093949137e-06 3.800599214954e-04 1.812923901347e-11 -9.967389660646e-13 -2.216503469768e+07 6.256077836636e+07  2.093231297739e+00
9.000000000000e-02 -1.244434314116e-313 1.000000000000e+05 1.000000000000e+05 1.000000000000e+00 0.000000000000e+00 1.062771561643e-06 3.784592501830e-04 1.987302537858e-11 -9.290489655231e-13 -2.072410655124e+07 7.035172294343e+07  2.120549857463e+00
1.000000000000e-01 -1.244434314116e-313 1.000000000000e+05 1.000000000000e+05 1.000000000000e+00 0.000000000000e+00 9.699550987605e-07 3.768598793586e-04 2.151488731261e-11 -8.500380794413e-13 -1.888239820640e+07 6.899980678455e+07  2.111386965990e+00
1.100000000000e-01 -1.244434314116e-313 1.000000000000e+05 1.000000000000e+05 1.000000000000e+00 0.000000000000e+00 8.819747344008e-07 3.752670995999e-04 2.304763073590e-11 -7.419197481880e-13 -1.756712048817e+07 7.265695181270e+07  2.122876439202e+00
1.200000000000e-01 -1.244434314116e-313 1.000000000000e+05 1.000000000000e+05 1.000000000000e+00 0.000000000000e+00 8.011423006671e-07 3.736809241195e-04 2.448318585609e-11 -6.385315337877e-13 -1.621695988526e+07 7.335999570127e+07  2.123162002534e+00
1.300000000000e-01 -1.244434314116e-313 1.000000000000e+05 1.000000000000e+05 1.000000000000e+00 0.000000000000e+00 7.269264627624e-07 3.721052335617e-04 2.582819974125e-11 -5.371333273029e-13 -1.474795380458e+07 7.488698302764e+07  2.126195746309e+00
1.400000000000e-01 -1.244434314116e-313 1.000000000000e+05 1.000000000000e+05 1.000000000000e+00 0.000000000000e+00 6.552771097254e-07 3.705337763653e-04 2.704631734111e-11 -3.984019480493e-13 -1.352992669406e+07 7.582799812042e+07  2.127847783613e+00
1.500000000000e-01 -1.244434314116e-313 1.000000000000e+05 1.000000000000e+05 1.000000000000e+00 0.000000000000e+00 5.896076047035e-07 3.689457768993e-04 2.817486917655e-11 -2.739013493222e-13 -1.239996858023e+07 7.687569544306e+07  2.129890314814e+00
1.600000000000e-01 -1.244434314116e-313 1.000000000000e+05 1.000000000000e+05 1.000000000000e+00 0.000000000000e+00 5.294385477056e-07 3.673682392520e-04 2.922879914640e-11 -1.568941569729e-13 -1.138319746912e+07 7.764329701389e+07  2.131422499709e+00
1.700000000000e-01 -1.244434314116e-313 1.000000000000e+05 1.000000000000e+05 1.000000000000e+00 0.000000000000e+00 4.728556606604e-07 3.658018580018e-04 3.018129851731e-11 -3.263132540679e-14 -1.044900922149e+07 7.844665072473e+07  2.133061774695e+00
1.800000000000e-01 -1.244434314116e-313 1.000000000000e+05 1.000000000000e+05 1.000000000000e+00 0.000000000000e+00 4.196115163022e-07 3.642363555964e-04 3.103184179256e-11 5.232502158522e-14 -9.475872287328e+06 7.922224799560e+07  2.134387299397e+00
1.900000000000e-01 -1.244434314116e-313 1.000000000000e+05 1.000000000000e+05 1.000000000000e+00 0.000000000000e+00 3.709471379114e-07 3.626899823475e-04 3.180710008990e-11 1.293931589613e-13 -8.838685725246e+06 7.978631620204e+07  2.135339410572e+00
2.000000000000e-01 -1.244434314116e-313 1.000000000000e+05 1.000000000000e+05 1.000000000000e+00 0.000000000000e+00 3.265103750942e-07 3.611647235037e-04 3.251045437981e-11 1.959894192290e-13 -8.159097273849e+06 8.027249404358e+07  2.136380705922e+00
2.100000000000e-01 -1.244434314116e-313 1.000000000000e+05 1.000000000000e+05 1.000000000000e+00 0.000000000000e+00 2.840345399673e-07 3.596392309782e-04 3.310560227510e-11 6.304908367301e-13 -7.507537872680e+06 8.082506967967e+07  2.137318358392e+00
2.200000000000e-01 -1.244434314116e-313 1.000000000000e+05 1.000000000000e+05 1.000000000000e+00 0.000000000000e+00 2.447800908727e-07 3.581261684750e-04 3.362172744173e-11 1.469118771500e-12 -7.027829089378e+06 8.119291905975e+07  2.137898569498e+00
2.300000000000e-01 -1.244434314116e-313 1.000000000000e+05 1.000000000000e+05 1.000000000000e+00 0.000000000000e+00 2.090653547498e-07 3.566285204897e-04 3.407047309804e-11 2.353414855645e-12 -6.567167793245e+06 8.154069761401e+07  2.138678732956e+00
2.400000000000e-01 -1.244434314116e-313 1.000000000000e+05 1.000000000000e+05 1.000000000000e+00 0.000000000000e+00 1.766148515714e-07 3.551408582881e-04 3.445559244141e-11 3.257818880654e-12 -6.146331536926e+06 8.185048183297e+07  2.139421235746e+00
2.500000000000e-01 -1.244434314116e-313 1.000000000000e+05 1.000000000000e+05 1.000000000000e+00 0.000000000000e+00 1.454391298201e-07 3.536573138390e-04 3.472034187265e-11 4.201077099525e-12 -5.781021271902e+06 8.211564135767e+07  2.140177183102e+00
2.600000000000e-01 -1.244434314116e-313 1.000000000000e+05 1.000000000000e+05 1.000000000000e+00 0.000000000000e+00 1.169379556833e-07 3.521870608047e-04 3.492431512334e-11 5.183083391669e-12 -5.418917068661e+06 8.234714883008e+07  2.140865658183e+00
2.700000000000e-01 -1.244434314116e-313 1.000000000000e+05 1.000000000000e+05 1.000000000000e+00 0.000000000000e+00 9.147653115711e-08 3.507272262729e-04 3.507691935546e-11 6.191562251000e-12 -5.067012801807e+06 8.256934444078e+07  2.141588272870e+00
2.800000000000e-01 -1.244434314116e-313 1.000000000000e+05 1.000000000000e+05 1.000000000000e+00 0.000000000000e+00 6.850967161563e-08 3.492525172449e-04 3.517722877743e-11 7.149157304254e-12 -4.739364181295e+06 8.277282386260e+07  2.142350435122e+00
2.900000000000e-01 -1.244434314116e-313 1.000000000000e+05 1.000000000000e+05 1.000000000000e+00 0.000000000000e+00 4.673103869545e-08 3.477874387438e-04 3.517442904653e-11 8.142604442662e-12 -4.371275306061e+06 8.296156760745e+07  2.143110139815e+00
3.000000000000e-01 -1.244434314116e-313 1.000000000000e+05 1.000000000000e+05 1.000000000000e+00 0.000000000000e+00 2.656657351640e-08 3.463349274692e-04 3.509091642875e-11 9.165185090632e-12 -4.053016873373e+06 8.312705080043e+07  2.143961324304e+00
3.100000000000e-01 -1.244434314116e-313 1.000000000000e+05 1.000000000000e+05 1.000000000000e+00 0.000000000000e+00 8.491681841079e-09 3.448946449713e-04 3.495925918149e-11 1.019276406647e-11 -3.734396863489e+06 8.327323156003e+07  2.144674317575e+00
3.200000000000e-01 -1.244434314116e-313 1.000000000000e+05 1.000000000000e+05 1.000000000000e+00 0.000000000000e+00 -7.732899449326e-09 3.434706734600e-04 3.478842508856e-11 1.121786806336e-11 -3.420948231008e+06 8.339886539393e+07  2.145491678289e+00
3.300000000000e-01 -1.244434314116e-313 1.000000000000e+05 1.000000000000e+05 1.000000000000e+00 0.000000000000e+00 -2.239403135254e-08 3.420603935462e-04 3.454311374815e-11 1.226299132827e-11 -3.130420356240e+06 8.353896217589e+07  2.146253164184e+00
3.400000000000e-01 -1.244434314116e-313 1.000000000000e+05 1.000000000000e+05 1.000000000000e+00 0.000000000000e+00 -3.653163350704e-08 3.406582711426e-04 3.419334280498e-11 1.333534297487e-11 -2.863988987187e+06 8.362832194868e+07  2.147166428211e+00
3.500000000000e-01 -1.244434314116e-313 1.000000000000e+05 1.000000000000e+05 1.000000000000e+00 0.000000000000e+00 -4.906235622795e-08 3.392677414881e-04 3.379954405607e-11 1.440268435750e-11 -2.620271599890e+06 8.371552459019e+07  2.147957429077e+00
3.600000000000e-01 -1.244434314116e-313 1.000000000000e+05 1.000000000000e+05 1.000000000000e+00 0.000000000000e+00 -6.012532715186e-08 3.378879739580e-04 3.335552084886e-11 1.545988278021e-11 -2.392718850180e+06 8.379431478445e+07  2.148674677021e+00
3.700000000000e-01 -1.244434314116e-313 1.000000000000e+05 1.000000000000e+05 1.000000000000e+00 0.000000000000e+00 -6.984306306193e-08 3.365221936241e-04 3.286947198705e-11 1.652449894829e-11 -2.203545373400e+06 8.385828156122e+07  2.149536738063e+00
3.800000000000e-01 -1.244434314116e-313 1.000000000000e+05 1.000000000000e+05 1.000000000000e+00 0.000000000000e+00 -7.881692826126e-08 3.351663331891e-04 3.230975545054e-11 1.760559653730e-11 -2.041324198579e+06 8.393708715709e+07  2.150375456119e+00
3.900000000000e-01 -1.244434314116e-313 1.000000000000e+05 1.000000000000e+05 1.000000000000e+00 0.000000000000e+00 -8.721705371782e-08 3.338193319477e-04 3.164382459262e-11 1.869467641922e-11 -1.925066292639e+06 8.399451378479e+07  2.151294687061e+00
4.000000000000e-01 -1.244434314116e-313 1.000000000000e+05 1.000000000000e+05 1.000000000000e+00 0.000000000000e+00 -9.449821870356e-08 3.324810921540e-04 3.095166529911e-11 1.975570267645e-11 -1.839657668502e+06 8.404916174645e+07  2.152198538703e+00
4.100000000000e-01 -1.244434314116e-313 1.000000000000e+05 1.000000000000e+05 1.000000000000e+00 0.000000000000e+00 -1.007534389527e-07 3.311561048282e-04 3.022106994750e-11 2.081797335541e-11 -1.780297836964e+06 8.409909547936e+07  2.153094239359e+00
4.200000000000e-01 -1.244434314116e-313 1.000000000000e+05 1.000000000000e+05 1.000000000000e+00 0.000000000000e+00 -1.060396915214e-07 3.298440611585e-04 2.944889777309e-11 2.188079464928e-11 -1.740075727297e+06 8.414572851211e+07  2.153972719984e+00
4.300000000000e-01 -1.244434314116e-313 1.000000000000e+05 1.000000000000e+05 1.000000000000e+00 0.000000000000e+00 -1.104756037468e-07 3.285391939010e-04 2.862052315494e-11 2.295309524379e-11 -1.719277244808e+06 8.418903563048e+07  2.154827228472e+00
4.400000000000e-01 -1.244434314116e-313 1.000000000000e+05 1.000000000000e+05 1.000000000000e+00 0.000000000000e+00 -1.146630208252e-07 3.272404899315e-04 2.771199615795e-11 2.401423450939e-11 -1.712464204669e+06 8.422913702771e+07  2.155642252958e+00
4.500000000000e-01 -1.244434314116e-313 1.000000000000e+05 1.000000000000e+05 1.000000000000e+00 0.000000000000e+00 -1.180886434379e-07 3.259518668977e-04 2.676660248607e-11 2.505344152506e-11 -1.705200097096e+06 8.426783704792e+07  2.156423281619e+00
4.600000000000e-01 -1.244434314116e-313 1.000000000000e+05 1.000000000000e+05 1.000000000000e+00 0.000000000000e+00 -1.208520356298e-07 3.246763189270e-04 2.578546498770e-11 2.608823474813e-11 -1.695351528791e+06 8.430273213722e+07  2.157134437470e+00
4.700000000000e-01 -1.244434314116e-313 1.000000000000e+05 1.000000000000e+05 1.000000000000e+00 0.000000000000e+00 -1.229505970801e-07 3.234157949722e-04 2.476498375025e-11 2.711934530530e-11 -1.683700886029e+06 8.433609207290e+07  2.157812206458e+00
4.800000000000e-01 -1.244434314116e-313 1.000000000000e+05 1.000000000000e+05 1.000000000000e+00 0.000000000000e+00 -1.244613977953e-07 3.221516811612e-04 2.372788533521e-11 2.808537099404e-11 -1.669792900253e+06 8.436634057468e+07  2.158438546420e+00
4.900000000000e-01 -1.244434314116e-313 1.000000000000e+05 1.000000000000e+05 1.000000000000e+00 0.000000000000e+00 -1.260906301488e-07 3.208868067083e-04 2.290649610106e-11 2.895718601070e-11 -1.653996273816e+06 8.439405239493e+07  2.159023831910e+00
5.000000000000e-01 -1.244434314116e-313 1.000000000000e+05 1.000000000000e+05 1.000000000000e+00 0.000000000000e+00 -1.272375312951e-07 3.196316943520e-04 2.298332953594e-11 2.967916693183e-11 -1.637830011611e+06 8.442127222124e+07  2.159595479684e+00
5.100000000000e-01 -1.244434314116e-313 1.000000000000e+05 1.000000000000e+05 1.000000000000e+00 0.000000000000e+00 -1.279139183188e-07 3.183887853085e-04 2.306967769395e-11 3.039265969402e-11 -1.621262240576e+06 8.444808490813e+07  2.160155389350e+00
5.200000000000e-01 -1.244434314116e-313 1.000000000000e+05 1.000000000000e+05 1.000000000000e+00 0.000000000000e+00 -1.281697571071e-07 3.171578812938e-04 2.317487240299e-11 3.109808429835e-11 -1.604208063642e+06 8.447433700683e+07  2.160700866108e+00
5.300000000000e-01 -1.244434314116e-313 1.000000000000e+05 1.000000000000e+05 1.000000000000e+00 0.000000000000e+00 -1.280414576022e-07 3.159388022332e-04 2.327454965516e-11 3.179492456068e-11 -1.585018749006e+06 8.450053110542e+07  2.161232515315e+00
5.400000000000e-01 -1.244434314116e-313 1.000000000000e+05 1.000000000000e+05 1.000000000000e+00 0.000000000000e+00 -1.275996798678e-07 3.147305397243e-04 2.337852995702e-11 3.248494536364e-11 -1.563935436117e+06 8.452479631719e+07  2.161724315045e+00
5.500000000000e-01 -1.244434314116e-313 1.000000000000e+05 1.000000000000e+05 1.000000000000e+00 0.000000000000e+00 -1.272749570577e-07 3.135251495067e-04 2.343171316598e-11 3.314329786411e-11 -1.542786317574e+06 8.455107142850e+07  2.162224293625e+00
5.600000000000e-01 -1.244434314116e-313 1.000000000000e+05 1.000000000000e+05 1.000000000000e+00 0.000000000000e+00 -1.264293807066e-07 3.123278279773e-04 2.352245478562e-11 3.378927600032e-11 -1.520526007585e+06 8.457743389862e+07  2.162711396810e+00
5.700000000000e-01 -1.244434314116e-313 1.000000000000e+05 1.000000000000e+05 1.000000000000e+00 0.000000000000e+00 -1.253142124760e-07 3.111416923144e-04 2.364269965184e-11 3.445908145676e-11 -1.497273205068e+06 8.460424031414e+07  2.163189754849e+00
5.800000000000e-01 -1.244434314116e-313 1.000000000000e+05 1.000000000000e+05 1.000000000000e+00 0.000000000000e+00 -1.239664289896e-07 3.099665834838e-04 2.374543526553e-11 3.514653494083e-11 -1.472459871939e+06 8.463111096618e+07  2.163655857615e+00
5.900000000000e-01 -1.244434314116e-313 1.000000000000e+05 1.000000000000e+05 1.000000000000e+00 0.000000000000e+00 -1.224097645318e-07 3.088023441921e-04 2.384565108450e-11 3.581887378412e-11 -1.445798656195e+06 8.465573708188e+07  2.164087071961e+00
6.000000000000e-01 -1.244434314116e-313 1.000000000000e+05 1.000000000000e+05 1.000000000000e+00 0.000000000000e+00 -1.206740128314e-07 3.076488114936e-04 2.396328441902e-11 3.647849077158e-11 -1.419159083764e+06 8.468262545360e+07  2.164528175470e+00
6.100000000000e-01 -1.244434314116e-313 1.000000000000e+05 1.000000000000e+05 1.000000000000e+00 0.000000000000e+00 -1.190449672425e-07 3.064990126443e-04 2.404203306355e-11 3.710485872819e-11 -1.391225764412e+06 8.470949754995e+07  2.164957138895e+00
6.200000000000e-01 -1.244434314116e-313 1.000000000000e+05 1.000000000000e+05 1.000000000000e+00 0.000000000000e+00 -1.173377884921e-07 3.053578433070e-04 2.410653405978e-11 3.829240853232e-11 -1.361533416404e+06 8.473408657023e+07  2.165354092946e+00
6.300000000000e-01 -1.244434314116e-313 1.000000000000e+05 1.000000000000e+05 1.000000000000e+00 0.000000000000e+00 -1.154845276400e-07 3.042270268584e-04 2.416094964472e-11 3.973490937822e-11 -1.331645108761e+06 8.476109504348e+07  2.165762164994e+00
6.400000000000e-01 -1.244434314116e-313 1.000000000000e+05 1.000000000000e+05 1.000000000000e+00 0.000000000000e+00 -1.135046677661e-07 3.031077121627e-04 2.423760214159e-11 4.117676721712e-11 -1.300136481841e+06 8.478590137865e+07  2.166140620532e+00
6.500000000000e-01 -1.244434314116e-313 1.000000000000e+05 1.000000000000e+05 1.000000000000e+00 0.000000000000e+00 -1.114140677195e-07 3.019984211010e-04 2.431716005024e-11 4.262087994734e-11 -1.268903468863e+06 8.481315060273e+07  2.166530155631e+00
6.600000000000e-01 -1.244434314116e-313 1.000000000000e+05 1.000000000000e+05 1.000000000000e+00 0.000000000000e+00 -1.092326389366e-07 3.008990108694e-04 2.440633237365e-11 4.406530766087e-11 -1.236458682884e+06 8.484048586716e+07  2.166910636950e+00
6.700000000000e-01 -1.244434314116e-313 1.000000000000e+05 1.000000000000e+05 1.000000000000e+00 0.000000000000e+00 -1.069342159804e-07 2.998087331848e-04 2.450799447890e-11 4.550739099104e-11 -1.202108610650e+06 8.486547308155e+07  2.167262357665e+00
6.800000000000e-01 -1.244434314116e-313 1.000000000000e+05 1.000000000000e+05 1.000000000000e+00 0.000000000000e+00 -1.047004520511e-07 2.987182668846e-04 2.459258571449e-11 4.693803555974e-11 -1.167520159501e+06 8.489042950211e+07  2.167604402986e+00
6.900000000000e-01 -1.244434314116e-313 1.000000000000e+05 1.000000000000e+05 1.000000000000e+00 0.000000000000e+00 -1.024156515044e-07 2.976369738556e-04 2.468646890592e-11 4.836497507171e-11 -1.132928427199e+06 8.491775089749e+07  2.167956586401e+00
7.000000000000e-01 -1.244434314116e-313 1.000000000000e+05 1.000000000000e+05 1.000000000000e+00 0.000000000000e+00 -1.000815555611e-07 2.965650589966e-04 2.478221381702e-11 4.978804266996e-11 -1.096916809683e+06 8.494274415425e+07  2.168282433441e+00
7.100000000000e-01 -1.244434314116e-313 1.000000000000e+05 1.000000000000e+05 1.000000000000e+00 0.000000000000e+00 -9.771189833390e-08 2.955024094101e-04 2.488749905587e-11 5.120588347802e-11 -1.060984811527e+06 8.497018396478e+07  2.168618865560e+00
7.200000000000e-01 -1.244434314116e-313 1.000000000000e+05 1.000000000000e+05 1.000000000000e+00 0.000000000000e+00 -9.531458337500e-08 2.944489059092e-04 2.499329094532e-11 5.262052639867e-11 -1.023709028188e+06 8.499528504787e+07  2.168930172676e+00
7.300000000000e-01 -1.244434314116e-313 1.000000000000e+05 1.000000000000e+05 1.000000000000e+00 0.000000000000e+00 -9.290061180510e-08 2.934044409643e-04 2.510825317123e-11 5.402788747451e-11 -9.866346784287e+05 8.502296509155e+07  2.169252753492e+00
7.400000000000e-01 -1.244434314116e-313 1.000000000000e+05 1.000000000000e+05 1.000000000000e+00 0.000000000000e+00 -9.048045747266e-08 2.923688989922e-04 2.523817168151e-11 5.543130972696e-11 -9.478987510311e+05 8.504824231312e+07  2.169550810033e+00
7.500000000000e-01 -1.244434314116e-313 1.000000000000e+05 1.000000000000e+05 1.000000000000e+00 0.000000000000e+00 -8.814446120019e-08 2.913388710778e-04 2.533116306240e-11 5.682464996249e-11 -9.086817830359e+05 8.507359008878e+07  2.169842360324e+00
7.600000000000e-01 -1.244434314116e-313 1.000000000000e+05 1.000000000000e+05 1.000000000000e+00 0.000000000000e+00 -8.588254036661e-08 2.903141766167e-04 2.541884164137e-11 5.820233733462e-11 -8.693207148434e+05 8.509875199728e+07  2.170125874583e+00
7.700000000000e-01 -1.244434314116e-313 1.000000000000e+05 1.000000000000e+05 1.000000000000e+00 0.000000000000e+00 -8.361646966118e-08 2.892980931427e-04 2.550911271775e-11 5.957175273740e-11 -8.301273432268e+05 8.512618390046e+07  2.170418287738e+00
7.800000000000e-01 -1.244434314116e-313 1.000000000000e+05 1.000000000000e+05 1.000000000000e+00 0.000000000000e+00 -8.135348564593e-08 2.882905173833e-04 2.560635861057e-11 6.093215486983e-11 -7.893481378168e+05 8.515118994375e+07  2.170688290199e+00
7.900000000000e-01 -1.244434314116e-313 1.000000000000e+05 1.000000000000e+05 1.000000000000e+00 0.000000000000e+00 -7.903582420213e-08 2.872893681617e-04 2.573868947744e-11 6.228484764544e-11 -7.486305582008e+05 8.517644612223e+07  2.170953817213e+00
8.000000000000e-01 -1.244434314116e-313 1.000000000000e+05 1.000000000000e+05 1.000000000000e+00 0.000000000000e+00 -7.670587815150e-08 2.862954191570e-04 2.563441449977e-11 6.361766276135e-11 -7.082321363227e+05 8.520413628808e+07  2.171229076973e+00
8.100000000000e-01 -1.244434314116e-313 1.000000000000e+05 1.000000000000e+05 1.000000000000e+00 0.000000000000e+00 -7.440422808783e-08 2.853096702288e-04 2.505702361838e-11 6.492111140152e-11 -6.662572769818e+05 8.522925899544e+07  2.171482493242e+00
8.200000000000e-01 -1.244434314116e-313 1.000000000000e+05 1.000000000000e+05 1.000000000000e+00 0.000000000000e+00 -7.213556379834e-08 2.843320228205e-04 2.448071025702e-11 6.621951424515e-11 -6.239649226345e+05 8.525454480588e+07  2.171731452713e+00
8.300000000000e-01 -1.244434314116e-313 1.000000000000e+05 1.000000000000e+05 1.000000000000e+00 0.000000000000e+00 -6.995137560116e-08 2.833601843158e-04 2.385990127447e-11 6.751228395899e-11 -5.812884669858e+05 8.527973202358e+07  2.171974528066e+00
8.400000000000e-01 -1.244434314116e-313 1.000000000000e+05 1.000000000000e+05 1.000000000000e+00 0.000000000000e+00 -6.784706947305e-08 2.823930130146e-04 2.321478462965e-11 6.878901525787e-11 -5.386283953057e+05 8.530482663298e+07  2.172211898551e+00
8.500000000000e-01 -1.244434314116e-313 1.000000000000e+05 1.000000000000e+05 1.000000000000e+00 0.000000000000e+00 -6.577263795270e-08 2.814328252572e-04 2.256664682502e-11 7.005393559098e-11 -4.963538212098e+05 8.533227263913e+07  2.172458110251e+00
8.600000000000e-01 -1.244434314116e-313 1.000000000000e+05 1.000000000000e+05 1.000000000000e+00 0.000000000000e+00 -6.372763104182e-08 2.804803701792e-04 2.190696064805e-11 7.131226884755e-11 -4.525693511572e+05 8.535700024354e+07  2.172683633946e+00
8.700000000000e-01 -1.244434314116e-313 1.000000000000e+05 1.000000000000e+05 1.000000000000e+00 0.000000000000e+00 -6.171355407988e-08 2.795355631714e-04 2.123834984388e-11 7.256183069928e-11 -4.086000865577e+05 8.538195569079e+07  2.172905725307e+00
8.800000000000e-01 -1.244434314116e-313 1.000000000000e+05 1.000000000000e+05 1.000000000000e+00 0.000000000000e+00 -5.973444537812e-08 2.785948860234e-04 2.055814940375e-11 7.377462460108e-11 -3.643680107320e+05 8.540690875270e+07  2.173123271610e+00
8.900000000000e-01 -1.244434314116e-313 1.000000000000e+05 1.000000000000e+05 1.000000000000e+00 0.000000000000e+00 -5.779330732228e-08 2.776523925631e-04 1.987269930217e-11 7.490094469400e-11 -3.198866264117e+05 8.543180547126e+07  2.173336067655e+00
9.000000000000e-01 -1.244434314116e-313 1.000000000000e+05 1.000000000000e+05 1.000000000000e+00 0.000000000000e+00 -5.587988969102e-08 2.767171278013e-04 1.917625450752e-11 7.601797367930e-11 -2.751920162135e+05 8.545673262049e+07  2.173544742577e+00
9.100000000000e-01 -1.244434314116e-313 1.000000000000e+05 1.000000000000e+05 1.000000000000e+00 0.000000000000e+00 -5.396738878643e-08 2.757869895146e-04 1.850262991434e-11 7.712390672889e-11 -2.303257717236e+05 8.548171131379e+07  2.173749548887e+00
9.200000000000e-01 -1.244434314116e-313 1.000000000000e+05 1.000000000000e+05 1.000000000000e+00 0.000000000000e+00 -5.214374172557e-08 2.748616911300e-04 1.778975298963e-11 7.822071525605e-11 -1.855258131396e+05 8.550655067737e+07  2.173949593459e+00
9.300000000000e-01 -1.244434314116e-313 1.000000000000e+05 1.000000000000e+05 1.000000000000e+00 0.000000000000e+00 -5.037486894695e-08 2.739429079280e-04 1.704733071260e-11 7.930668501932e-11 -1.412048367118e+05 8.553366528820e+07  2.174157600322e+00
9.400000000000e-01 -1.244434314116e-313 1.000000000000e+05 1.000000000000e+05 1.000000000000e+00 0.000000000000e+00 -4.864683298553e-08 2.730303550137e-04 1.630607349946e-11 8.037218541000e-11 -9.553708608678e+04 8.555819573610e+07  2.174348514615e+00
9.500000000000e-01 -1.244434314116e-313 1.000000000000e+05 1.000000000000e+05 1.000000000000e+00 0.000000000000e+00 -4.695920627399e-08 2.721248394772e-04 1.555853311072e-11 8.142559686921e-11 -4.952945018225e+04 8.558290049973e+07  2.174536398852e+00
9.600000000000e-01 -1.244434314116e-313 1.000000000000e+05 1.000000000000e+05 1.000000000000e+00 0.000000000000e+00 -4.530747100029e-08 2.712265074384e-04 1.479394927258e-11 8.246642514181e-11 -3.294831352331e+03 8.560746816695e+07  2.174720047400e+00
9.700000000000e-01 -1.244434314116e-313 1.000000000000e+05 1.000000000000e+05 1.000000000000e+00 0.000000000000e+00 -4.369409482585e-08 2.703352758188e-04 1.402432260206e-11 8.349543542453e-11 4.320123218945e+04 8.563198090771e+07  2.174899936929e+00
9.800000000000e-01 -1.244434314116e-313 1.000000000000e+05 1.000000000000e+05 1.000000000000e+00 0.000000000000e+00 -4.211900716363e-08 2.694510663669e-04 1.324691624652e-11 8.451077707642e-11 8.993581687227e+04 8.565646427422e+07  2.175076302241e+00
9.900000000000e-01 -1.244434314116e-313 1.000000000000e+05 1.000000000000e+05 1.000000000000e+00 0.000000000000e+00 -4.058280272882e-08 2.685737996480e-04 1.245564078817e-11 8.551400153604e-11 1.368958555833e+05 8.568091816926e+07  2.175249245155e+00
1.000000000000e+00 -1.244434314116e-313 1.000000000000e+05 1.000000000000e+05 1.000000000000e+00 0.000000000000e+00 -3.908402311332e-08 2.677034010943e-04 1.165065796876e-11 8.650451128977e-11 1.840607186858e+05 8.570536380827e+07  2.175418919059e+00
1.050000000000e+00 -1.244434314116e-313 1.000000000000e+05 1.000000000000e+05 1.000000000000e+00 0.000000000000e+00 -3.273572849911e-08 2.634949950403e-04 7.686197514925e-12 9.146066789560e-11 4.244118788632e+05 8.582356485441e+07  2.176174107470e+00
1.100000000000e+00 -1.244434314116e-313 1.000000000000e+05 1.000000000000e+05 1.000000000000e+00 0.000000000000e+00 -2.710060538477e-08 2.594253711017e-04 3.537322514630e-12 9.601595635691e-11 6.649131755406e+05 8.592136211613e+07  2.176824832027e+00
1.150000000000e+00 -1.244434314116e-313 1.000000000000e+05 1.000000000000e+05 1.000000000000e+00 0.000000000000e+00 -2.211798573860e-08 2.554813482646e-04 -8.672750640271e-13 1.017145727983e-10 9.259379333537e+05 8.605680991830e+07  2.177437935570e+00
1.200000000000e+00 -1.244434314116e-313 1.000000000000e+05 1.000000000000e+05 1.000000000000e+00 0.000000000000e+00 -1.769302639802e-08 2.516605361579e-04 -5.437576266820e-12 1.091107803809e-10 1.160183747856e+06 8.615919607458e+07  2.178017040126e+00
1.250000000000e+00 -1.244434314116e-313 1.000000000000e+05 1.000000000000e+05 1.000000000000e+00 0.000000000000e+00 -1.368978192697e-08 2.479661300968e-04 -1.032987436123e-11 1.162481399080e-10 1.400680689030e+06 8.625533663903e+07  2.178542600580e+00
1.300000000000e+00 -1.244434314116e-313 1.000000000000e+05 1.000000000000e+05 1.000000000000e+00 0.000000000000e+00 -1.009638585688e-08 2.443801163919e-04 -1.064534108173e-11 1.234627410081e-10 1.642900464893e+06 8.635192419505e+07  2.179035254977e+00
1.350000000000e+00 -1.244434314116e-313 1.000000000000e+05 1.000000000000e+05 1.000000000000e+00 0.000000000000e+00 -6.856214809152e-09 2.409106357315e-04 -1.037759525135e-11 1.305432517780e-10 1.888254229094e+06 8.644677086961e+07  2.179491259161e+00
1.400000000000e+00 -1.244434314116e-313 1.000000000000e+05 1.000000000000e+05 1.000000000000e+00 0.000000000000e+00 -3.787565200365e-09 2.375454834003e-04 -1.014623088650e-11 1.374493733722e-10 2.131128240434e+06 8.653602908008e+07  2.179913357420e+00