 TITLE = "Time curves in points"
 VARIABLES = "TIME"  "DISPLACEMENT_X1"  "DISPLACEMENT_Y1"  "STRESS_XX"  "STRESS_XY"  "STRESS_YY"  "STRESS_ZZ"  "STRAIN_XX"  "STRAIN_XY"  "STRAIN_YY"  p_(1st_Invariant)  q_(2nd_Invariant)   Effective_Strain
 ZONE T="POINT=POINT5"
0.000000000000e+00 0.000000000000e+00 0.000000000000e+00 -1.000000000000e+05 0.000000000000e+00 -1.000000000000e+05 -1.000000000000e+05 0.000000000000e+00 0.000000000000e+00 0.000000000000e+00 1.000000000000e+05 0.000000000000e+00  0.000000000000e+00
1.000000000000e-03 3.099954574393e-07 6.221713849557e-04 -1.320925000776e+05 -8.845135112166e+01 -1.479387380596e+05 -1.320127582913e+05 -1.402761042853e-04 -3.109401613676e-04 -2.803079467613e-02 1.373479988095e+05 1.588699767679e+04  2.796610677652e-02
2.000000000000e-03 -4.366443775454e-07 1.643311707622e-03 -2.737065822229e+05 2.814303336947e+02 -3.597581214383e+05 -2.733861452854e+05 -2.986792828793e-04 1.710638439273e-04 -7.425699966478e-02 3.022836163155e+05 8.621358235193e+04  7.410870373739e-02
3.000000000000e-03 1.348809282720e-07 2.081047119144e-03 -7.708195464846e+05 -3.045749993892e+03 -1.102603299921e+06 -7.693694125530e+05 -3.902726815635e-04 -3.672877250195e-04 -9.412892360233e-02 8.809307529860e+05 3.325530372592e+05  9.393654946128e-02
4.000000000000e-03 3.437358891689e-07 2.218655459979e-03 -2.515934572445e+06 -2.340187809854e+04 -3.630735398915e+06 -2.478668372730e+06 -6.602675841726e-04 -6.783647803586e-04 -1.000601551598e-01 2.875112781363e+06 1.134617550665e+06  9.973858161863e-02
5.000000000000e-03 4.435766263912e-07 2.228634080368e-03 -2.692823318255e+06 -3.861161495151e+04 -3.760677591013e+06 -2.601400884872e+06 -8.596966117508e-04 -8.175024484671e-04 -1.000882095612e-01 3.018300598046e+06 1.118377939569e+06  9.967120049217e-02
6.000000000000e-03 3.218941375904e-07 2.237219886582e-03 -2.984710234829e+06 -3.644428167872e+04 -4.202909787345e+06 -2.895048486667e+06 -8.526832422347e-04 -8.071895692733e-04 -1.005808906130e-01 3.360889502947e+06 1.266988491393e+06  1.001670287585e-01
7.000000000000e-03 3.214802625143e-07 2.235330774606e-03 -2.942251010083e+06 -3.201741479121e+04 -4.135295793144e+06 -2.851019215887e+06 -8.554848213470e-04 -7.878700465991e-04 -1.005230765109e-01 3.309522006372e+06 1.242416216622e+06  1.001073774353e-01
8.000000000000e-03 3.099684077180e-07 2.235964353160e-03 -2.974399571327e+06 -3.301555211491e+04 -4.179807411080e+06 -2.881683281713e+06 -8.596063523804e-04 -7.934359443628e-04 -1.005619040388e-01 3.345296754706e+06 1.255641426887e+06  1.001442980767e-01
9.000000000000e-03 3.112323873964e-07 2.236623124157e-03 -2.995230734429e+06 -3.293308766992e+04 -4.210932208618e+06 -2.902465646206e+06 -8.597405605073e-04 -7.929825073326e-04 -1.005906700903e-01 3.369542863084e+06 1.265924111167e+06  1.001729836220e-01
1.000000000000e-02 3.111732661785e-07 2.237258785655e-03 -3.016793019132e+06 -3.297543052746e+04 -4.242771747979e+06 -2.923826342268e+06 -8.602904757486e-04 -7.932158516313e-04 -1.006195987679e-01 3.394463703126e+06 1.276285215763e+06  1.002016429386e-01
2.000000000000e-02 2.776447018652e-07 2.289507104319e-03 -4.950259902292e+06 -3.056163364195e+04 -7.091117129965e+06 -4.836550231735e+06 -9.099796735627e-04 -7.815582479239e-04 -1.029799223577e-01 5.625975754664e+06 2.200553968636e+06  1.025368974349e-01
3.000000000000e-02 3.139543729507e-07 2.255814373730e-03 -3.558052380833e+06 -3.264549161588e+04 -5.008042963851e+06 -3.446434104119e+06 -9.054769854253e-04 -7.903639540757e-04 -1.014875596404e-01 4.004176482934e+06 1.509958265991e+06  1.010471376453e-01
4.000000000000e-02 3.245940014587e-07 2.273346256420e-03 -4.296183020095e+06 -3.381202027730e+04 -6.027469623317e+06 -4.149453246299e+06 -9.913084887901e-04 -7.952754390459e-04 -1.023025164541e-01 4.824368629904e+06 1.810067396211e+06  1.018197996533e-01
5.000000000000e-02 3.302277561288e-07 2.264316573940e-03 -3.939067186675e+06 -3.266398816792e+04 -5.496966686283e+06 -3.794400872621e+06 -9.870719318348e-04 -7.878915714353e-04 -1.019324361524e-01 4.410144915193e+06 1.636018208928e+06  1.014516807336e-01
6.000000000000e-02 2.724828870194e-07 2.277741607925e-03 -4.573100763975e+06 -2.565509280927e+04 -6.407398810288e+06 -4.412182146191e+06 -1.022994314859e-03 -7.524768464585e-04 -1.025936337500e-01 5.130893906818e+06 1.920336267906e+06  1.020943003479e-01
7.000000000000e-02 2.424107428629e-07 2.278589300690e-03 -4.571689518476e+06 -1.645587600323e+04 -6.410021898621e+06 -4.412660028241e+06 -1.019554930396e-03 -7.191221882935e-04 -1.025988957829e-01 5.131457148446e+06 1.922997079435e+06  1.021005343190e-01
8.000000000000e-02 2.634336376508e-07 2.282798350412e-03 -4.755487695260e+06 -2.043179921892e+04 -6.681771984621e+06 -4.594872464286e+06 -1.022756666571e-03 -7.359965553254e-04 -1.027950840831e-01 5.344044048056e+06 2.011718515890e+06  1.022954840553e-01
9.000000000000e-02 2.312443771982e-07 2.286374827306e-03 -4.906501977661e+06 -1.839468608482e+04 -6.905280056437e+06 -4.744675045514e+06 -1.025689895694e-03 -7.277339661111e-04 -1.029668131899e-01 5.518819026537e+06 2.084651765193e+06  1.024655719183e-01
1.000000000000e-01 2.426657777181e-07 2.287904012767e-03 -5.016259030771e+06 -1.297037486034e+04 -7.049177844412e+06 -4.846128478083e+06 -1.039367118703e-03 -7.097764430174e-04 -1.030375663322e-01 5.637188451089e+06 2.123221514826e+06  1.025292048590e-01
1.100000000000e-01 2.384188585353e-07 2.290011463987e-03 -5.109202170386e+06 -1.295673500613e+04 -7.187494685288e+06 -4.938625825314e+06 -1.040223424002e-03 -7.097827719574e-04 -1.031332385556e-01 5.745107560329e+06 2.168734017607e+06  1.026244450604e-01
1.200000000000e-01 2.302947087079e-07 2.292385191032e-03 -5.289049244635e+06 -1.107227744233e+04 -7.441837265613e+06 -5.112291646720e+06 -1.048390058717e-03 -7.047981950012e-04 -1.032369246802e-01 5.947726052323e+06 2.246470328556e+06  1.027239961990e-01
1.300000000000e-01 2.188519209244e-07 2.293386936142e-03 -5.317935540875e+06 -1.045592490282e+04 -7.503876081548e+06 -5.148652504423e+06 -1.036945268534e-03 -7.029895902292e-04 -1.032771514471e-01 5.990154708949e+06 2.275382039376e+06  1.027698160749e-01
1.400000000000e-01 2.152075366172e-07 2.295094475144e-03 -5.425572435730e+06 -9.400269811191e+03 -7.659961879865e+06 -5.254132363170e+06 -1.040214508483e-03 -6.997756597372e-04 -1.033552582150e-01 6.113222226255e+06 2.324912228491e+06  1.028462389478e-01
1.500000000000e-01 2.120000723335e-07 2.296440352568e-03 -5.508657783012e+06 -8.687970122994e+03 -7.782483144663e+06 -5.336365808029e+06 -1.041486762901e-03 -6.976545049839e-04 -1.034163290380e-01 6.209168911901e+06 2.364731402238e+06  1.029066335764e-01
1.600000000000e-01 2.073820278012e-07 2.297828398284e-03 -5.596285672383e+06 -7.579792893879e+03 -7.911208723360e+06 -5.422898089103e+06 -1.043096689799e-03 -6.943983916249e-04 -1.034792840397e-01 6.310130828282e+06 2.406342298812e+06  1.029687231387e-01
1.700000000000e-01 2.028224111497e-07 2.299132594323e-03 -5.679863664415e+06 -6.470780982633e+03 -8.034000995760e+06 -5.505437241837e+06 -1.044599961866e-03 -6.911898532041e-04 -1.035384101620e-01 6.406433967337e+06 2.446045076793e+06  1.030270380962e-01
1.800000000000e-01 1.990296647321e-07 2.300433542948e-03 -5.764439434163e+06 -5.541902783120e+03 -8.158345828681e+06 -5.588996739613e+06 -1.046048683619e-03 -6.885447859873e-04 -1.035974174996e-01 6.503927334152e+06 2.486293122542e+06  1.030852728085e-01
1.900000000000e-01 1.947034312201e-07 2.301662839379e-03 -5.845574013265e+06 -4.459697355164e+03 -8.277532729794e+06 -5.669116847466e+06 -1.047474064914e-03 -6.855032903171e-04 -1.036531132267e-01 6.597407863509e+06 2.524828021752e+06  1.031402001158e-01
2.000000000000e-01 1.907686784182e-07 2.302936288999e-03 -5.930783958353e+06 -3.464993538697e+03 -8.402792577102e+06 -5.753296582584e+06 -1.048901018097e-03 -6.827508337234e-04 -1.037108348799e-01 6.695624372680e+06 2.565368340197e+06  1.031971584426e-01
2.100000000000e-01 1.863457183164e-07 2.304214977800e-03 -6.017636765458e+06 -2.326567805294e+03 -8.530396209450e+06 -5.839071316282e+06 -1.050372684169e-03 -6.796453882819e-04 -1.037687452613e-01 6.795701430396e+06 2.606636511014e+06  1.032542767829e-01
2.200000000000e-01 1.821374748534e-07 2.305370755484e-03 -6.097254741334e+06 -1.225596713069e+03 -8.647364899694e+06 -5.917698515992e+06 -1.051706484147e-03 -6.766833252905e-04 -1.038210802812e-01 6.887439385673e+06 2.644464958802e+06  1.033058913854e-01
2.300000000000e-01 1.775651450720e-07 2.306658517563e-03 -6.187187491178e+06 -1.634510556059e+01 -8.779498376915e+06 -6.006517944700e+06 -1.053184501037e-03 -6.734759040539e-04 -1.038793734884e-01 6.991067937598e+06 2.687204652830e+06  1.033633880887e-01
2.400000000000e-01 1.738636536063e-07 2.307777421248e-03 -6.266396440486e+06 9.724542708288e+02 -8.895929008121e+06 -6.084767145438e+06 -1.054441140727e-03 -6.708906449772e-04 -1.039300430512e-01 7.082364198015e+06 2.724891504013e+06  1.034133833909e-01
2.500000000000e-01 1.694582175290e-07 2.308938489241e-03 -6.349701079269e+06 2.175657047465e+03 -9.018302010860e+06 -6.167032025106e+06 -1.055785035273e-03 -6.677837920598e-04 -1.039825718458e-01 7.178345038412e+06 2.764468108696e+06  1.034651849271e-01
2.600000000000e-01 1.661920324273e-07 2.310042104100e-03 -6.429845424224e+06 3.067470678563e+03 -9.136163745780e+06 -6.246228752125e+06 -1.056993918263e-03 -6.655137587981e-04 -1.040325481528e-01 7.270745974043e+06 2.802646487132e+06  1.035145171766e-01
2.700000000000e-01 1.628950802856e-07 2.311198137246e-03 -6.514868150067e+06 3.974652133469e+03 -9.261222197351e+06 -6.330256004572e+06 -1.058247560890e-03 -6.632351736064e-04 -1.040848939283e-01 7.368782117330e+06 2.843167231070e+06  1.035661966547e-01
2.800000000000e-01 1.604894200614e-07 2.312255830872e-03 -6.593595360921e+06 4.637276181167e+03 -9.377120816998e+06 -6.408101616933e+06 -1.059343722133e-03 -6.615942490905e-04 -1.041328191578e-01 7.459605931617e+06 2.880766037882e+06  1.036135459651e-01
2.900000000000e-01 1.579987934322e-07 2.313372584070e-03 -6.677737073213e+06 5.330027735769e+03 -9.501012534700e+06 -6.491310776115e+06 -1.060488946378e-03 -6.599002666705e-04 -1.041834160822e-01 7.556686794676e+06 2.920968523152e+06  1.036635416494e-01
3.000000000000e-01 1.560736117560e-07 2.314368354627e-03 -6.753658168952e+06 5.866720268679e+03 -9.612836669766e+06 -6.566405168261e+06 -1.061491908083e-03 -6.586054643016e-04 -1.042285392572e-01 7.644300002326e+06 2.957272120518e+06  1.037081418849e-01
3.100000000000e-01 1.540835843528e-07 2.315383977623e-03 -6.831979369443e+06 6.429347723473e+03 -9.728203541772e+06 -6.643877213671e+06 -1.062510356070e-03 -6.572633472303e-04 -1.042745552288e-01 7.734686708295e+06 2.994729853817e+06  1.037536263797e-01
3.200000000000e-01 1.524064878766e-07 2.316341630113e-03 -6.906647170984e+06 6.904105930935e+03 -9.838219130793e+06 -6.717747903446e+06 -1.063455615424e-03 -6.561449194794e-04 -1.043179467955e-01 7.820871401741e+06 3.030463971868e+06  1.037965270789e-01
3.300000000000e-01 1.508782276711e-07 2.317295254278e-03 -6.981801158864e+06 7.335716279769e+03 -9.948978667939e+06 -6.792111162175e+06 -1.064383095075e-03 -6.551403472931e-04 -1.043611594629e-01 7.907630329659e+06 3.066452346814e+06  1.038392598612e-01
3.400000000000e-01 1.493883772489e-07 2.318107313704e-03 -7.046460975709e+06 7.769140197212e+03 -1.004424790872e+07 -6.856081145061e+06 -1.065184120440e-03 -6.541401859280e-04 -1.043979409066e-01 7.982263343164e+06 3.097397330486e+06  1.038756244363e-01
3.500000000000e-01 1.483111453477e-07 2.318847327508e-03 -7.105886217382e+06 8.075740860594e+03 -1.013184370095e+07 -6.914888424075e+06 -1.065895280665e-03 -6.534408718818e-04 -1.044314682938e-01 8.050872780803e+06 3.125867192348e+06  1.039087852324e-01
3.600000000000e-01 1.470762328670e-07 2.319488978305e-03 -7.157846318093e+06 8.440371328906e+03 -1.020838427808e+07 -6.966288058271e+06 -1.066535238434e-03 -6.526133565789e-04 -1.044605137422e-01 8.110839551481e+06 3.150721484828e+06  1.039374971911e-01
3.700000000000e-01 1.459650305848e-07 2.320057299051e-03 -7.204188234305e+06 8.769580870582e+03 -1.027664128090e+07 -7.012127476050e+06 -1.067105038257e-03 -6.518713604457e-04 -1.044862315263e-01 8.164318997084e+06 3.172882512298e+06  1.039629179874e-01
3.800000000000e-01 1.450686380265e-07 2.320572518692e-03 -7.246448910017e+06 9.032932912511e+03 -1.033890100231e+07 -7.053935959624e+06 -1.067614603652e-03 -6.512822578826e-04 -1.045095463711e-01 8.213095290650e+06 3.193102415686e+06  1.039859686277e-01
3.900000000000e-01 1.441498438008e-07 2.321045489063e-03 -7.285467316680e+06 9.306578815449e+03 -1.039636480681e+07 -7.092529629423e+06 -1.068090545096e-03 -6.506729586931e-04 -1.045309359134e-01 8.258120584304e+06 3.211756116134e+06  1.040071103431e-01
4.000000000000e-01 1.432470407235e-07 2.321481595183e-03 -7.321633463059e+06 9.577614467024e+03 -1.044961549975e+07 -7.128297596572e+06 -1.068534419678e-03 -6.500723210227e-04 -1.045506487310e-01 8.299848853125e+06 3.229036495399e+06  1.040265914619e-01
4.100000000000e-01 1.423474622554e-07 2.321891991674e-03 -7.355831409308e+06 9.849887580979e+03 -1.049995738670e+07 -7.162115191197e+06 -1.068956378993e-03 -6.494716027915e-04 -1.045691898132e-01 8.339301329069e+06 3.245367989817e+06  1.040449117618e-01
4.200000000000e-01 1.414588432191e-07 2.322292213741e-03 -7.389331842668e+06 1.012024128099e+04 -1.054927082576e+07 -7.195242814469e+06 -1.069368063418e-03 -6.488778365570e-04 -1.045872662354e-01 8.377948494299e+06 3.261365001342e+06  1.040627726502e-01
4.300000000000e-01 1.405863182568e-07 2.322690288625e-03 -7.422798429758e+06 1.038662077541e+04 -1.059853720125e+07 -7.228338468792e+06 -1.069775810352e-03 -6.482955323278e-04 -1.046052427513e-01 8.416558033267e+06 3.277347876624e+06  1.040805358091e-01
4.400000000000e-01 1.397436611924e-07 2.323078452554e-03 -7.455572341133e+06 1.064484623887e+04 -1.064678601946e+07 -7.260750406956e+06 -1.070171924621e-03 -6.477336364816e-04 -1.046227683617e-01 8.454369589183e+06 3.293001470728e+06  1.040978542278e-01
4.500000000000e-01 1.389103376554e-07 2.323469367449e-03 -7.488718836049e+06 1.090088811018e+04 -1.069558830358e+07 -7.293533123859e+06 -1.070568245784e-03 -6.471790626403e-04 -1.046404166471e-01 8.492613421164e+06 3.308836779451e+06  1.041152953575e-01
4.600000000000e-01 1.380938784594e-07 2.323857505942e-03 -7.521770383601e+06 1.115267316985e+04 -1.074425497516e+07 -7.326223957088e+06 -1.070959484530e-03 -6.466362003221e-04 -1.046579378124e-01 8.530749771951e+06 3.324629880229e+06  1.041326121124e-01
4.700000000000e-01 1.372913548832e-07 2.324243912677e-03 -7.554814515686e+06 1.140107691800e+04 -1.079291455376e+07 -7.358909308228e+06 -1.071346908578e-03 -6.461030599207e-04 -1.046753791072e-01 8.568879459226e+06 3.340422326637e+06  1.041498510759e-01
4.800000000000e-01 1.365034249392e-07 2.324628507486e-03 -7.587843042867e+06 1.164585221354e+04 -1.084155562862e+07 -7.391581318132e+06 -1.071730197159e-03 -6.455800867404e-04 -1.046927373981e-01 8.606993329872e+06 3.356210716977e+06  1.041670092801e-01
4.900000000000e-01 1.357316698783e-07 2.325009443461e-03 -7.620695101651e+06 1.188647191186e+04 -1.088994074293e+07 -7.424080639307e+06 -1.072107768038e-03 -6.450682970472e-04 -1.047099290963e-01 8.644905494629e+06 3.371917725640e+06  1.041840039419e-01
5.000000000000e-01 1.349613311022e-07 2.325386043803e-03 -7.653309950085e+06 1.212811001012e+04 -1.093797768860e+07 -7.456346072792e+06 -1.072480170025e-03 -6.445565255224e-04 -1.047269227245e-01 8.682544570493e+06 3.387512226983e+06  1.042008031088e-01
5.100000000000e-01 1.341840195411e-07 2.325769182291e-03 -7.686631679188e+06 1.237252008798e+04 -1.098706188698e+07 -7.489313404401e+06 -1.072856250630e-03 -6.440411814816e-04 -1.047442126319e-01 8.721002323522e+06 3.403449498739e+06  1.042178966604e-01
5.200000000000e-01 1.334149152502e-07 2.326151973765e-03 -7.720064379874e+06 1.261564374608e+04 -1.103631426673e+07 -7.522392622951e+06 -1.073229723757e-03 -6.435308347473e-04 -1.047614865022e-01 8.759590423186e+06 3.419443498657e+06  1.042349755638e-01
5.300000000000e-01 1.326588712101e-07 2.326528714880e-03 -7.753107366456e+06 1.285556770277e+04 -1.108499548403e+07 -7.555087697635e+06 -1.073595721176e-03 -6.430294084538e-04 -1.047784860179e-01 8.797730182708e+06 3.435253323374e+06  1.042517839952e-01
5.400000000000e-01 1.318971954559e-07 2.326911470022e-03 -7.786820770198e+06 1.309854875530e+04 -1.113467016822e+07 -7.588448513880e+06 -1.073965034913e-03 -6.425238328649e-04 -1.047957583162e-01 8.836646484100e+06 3.451388459557e+06  1.042688634845e-01
5.500000000000e-01 1.311442692951e-07 2.327292178245e-03 -7.820496502384e+06 1.333975289486e+04 -1.118429388103e+07 -7.621774042383e+06 -1.074330257510e-03 -6.420241800062e-04 -1.048129382548e-01 8.875521475265e+06 3.467509099877e+06  1.042858527573e-01
5.600000000000e-01 1.304025491228e-07 2.327666556658e-03 -7.853752404844e+06 1.357849677769e+04 -1.123330182793e+07 -7.654685483324e+06 -1.074687947895e-03 -6.415317587189e-04 -1.048298319152e-01 8.913913238698e+06 3.483431005317e+06  1.043025596312e-01
5.700000000000e-01 1.296563547032e-07 2.328047238251e-03 -7.887710940729e+06 1.381978630434e+04 -1.128335127353e+07 -7.688294709822e+06 -1.075049113042e-03 -6.410362808816e-04 -1.048470114572e-01 8.953118974692e+06 3.499694109351e+06  1.043195506028e-01
5.800000000000e-01 1.289244810505e-07 2.328421108968e-03 -7.921203350368e+06 1.405754656874e+04 -1.133271735713e+07 -7.721444256083e+06 -1.075402091464e-03 -6.405501719675e-04 -1.048638837197e-01 8.991788321192e+06 3.515736808414e+06  1.043362385374e-01
5.900000000000e-01 1.281904035285e-07 2.328800257785e-03 -7.955312187867e+06 1.429709914130e+04 -1.138299808894e+07 -7.755206330430e+06 -1.075757554243e-03 -6.400625547930e-04 -1.048809959601e-01 9.031172202413e+06 3.532079591120e+06  1.043531651864e-01
6.000000000000e-01 1.274719460763e-07 2.329171582227e-03 -7.988857984877e+06 1.453257335866e+04 -1.143245222180e+07 -7.788412629577e+06 -1.076104082805e-03 -6.395853088799e-04 -1.048977549975e-01 9.069907612085e+06 3.548155248354e+06  1.043697432649e-01
6.100000000000e-01 1.267549778673e-07 2.329546933934e-03 -8.022910146331e+06 1.476869728171e+04 -1.148265920481e+07 -7.822122678441e+06 -1.076451795844e-03 -6.391088448984e-04 -1.049146979691e-01 9.109230676528e+06 3.564478608601e+06  1.043865047012e-01
6.200000000000e-01 1.260534532371e-07 2.329914941997e-03 -8.056435832573e+06 1.500064991681e+04 -1.153209339967e+07 -7.855313069693e+06 -1.076791137191e-03 -6.386428089699e-04 -1.049313096503e-01 9.147947433980e+06 3.580552303865e+06  1.044029392008e-01
6.300000000000e-01 1.253584930998e-07 2.330282510202e-03 -8.090060395359e+06 1.523155973954e+04 -1.158167892723e+07 -7.888603576528e+06 -1.077127808505e-03 -6.381808561350e-04 -1.049479032548e-01 9.186780966371e+06 3.596677798353e+06  1.044193570238e-01
6.400000000000e-01 1.246641711141e-07 2.330654424821e-03 -8.124224809291e+06 1.546313814284e+04 -1.163206635209e+07 -7.922430799320e+06 -1.077466208806e-03 -6.377195837468e-04 -1.049646952539e-01 9.226240653569e+06 3.613066820454e+06  1.044359723932e-01
6.500000000000e-01 1.239852252891e-07 2.331019383015e-03 -8.157890112266e+06 1.569065017127e+04 -1.168172185313e+07 -7.955765609952e+06 -1.077796494687e-03 -6.372683443659e-04 -1.049811742649e-01 9.265125858449e+06 3.629219720368e+06  1.044522789915e-01
6.600000000000e-01 1.233076633379e-07 2.331389140764e-03 -8.192140046240e+06 1.591872587203e+04 -1.173224608457e+07 -7.989681752545e+06 -1.078128681909e-03 -6.368179512251e-04 -1.049978726762e-01 9.304689294450e+06 3.645658262755e+06  1.044688040576e-01
6.700000000000e-01 1.226541741631e-07 2.331750992665e-03 -8.225795729701e+06 1.613925363592e+04 -1.178189915154e+07 -8.023011702583e+06 -1.078451497725e-03 -6.363843664794e-04 -1.050142155093e-01 9.343568861274e+06 3.661815848416e+06  1.044849785081e-01
6.800000000000e-01 1.220032788238e-07 2.332109566116e-03 -8.259283160476e+06 1.636019409138e+04 -1.183130704814e+07 -8.056176242755e+06 -1.078770184071e-03 -6.359517376504e-04 -1.050304111371e-01 9.382255483790e+06 3.677895159431e+06  1.045010078258e-01
6.900000000000e-01 1.213553659017e-07 2.332471915771e-03 -8.293262336791e+06 1.658115622353e+04 -1.188144660779e+07 -8.089830092902e+06 -1.079089955931e-03 -6.355209121370e-04 -1.050467803147e-01 9.421513012493e+06 3.694215508391e+06  1.045172101836e-01
7.000000000000e-01 1.207221404265e-07 2.332827220534e-03 -8.326716913406e+06 1.679787956394e+04 -1.193081612834e+07 -8.122966021748e+06 -1.079401883319e-03 -6.351001153876e-04 -1.050628326335e-01 9.460166354498e+06 3.710287119871e+06  1.045330997649e-01
7.100000000000e-01 1.200973189948e-07 2.333181477508e-03 -8.360206602055e+06 1.701270488324e+04 -1.198024261318e+07 -8.156138703424e+06 -1.079710949063e-03 -6.346847403234e-04 -1.050788393817e-01 9.498862639552e+06 3.726379726654e+06  1.045489452950e-01
7.200000000000e-01 1.194756076821e-07 2.333539302977e-03 -8.394171816325e+06 1.722735923720e+04 -1.203037693754e+07 -8.189784642195e+06 -1.080020964787e-03 -6.342714505741e-04 -1.050950107005e-01 9.538111132019e+06 3.742705683790e+06  1.045649549581e-01
7.300000000000e-01 1.188693056383e-07 2.333889990460e-03 -8.427594162422e+06 1.743753641917e+04 -1.207971394339e+07 -8.222894406486e+06 -1.080323255053e-03 -6.338684541734e-04 -1.051108610420e-01 9.576734170766e+06 3.758773884588e+06  1.045806476718e-01
7.400000000000e-01 1.182706721049e-07 2.334239230031e-03 -8.461010539547e+06 1.764580801058e+04 -1.212904691741e+07 -8.256000060112e+06 -1.080622549277e-03 -6.334707498222e-04 -1.051266476798e-01 9.615352505690e+06 3.774843067739e+06  1.045962782657e-01
7.500000000000e-01 1.176765963887e-07 2.334591378178e-03 -8.494842006033e+06 1.785371419292e+04 -1.217899858013e+07 -8.289519104708e+06 -1.080922278368e-03 -6.330753956347e-04 -1.051425695911e-01 9.654453230290e+06 3.791116608378e+06  1.046120439562e-01
7.600000000000e-01 1.170992445143e-07 2.334935256840e-03 -8.528009100558e+06 1.805613520142e+04 -1.222797319145e+07 -8.322381450386e+06 -1.081213484244e-03 -6.326920444092e-04 -1.051581185963e-01 9.692787914131e+06 3.807073679112e+06  1.046274411958e-01
7.700000000000e-01 1.165308151311e-07 2.335277742475e-03 -8.561171947688e+06 1.825638101721e+04 -1.227694643543e+07 -8.355241411667e+06 -1.081501778034e-03 -6.323143499151e-04 -1.051736072115e-01 9.731119931596e+06 3.823032663708e+06  1.046427795937e-01
7.800000000000e-01 1.159711496377e-07 2.335618568661e-03 -8.594303377091e+06 1.845429187548e+04 -1.232587802452e+07 -8.388071997075e+06 -1.081787012884e-03 -6.319425675547e-04 -1.051890232077e-01 9.769417799563e+06 3.838980359850e+06  1.046580469986e-01
7.900000000000e-01 1.154196897148e-07 2.335957498314e-03 -8.627379031019e+06 1.865009923090e+04 -1.237473173897e+07 -8.420848967450e+06 -1.082069102160e-03 -6.315762088087e-04 -1.052043558012e-01 9.807653245812e+06 3.854904856999e+06  1.046732326614e-01
8.000000000000e-01 1.148714832206e-07 2.336299607439e-03 -8.660896247185e+06 1.884565475819e+04 -1.242424283442e+07 -8.454065352702e+06 -1.082352117230e-03 -6.312118057726e-04 -1.052198354226e-01 9.846401478103e+06 3.871046159835e+06  1.046885649240e-01
8.100000000000e-01 1.143377003648e-07 2.336634688961e-03 -8.693851995622e+06 1.903655598388e+04 -1.247292856670e+07 -8.486726836361e+06 -1.082627884880e-03 -6.308574942050e-04 -1.052349987937e-01 9.884502466229e+06 3.886920319448e+06  1.047035847220e-01
8.200000000000e-01 1.138121773144e-07 2.336968460143e-03 -8.726805359045e+06 1.922531797854e+04 -1.252161513759e+07 -8.519387525822e+06 -1.082901115627e-03 -6.305085423818e-04 -1.052501053671e-01 9.922602674154e+06 3.902796878295e+06  1.047185490787e-01
8.300000000000e-01 1.132952256286e-07 2.337300127029e-03 -8.759676444324e+06 1.941152602522e+04 -1.257018449689e+07 -8.551968237666e+06 -1.083171169624e-03 -6.301656717192e-04 -1.052651191461e-01 9.960609726293e+06 3.918637331251e+06  1.047334223289e-01
8.400000000000e-01 1.127878224645e-07 2.337629639884e-03 -8.792458415112e+06 1.959515625473e+04 -1.261862652912e+07 -8.584462185682e+06 -1.083438027217e-03 -6.298288764894e-04 -1.052800378675e-01 9.998515709970e+06 3.934438374077e+06  1.047482022187e-01
8.500000000000e-01 1.122891016535e-07 2.337957265986e-03 -8.825176305622e+06 1.977607742563e+04 -1.266697819741e+07 -8.616894163871e+06 -1.083701936599e-03 -6.294983555697e-04 -1.052948737208e-01 1.003634955563e+07 3.950212049022e+06  1.047629008177e-01
8.600000000000e-01 1.117989221124e-07 2.338282703045e-03 -8.857797658314e+06 1.995485654153e+04 -1.271519172913e+07 -8.649232075569e+06 -1.083962590762e-03 -6.291730055031e-04 -1.053096129065e-01 1.007407382100e+07 3.965942870366e+06  1.047775044587e-01
8.700000000000e-01 1.113110761515e-07 2.338610934425e-03 -8.890824005576e+06 2.013328385177e+04 -1.276400797796e+07 -8.681972871060e+06 -1.084224206953e-03 -6.288495661050e-04 -1.053244814996e-01 1.011226828487e+07 3.981872398072e+06  1.047922370608e-01
8.800000000000e-01 1.108358201145e-07 2.338932227880e-03 -8.923272642385e+06 2.030772561175e+04 -1.281197432746e+07 -8.714142418004e+06 -1.084478956023e-03 -6.285345554549e-04 -1.053390377257e-01 1.014979646262e+07 3.997526549430e+06  1.048066608618e-01
8.900000000000e-01 1.103683022514e-07 2.339251744398e-03 -8.955661656969e+06 2.047995820847e+04 -1.285985634853e+07 -8.746254176726e+06 -1.084731105507e-03 -6.282247208886e-04 -1.053535158992e-01 1.018725739408e+07 4.013155060700e+06  1.048210079947e-01
9.000000000000e-01 1.099080842728e-07 2.339569286902e-03 -8.987969381537e+06 2.065017961711e+04 -1.290762187756e+07 -8.778286611717e+06 -1.084980556961e-03 -6.279196602497e-04 -1.053679069837e-01 1.022462595694e+07 4.028747377957e+06  1.048352694651e-01
9.100000000000e-01 1.094539593682e-07 2.339884882360e-03 -9.020196708805e+06 2.081863840618e+04 -1.295527211862e+07 -8.810240558831e+06 -1.085227383838e-03 -6.276188849703e-04 -1.053822120784e-01 1.026190312875e+07 4.044303845637e+06  1.048494463271e-01
9.200000000000e-01 1.090088230125e-07 2.340198480445e-03 -9.052336412431e+06 2.098449294420e+04 -1.300279724957e+07 -8.842109196429e+06 -1.085471243600e-03 -6.273238816228e-04 -1.053964292106e-01 1.029908095281e+07 4.059821638778e+06  1.048635368031e-01
9.300000000000e-01 1.085705504420e-07 2.340510347867e-03 -9.084414613851e+06 2.114821252861e+04 -1.305023515016e+07 -8.873918123290e+06 -1.085712626926e-03 -6.270337628241e-04 -1.054105702453e-01 1.033618929577e+07 4.075312790999e+06  1.048775524993e-01
9.400000000000e-01 1.081394365213e-07 2.340820458196e-03 -9.116427163642e+06 2.130980777796e+04 -1.309757961059e+07 -8.905663194638e+06 -1.085951549255e-03 -6.267484732047e-04 -1.054246339627e-01 1.037322332296e+07 4.090775240842e+06  1.048914921874e-01
9.500000000000e-01 1.077152299152e-07 2.341128947688e-03 -9.148386554047e+06 2.146934554730e+04 -1.314484910398e+07 -8.937356795708e+06 -1.086188124728e-03 -6.264678585681e-04 -1.054386264732e-01 1.041019748458e+07 4.106215020730e+06  1.049053619181e-01
9.600000000000e-01 1.072986173522e-07 2.341435409742e-03 -9.180249081070e+06 2.162654014724e+04 -1.319197898469e+07 -8.968955585999e+06 -1.086422049400e-03 -6.261923857204e-04 -1.054525293214e-01 1.044706121725e+07 4.121611009663e+06  1.049191433955e-01
9.700000000000e-01 1.068895035151e-07 2.341740552161e-03 -9.212086912630e+06 2.178135318900e+04 -1.323907605254e+07 -9.000531152328e+06 -1.086653856813e-03 -6.259220927544e-04 -1.054663746424e-01 1.048389803917e+07 4.136998115051e+06  1.049328684895e-01
9.800000000000e-01 1.064870174029e-07 2.342044177689e-03 -9.243878438820e+06 2.193413890413e+04 -1.328610798629e+07 -9.032061922263e+06 -1.086883529421e-03 -6.256563157119e-04 -1.054801533361e-01 1.052068278246e+07 4.152365621230e+06  1.049465280976e-01
9.900000000000e-01 1.060912298719e-07 2.342346307477e-03 -9.275624230391e+06 2.208473118467e+04 -1.333307585231e+07 -9.063548550968e+06 -1.087111009980e-03 -6.253953142616e-04 -1.054938662990e-01 1.055741621122e+07 4.167713974532e+06  1.049601231488e-01
1.000000000000e+00 1.057016460114e-07 2.342646838600e-03 -9.307313430696e+06 2.223359385524e+04 -1.337996315429e+07 -9.094980097861e+06 -1.087336387305e-03 -6.251382384020e-04 -1.055075091551e-01 1.059408556095e+07 4.183037592786e+06  1.049736492085e-01
1.050000000000e+00 1.039284446633e-07 2.344118234940e-03 -9.464018856718e+06 2.291550528917e+04 -1.361188366565e+07 -9.250429949649e+06 -1.088424086386e-03 -6.239732675481e-04 -1.055743541530e-01 1.077544415734e+07 4.258863224710e+06  1.050399318343e-01
1.100000000000e+00 1.021629137369e-07 2.345538280874e-03 -9.617824750926e+06 2.361079395484e+04 -1.383954916466e+07 -9.403013091896e+06 -1.089466015791e-03 -6.228044262418e-04 -1.056388981796e-01 1.095346233583e+07 4.333318486846e+06  1.051039362315e-01
1.150000000000e+00 1.005698813955e-07 2.346936189645e-03 -9.771721596639e+06 2.424302797293e+04 -1.406741745256e+07 -9.555709277868e+06 -1.090472751183e-03 -6.217602381675e-04 -1.057024760497e-01 1.113161610902e+07 4.407873705567e+06  1.051669941634e-01
1.200000000000e+00 9.902844849656e-08 2.348292387508e-03 -9.923433106295e+06 2.486627864233e+04 -1.429209079468e+07 -9.706249407838e+06 -1.091439601410e-03 -6.207469872782e-04 -1.057641850351e-01 1.130725776960e+07 4.481405470014e+06  1.052282036198e-01
1.250000000000e+00 9.760333221332e-08 2.349626779749e-03 -1.007504147666e+07 2.544824791932e+04 -1.451666331333e+07 -9.856704573406e+06 -1.092376915211e-03 -6.198164093774e-04 -1.058249289284e-01 1.148280312113e+07 4.554930113681e+06  1.052884641248e-01
1.300000000000e+00 9.625409914332e-08 2.350930619725e-03 -1.022545462562e+07 2.600553102612e+04 -1.473950076271e+07 -1.000598482492e+07 -1.093283937990e-03 -6.189392359499e-04 -1.058843012588e-01 1.165698007108e+07 4.627905054143e+06  1.053473690906e-01