 TITLE = "Time curves in points"
 VARIABLES = "TIME"  "DISPLACEMENT_X1"  "DISPLACEMENT_Y1"  "STRESS_XX"  "STRESS_XY"  "STRESS_YY"  "STRESS_ZZ"  "STRAIN_XX"  "STRAIN_XY"  "STRAIN_YY"  p_(1st_Invariant)  q_(2nd_Invariant)   Effective_Strain
 ZONE T="POINT=POINT4"
0.000000000000e+00 0.000000000000e+00 0.000000000000e+00 -1.000000000000e+05 0.000000000000e+00 -1.000000000000e+05 -1.000000000000e+05 0.000000000000e+00 0.000000000000e+00 0.000000000000e+00 1.000000000000e+05 0.000000000000e+00  0.000000000000e+00
1.000000000000e-03 1.314367788831e-05 0.000000000000e+00 2.618478012545e+05 1.185540559028e+04 4.513522379831e+05 2.507958003446e+05 2.632052650942e-02 -3.453407724323e-03 4.344754097054e-01 -3.213319465274e+05 1.963418788650e+05  4.219737056859e-01
2.000000000000e-03 2.239122041772e-04 0.000000000000e+00 6.608441330227e+05 -8.506066318886e+03 1.018855434483e+06 6.373183614354e+05 1.304952253651e-01 1.846600629223e-02 1.305543169056e+00 -7.723393096469e+05 3.706279880126e+05  1.245844211853e+00
3.000000000000e-03 3.064092014070e-04 0.000000000000e+00 1.836637803461e+06 -2.743654558493e+04 2.947110555152e+06 1.878230454585e+06 1.471517359697e-01 3.266142262828e-03 1.688933049725e+00 -2.220659604400e+06 1.091306770451e+06  1.620386081372e+00
4.000000000000e-03 4.100989607104e-04 0.000000000000e+00 5.115305145645e+06 -2.640488515909e+05 8.874852090673e+06 5.554656941683e+06 1.619888250785e-01 -1.711413523977e-02 1.830372469701e+00 -6.514938059334e+06 3.589515972668e+06  1.755244299903e+00
5.000000000000e-03 4.575972997404e-04 0.000000000000e+00 1.421347995375e+07 -1.027865118905e+06 2.459715612166e+07 1.542588082107e+07 1.726191932115e-01 -2.317154188860e-02 1.873882094425e+00 -1.807883896550e+07 9.993547355124e+06  1.794261473537e+00
6.000000000000e-03 4.762858504176e-04 0.000000000000e+00 3.156685362509e+07 -2.658078935162e+06 5.826837249561e+07 3.520964145308e+07 1.749490428504e-01 -2.645916962077e-02 1.883024447564e+00 -4.168162252460e+07 2.549841556055e+07  1.802513571634e+00
7.000000000000e-03 4.721811212447e-04 0.000000000000e+00 2.397842150851e+07 -2.936494761678e+06 4.732955663901e+07 2.697453081174e+07 1.747003439990e-01 -2.690907457338e-02 1.882443811491e+00 -3.276083631975e+07 2.258669152599e+07  1.802060938778e+00
8.000000000000e-03 4.716311385571e-04 0.000000000000e+00 2.201362510739e+07 -3.009754828919e+06 4.633704457904e+07 2.508459289551e+07 1.745492643322e-01 -2.699866036655e-02 1.883100200552e+00 -3.114508752731e+07 2.352740981591e+07  1.802783081602e+00
9.000000000000e-03 4.711376520464e-04 0.000000000000e+00 2.075601520889e+07 -3.040795046785e+06 4.636602954312e+07 2.390650779855e+07 1.744230736062e-01 -2.707579176169e-02 1.883901324077e+00 -3.034285085019e+07 2.475587972433e+07  1.803638279602e+00
1.000000000000e-02 4.706616194021e-04 0.000000000000e+00 1.960666215592e+07 -3.010830739664e+06 4.641348076910e+07 2.278079701012e+07 1.743218091585e-01 -2.716341198585e-02 1.884677437169e+00 -2.960031331171e+07 2.589956571395e+07  1.804458452735e+00
2.000000000000e-02 4.438734665162e-04 0.000000000000e+00 2.491822456092e+07 3.310502913215e+06 1.101170683481e+08 4.711908832395e+07 2.170046350368e-01 -2.080711207797e-01 1.930092003464e+00 -6.071812707767e+07 7.676660536607e+07  1.866383673464e+00
3.000000000000e-02 4.440375360094e-04 0.000000000000e+00 1.585300984425e+07 6.054613001868e+05 6.429556955005e+07 2.185494067565e+07 1.136314884904e-01 -2.417338853431e-05 1.904518862601e+00 -3.400117335665e+07 4.574992483122e+07  1.850321837334e+00
4.000000000000e-02 4.179944027149e-04 0.000000000000e+00 8.230532134464e+06 -4.079417298134e+05 7.793409494136e+07 2.139211353883e+07 1.718250062613e-01 -3.878834673231e-01 1.920051803579e+00 -3.585224687155e+07 6.414751769435e+07  1.958971822334e+00
5.000000000000e-02 3.993267791794e-04 0.000000000000e+00 -1.334066879295e+06 1.810484698695e+06 5.501185260436e+07 4.396557091863e+06 1.448313776981e-01 -4.111328878910e-01 1.916472098962e+00 -1.935811427231e+07 5.380184923606e+07  1.980749074004e+00
6.000000000000e-02 3.960068132336e-04 0.000000000000e+00 6.728471384325e+06 7.601981746568e+06 7.119513390265e+07 1.165487535333e+07 2.106029158927e-01 -4.445670736060e-01 1.925747465773e+00 -2.985949354677e+07 6.352953320814e+07  1.984995845677e+00
7.000000000000e-02 4.723522462115e-04 0.000000000000e+00 -6.594539531492e+06 -3.108884132852e+06 6.118308610126e+07 -2.945039000103e+05 1.036425390168e-01 -5.424557346924e-01 1.930941586754e+00 -1.809801422325e+07 6.508065004687e+07  2.102837171754e+00
8.000000000000e-02 4.094054243203e-04 0.000000000000e+00 8.925120537377e+05 6.743637302432e+06 6.822386131687e+07 3.739647769833e+06 1.194766065324e-01 -5.307059307360e-01 1.933361955962e+00 -2.428534038015e+07 6.698018526609e+07  2.089525769482e+00
9.000000000000e-02 4.634163768807e-04 0.000000000000e+00 -1.219056046024e+07 -3.601358600333e+06 6.120991022592e+07 -6.360637872942e+06 9.749647299296e-02 -5.565674890264e-01 1.938086431442e+00 -1.421957063091e+07 7.094087244781e+07  2.122741175011e+00
1.000000000000e-01 4.278298115444e-04 0.000000000000e+00 -7.309518091288e+06 3.023336118758e+06 6.402866626177e+07 -4.785775921113e+06 1.054072143772e-01 -5.429557052517e-01 1.939489667412e+00 -1.731112408312e+07 7.030567772945e+07  2.110141545319e+00
1.100000000000e-01 4.447358813247e-04 0.000000000000e+00 -1.131440741968e+07 -4.057387070570e+05 6.305345717671e+07 -8.536032881176e+06 1.023816902010e-01 -5.485873994741e-01 1.942428656645e+00 -1.440100562528e+07 7.302171416724e+07  2.118368799871e+00
1.200000000000e-01 4.346404644453e-04 0.000000000000e+00 -1.163584695832e+07 1.345643848972e+06 6.263018943592e+07 -1.041675351463e+07 1.046503826448e-01 -5.457060017876e-01 1.944497866970e+00 -1.352586298766e+07 7.370091847855e+07  2.117053691471e+00
1.300000000000e-01 4.386356433442e-04 0.000000000000e+00 -1.320855998569e+07 3.884488534952e+05 6.225970656331e+07 -1.241123226403e+07 1.043111649449e-01 -5.471494602984e-01 1.946649552536e+00 -1.221330477120e+07 7.507579319539e+07  2.120232443075e+00
1.400000000000e-01 4.346795360888e-04 0.000000000000e+00 -1.413834776635e+07 7.291324954262e+05 6.158861815249e+07 -1.416978947509e+07 1.055396441983e-01 -5.461582328972e-01 1.948552919402e+00 -1.109349363702e+07 7.575321936161e+07  2.120663566074e+00
1.500000000000e-01 4.331847696270e-04 0.000000000000e+00 -1.510875284598e+07 5.496981770630e+05 6.128892418226e+07 -1.565436213785e+07 1.061043674569e-01 -5.460368874235e-01 1.950581147656e+00 -1.017526973281e+07 7.667784902781e+07  2.122151884013e+00
1.600000000000e-01 4.302014073729e-04 0.000000000000e+00 -1.599627167668e+07 6.232733875051e+05 6.078836621475e+07 -1.704484883683e+07 1.069300564914e-01 -5.453403097591e-01 1.952438690595e+00 -9.249081900414e+06 7.732179613065e+07  2.122937742463e+00
1.700000000000e-01 4.277143160821e-04 0.000000000000e+00 -1.677004128689e+07 5.903654895454e+05 6.040586818416e+07 -1.825522154608e+07 1.076930752028e-01 -5.449115097237e-01 1.954340971552e+00 -8.460201783733e+06 7.793582292213e+07  2.123996963887e+00
1.800000000000e-01 4.244385659988e-04 0.000000000000e+00 -1.744960580229e+07 6.088967267154e+05 6.004908389042e+07 -1.935482005109e+07 1.085161925391e-01 -5.443216044124e-01 1.956172903580e+00 -7.748219345680e+06 7.847573267551e+07  2.124845826028e+00
1.900000000000e-01 4.212514503783e-04 0.000000000000e+00 -1.812581958128e+07 5.964667350813e+05 5.966738303557e+07 -2.041071964446e+07 1.092110534469e-01 -5.437489037081e-01 1.957929681089e+00 -7.043614603278e+06 7.896720935272e+07  2.125694413148e+00
2.000000000000e-01 4.179993869046e-04 0.000000000000e+00 -1.880452230419e+07 5.696047081046e+05 5.927324114362e+07 -2.157347125225e+07 1.099493602412e-01 -5.431927573028e-01 1.959682569388e+00 -6.298415862392e+06 7.950453391365e+07  2.126535657956e+00
2.100000000000e-01 4.143569455422e-04 0.000000000000e+00 -1.926640878320e+07 6.151719360167e+05 5.905792225328e+07 -2.237215976068e+07 1.106109691891e-01 -5.425543924852e-01 1.961409964657e+00 -5.806451236464e+06 7.992957962266e+07  2.127323714249e+00
2.200000000000e-01 4.119356589757e-04 0.000000000000e+00 -1.987448040419e+07 5.478441653788e+05 5.862570305663e+07 -2.339809276364e+07 1.110023192377e-01 -5.421543558794e-01 1.963018859418e+00 -5.117709962933e+06 8.032558287241e+07  2.128299543768e+00
2.300000000000e-01 4.081138910366e-04 0.000000000000e+00 -2.022022751539e+07 5.875241604024e+05 5.843092916278e+07 -2.410966520400e+07 1.115180543841e-01 -5.415612224666e-01 1.964679062111e+00 -4.700345481126e+06 8.067265025584e+07  2.129123899658e+00
2.400000000000e-01 4.055063654846e-04 0.000000000000e+00 -2.062352748645e+07 5.795051672710e+05 5.814754115227e+07 -2.479240990838e+07 1.115302895293e-01 -5.411385368628e-01 1.966216208996e+00 -4.243867919146e+06 8.094229819603e+07  2.130174939100e+00
2.500000000000e-01 4.022317313493e-04 0.000000000000e+00 -2.101157860533e+07 6.221578207984e+05 5.787164489206e+07 -2.543370548272e+07 1.117667483555e-01 -5.406221085290e-01 1.967661999967e+00 -3.808786934671e+06 8.119181620905e+07  2.130981736487e+00
2.600000000000e-01 3.996191276688e-04 0.000000000000e+00 -2.137927145046e+07 6.266997863586e+05 5.761165401575e+07 -2.602645610919e+07 1.117973245755e-01 -5.402776092988e-01 1.969073847014e+00 -3.401975485367e+06 8.142128902279e+07  2.131973957186e+00
2.700000000000e-01 3.967732976757e-04 0.000000000000e+00 -2.169722544615e+07 6.678557259929e+05 5.740646122029e+07 -2.650162255009e+07 1.119761161467e-01 -5.399238947060e-01 1.970444031584e+00 -3.069204408017e+06 8.162021252544e+07  2.132861715788e+00
2.800000000000e-01 3.946018082895e-04 0.000000000000e+00 -2.207769025715e+07 6.827028378449e+05 5.712990992792e+07 -2.702596926934e+07 1.119657808899e-01 -5.396488055612e-01 1.971699024187e+00 -2.675416800478e+06 8.180262188559e+07  2.133783741896e+00
2.900000000000e-01 3.922122529414e-04 0.000000000000e+00 -2.236855879366e+07 7.232152225952e+05 5.695137045805e+07 -2.741708988985e+07 1.121050650720e-01 -5.393847239833e-01 1.972944512367e+00 -2.388573924846e+06 8.197046475942e+07  2.134644739284e+00
3.000000000000e-01 3.905660030262e-04 0.000000000000e+00 -2.272885325044e+07 7.353889446308e+05 5.669583592118e+07 -2.786260907900e+07 1.120817031146e-01 -5.392689980352e-01 1.974052786892e+00 -2.034791197245e+06 8.212189750963e+07  2.135561910117e+00
3.100000000000e-01 3.887931825856e-04 0.000000000000e+00 -2.302809463884e+07 7.583786508158e+05 5.648793693630e+07 -2.823730360064e+07 1.120804795172e-01 -5.390831888057e-01 1.975137938058e+00 -1.740846232273e+06 8.225494619953e+07  2.136396394490e+00
3.200000000000e-01 3.873047973681e-04 0.000000000000e+00 -2.332741519618e+07 7.774202288834e+05 5.629421355407e+07 -2.857664438727e+07 1.120638167037e-01 -5.390010423497e-01 1.976148381650e+00 -1.463384656875e+06 8.238278640868e+07  2.137248784361e+00
3.300000000000e-01 3.857849905568e-04 0.000000000000e+00 -2.359002924316e+07 8.095606437374e+05 5.613053296200e+07 -2.885759529210e+07 1.121559362335e-01 -5.389255259101e-01 1.977064253233e+00 -1.227636142249e+06 8.249251349407e+07  2.137976775028e+00
3.400000000000e-01 3.848785041768e-04 0.000000000000e+00 -2.382172804634e+07 8.288154531689e+05 5.600510638631e+07 -2.908669449284e+07 1.120685773105e-01 -5.389183209656e-01 1.977868144515e+00 -1.032227949045e+06 8.259775891152e+07  2.138729474258e+00
3.500000000000e-01 3.843364352986e-04 0.000000000000e+00 -2.401497345796e+07 8.500261655901e+05 5.591564423317e+07 -2.927058967138e+07 1.119610387998e-01 -5.389587495547e-01 1.978567292939e+00 -8.766937012765e+05 8.269690096975e+07  2.139432391689e+00
3.600000000000e-01 3.842992320994e-04 0.000000000000e+00 -2.416275733920e+07 8.617102705455e+05 5.584950399207e+07 -2.941099247764e+07 1.118135434359e-01 -5.390899732016e-01 1.979145438274e+00 -7.585847250736e+05 8.277473485676e+07  2.140111601652e+00
3.700000000000e-01 3.844606634895e-04 0.000000000000e+00 -2.426347052875e+07 8.682452944080e+05 5.581610015235e+07 -2.950742564928e+07 1.116491834398e-01 -5.392265671641e-01 1.979634524039e+00 -6.817346581087e+05 8.283979677771e+07  2.140721766839e+00
3.800000000000e-01 3.848433628655e-04 0.000000000000e+00 -2.434910547844e+07 8.742344308677e+05 5.579432335648e+07 -2.958478248489e+07 1.114517118667e-01 -5.393723840115e-01 1.980037308510e+00 -6.201451310528e+05 8.289921268760e+07  2.141274943925e+00
3.900000000000e-01 3.854058033845e-04 0.000000000000e+00 -2.440827744588e+07 8.776202644584e+05 5.579197635020e+07 -2.963799606236e+07 1.112273301717e-01 -5.395459778283e-01 1.980401409661e+00 -5.819009473185e+05 8.295279427525e+07  2.141825410128e+00
4.000000000000e-01 3.861159805674e-04 0.000000000000e+00 -2.444826763492e+07 8.794707409017e+05 5.580410085538e+07 -2.967300179768e+07 1.109794364555e-01 -5.397329258854e-01 1.980723080422e+00 -5.609438075937e+05 8.300215776123e+07  2.142357514339e+00
4.100000000000e-01 3.869313357643e-04 0.000000000000e+00 -2.447409708814e+07 8.801867822724e+05 5.582705821326e+07 -2.969463477343e+07 1.107141160341e-01 -5.399293078525e-01 1.981014461304e+00 -5.527754505643e+05 8.304859390863e+07  2.142876715745e+00
4.200000000000e-01 3.877775191664e-04 0.000000000000e+00 -2.449521191560e+07 8.805411799417e+05 5.585305127280e+07 -2.971181114779e+07 1.104430718088e-01 -5.401259302468e-01 1.981292294345e+00 -5.486760698045e+05 8.309348380774e+07  2.143386311932e+00
4.300000000000e-01 3.886057195571e-04 0.000000000000e+00 -2.451659645217e+07 8.811598844883e+05 5.587792340356e+07 -2.972922694796e+07 1.101738068385e-01 -5.403158812736e-01 1.981566187469e+00 -5.440333344784e+05 8.313751616231e+07  2.143886631174e+00
4.400000000000e-01 3.893838823676e-04 0.000000000000e+00 -2.453746915208e+07 8.813899489816e+05 5.589837610920e+07 -2.974772276125e+07 1.099200318110e-01 -5.404889499901e-01 1.981824416787e+00 -5.377280652887e+05 8.317748279056e+07  2.144353782521e+00
4.500000000000e-01 3.901780002262e-04 0.000000000000e+00 -2.455828325717e+07 8.823010885117e+05 5.592109155714e+07 -2.976491859648e+07 1.096563047540e-01 -5.406654785469e-01 1.982085712374e+00 -5.326299011633e+05 8.321899389373e+07  2.144830426985e+00
4.600000000000e-01 3.909561554952e-04 0.000000000000e+00 -2.457908488061e+07 8.833099731971e+05 5.594253986633e+07 -2.978224727728e+07 1.093955327495e-01 -5.408362738310e-01 1.982341114816e+00 -5.270692361453e+05 8.325931029225e+07  2.145296259495e+00
4.700000000000e-01 3.917214269472e-04 0.000000000000e+00 -2.459985692441e+07 8.845159123157e+05 5.596319073219e+07 -2.979952363793e+07 1.091364185162e-01 -5.410023955395e-01 1.982592040935e+00 -5.212700566152e+05 8.329879521390e+07  2.145753886129e+00
4.800000000000e-01 3.924766765541e-04 0.000000000000e+00 -2.462060359685e+07 8.859369581864e+05 5.598333440771e+07 -2.981664233592e+07 1.088780592184e-01 -5.411648111330e-01 1.982839003705e+00 -5.153628249792e+05 8.333768341930e+07  2.146204869614e+00
4.900000000000e-01 3.932105684555e-04 0.000000000000e+00 -2.464276255167e+07 8.875361754999e+05 5.600097290549e+07 -2.983523358062e+07 1.086255118558e-01 -5.413215168558e-01 1.983079786299e+00 -5.076589244017e+05 8.337551946037e+07  2.146643621482e+00
5.000000000000e-01 3.938790806144e-04 0.000000000000e+00 -2.466578932771e+07 8.892444322674e+05 5.601443081762e+07 -2.985557880258e+07 1.083969320488e-01 -5.414651159640e-01 1.983310558837e+00 -4.976875624417e+05 8.341053567634e+07  2.147053633054e+00
5.100000000000e-01 3.945483635240e-04 0.000000000000e+00 -2.469052873120e+07 8.919179893838e+05 5.602974798219e+07 -2.987577127098e+07 1.081643340671e-01 -5.416125038568e-01 1.983547265052e+00 -4.878159933361e+05 8.344813106726e+07  2.147473520174e+00
5.200000000000e-01 3.951926210803e-04 0.000000000000e+00 -2.471692654926e+07 8.947095028032e+05 5.604335604883e+07 -2.989727281656e+07 1.079407641242e-01 -5.417556911402e-01 1.983781440219e+00 -4.763855610026e+05 8.348548961682e+07  2.147884264399e+00
5.300000000000e-01 3.957861782484e-04 0.000000000000e+00 -2.474419465251e+07 8.972259789829e+05 5.605249629317e+07 -2.992071699382e+07 1.077360618755e-01 -5.418868747649e-01 1.984004665983e+00 -4.625282156133e+05 8.351983339590e+07  2.148268344351e+00
5.400000000000e-01 3.963787285919e-04 0.000000000000e+00 -2.477294920825e+07 9.006739690877e+05 5.606363661816e+07 -2.994387232898e+07 1.075278563181e-01 -5.420211111168e-01 1.984233627891e+00 -4.489383603087e+05 8.355672004954e+07  2.148661349814e+00
5.500000000000e-01 3.969464980920e-04 0.000000000000e+00 -2.480331882071e+07 9.043008672026e+05 5.607283203914e+07 -2.996845579723e+07 1.073277448803e-01 -5.421507071662e-01 1.984458897274e+00 -4.336858070688e+05 8.359318211070e+07  2.149044212989e+00
5.600000000000e-01 3.974698462138e-04 0.000000000000e+00 -2.483440470815e+07 9.076490935318e+05 5.607798369512e+07 -2.999479590558e+07 1.071442473493e-01 -5.422691982085e-01 1.984674453831e+00 -4.162610271331e+05 8.362688139553e+07  2.149403121059e+00
5.700000000000e-01 3.979946970649e-04 0.000000000000e+00 -2.486739042765e+07 9.119095084628e+05 5.608506612864e+07 -3.002115610806e+07 1.069558786243e-01 -5.423909442367e-01 1.984896333057e+00 -3.988398643127e+05 8.366341047546e+07  2.149772195105e+00
5.800000000000e-01 3.984768285792e-04 0.000000000000e+00 -2.490101700083e+07 9.157110202107e+05 5.608774420062e+07 -3.004940650595e+07 1.067843875459e-01 -5.425020896340e-01 1.985107343344e+00 -3.791068979461e+05 8.369684954442e+07  2.150116543335e+00
5.900000000000e-01 3.989604128532e-04 0.000000000000e+00 -2.493643952372e+07 9.203794898423e+05 5.609235425149e+07 -3.007765289593e+07 1.066079546764e-01 -5.426158318610e-01 1.985324173645e+00 -3.594206106120e+05 8.373305863821e+07  2.150470135551e+00
6.000000000000e-01 3.994036018043e-04 0.000000000000e+00 -2.497235245511e+07 9.245430375379e+05 5.609258114055e+07 -3.010773870873e+07 1.064477551428e-01 -5.427191117155e-01 1.985529936518e+00 -3.374966589057e+05 8.376610135350e+07  2.150799189031e+00
6.100000000000e-01 3.998471544615e-04 0.000000000000e+00 -2.500995873854e+07 9.294493251380e+05 5.609451341047e+07 -3.013788745769e+07 1.062833704892e-01 -5.428244643913e-01 1.985740369566e+00 -3.155557380780e+05 8.380167442031e+07  2.151135743787e+00
6.200000000000e-01 4.002542300685e-04 0.000000000000e+00 -2.504839081635e+07 9.337959910782e+05 5.609177370531e+07 -3.017022445237e+07 1.061341866782e-01 -5.429203397803e-01 1.985940059466e+00 -2.910528121991e+05 8.383413282867e+07  2.151449218181e+00
6.300000000000e-01 4.006461434193e-04 0.000000000000e+00 -2.508751792979e+07 9.383091488175e+05 5.608855937496e+07 -3.020294502572e+07 1.059888575352e-01 -5.430131878132e-01 1.986137893077e+00 -2.660321398142e+05 8.386664830863e+07  2.151757153691e+00
6.400000000000e-01 4.010395252632e-04 0.000000000000e+00 -2.512830023867e+07 9.434950971318e+05 5.608703969335e+07 -3.023573914230e+07 1.058389707433e-01 -5.431078716239e-01 1.986340475320e+00 -2.410001041274e+05 8.390167047302e+07  2.152072633725e+00
6.500000000000e-01 4.014011974219e-04 0.000000000000e+00 -2.516940041229e+07 9.481159562518e+05 5.608157247779e+07 -3.027016530025e+07 1.057025511506e-01 -5.431942407486e-01 1.986533007148e+00 -2.140022550838e+05 8.393376721711e+07  2.152367245745e+00
6.600000000000e-01 4.017660329892e-04 0.000000000000e+00 -2.521213867312e+07 9.534473712850e+05 5.607817740515e+07 -3.030451087136e+07 1.055605054365e-01 -5.432827034926e-01 1.986730903273e+00 -1.871759535561e+05 8.396865768823e+07  2.152670590628e+00
6.700000000000e-01 4.021004944996e-04 0.000000000000e+00 -2.525546596706e+07 9.581383959414e+05 5.607027610362e+07 -3.034090764922e+07 1.054318868348e-01 -5.433629157909e-01 1.986918326167e+00 -1.579674957825e+05 8.400041337139e+07  2.152952750126e+00
6.800000000000e-01 4.024214708860e-04 0.000000000000e+00 -2.529911600357e+07 9.628430110726e+05 5.606182013854e+07 -3.037759731275e+07 1.053074324278e-01 -5.434397439546e-01 1.987102588612e+00 -1.283689407391e+05 8.403192307579e+07  2.153227797365e+00
6.900000000000e-01 4.027452189188e-04 0.000000000000e+00 -2.534427265805e+07 9.681484535794e+05 5.605525348748e+07 -3.041424370126e+07 1.051779526947e-01 -5.435180470564e-01 1.987291558224e+00 -9.891237605669e+04 8.406600167647e+07  2.153510270244e+00
7.000000000000e-01 4.030428882484e-04 0.000000000000e+00 -2.538992972307e+07 9.728269589223e+05 5.604451234794e+07 -3.045278594559e+07 1.050604315571e-01 -5.435892981338e-01 1.987470809477e+00 -6.726555976003e+04 8.409715165919e+07  2.153773745542e+00
7.100000000000e-01 4.033305710078e-04 0.000000000000e+00 -2.543601527121e+07 9.775394296747e+05 5.603349020737e+07 -3.049156341337e+07 1.049454503849e-01 -5.436581954813e-01 1.987648081789e+00 -3.530384092777e+04 8.412834627530e+07  2.154032618599e+00
7.200000000000e-01 4.036213468426e-04 0.000000000000e+00 -2.548354060339e+07 9.827765085906e+05 5.602432137478e+07 -3.053029076930e+07 1.048256280171e-01 -5.437285644839e-01 1.987829564295e+00 -3.496667365925e+03 8.416203785822e+07  2.154298392056e+00
7.300000000000e-01 4.038887376157e-04 0.000000000000e+00 -2.553144438374e+07 9.873736961936e+05 5.601109330823e+07 -3.057082525258e+07 1.047169929642e-01 -5.437924703045e-01 1.988001595588e+00 3.039210936431e+04 8.419281108074e+07  2.154546169350e+00
7.400000000000e-01 4.041478526630e-04 0.000000000000e+00 -2.557965436374e+07 9.920332229405e+05 5.599782675647e+07 -3.061145844692e+07 1.046101700221e-01 -5.438539900044e-01 1.988172106688e+00 6.442868472994e+04 8.422374232123e+07  2.154790031233e+00
7.500000000000e-01 4.044102369718e-04 0.000000000000e+00 -2.562920909505e+07 9.971502502096e+05 5.598645746773e+07 -3.065198682685e+07 1.044987349541e-01 -5.439169264204e-01 1.988346437127e+00 9.824615138649e+04 8.425713977505e+07  2.155040306085e+00
7.600000000000e-01 4.046507172430e-04 0.000000000000e+00 -2.567894214683e+07 1.001515550327e+06 5.597075804146e+07 -3.069435737015e+07 1.043989507196e-01 -5.439737198757e-01 1.988510392901e+00 1.341804918413e+05 8.428727175676e+07  2.155271803931e+00
7.700000000000e-01 4.048834287728e-04 0.000000000000e+00 -2.572931305875e+07 1.005846537846e+06 5.595448611211e+07 -3.073725658949e+07 1.043013228060e-01 -5.440286198270e-01 1.988672265188e+00 1.706945120421e+05 8.431740971347e+07  2.155499110172e+00
7.800000000000e-01 4.051086898833e-04 0.000000000000e+00 -2.578027729878e+07 1.010095886554e+06 5.593750989514e+07 -3.078071997120e+07 1.042060867062e-01 -5.440815820122e-01 1.988831794197e+00 2.078291249482e+05 8.434741941560e+07  2.155721860394e+00
7.900000000000e-01 4.053269815853e-04 0.000000000000e+00 -2.583140902819e+07 1.014301903171e+06 5.592036537472e+07 -3.082428751990e+07 1.041128721911e-01 -5.441324828154e-01 1.988989361709e+00 2.451103911232e+05 8.437739362403e+07  2.155940456624e+00
8.000000000000e-01 4.055495109654e-04 0.000000000000e+00 -2.588381988075e+07 1.018981018552e+06 5.590540993659e+07 -3.086761236225e+07 1.040144922806e-01 -5.441846536133e-01 1.989151250976e+00 2.820074354676e+05 8.441002201867e+07  2.156166034448e+00
8.100000000000e-01 4.057540013302e-04 0.000000000000e+00 -2.593635654669e+07 1.022969188225e+06 5.588643597037e+07 -3.091263740369e+07 1.039260787063e-01 -5.442317857425e-01 1.989303975579e+00 3.208526600026e+05 8.443959580911e+07  2.156375450933e+00
8.200000000000e-01 4.059527669371e-04 0.000000000000e+00 -2.598942263451e+07 1.026912503728e+06 5.586705401172e+07 -3.095808427969e+07 1.038392660413e-01 -5.442773659845e-01 1.989454876234e+00 3.601509674925e+05 8.446923197988e+07  2.156581395854e+00
8.300000000000e-01 4.061453163744e-04 0.000000000000e+00 -2.604293730653e+07 1.030722740609e+06 5.584696870422e+07 -3.100403925232e+07 1.037548313764e-01 -5.443212919078e-01 1.989603206304e+00 4.000026182112e+05 8.449864246909e+07  2.156782799650e+00
8.400000000000e-01 4.063318881744e-04 0.000000000000e+00 -2.609687164618e+07 1.034400647325e+06 5.582623071812e+07 -3.105047242144e+07 1.036726804477e-01 -5.443636202959e-01 1.989749037499e+00 4.403711165001e+05 8.452784842354e+07  2.156979808452e+00
8.500000000000e-01 4.065131529914e-04 0.000000000000e+00 -2.615122815543e+07 1.037966388576e+06 5.580490723638e+07 -3.109735878055e+07 1.035925197518e-01 -5.444043975462e-01 1.989892583567e+00 4.812265665339e+05 8.455690516079e+07  2.157172770485e+00
8.600000000000e-01 4.066885777561e-04 0.000000000000e+00 -2.620560159166e+07 1.041376829970e+06 5.578324936832e+07 -3.114436227996e+07 1.035147337918e-01 -5.444437190020e-01 1.990033476545e+00 5.222381677658e+05 8.458569471241e+07  2.157361268264e+00
8.700000000000e-01 4.068682482169e-04 0.000000000000e+00 -2.626111954509e+07 1.045230581255e+06 5.576392106654e+07 -3.119101506818e+07 1.034319246682e-01 -5.444839987170e-01 1.990178587673e+00 5.627378489091e+05 8.461715877176e+07  2.157556360027e+00
8.800000000000e-01 4.070336571908e-04 0.000000000000e+00 -2.631657901010e+07 1.048438810835e+06 5.574081772748e+07 -3.123920053849e+07 1.033577735499e-01 -5.445201156816e-01 1.990315333693e+00 6.049872737051e+05 8.464563628223e+07  2.157737209319e+00
8.900000000000e-01 4.071948393231e-04 0.000000000000e+00 -2.637239155808e+07 1.051586442372e+06 5.571744031039e+07 -3.128768603273e+07 1.032849479604e-01 -5.445549042063e-01 1.990450371480e+00 6.475457601395e+05 8.467416261831e+07  2.157914972803e+00
9.000000000000e-01 4.073516523247e-04 0.000000000000e+00 -2.642852533964e+07 1.054657240661e+06 5.569366978764e+07 -3.133650579635e+07 1.032135987309e-01 -5.445882277375e-01 1.990583598960e+00 6.904537827863e+05 8.470262238632e+07  2.158089392949e+00
9.100000000000e-01 4.075044071703e-04 0.000000000000e+00 -2.648496279147e+07 1.057665940879e+06 5.566957434074e+07 -3.138562486644e+07 1.031435591511e-01 -5.446201046004e-01 1.990715169505e+00 7.336711057238e+05 8.473105721233e+07  2.158260690245e+00
9.200000000000e-01 4.076528685129e-04 0.000000000000e+00 -2.654168669843e+07 1.060527085799e+06 5.564491562217e+07 -3.143513181230e+07 1.030754257904e-01 -5.446508422325e-01 1.990844388459e+00 7.773009628551e+05 8.475926608187e+07  2.158428226574e+00
9.300000000000e-01 4.077973989597e-04 0.000000000000e+00 -2.659870542574e+07 1.063269423729e+06 5.561978113053e+07 -3.148499491630e+07 1.030088996489e-01 -5.446804480715e-01 1.990971532960e+00 8.213064038366e+05 8.478732398761e+07  2.158592380037e+00
9.400000000000e-01 4.079381695769e-04 0.000000000000e+00 -2.665600283524e+07 1.065895672209e+06 5.559418894495e+07 -3.153520151773e+07 1.029439268496e-01 -5.447089414388e-01 1.991096645951e+00 8.656718026728e+05 8.481523480945e+07  2.158753226001e+00
9.500000000000e-01 4.080753724292e-04 0.000000000000e+00 -2.671357825698e+07 1.068412250438e+06 5.556816173478e+07 -3.158574226811e+07 1.028804042686e-01 -5.447363701149e-01 1.991219803977e+00 9.103862634394e+05 8.484301600483e+07  2.158910911939e+00
9.600000000000e-01 4.082088801878e-04 0.000000000000e+00 -2.677158136834e+07 1.070781928466e+06 5.554145940048e+07 -3.163681737481e+07 1.028186626261e-01 -5.447628000600e-01 1.991340692716e+00 9.556464475560e+05 8.487060323559e+07  2.159065068491e+00
9.700000000000e-01 4.083379959673e-04 0.000000000000e+00 -2.682986089370e+07 1.073034096124e+06 5.551433363269e+07 -3.168823488257e+07 1.027585754700e-01 -5.447884156698e-01 1.991459949915e+00 1.001254047859e+06 8.489807576943e+07  2.159216460416e+00
9.800000000000e-01 4.084637774076e-04 0.000000000000e+00 -2.688844104012e+07 1.075180645901e+06 5.548677841236e+07 -3.174000667217e+07 1.026998530464e-01 -5.448131076177e-01 1.991577406784e+00 1.047223099977e+06 8.492544549674e+07  2.159364973023e+00
9.900000000000e-01 4.085862735620e-04 0.000000000000e+00 -2.694730267080e+07 1.077219999380e+06 5.545881594039e+07 -3.179211587711e+07 1.026424906705e-01 -5.448369429970e-01 1.991693127452e+00 1.093534202508e+06 8.495271661386e+07  2.159510716561e+00
1.000000000000e+00 4.087055901683e-04 0.000000000000e+00 -2.700642952380e+07 1.079173142169e+06 5.543048922399e+07 -3.184453844148e+07 1.025863526573e-01 -5.448598357424e-01 1.991807221794e+00 1.140159580434e+06 8.497991236922e+07  2.159653780650e+00
1.050000000000e+00 4.092044359748e-04 0.000000000000e+00 -2.729378368850e+07 1.080752462371e+06 5.526805502260e+07 -3.209748849297e+07 1.023399058411e-01 -5.449699996966e-01 1.992311177868e+00 1.374405719625e+06 8.508607154019e+07  2.160291936092e+00
1.100000000000e+00 4.095943685216e-04 0.000000000000e+00 -2.758166000100e+07 1.080634228384e+06 5.511349575462e+07 -3.235079555929e+07 1.021167837182e-01 -5.450474361983e-01 1.992781439146e+00 1.606319935225e+06 8.520047627942e+07  2.160865427004e+00
1.150000000000e+00 4.099643515529e-04 0.000000000000e+00 -2.789674715282e+07 1.083139401517e+06 5.495118977607e+07 -3.263361371463e+07 1.019165020704e-01 -5.451138394385e-01 1.993218615639e+00 1.859723697123e+06 8.533567690738e+07  2.161391414760e+00
1.200000000000e+00 4.104036459273e-04 0.000000000000e+00 -2.819872427794e+07 1.081403637723e+06 5.478577441162e+07 -3.291439805800e+07 1.017469761749e-01 -5.451909695192e-01 1.993616189613e+00 2.109115974773e+06 8.546052145911e+07  2.161877221176e+00
1.250000000000e+00 4.108084019784e-04 0.000000000000e+00 -2.850530243154e+07 1.077455509034e+06 5.460985010787e+07 -3.320312237547e+07 1.016004932105e-01 -5.452595925941e-01 1.993985647738e+00 2.366191566381e+06 8.558119446607e+07  2.162321800354e+00
1.300000000000e+00 4.111820522050e-04 0.000000000000e+00 -2.881314550986e+07 1.071919589101e+06 5.443025579786e+07 -3.349566399257e+07 1.014712057815e-01 -5.453220112198e-01 1.994331952037e+00 2.626184568191e+06 8.570079136521e+07  2.162733770111e+00
1.350000000000e+00 4.115292145010e-04 0.000000000000e+00 -2.912266222711e+07 1.064961112284e+06 5.424468640340e+07 -3.379272014654e+07 1.013581480344e-01 -5.453788237294e-01 1.994656628861e+00 2.890231990082e+06 8.581757996970e+07  2.163115351405e+00
1.400000000000e+00 4.118457886603e-04 0.000000000000e+00 -2.943659260196e+07 1.056447273614e+06 5.405066436961e+07 -3.409594459893e+07 1.012593687354e-01 -5.454297922516e-01 1.994960761294e+00 3.160624277096e+06 8.593123063059e+07  2.163468143132e+00