 TITLE = "Time curves in points"
 VARIABLES = "TIME"  "DISPLACEMENT_X1"  "DISPLACEMENT_Y1"  "STRESS_XX"  "STRESS_XY"  "STRESS_YY"  "STRESS_ZZ"  "STRAIN_XX"  "STRAIN_XY"  "STRAIN_YY"  p_(1st_Invariant)  q_(2nd_Invariant)   Effective_Strain
 ZONE T="POINT=POINT6"
0.000000000000e+00 0.000000000000e+00 0.000000000000e+00 -1.000000000000e+05 0.000000000000e+00 -1.000000000000e+05 -1.000000000000e+05 0.000000000000e+00 0.000000000000e+00 0.000000000000e+00 1.000000000000e+05 0.000000000000e+00  0.000000000000e+00
1.000000000000e-03 2.071092707862e-09 0.000000000000e+00 -1.321012457896e+05 -2.766814661769e-02 -1.481519457130e+05 -1.321012753341e+05 5.207320195998e-08 -9.752192171482e-08 -2.828907981003e-02 1.374514889456e+05 1.605068515123e+04  2.828910584717e-02
2.000000000000e-03 3.821131842136e-10 0.000000000000e+00 -2.751330645936e+05 -7.633285124770e-02 -3.626998221839e+05 -2.751331535031e+05 9.062227886550e-08 -1.607346515387e-07 -7.473126595538e-02 3.043220134269e+05 8.756671313566e+04  7.473131126708e-02
3.000000000000e-03 2.158443180985e-08 0.000000000000e+00 -7.718622986514e+05 -9.956065066164e+00 -1.107786768784e+06 -7.718596261570e+05 -1.308487570447e-07 -1.744490154669e-06 -9.463987125025e-02 8.838362311975e+05 3.359258068306e+05  9.463980587417e-02
4.000000000000e-03 2.013189245981e-08 0.000000000000e+00 -2.434861225366e+06 -1.372057860730e+00 -3.602289173938e+06 -2.434860161984e+06 -1.186942164947e-07 -1.614908348338e-06 -1.009159146496e-01 2.824003520429e+06 1.167428480265e+06  1.009158553413e-01
5.000000000000e-03 2.514643974922e-08 0.000000000000e+00 -2.672556183510e+06 -5.354227995178e+01 -3.958790507414e+06 -2.672538683910e+06 -1.788344692776e-07 -2.002133489459e-06 -1.013554620585e-01 3.101295124945e+06 1.286243077137e+06  1.013553727007e-01
6.000000000000e-03 6.163482382366e-08 0.000000000000e+00 -2.879799271521e+06 -5.891937469216e+02 -4.267797168312e+06 -2.879038588760e+06 -2.680625804636e-06 -5.810549492743e-06 -1.017173487821e-01 3.342211676198e+06 1.388378769520e+06  1.017160089936e-01
7.000000000000e-03 1.004247226326e-07 0.000000000000e+00 -2.891639351676e+06 -8.833155120935e+02 -4.279073545862e+06 -2.888285178445e+06 -9.902334047226e-06 -7.460593290220e-06 -1.017230103987e-01 3.352999358661e+06 1.389115160470e+06  1.017180604139e-01
8.000000000000e-03 9.669367915229e-08 0.000000000000e+00 -2.914106745201e+06 -8.543946207566e+02 -4.313393864798e+06 -2.911000270008e+06 -9.216014176079e-06 -7.299480549028e-06 -1.017551969115e-01 3.379500293336e+06 1.400843722174e+06  1.017505900029e-01
9.000000000000e-03 9.728708311025e-08 0.000000000000e+00 -2.936557218405e+06 -8.591787968008e+02 -4.346975950113e+06 -2.933413299981e+06 -9.318951189815e-06 -7.325905773394e-06 -1.017859328548e-01 3.405648822833e+06 1.411994100192e+06  1.017812744901e-01
1.000000000000e-02 9.742588077634e-08 0.000000000000e+00 -2.959753580687e+06 -8.604060036248e+02 -4.381752735356e+06 -2.956602565544e+06 -9.338308883466e-06 -7.332615885704e-06 -1.018175725551e-01 3.432702960529e+06 1.423578057762e+06  1.018129045140e-01
2.000000000000e-02 1.108977084820e-07 0.000000000000e+00 -4.987585446421e+06 -9.924327482035e+02 -7.421297074845e+06 -4.983553110504e+06 -1.139865925698e-05 -7.961965135031e-06 -1.042010752164e-01 5.797478543923e+06 2.435730906245e+06  1.041953772670e-01
3.000000000000e-02 1.295910674562e-07 0.000000000000e+00 -3.579153665245e+06 -1.039178050497e+03 -5.305796949845e+06 -3.573980408445e+06 -1.390364900790e-05 -8.165060174004e-06 -1.026656174907e-01 4.152977007845e+06 1.729236653448e+06  1.026586673465e-01
4.000000000000e-02 2.007367304333e-07 0.000000000000e+00 -4.294140057771e+06 -1.145927068349e+03 -6.367481116814e+06 -4.284648681342e+06 -2.496959497496e-05 -8.757294688703e-06 -1.035546455272e-01 4.982089951976e+06 2.078103951501e+06  1.035421640988e-01
5.000000000000e-02 1.634725086375e-07 0.000000000000e+00 -3.957234598224e+06 -8.881061242808e+02 -5.865797191758e+06 -3.949212977901e+06 -2.177983004566e-05 -7.558181328266e-06 -1.031884264391e-01 4.590748255961e+06 1.912586638695e+06  1.031775390786e-01
6.000000000000e-02 2.350313066764e-07 0.000000000000e+00 -4.386421789202e+06 5.649506743350e+02 -6.516428477216e+06 -4.381140413026e+06 -1.634210325585e-05 -1.831438433288e-06 -1.036691810989e-01 5.094663559815e+06 2.132652505216e+06  1.036610110619e-01
7.000000000000e-02 3.075264170492e-07 0.000000000000e+00 -4.319801604352e+06 2.357895974363e+03 -6.422921203993e+06 -4.317089472389e+06 -8.723352146051e-06 6.568980961180e-06 -1.035988960743e-01 5.019937426911e+06 2.104480939083e+06  1.035945352985e-01
8.000000000000e-02 3.034327502376e-07 0.000000000000e+00 -4.384076271830e+06 3.863808578032e+03 -6.522201861651e+06 -4.382511643540e+06 -6.556998702815e-06 1.200608179346e-05 -1.036595860158e-01 5.096263259007e+06 2.138918802747e+06  1.036563097579e-01
9.000000000000e-02 3.046574399849e-07 0.000000000000e+00 -4.759605922897e+06 4.015322158725e+03 -7.084420368148e+06 -4.757610935320e+06 -7.541677399748e-06 1.270787287340e-05 -1.040801747188e-01 5.533879075455e+06 2.325822978903e+06  1.040764064125e-01
1.000000000000e-01 2.896914228340e-07 0.000000000000e+00 -4.704095921826e+06 3.672072507286e+03 -7.000452287834e+06 -4.701819734487e+06 -8.015132256678e-06 1.155457767286e-05 -1.040323819460e-01 5.468789314716e+06 2.297504108891e+06  1.040283765365e-01
1.100000000000e-01 2.946753645900e-07 0.000000000000e+00 -4.934608511344e+06 3.748491078506e+03 -7.346075157708e+06 -4.932273939217e+06 -8.140329267590e-06 1.187393195231e-05 -1.042764890321e-01 5.737652536090e+06 2.412643515551e+06  1.042724211340e-01
1.200000000000e-01 2.973784398411e-07 0.000000000000e+00 -5.049354981081e+06 3.786393160079e+03 -7.517968695953e+06 -5.046929964412e+06 -8.286836342064e-06 1.199448808401e-05 -1.043686057757e-01 5.871417880482e+06 2.469835823225e+06  1.043644646720e-01
1.300000000000e-01 2.987420283232e-07 0.000000000000e+00 -5.163816545996e+06 3.802661220973e+03 -7.689569534535e+06 -5.161354943124e+06 -8.344585144644e-06 1.204505134388e-05 -1.044585503125e-01 6.004913674552e+06 2.526993272668e+06  1.044543803534e-01
1.400000000000e-01 3.001154928086e-07 0.000000000000e+00 -5.276306127573e+06 3.822396639153e+03 -7.858200185603e+06 -5.273803048981e+06 -8.408668392654e-06 1.210507509935e-05 -1.045450023867e-01 6.136103120719e+06 2.583154991127e+06  1.045408004086e-01
1.500000000000e-01 3.013842197676e-07 0.000000000000e+00 -5.386243140312e+06 3.841247654619e+03 -8.023005895400e+06 -5.383700146474e+06 -8.469034097523e-06 1.216121314182e-05 -1.046277235540e-01 6.264316394062e+06 2.638043561132e+06  1.046234914144e-01
1.600000000000e-01 3.026277537746e-07 0.000000000000e+00 -5.491072891246e+06 3.857300562580e+03 -8.180154103839e+06 -5.488491334594e+06 -8.526196041584e-06 1.220805355752e-05 -1.047050347881e-01 6.386572776560e+06 2.690381215395e+06  1.047007740856e-01
1.700000000000e-01 3.037034752035e-07 0.000000000000e+00 -5.595501312952e+06 3.876586676373e+03 -8.336706976807e+06 -5.592883852963e+06 -8.578414635010e-06 1.226330265638e-05 -1.047805966220e-01 6.508364047574e+06 2.742523550048e+06  1.047763098311e-01
1.800000000000e-01 3.046467894801e-07 0.000000000000e+00 -5.695316055444e+06 3.896230542697e+03 -8.486342915929e+06 -5.692664122478e+06 -8.627630918330e-06 1.231857370449e-05 -1.048515065505e-01 6.624774364617e+06 2.792361926161e+06  1.048471951722e-01
1.900000000000e-01 3.055164820720e-07 0.000000000000e+00 -5.792491321799e+06 3.915807674951e+03 -8.632023134426e+06 -5.789806309918e+06 -8.674040710340e-06 1.237271908312e-05 -1.049193534202e-01 6.738106922048e+06 2.840883366404e+06  1.049150188575e-01
2.000000000000e-01 3.062841071191e-07 0.000000000000e+00 -5.880171745166e+06 3.933218638586e+03 -8.763469114151e+06 -5.877456861549e+06 -8.715279510447e-06 1.242010772307e-05 -1.049795945337e-01 6.840365906955e+06 2.884663813342e+06  1.049752393695e-01
2.100000000000e-01 3.070356427458e-07 0.000000000000e+00 -5.968247276378e+06 3.950641778312e+03 -8.895507532681e+06 -5.965502429005e+06 -8.756027761787e-06 1.246682760788e-05 -1.050392069240e-01 6.943085746021e+06 2.928641638653e+06  1.050348314034e-01
2.200000000000e-01 3.076707695545e-07 0.000000000000e+00 -6.045495776848e+06 3.965913129259e+03 -9.011314949061e+06 -6.042724780746e+06 -8.791092672821e-06 1.250721037945e-05 -1.050907661545e-01 7.033178502218e+06 2.967213591815e+06  1.050863731168e-01
2.300000000000e-01 3.083097466000e-07 0.000000000000e+00 -6.124480928391e+06 3.981429638156e+03 -9.129725937313e+06 -6.121683219380e+06 -8.826451802849e-06 1.254771696433e-05 -1.051428063433e-01 7.125296695028e+06 3.006652748026e+06  1.051383956415e-01
2.400000000000e-01 3.088970822386e-07 0.000000000000e+00 -6.199987926618e+06 3.996398813042e+03 -9.242922975065e+06 -6.197164814470e+06 -8.859652045807e-06 1.258630533443e-05 -1.051919286520e-01 7.213358572051e+06 3.044355455517e+06  1.051875013649e-01
2.500000000000e-01 3.094698002303e-07 0.000000000000e+00 -6.275524211167e+06 4.011361780241e+03 -9.356163577014e+06 -6.272675548011e+06 -8.892638046770e-06 1.262441081876e-05 -1.052404730779e-01 7.301454445397e+06 3.082072516054e+06  1.052360293124e-01
2.600000000000e-01 3.099979102836e-07 0.000000000000e+00 -6.346752491339e+06 4.025349030775e+03 -9.462946847937e+06 -6.343880145893e+06 -8.922854094494e-06 1.265961673296e-05 -1.052857147303e-01 7.384526495056e+06 3.117639317726e+06  1.052812558703e-01
2.700000000000e-01 3.105652046700e-07 0.000000000000e+00 -6.424315134755e+06 4.040460830159e+03 -9.579225904117e+06 -6.421416801922e+06 -8.955623203577e-06 1.269721194204e-05 -1.053344056538e-01 7.474985946931e+06 3.156368692091e+06  1.053299304236e-01
2.800000000000e-01 3.111243551208e-07 0.000000000000e+00 -6.502544059396e+06 4.055775903978e+03 -9.696504222367e+06 -6.499619674245e+06 -8.988075990560e-06 1.273485857147e-05 -1.053829218214e-01 7.566222652002e+06 3.195431080825e+06  1.053784303793e-01
2.900000000000e-01 3.116590754824e-07 0.000000000000e+00 -6.578442019145e+06 4.070297117634e+03 -9.810287343455e+06 -6.575492080951e+06 -9.019528443619e-06 1.277012860602e-05 -1.054294350702e-01 7.654740481184e+06 3.233328988568e+06  1.054249279156e-01
3.000000000000e-01 3.122235460250e-07 0.000000000000e+00 -6.660260246827e+06 4.085993957076e+03 -9.932946516897e+06 -6.657283015193e+06 -9.052722119539e-06 1.280780523562e-05 -1.054789796827e-01 7.750163259639e+06 3.274183549734e+06  1.054744559459e-01
3.100000000000e-01 3.127926823525e-07 0.000000000000e+00 -6.744156215706e+06 4.101983635088e+03 -1.005872023253e+07 -6.741150862409e+06 -9.086497802915e-06 1.284571154274e-05 -1.055291530467e-01 7.848009103547e+06 3.316075326113e+06  1.055246124368e-01
3.200000000000e-01 3.133165308417e-07 0.000000000000e+00 -6.822599022836e+06 4.116671279016e+03 -1.017632006635e+07 -6.819567892021e+06 -9.117085707353e-06 1.288011406188e-05 -1.055755017982e-01 7.939495660402e+06 3.355245212142e+06  1.055709459078e-01
3.300000000000e-01 3.138615281808e-07 0.000000000000e+00 -6.905256139505e+06 4.132282998690e+03 -1.030023614964e+07 -6.902197145242e+06 -9.149757659780e-06 1.291625649334e-05 -1.056237658753e-01 8.035896478128e+06 3.396518081550e+06  1.056191936630e-01
3.400000000000e-01 3.143515653793e-07 0.000000000000e+00 -6.981551125368e+06 4.146324675874e+03 -1.041461556905e+07 -6.978466880774e+06 -9.179024334866e-06 1.294838662025e-05 -1.056678030539e-01 8.124877858396e+06 3.434615112859e+06  1.056632162208e-01
3.500000000000e-01 3.148403261275e-07 0.000000000000e+00 -7.058186119269e+06 4.160499926439e+03 -1.052950408652e+07 -7.055076259099e+06 -9.208388965348e-06 1.298047415027e-05 -1.057115530695e-01 8.214255488296e+06 3.472881418037e+06  1.057069515668e-01
3.600000000000e-01 3.153354517585e-07 0.000000000000e+00 -7.136801212908e+06 4.174789735596e+03 -1.064736161293e+07 -7.133665281397e+06 -9.237948134625e-06 1.301246645400e-05 -1.057559422158e-01 8.305942702412e+06 3.512136859502e+06  1.057513259461e-01
3.700000000000e-01 3.157625781773e-07 0.000000000000e+00 -7.206238540834e+06 4.187536751317e+03 -1.075145974759e+07 -7.203079441352e+06 -9.263941202511e-06 1.304071183932e-05 -1.057947413784e-01 8.386925909924e+06 3.546809227683e+06  1.057901121233e-01
3.800000000000e-01 3.161602411084e-07 0.000000000000e+00 -7.271659704609e+06 4.199352810247e+03 -1.084953750312e+07 -7.268478984783e+06 -9.287970790117e-06 1.306664845669e-05 -1.058309546904e-01 8.463225397503e+06 3.579476608188e+06  1.058263134308e-01
3.900000000000e-01 3.165082621752e-07 0.000000000000e+00 -7.329960355523e+06 4.209904461233e+03 -1.093694008351e+07 -7.326760253924e+06 -9.309327698390e-06 1.308961351760e-05 -1.058629510345e-01 8.531220230985e+06 3.608588210121e+06  1.058582991055e-01
4.000000000000e-01 3.168276471301e-07 0.000000000000e+00 -7.383978814979e+06 4.219603456397e+03 -1.101792324013e+07 -7.380760877994e+06 -9.328829740598e-06 1.311056113764e-05 -1.058923699607e-01 8.594220977701e+06 3.635561807965e+06  1.058877082889e-01
4.100000000000e-01 3.171194751054e-07 0.000000000000e+00 -7.433778642611e+06 4.228556238134e+03 -1.109258162477e+07 -7.430544141656e+06 -9.346813345788e-06 1.312976239837e-05 -1.059193001488e-01 8.652301469678e+06 3.660428631736e+06  1.059146294929e-01
4.200000000000e-01 3.173892801244e-07 0.000000000000e+00 -7.480337268867e+06 4.236843751649e+03 -1.116238125495e+07 -7.477087424189e+06 -9.363363944652e-06 1.314742143534e-05 -1.059443143797e-01 8.706601982669e+06 3.683677293214e+06  1.059396354555e-01
4.300000000000e-01 3.176387523768e-07 0.000000000000e+00 -7.523692416732e+06 4.244555613046e+03 -1.122737830297e+07 -7.520428283772e+06 -9.378683039379e-06 1.316375567402e-05 -1.059674672286e-01 8.757166334491e+06 3.705326324416e+06  1.059627806513e-01
4.400000000000e-01 3.178666636261e-07 0.000000000000e+00 -7.563754953896e+06 4.251641210888e+03 -1.128743921990e+07 -7.560477647976e+06 -9.392727704593e-06 1.317867998624e-05 -1.059887428828e-01 8.803890607257e+06 3.725331278619e+06  1.059840492891e-01
4.500000000000e-01 3.180908307152e-07 0.000000000000e+00 -7.603449167442e+06 4.258694613438e+03 -1.134694751820e+07 -7.600158636667e+06 -9.406752882723e-06 1.319345919768e-05 -1.060097115263e-01 8.850185107438e+06 3.745151964303e+06  1.060050109260e-01
4.600000000000e-01 3.183071834913e-07 0.000000000000e+00 -7.642055031001e+06 4.265469746979e+03 -1.140482514504e+07 -7.638752018194e+06 -9.419922530723e-06 1.320758246616e-05 -1.060300007643e-01 8.895210731410e+06 3.764429957050e+06  1.060252935848e-01
4.700000000000e-01 3.185194270583e-07 0.000000000000e+00 -7.680314193124e+06 4.272245944542e+03 -1.146218167348e+07 -7.676998281245e+06 -9.433462511052e-06 1.322163707667e-05 -1.060500058405e-01 8.939831382617e+06 3.783533762216e+06  1.060452918966e-01
4.800000000000e-01 3.187256065058e-07 0.000000000000e+00 -7.717673930069e+06 4.278802811674e+03 -1.151819106288e+07 -7.714345920077e+06 -9.446100036477e-06 1.323517024076e-05 -1.060694451713e-01 8.983403637677e+06 3.802189452924e+06  1.060647249141e-01
4.900000000000e-01 3.189252564777e-07 0.000000000000e+00 -7.754226991059e+06 4.285181677809e+03 -1.157299053504e+07 -7.750886923111e+06 -9.458634524064e-06 1.324827280889e-05 -1.060883732904e-01 9.026034816403e+06 3.820441882681e+06  1.060836467712e-01
5.000000000000e-01 3.191230161124e-07 0.000000000000e+00 -7.790677685791e+06 4.291621645856e+03 -1.162763601568e+07 -7.787325384521e+06 -9.471290972966e-06 1.326143978493e-05 -1.061071592336e-01 9.068546361997e+06 3.838642775454e+06  1.061024263914e-01
5.100000000000e-01 3.193190197958e-07 0.000000000000e+00 -7.827087310913e+06 4.297961133866e+03 -1.168222067506e+07 -7.823723091064e+06 -9.483564561652e-06 1.327434038678e-05 -1.061258367396e-01 9.111010359011e+06 3.856823758858e+06  1.061210977658e-01
5.200000000000e-01 3.195126460347e-07 0.000000000000e+00 -7.863328247544e+06 4.304283900788e+03 -1.173655226084e+07 -7.859952094245e+06 -9.495796121647e-06 1.328714773998e-05 -1.061443413234e-01 9.153277534209e+06 3.874920364883e+06  1.061395962390e-01
5.300000000000e-01 3.197053703417e-07 0.000000000000e+00 -7.899672441959e+06 4.310634219610e+03 -1.179103844008e+07 -7.896284239374e+06 -9.508089152251e-06 1.329995193784e-05 -1.061628128798e-01 9.195665040470e+06 3.893068364703e+06  1.061580616540e-01
5.400000000000e-01 3.198946494819e-07 0.000000000000e+00 -7.935668506643e+06 4.316899048532e+03 -1.184500289098e+07 -7.932268442707e+06 -9.520135002100e-06 1.331252620570e-05 -1.061810238309e-01 9.237646613443e+06 3.911042672062e+06  1.061762665872e-01
5.500000000000e-01 3.200857101175e-07 0.000000000000e+00 -7.972276551291e+06 4.323248283596e+03 -1.189988485434e+07 -7.968864444412e+06 -9.532309269926e-06 1.332521171551e-05 -1.061994597676e-01 9.280341950015e+06 3.929322602611e+06  1.061946964419e-01
5.600000000000e-01 3.202757753607e-07 0.000000000000e+00 -8.008968477225e+06 4.329589710328e+03 -1.195489263139e+07 -8.005544325476e+06 -9.544429429601e-06 1.333782354593e-05 -1.062178530619e-01 9.323135144697e+06 3.947644466561e+06  1.062130836812e-01
5.700000000000e-01 3.204655063033e-07 0.000000000000e+00 -8.045899610682e+06 4.335974000111e+03 -1.201025895844e+07 -8.042463310881e+06 -9.556597061356e-06 1.335046264265e-05 -1.062362811777e-01 9.366207293334e+06 3.966085724687e+06  1.062315057182e-01
5.800000000000e-01 3.206544231485e-07 0.000000000000e+00 -8.082935857939e+06 4.342353943081e+03 -1.206578299862e+07 -8.079487428344e+06 -9.568690563416e-06 1.336303531022e-05 -1.062546769019e-01 9.409402094967e+06 3.984579573022e+06  1.062498954008e-01
5.900000000000e-01 3.208384294043e-07 0.000000000000e+00 -8.119317625617e+06 4.348624513253e+03 -1.212032568061e+07 -8.115857211942e+06 -9.580584221489e-06 1.337533661979e-05 -1.062726653391e-01 9.451833506056e+06 4.002746470257e+06  1.062678778961e-01
6.000000000000e-01 3.210248408628e-07 0.000000000000e+00 -8.156401917603e+06 4.355018756425e+03 -1.217592163403e+07 -8.152929315027e+06 -9.592626408373e-06 1.338782441503e-05 -1.062909182913e-01 9.495084288886e+06 4.021264216982e+06  1.062861248323e-01
6.100000000000e-01 3.212094297272e-07 0.000000000000e+00 -8.193401614720e+06 4.361378334730e+03 -1.223139080810e+07 -8.189916869564e+06 -9.604568255042e-06 1.340018826981e-05 -1.063090469376e-01 9.538236430794e+06 4.039739756151e+06  1.063042475126e-01
6.200000000000e-01 3.213889005146e-07 0.000000000000e+00 -8.229753123549e+06 4.367584240250e+03 -1.228588825323e+07 -8.226256458293e+06 -9.616238689425e-06 1.341219897379e-05 -1.063267782422e-01 9.580632611690e+06 4.057891643581e+06  1.063219729869e-01
6.300000000000e-01 3.215707761691e-07 0.000000000000e+00 -8.266835879401e+06 4.373910444861e+03 -1.234148198856e+07 -8.263327062936e+06 -9.628082270018e-06 1.342438828493e-05 -1.063447856198e-01 9.623881643631e+06 4.076408689677e+06  1.063399744476e-01
6.400000000000e-01 3.217482903970e-07 0.000000000000e+00 -8.303273886912e+06 4.380129940976e+03 -1.239610911965e+07 -8.299753127514e+06 -9.639670924474e-06 1.343631915112e-05 -1.063624011847e-01 9.666378711359e+06 4.094603776046e+06  1.063575842231e-01
6.500000000000e-01 3.219279009360e-07 0.000000000000e+00 -8.340418372709e+06 4.386451113475e+03 -1.245179542043e+07 -8.336885452183e+06 -9.651418979264e-06 1.344839150201e-05 -1.063802788160e-01 9.709699748440e+06 4.113151662807e+06  1.063754559852e-01
6.600000000000e-01 3.221062369519e-07 0.000000000000e+00 -8.377562035517e+06 4.392767117389e+03 -1.250748047082e+07 -8.374016948343e+06 -9.663119898535e-06 1.346040060858e-05 -1.063980764443e-01 9.753019818226e+06 4.131699125055e+06  1.063932477679e-01
6.700000000000e-01 3.222796661382e-07 0.000000000000e+00 -8.413979970991e+06 4.398945683746e+03 -1.256207750802e+07 -8.410422949070e+06 -9.674547242639e-06 1.347209694232e-05 -1.064154496730e-01 9.795493476028e+06 4.149884185756e+06  1.064106152877e-01
6.800000000000e-01 3.224507994462e-07 0.000000000000e+00 -8.450181422286e+06 4.405054743313e+03 -1.261635016647e+07 -8.446612605331e+06 -9.685792110976e-06 1.348361156824e-05 -1.064326451952e-01 9.837714731361e+06 4.167961282042e+06  1.064278051921e-01
6.900000000000e-01 3.226236205955e-07 0.000000000000e+00 -8.486985119281e+06 4.411258842660e+03 -1.267152565687e+07 -8.483404293303e+06 -9.697191416485e-06 1.349525523915e-05 -1.064500513020e-01 9.880638356483e+06 4.186339071562e+06  1.064452056040e-01
7.000000000000e-01 3.227917957192e-07 0.000000000000e+00 -8.523099402095e+06 4.417352970954e+03 -1.272566753919e+07 -8.519506772949e+06 -9.708347033536e-06 1.350664372570e-05 -1.064670579141e-01 9.922757904744e+06 4.204372564568e+06  1.064622066430e-01
7.100000000000e-01 3.229618865246e-07 0.000000000000e+00 -8.559842162806e+06 4.423535868574e+03 -1.278075167032e+07 -8.556237543791e+06 -9.719630635959e-06 1.351814892149e-05 -1.064842866196e-01 9.965610458972e+06 4.222719921752e+06  1.064794297113e-01
7.200000000000e-01 3.231274669758e-07 0.000000000000e+00 -8.595881354005e+06 4.429603261766e+03 -1.283478099022e+07 -8.592264962783e+06 -9.730662148152e-06 1.352939153822e-05 -1.065011135215e-01 1.000764243567e+07 4.240715928679e+06  1.064962511020e-01
7.300000000000e-01 3.232948210759e-07 0.000000000000e+00 -8.632553553394e+06 4.435755641705e+03 -1.288975934876e+07 -8.628925200890e+06 -9.741823406917e-06 1.354074348613e-05 -1.065181636466e-01 1.005041270102e+07 4.259028060503e+06  1.065132956511e-01
7.400000000000e-01 3.234574533073e-07 0.000000000000e+00 -8.668460031393e+06 4.441780634770e+03 -1.294358972908e+07 -8.664819959465e+06 -9.752712870801e-06 1.355181396488e-05 -1.065347875291e-01 1.009228990665e+07 4.276957814848e+06  1.065299140934e-01
7.500000000000e-01 3.236186100665e-07 0.000000000000e+00 -8.704287654064e+06 4.447776860787e+03 -1.299730192197e+07 -8.700635901194e+06 -9.763521601339e-06 1.356278609317e-05 -1.065513062936e-01 1.013407515908e+07 4.294848217935e+06  1.065464274580e-01
7.600000000000e-01 3.237778205290e-07 0.000000000000e+00 -8.739928044389e+06 4.453733478042e+03 -1.305073342475e+07 -8.736264674128e+06 -9.774227305969e-06 1.357364119155e-05 -1.065676712721e-01 1.017564204776e+07 4.312645131602e+06  1.065627870881e-01
7.700000000000e-01 3.239382879973e-07 0.000000000000e+00 -8.776085380037e+06 4.459759435606e+03 -1.310493996125e+07 -8.772410238801e+06 -9.785029952370e-06 1.358457767049e-05 -1.065842054922e-01 1.021781186003e+07 4.330700210389e+06  1.065793159113e-01
7.800000000000e-01 3.240944304617e-07 0.000000000000e+00 -8.811527641187e+06 4.465671901290e+03 -1.315807442141e+07 -8.807840943207e+06 -9.795592583482e-06 1.359526473472e-05 -1.066003465406e-01 1.025914766860e+07 4.348398180512e+06  1.065954516828e-01
7.900000000000e-01 3.242493236620e-07 0.000000000000e+00 -8.846922002226e+06 4.471558614925e+03 -1.321113711823e+07 -8.843223782242e+06 -9.806081081532e-06 1.360586253436e-05 -1.066164010145e-01 1.030042763423e+07 4.366072270090e+06  1.066115009168e-01
8.000000000000e-01 3.244055145274e-07 0.000000000000e+00 -8.882839249420e+06 4.477512405097e+03 -1.326498377346e+07 -8.879129359049e+06 -9.816661814156e-06 1.361653797388e-05 -1.066326270799e-01 1.034231746064e+07 4.384007506032e+06  1.066277216962e-01
8.100000000000e-01 3.245572986523e-07 0.000000000000e+00 -8.918016887860e+06 4.483358718978e+03 -1.331772151548e+07 -8.914295526967e+06 -9.827019565680e-06 1.362697915314e-05 -1.066484553258e-01 1.038334464344e+07 4.401573337922e+06  1.066435447675e-01
8.200000000000e-01 3.247083879851e-07 0.000000000000e+00 -8.953156452889e+06 4.489195092490e+03 -1.337040220902e+07 -8.949423645964e+06 -9.837314347117e-06 1.363736193078e-05 -1.066642041283e-01 1.042432743596e+07 4.419120182580e+06  1.066592884269e-01
8.300000000000e-01 3.248582039904e-07 0.000000000000e+00 -8.988165297230e+06 4.495060674087e+03 -1.342288697407e+07 -8.984421105075e+06 -9.847514367089e-06 1.364775675720e-05 -1.066798329014e-01 1.046515779213e+07 4.436601789303e+06  1.066749121042e-01
8.400000000000e-01 3.250050509828e-07 0.000000000000e+00 -9.023034772642e+06 4.500736436719e+03 -1.347516273845e+07 -9.019279216080e+06 -9.857655917422e-06 1.365777375021e-05 -1.066953389120e-01 1.050582557572e+07 4.454013753506e+06  1.066904130481e-01
8.500000000000e-01 3.251539978483e-07 0.000000000000e+00 -9.058385226189e+06 4.506561938724e+03 -1.352815984175e+07 -9.054618253594e+06 -9.867804088350e-06 1.366801663282e-05 -1.067109978187e-01 1.054705444051e+07 4.471666104460e+06  1.067060668850e-01
8.600000000000e-01 3.252980758115e-07 0.000000000000e+00 -9.092955487488e+06 4.512211122136e+03 -1.357998727912e+07 -9.089177347477e+06 -9.877692832446e-06 1.367791053568e-05 -1.067262519818e-01 1.058737337136e+07 4.488928857529e+06  1.067213161078e-01
8.700000000000e-01 3.254414876011e-07 0.000000000000e+00 -9.127466963654e+06 4.517882581121e+03 -1.363172646428e+07 -9.123677626017e+06 -9.887570491393e-06 1.368780656311e-05 -1.067414222969e-01 1.062762368465e+07 4.506162158858e+06  1.067364814881e-01
8.800000000000e-01 3.255835691642e-07 0.000000000000e+00 -9.161859747687e+06 4.523564181558e+03 -1.368328757236e+07 -9.158059196422e+06 -9.897424783585e-06 1.369768348098e-05 -1.067564833009e-01 1.066773550549e+07 4.523336083473e+06  1.067515375690e-01
8.900000000000e-01 3.257244766523e-07 0.000000000000e+00 -9.196108357140e+06 4.529236819861e+03 -1.373463277818e+07 -9.192296735605e+06 -9.907116744927e-06 1.370750842680e-05 -1.067714251092e-01 1.070767929031e+07 4.540438208831e+06  1.067664745354e-01
9.000000000000e-01 3.258631348961e-07 0.000000000000e+00 -9.230237979091e+06 4.534775713965e+03 -1.378579956450e+07 -9.226415311459e+06 -9.916751434191e-06 1.371706455409e-05 -1.067862596283e-01 1.074748428502e+07 4.557480889878e+06  1.067813042410e-01
9.100000000000e-01 3.260009773268e-07 0.000000000000e+00 -9.264246246855e+06 4.540329508528e+03 -1.383678438864e+07 -9.260412560209e+06 -9.926326993311e-06 1.372661184516e-05 -1.068009868223e-01 1.078714773190e+07 4.574462949614e+06  1.067960266512e-01
9.200000000000e-01 3.261372362700e-07 0.000000000000e+00 -9.298123826856e+06 4.545852666179e+03 -1.388757330786e+07 -9.294279171293e+06 -9.935824032088e-06 1.373607180437e-05 -1.068156036780e-01 1.082665876867e+07 4.591379767221e+06  1.068106387623e-01
9.300000000000e-01 3.262743692100e-07 0.000000000000e+00 -9.332439850138e+06 4.551421021740e+03 -1.393901953280e+07 -9.328584081355e+06 -9.945410685534e-06 1.374557409392e-05 -1.068303554388e-01 1.086668115477e+07 4.608515519354e+06  1.068253857337e-01
9.400000000000e-01 3.264079811072e-07 0.000000000000e+00 -9.366060455884e+06 4.556900992107e+03 -1.398942325489e+07 -9.362193822606e+06 -9.954748594865e-06 1.375489207297e-05 -1.068447556422e-01 1.090589251113e+07 4.625304062066e+06  1.068397812720e-01
9.500000000000e-01 3.265405435314e-07 0.000000000000e+00 -9.399634699763e+06 4.562343020017e+03 -1.403975745487e+07 -9.395757209590e+06 -9.964046441610e-06 1.376411214432e-05 -1.068590843953e-01 1.094504978807e+07 4.642069440745e+06  1.068541053799e-01
9.600000000000e-01 3.266718891410e-07 0.000000000000e+00 -9.433093733349e+06 4.567766706670e+03 -1.408991895353e+07 -9.429205431224e+06 -9.973272727650e-06 1.377326860900e-05 -1.068733130684e-01 1.098407270603e+07 4.658777306019e+06  1.068683294438e-01
9.700000000000e-01 3.268021942248e-07 0.000000000000e+00 -9.466460095085e+06 4.573182384424e+03 -1.413994153660e+07 -9.462561017158e+06 -9.982435544187e-06 1.378237949063e-05 -1.068874520787e-01 1.102298754961e+07 4.675438909591e+06  1.068824638764e-01
9.800000000000e-01 3.269314652507e-07 0.000000000000e+00 -9.499743327608e+06 4.578585715006e+03 -1.418983950764e+07 -9.495833505851e+06 -9.991538968164e-06 1.379143784062e-05 -1.069015062181e-01 1.106180544703e+07 4.692059014451e+06  1.068965134679e-01
9.900000000000e-01 3.270596188959e-07 0.000000000000e+00 -9.532942010294e+06 4.583966617161e+03 -1.423961073659e+07 -9.529021477010e+06 -1.000058321324e-05 1.380042710495e-05 -1.069154756075e-01 1.110052474130e+07 4.708636910963e+06  1.069104783389e-01
1.000000000000e+00 3.271855379153e-07 0.000000000000e+00 -9.566047114242e+06 4.589201456273e+03 -1.428924171600e+07 -9.562115916085e+06 -1.000955666737e-05 1.380914018253e-05 -1.069293571958e-01 1.113913491544e+07 4.725168113053e+06  1.069243554440e-01
1.050000000000e+00 3.278025766167e-07 0.000000000000e+00 -9.728607181809e+06 4.615486612344e+03 -1.453295063056e+07 -9.724623517702e+06 -1.005327547153e-05 1.385247963310e-05 -1.069968637810e-01 1.132872711002e+07 4.806343167297e+06  1.069918401878e-01
1.100000000000e+00 3.283819759888e-07 0.000000000000e+00 -9.886829582339e+06 4.640787703289e+03 -1.477015720924e+07 -9.882795098783e+06 -1.009492603591e-05 1.389351372962e-05 -1.070614913756e-01 1.151326063012e+07 4.885352730810e+06  1.070564469741e-01
1.150000000000e+00 3.289521269852e-07 0.000000000000e+00 -1.004535016396e+07 4.665817492318e+03 -1.500781021997e+07 -1.004126450710e+07 -1.013619757477e-05 1.393346338602e-05 -1.071252094132e-01 1.169814163034e+07 4.964510722977e+06  1.071201443927e-01
1.200000000000e+00 3.294887878831e-07 0.000000000000e+00 -1.019987921852e+07 4.690124620236e+03 -1.523948076096e+07 -1.019574430072e+07 -1.017530999800e-05 1.397165959599e-05 -1.071863603702e-01 1.187836809340e+07 5.041676817688e+06  1.071812758094e-01
1.250000000000e+00 3.300102104342e-07 0.000000000000e+00 -1.035400021385e+07 4.714387337017e+03 -1.547053919050e+07 -1.034981601263e+07 -1.021385026192e-05 1.400921579791e-05 -1.072464318453e-01 1.205811847233e+07 5.118638872985e+06  1.072413280301e-01
1.300000000000e+00 3.305154942133e-07 0.000000000000e+00 -1.050702844250e+07 4.738280092322e+03 -1.569996024931e+07 -1.050279565903e+07 -1.025128107320e-05 1.404565549667e-05 -1.073051975893e-01 1.223659478361e+07 5.195055974330e+06  1.073000750739e-01
1.350000000000e+00 3.310040873917e-07 0.000000000000e+00 -1.065880916015e+07 4.761918361586e+03 -1.592751012163e+07 -1.065452781893e+07 -1.028815158951e-05 1.408118900717e-05 -1.073626425214e-01 1.241361570024e+07 5.270849389384e+06  1.073575015857e-01