 TITLE = "Profiles along polylines"
 VARIABLES = "DIST" "DISPLACEMENT_X1" "DISPLACEMENT_Y1" "STRESS_XX" "STRESS_XY" "STRESS_YY" "STRESS_ZZ" "STRAIN_XX" "STRAIN_XY" "STRAIN_YY"  p_(1st_Invariant)  q_(2nd_Invariant)   Effective_Strain
 ZONE T="TIME=0.000000000000e+00"
0.000000000000e+00 0.000000000000e+00 0.000000000000e+00 -1.000000000000e+05 0.000000000000e+00 -1.000000000000e+05 -1.000000000000e+05 0.000000000000e+00 0.000000000000e+00 0.000000000000e+00 1.000000000000e+05 0.000000000000e+00  0.000000000000e+00
5.000000000000e-03 0.000000000000e+00 0.000000000000e+00 -1.000000000000e+05 0.000000000000e+00 -1.000000000000e+05 -1.000000000000e+05 0.000000000000e+00 0.000000000000e+00 0.000000000000e+00 1.000000000000e+05 0.000000000000e+00  0.000000000000e+00
1.000000000000e-02 0.000000000000e+00 0.000000000000e+00 -1.000000000000e+05 0.000000000000e+00 -1.000000000000e+05 -1.000000000000e+05 0.000000000000e+00 0.000000000000e+00 0.000000000000e+00 1.000000000000e+05 0.000000000000e+00  0.000000000000e+00
1.500000000000e-02 0.000000000000e+00 0.000000000000e+00 -1.000000000000e+05 0.000000000000e+00 -1.000000000000e+05 -1.000000000000e+05 0.000000000000e+00 0.000000000000e+00 0.000000000000e+00 1.000000000000e+05 0.000000000000e+00  0.000000000000e+00
2.000000000000e-02 0.000000000000e+00 0.000000000000e+00 -1.000000000000e+05 0.000000000000e+00 -1.000000000000e+05 -1.000000000000e+05 0.000000000000e+00 0.000000000000e+00 0.000000000000e+00 1.000000000000e+05 0.000000000000e+00  0.000000000000e+00
2.500000000000e-02 0.000000000000e+00 0.000000000000e+00 -1.000000000000e+05 0.000000000000e+00 -1.000000000000e+05 -1.000000000000e+05 0.000000000000e+00 0.000000000000e+00 0.000000000000e+00 1.000000000000e+05 0.000000000000e+00  0.000000000000e+00
3.000000000000e-02 0.000000000000e+00 0.000000000000e+00 -1.000000000000e+05 0.000000000000e+00 -1.000000000000e+05 -1.000000000000e+05 0.000000000000e+00 0.000000000000e+00 0.000000000000e+00 1.000000000000e+05 0.000000000000e+00  0.000000000000e+00
3.500000000000e-02 0.000000000000e+00 0.000000000000e+00 -1.000000000000e+05 0.000000000000e+00 -1.000000000000e+05 -1.000000000000e+05 0.000000000000e+00 0.000000000000e+00 0.000000000000e+00 1.000000000000e+05 0.000000000000e+00  0.000000000000e+00
4.000000000000e-02 0.000000000000e+00 0.000000000000e+00 -1.000000000000e+05 0.000000000000e+00 -1.000000000000e+05 -1.000000000000e+05 0.000000000000e+00 0.000000000000e+00 0.000000000000e+00 1.000000000000e+05 0.000000000000e+00  0.000000000000e+00
4.500000000000e-02 0.000000000000e+00 0.000000000000e+00 -1.000000000000e+05 0.000000000000e+00 -1.000000000000e+05 -1.000000000000e+05 0.000000000000e+00 0.000000000000e+00 0.000000000000e+00 1.000000000000e+05 0.000000000000e+00  0.000000000000e+00
5.000000000000e-02 0.000000000000e+00 0.000000000000e+00 -1.000000000000e+05 0.000000000000e+00 -1.000000000000e+05 -1.000000000000e+05 0.000000000000e+00 0.000000000000e+00 0.000000000000e+00 1.000000000000e+05 0.000000000000e+00  0.000000000000e+00
 TITLE = "Profiles along polylines"
 VARIABLES = "DIST" "DISPLACEMENT_X1" "DISPLACEMENT_Y1" "STRESS_XX" "STRESS_XY" "STRESS_YY" "STRESS_ZZ" "STRAIN_XX" "STRAIN_XY" "STRAIN_YY"  p_(1st_Invariant)  q_(2nd_Invariant)   Effective_Strain
 ZONE T="TIME=1.000000000000e-02"
0.000000000000e+00 0.000000000000e+00 0.000000000000e+00 -9.712703797356e+05 -6.207228369029e+01 -1.339719401585e+06 -9.443959055408e+05 -5.767029572839e-04 5.328616932282e-05 -4.400151899908e-02 1.085128562287e+06 3.825948305371e+05  4.371611799603e-02
5.000000000000e-03 0.000000000000e+00 2.230707624044e-04 -9.700092455072e+05 -4.597723848058e+03 -1.342595482373e+06 -9.450419046281e+05 -8.194571875410e-04 2.319232950799e-04 -4.526789608424e-02 1.085882210836e+06 3.857587028033e+05  4.486557910480e-02
1.000000000000e-02 0.000000000000e+00 4.466360522530e-04 -9.749432425742e+05 -3.056579921452e+03 -1.372043392765e+06 -9.587945952354e+05 -5.524018641103e-04 -5.225597839263e-04 -4.383301338117e-02 1.101927076858e+06 4.054503254639e+05  4.356884182275e-02
1.500000000000e-02 0.000000000000e+00 6.641835448434e-04 -9.574186002886e+05 1.524907440860e+04 -1.337198894839e+06 -9.378473365757e+05 -5.632566684764e-04 1.115785977106e-03 -4.180409508112e-02 1.077488277234e+06 3.908279539652e+05  4.157027932721e-02
2.000000000000e-02 0.000000000000e+00 8.907709514791e-04 -9.046581740030e+05 -5.173906139695e+04 -1.346537224787e+06 -9.204773412834e+05 8.127608636018e-04 -3.990683153012e-03 -4.680848933462e-02 1.057224246691e+06 4.433373144410e+05  4.772332782098e-02
2.500000000000e-02 0.000000000000e+00 1.096235860708e-03 -8.775104024034e+05 7.309193749607e+04 -1.701608105330e+06 -1.051646930230e+06 7.230005084919e-03 3.858425145652e-03 -4.956883304009e-02 1.210255145988e+06 7.628776675827e+05  5.396653992273e-02
3.000000000000e-02 0.000000000000e+00 1.309111540647e-03 -1.143825378407e+06 4.476555155782e+04 -1.696894282070e+06 -1.156298458484e+06 -5.444916967908e-03 7.154376931851e-03 -3.072605364622e-02 1.332339372987e+06 5.524076221601e+05  3.098373783861e-02
3.500000000000e-02 0.000000000000e+00 1.635909136123e-03 -1.238863095875e+06 -3.787339280427e+04 -2.191064168516e+06 -1.393370347643e+06 1.620379533099e-02 -4.660255910870e-02 -9.082940926519e-02 1.607765870678e+06 8.875475110502e+05  1.284512408457e-01
4.000000000000e-02 0.000000000000e+00 9.397557866504e-04 -2.459425189918e+06 3.221399022107e+06 8.327134944624e+06 2.368769201564e+06 -2.129012281633e-01 2.816524481503e-01 6.018184840424e-01 -2.745492985423e+06 1.089559390084e+07  8.795593326886e-01
4.500000000000e-02 0.000000000000e+00 1.459946016256e-04 -1.826750660964e+07 4.229414327085e+06 -2.085185889576e+07 -1.495878469823e+07 -1.681491959901e+00 7.247430734210e-01 -1.379673897888e+00 1.802605006787e+07 8.935393506284e+06  1.996687826516e+00
5.000000000000e-02 0.000000000000e+00 0.000000000000e+00 -3.626510916977e+07 -8.791984127804e+06 6.213411918784e+07 6.259147617408e+06 -8.402423263156e-01 -1.593877392012e-01 2.360524150141e+00 -1.070938587849e+07 8.682317350251e+07  2.887508803068e+00
 TITLE = "Profiles along polylines"
 VARIABLES = "DIST" "DISPLACEMENT_X1" "DISPLACEMENT_Y1" "STRESS_XX" "STRESS_XY" "STRESS_YY" "STRESS_ZZ" "STRAIN_XX" "STRAIN_XY" "STRAIN_YY"  p_(1st_Invariant)  q_(2nd_Invariant)   Effective_Strain
 ZONE T="TIME=1.000000000000e-01"
0.000000000000e+00 0.000000000000e+00 0.000000000000e+00 -1.085754462515e+06 1.688169614992e+03 -1.582875055988e+06 -1.087451643706e+06 -2.920033591905e-04 8.661991579314e-05 -4.449736465304e-02 1.252027054069e+06 4.962827932820e+05  4.435233766221e-02
5.000000000000e-03 0.000000000000e+00 2.253561443317e-04 -1.087818909303e+06 -5.737990242041e+03 -1.544217595108e+06 -1.072814833705e+06 -7.118235718384e-04 2.096624569256e-04 -4.568592657481e-02 1.234950446039e+06 4.641890742677e+05  4.533566074733e-02
1.000000000000e-02 0.000000000000e+00 4.511659485930e-04 -1.085763614407e+06 3.677210382991e+03 -1.575444114771e+06 -1.084482590336e+06 -3.893296130700e-04 -3.872134715687e-04 -4.422758576841e-02 1.248563439838e+06 4.903636320081e+05  4.403931895946e-02
1.500000000000e-02 0.000000000000e+00 6.705726277699e-04 -1.087721068446e+06 1.732808572716e+04 -1.553647177726e+06 -1.076540640129e+06 -4.744129918324e-04 1.155469928757e-03 -4.206912641567e-02 1.239302962101e+06 4.725697646031e+05  4.188178192492e-02
2.000000000000e-02 0.000000000000e+00 8.981034655012e-04 -1.039304473098e+06 -3.862798390139e+04 -1.555401266787e+06 -1.057915853910e+06 8.413275950112e-04 -3.695747214142e-03 -4.706471574083e-02 1.217540531265e+06 5.114424438875e+05  4.792043182615e-02
2.500000000000e-02 0.000000000000e+00 1.105559474067e-03 -1.028012744473e+06 7.302924288182e+04 -1.896453089613e+06 -1.189571001220e+06 7.090167981519e-03 3.775673820116e-03 -5.002335869408e-02 1.371345611769e+06 8.099295068632e+05  5.431434480477e-02
3.000000000000e-02 0.000000000000e+00 1.322784382066e-03 -1.105315248352e+06 3.115709765741e+03 -1.937336092369e+06 -1.237437789676e+06 -4.345426419314e-03 6.495992802702e-03 -3.200842185173e-02 1.426696376799e+06 7.744775435097e+05  3.210802587714e-02
3.500000000000e-02 0.000000000000e+00 1.653934834679e-03 -1.127737540500e+06 -9.522908732520e+04 -2.615329996451e+06 -1.526504433363e+06 1.666062865441e-02 -4.673061101974e-02 -9.108114303874e-02 1.756523990104e+06 1.343856192291e+06  1.290041483241e-01
4.000000000000e-02 0.000000000000e+00 1.057080152165e-03 -2.577279963235e+06 2.489320520358e+06 4.500300192761e+06 9.521788906358e+05 -2.039365410086e-01 2.620491898943e-01 5.776286035573e-01 -9.583997067208e+05 7.493953741475e+06  8.360943903508e-01
4.500000000000e-02 0.000000000000e+00 2.759651825779e-04 -3.935779495149e+06 6.712010308840e+06 -7.753943722697e+06 -2.037853328875e+06 -1.591216914522e+00 7.901600724293e-01 -1.345592348741e+00 4.575858848907e+06 1.267202993816e+07  2.018543918984e+00
5.000000000000e-02 0.000000000000e+00 0.000000000000e+00 -7.626916233331e+07 -4.619613918708e+06 5.921940785785e+07 -2.065824978333e+07 -2.012160329212e+00 -2.223692756634e-02 2.337500476534e+00 1.256933475293e+07 1.182332682325e+08  3.770624197595e+00
 TITLE = "Profiles along polylines"
 VARIABLES = "DIST" "DISPLACEMENT_X1" "DISPLACEMENT_Y1" "STRESS_XX" "STRESS_XY" "STRESS_YY" "STRESS_ZZ" "STRAIN_XX" "STRAIN_XY" "STRAIN_YY"  p_(1st_Invariant)  q_(2nd_Invariant)   Effective_Strain
 ZONE T="TIME=1.000000000000e+00"
0.000000000000e+00 0.000000000000e+00 0.000000000000e+00 -7.091150605802e+06 -3.367114561010e+03 -1.078222928249e+07 -7.169351655405e+06 -6.936801621370e-05 5.733878099279e-05 -5.304784627042e-02 8.347577181232e+06 3.652610708431e+06  5.301328932635e-02
5.000000000000e-03 0.000000000000e+00 2.673414072479e-04 -7.222079153938e+06 -6.373333136159e+04 -1.064627793704e+07 -7.167343015291e+06 -8.384297270508e-04 -1.231942510179e-04 -5.398179813177e-02 8.345233368755e+06 3.453656986871e+06  5.356792958612e-02
1.000000000000e-02 0.000000000000e+00 5.344841489451e-04 -7.125568784925e+06 5.296417961755e+04 -1.059701437004e+07 -7.109032886113e+06 -4.409536601289e-04 -8.259964745663e-05 -5.270331808618e-02 8.277205347027e+06 3.480952020966e+06  5.248442554242e-02
1.500000000000e-02 0.000000000000e+00 7.967392672981e-04 -7.121115670086e+06 3.332841815122e+04 -1.065472984503e+07 -7.130328061510e+06 -4.281969807551e-04 1.253101812834e-03 -5.059664955677e-02 8.302057858874e+06 3.529489101688e+06  5.043064305468e-02
2.000000000000e-02 0.000000000000e+00 1.066122030346e-03 -7.064145167444e+06 2.401271651445e+04 -1.064116374078e+07 -7.102170475957e+06 8.729954042196e-04 -3.422694246352e-03 -5.562889846907e-02 8.269159794726e+06 3.558401381928e+06  5.638301824375e-02
2.500000000000e-02 0.000000000000e+00 1.315244640652e-03 -7.109186429514e+06 1.503233216607e+05 -1.114771129642e+07 -7.322550742199e+06 7.140630724628e-03 4.338345304721e-03 -5.794737481279e-02 8.526482822710e+06 3.944784107038e+06  6.228267319077e-02
3.000000000000e-02 0.000000000000e+00 1.574315812780e-03 -7.174997026644e+06 -3.506349800178e+05 -1.141993592158e+07 -7.458063835650e+06 -4.095606942581e-03 4.723360794029e-03 -4.004089468805e-02 8.684332261290e+06 4.155341911359e+06  3.902545180966e-02
3.500000000000e-02 0.000000000000e+00 1.940477741987e-03 -6.465298074208e+06 -1.552582702508e+06 -1.150965509875e+07 -7.223878177956e+06 1.629103160346e-02 -5.551054669991e-02 -9.671576670745e-02 8.399610450304e+06 5.424571119838e+06  1.429657274918e-01
4.000000000000e-02 0.000000000000e+00 1.415220686514e-03 -1.363848382143e+07 1.542464718342e+06 -1.399503119810e+07 -1.038412173492e+07 -1.970559202186e-01 2.354046399166e-01 5.267250518675e-01 1.267254558482e+07 4.360725296159e+06  7.657092393584e-01
4.500000000000e-02 0.000000000000e+00 6.255255964399e-04 1.787081881428e+07 1.067044041713e+07 1.693088062330e+07 -2.274438350373e+07 -1.521646463113e+00 7.716290042820e-01 -1.235832666660e+00 -4.019105311281e+06 4.420268384871e+07  1.936084681313e+00
5.000000000000e-02 0.000000000000e+00 0.000000000000e+00 -6.617713174290e+07 -5.547812361067e+06 6.816967684551e+07 -3.311817847607e+06 -2.000758069156e+00 -9.126167382688e-03 2.363105773585e+00 4.397575816648e+05 1.168233411707e+08  3.783590167288e+00
 TITLE = "Profiles along polylines"
 VARIABLES = "DIST" "DISPLACEMENT_X1" "DISPLACEMENT_Y1" "STRESS_XX" "STRESS_XY" "STRESS_YY" "STRESS_ZZ" "STRAIN_XX" "STRAIN_XY" "STRAIN_YY"  p_(1st_Invariant)  q_(2nd_Invariant)   Effective_Strain
 ZONE T="TIME=5.000000000000e+00"
0.000000000000e+00 0.000000000000e+00 0.000000000000e+00 -1.767417166086e+07 -5.777494213548e+03 -2.702391043003e+07 -1.789923188930e+07 3.567888382379e-05 5.687156654716e-05 -5.685720396990e-02 2.086577132673e+07 9.239270152621e+06  5.687513710716e-02
5.000000000000e-03 0.000000000000e+00 2.863310305796e-04 -1.796074239421e+07 -1.154766634194e+05 -2.661647899616e+07 -1.785088905795e+07 -8.748016693972e-04 -1.872866037461e-04 -5.779366050384e-02 2.080937014944e+07 8.713478639484e+06  5.736218014093e-02
1.000000000000e-02 0.000000000000e+00 5.723087074033e-04 -1.772884639231e+07 1.143312989271e+05 -2.649043938129e+07 -1.770770839335e+07 -4.423121962758e-04 1.141634441879e-05 -5.645323607182e-02 2.064233138898e+07 8.774415992004e+06  5.623338811796e-02
1.500000000000e-02 0.000000000000e+00 8.535355666010e-04 -1.776480383746e+07 6.323185621224e+04 -2.677303693490e+07 -1.783514030127e+07 -3.777828272028e-04 1.296867042391e-03 -5.443510747266e-02 2.079099369121e+07 8.973939953979e+06  5.429368829801e-02
2.000000000000e-02 0.000000000000e+00 1.141784853568e-03 -1.768380613256e+07 1.500376845276e+05 -2.672103170223e+07 -1.778211607830e+07 9.296912230415e-04 -3.244559407610e-03 -5.953815358374e-02 2.072898463769e+07 8.992229735023e+06  6.027096858358e-02
2.500000000000e-02 0.000000000000e+00 1.410072756493e-03 -1.777860462182e+07 1.938719352048e+05 -2.748136583159e+07 -1.812174692870e+07 7.244788083388e-03 4.405509019186e-03 -6.155873270832e-02 2.112723912737e+07 9.541732172608e+06  6.592548846490e-02
3.000000000000e-02 0.000000000000e+00 1.689176928640e-03 -1.773623610211e+07 -1.063347693230e+06 -2.824854825816e+07 -1.841230008918e+07 -3.773413991536e-03 3.681799589439e-03 -4.405657928559e-02 2.146569481649e+07 1.035620097629e+07  4.277433884298e-02
3.500000000000e-02 0.000000000000e+00 2.075228063768e-03 -1.656464212752e+07 -2.360031897296e+06 -2.646293114777e+07 -1.736582716563e+07 1.648723278358e-02 -5.696987446855e-02 -1.004103925532e-01 2.013113348031e+07 1.036324821649e+07  1.474661489439e-01
4.000000000000e-02 0.000000000000e+00 1.555242767898e-03 -1.661771239137e+07 2.617805942365e+06 -1.482704810061e+07 -1.316471486895e+07 -1.970689100392e-01 2.391444006423e-01 5.260059188223e-01 1.486982512031e+07 5.431872143949e+06  7.686012803218e-01
4.500000000000e-02 0.000000000000e+00 8.595421489235e-04 1.835287218763e+07 8.824024979705e+06 1.602437541660e+07 -2.374553810090e+07 -1.515139812198e+00 7.312790772178e-01 -1.198469797412e+00 -3.543903167777e+06 4.374085371982e+07  1.876282619535e+00
5.000000000000e-02 0.000000000000e+00 0.000000000000e+00 -8.810459156316e+07 -5.521910183318e+06 4.862837121537e+07 -2.795798339614e+07 -1.986340825413e+00 -5.412342034985e-03 2.338812473766e+00 2.247806791464e+07 1.190838701280e+08  3.749848029202e+00
 TITLE = "Profiles along polylines"
 VARIABLES = "DIST" "DISPLACEMENT_X1" "DISPLACEMENT_Y1" "STRESS_XX" "STRESS_XY" "STRESS_YY" "STRESS_ZZ" "STRAIN_XX" "STRAIN_XY" "STRAIN_YY"  p_(1st_Invariant)  q_(2nd_Invariant)   Effective_Strain
 ZONE T="TIME=1.000000000000e+01"
0.000000000000e+00 0.000000000000e+00 0.000000000000e+00 -2.436946512629e+07 -7.454580685391e+03 -3.722447846851e+07 -2.465757781516e+07 5.974438792834e-05 5.546116759759e-05 -5.816368831910e-02 2.875050713665e+07 1.271341225647e+07  5.819366279978e-02
5.000000000000e-03 0.000000000000e+00 2.927848571674e-04 -2.473673687004e+07 -1.532636253920e+05 -3.671545755373e+07 -2.460087925786e+07 -8.846215121803e-04 -2.159157480122e-04 -5.906810538413e-02 2.868435789388e+07 1.205014838557e+07  5.863199272594e-02
1.000000000000e-02 0.000000000000e+00 5.851216591807e-04 -2.444342952803e+07 1.435183822362e+05 -3.654926020008e+07 -2.441701857956e+07 -4.443542960335e-04 3.384064066601e-05 -5.773758063851e-02 2.846990276922e+07 1.212160685911e+07  5.751672071925e-02
1.500000000000e-02 0.000000000000e+00 8.727832801212e-04 -2.448982410185e+07 9.019606932716e+04 -3.694166911216e+07 -2.459223858018e+07 -3.654816451427e-04 1.317596348227e-03 -5.573389497645e-02 2.867457726473e+07 1.240193894792e+07  5.559891267699e-02
2.000000000000e-02 0.000000000000e+00 1.167450179699e-03 -2.434094082316e+07 2.068849698180e+05 -3.681782717562e+07 -2.448615299331e+07 9.472283413864e-04 -3.199526258954e-03 -6.083424246198e-02 2.854830699736e+07 1.241009218559e+07  6.156327737284e-02
2.500000000000e-02 0.000000000000e+00 1.441998961624e-03 -2.401747528597e+07 1.829576836995e+05 -3.688795583138e+07 -2.441356054566e+07 7.265331025596e-03 4.395580553055e-03 -6.274540693988e-02 2.843966388767e+07 1.268103962282e+07  6.710887172284e-02
3.000000000000e-02 0.000000000000e+00 1.726285085484e-03 -2.246334855840e+07 -1.145095338932e+06 -3.479219634361e+07 -2.309696009722e+07 -3.790918592491e-03 3.610490466314e-03 -4.480060431035e-02 2.678416833308e+07 1.218704152294e+07  4.348260216149e-02
3.500000000000e-02 0.000000000000e+00 2.113931191134e-03 -1.888124335947e+07 -2.047729617196e+06 -2.784773315390e+07 -1.945811451854e+07 1.638249152047e-02 -5.663725562562e-02 -1.001420369054e-01 2.206236367730e+07 9.388173409286e+06  1.468357103325e-01
4.000000000000e-02 0.000000000000e+00 1.589908540705e-03 -1.878577736371e+07 2.574246522516e+06 -1.429048297619e+07 -1.559293928722e+07 -1.966931858536e-01 2.387793849876e-01 5.276327564393e-01 1.622306654237e+07 5.994111694297e+06  7.693588804577e-01
4.500000000000e-02 0.000000000000e+00 8.783511995120e-04 1.427124489362e+07 8.637532890921e+06 1.249507064055e+07 -2.774570027220e+07 -1.515695148715e+00 7.296809668470e-01 -1.193766611579e+00 3.264615793434e+05 4.379235073816e+07  1.873586716709e+00
5.000000000000e-02 0.000000000000e+00 0.000000000000e+00 -1.043838485491e+08 -5.689608909726e+06 3.834296032555e+07 -4.374397956645e+07 -1.986499585197e+00 -5.531793223296e-03 2.340959660356e+00 3.659495593001e+07 1.244600965770e+08  3.751890180945e+00
 ZONE T="TIME=1.800000000000e+01"
0.000000000000e+00 0.000000000000e+00 0.000000000000e+00 -3.122443316553e+07 -9.282950595502e+03 -4.766789123430e+07 -3.157708598710e+07 7.821771606789e-05 5.432882626168e-05 -5.917212515458e-02 3.682313679565e+07 1.627000626635e+07  5.921134753296e-02
5.000000000000e-03 0.000000000000e+00 2.977677598236e-04 -3.165524425005e+07 -1.911589309352e+05 -4.704484664280e+07 -3.150072030263e+07 -8.900372519172e-04 -2.375223736033e-04 -6.005202810569e-02 3.673360373183e+07 1.547098661297e+07  5.961341253848e-02
1.000000000000e-02 0.000000000000e+00 5.949953346379e-04 -3.123754132440e+07 1.758350240880e+05 -4.676325407225e+07 -3.122440276169e+07 -4.408660610781e-04 5.244288806970e-05 -5.872305944498e-02 3.640839938611e+07 1.553527175071e+07  5.850394277585e-02
1.500000000000e-02 0.000000000000e+00 8.874536605380e-04 -3.127155342906e+07 1.239661792990e+05 -4.710124145432e+07 -3.138506210233e+07 -3.620955767844e-04 1.336775065715e-03 -5.670377490324e-02 3.658595232857e+07 1.577470136486e+07  5.657099891405e-02
2.000000000000e-02 0.000000000000e+00 1.186748939593e-03 -3.030534989810e+07 2.307503211754e+05 -4.571326562371e+07 -3.049559722511e+07 9.610049348259e-04 -3.184628144284e-03 -6.168550612842e-02 3.550473758231e+07 1.531889302148e+07  6.241579000424e-02
2.500000000000e-02 0.000000000000e+00 1.464745107839e-03 -2.828309328592e+07 1.963430516913e+05 -4.284433397067e+07 -2.870050458998e+07 7.271795747771e-03 4.399416354953e-03 -6.326868776466e-02 3.327597728219e+07 1.436111373797e+07  6.763096504047e-02
3.000000000000e-02 0.000000000000e+00 1.750911348732e-03 -2.549474517228e+07 -1.061514186382e+06 -3.792900398474e+07 -2.605962964833e+07 -3.814679597978e-03 3.667636133396e-03 -4.488002404474e-02 2.982779293511e+07 1.229985382091e+07  4.356512471040e-02
3.500000000000e-02 0.000000000000e+00 2.137591334039e-03 -2.188673056083e+07 -1.800120559554e+06 -2.942227442836e+07 -2.241732335006e+07 1.635984017110e-02 -5.641783975677e-02 -9.959266847458e-02 2.457544277975e+07 7.923947686299e+06  1.461662821968e-01
4.000000000000e-02 0.000000000000e+00 1.608923715734e-03 -2.380757429759e+07 2.353224596609e+06 -1.702387163068e+07 -2.087632909403e+07 -1.964683525356e-01 2.384267272184e-01 5.290940853507e-01 2.056925834076e+07 7.165132407561e+06  7.700860476223e-01
4.500000000000e-02 0.000000000000e+00 8.878355104571e-04 5.110971908588e+06 8.364318098044e+06 5.702562340202e+06 -3.717280074246e+07 -1.515402448131e+00 7.291244048971e-01 -1.190654378093e+00 8.786422164557e+06 4.497963467941e+07  1.872070795104e+00
5.000000000000e-02 0.000000000000e+00 0.000000000000e+00 -1.148708713439e+08 -5.627475797220e+06 2.747893971401e+07 -5.462439412726e+07 -1.986367545107e+00 -5.518466026553e-03 2.340649210529e+00 4.733877525240e+07 1.241452275688e+08  3.751503130437e+00
