VARIABLES  = "X","Y","Z", "DISPLACEMENT_X1", "DISPLACEMENT_Y1", "STRESS_XX", "STRESS_XY", "STRESS_YY", "STRESS_ZZ", "STRAIN_XX", "STRAIN_XY", "STRAIN_YY"
ZONE T="0.000000000000e+00s", N=32, E=38, F=FEPOINT, ET=QUADRILATERAL
STRANDID=1, SOLUTIONTIME=0.000000000000e+00
1.000000000000e-02 0.000000000000e+00 5.000000000000e-02 0.000000000000e+00 0.000000000000e+00 -1.000000000000e+05 0.000000000000e+00 -1.000000000000e+05 -1.000000000000e+05 0.000000000000e+00 0.000000000000e+00 0.000000000000e+00 
1.000000000000e-02 0.000000000000e+00 4.500000000000e-02 0.000000000000e+00 0.000000000000e+00 -1.000000000000e+05 0.000000000000e+00 -1.000000000000e+05 -1.000000000000e+05 0.000000000000e+00 0.000000000000e+00 0.000000000000e+00 
5.000000000000e-03 0.000000000000e+00 5.000000000000e-02 0.000000000000e+00 0.000000000000e+00 -1.000000000000e+05 0.000000000000e+00 -1.000000000000e+05 -1.000000000000e+05 0.000000000000e+00 0.000000000000e+00 0.000000000000e+00 
5.000000000000e-03 0.000000000000e+00 4.300000000000e-02 0.000000000000e+00 0.000000000000e+00 -1.000000000000e+05 0.000000000000e+00 -1.000000000000e+05 -1.000000000000e+05 0.000000000000e+00 0.000000000000e+00 0.000000000000e+00 
1.000000000000e-02 0.000000000000e+00 4.000000000000e-02 0.000000000000e+00 0.000000000000e+00 -1.000000000000e+05 0.000000000000e+00 -1.000000000000e+05 -1.000000000000e+05 0.000000000000e+00 0.000000000000e+00 0.000000000000e+00 
0.000000000000e+00 0.000000000000e+00 5.000000000000e-02 0.000000000000e+00 0.000000000000e+00 -1.000000000000e+05 0.000000000000e+00 -1.000000000000e+05 -1.000000000000e+05 0.000000000000e+00 0.000000000000e+00 0.000000000000e+00 
0.000000000000e+00 0.000000000000e+00 4.500000000000e-02 0.000000000000e+00 0.000000000000e+00 -1.000000000000e+05 0.000000000000e+00 -1.000000000000e+05 -1.000000000000e+05 0.000000000000e+00 0.000000000000e+00 0.000000000000e+00 
6.000000000000e-03 0.000000000000e+00 3.800000000000e-02 0.000000000000e+00 0.000000000000e+00 -1.000000000000e+05 0.000000000000e+00 -1.000000000000e+05 -1.000000000000e+05 0.000000000000e+00 0.000000000000e+00 0.000000000000e+00 
0.000000000000e+00 0.000000000000e+00 4.000000000000e-02 0.000000000000e+00 0.000000000000e+00 -1.000000000000e+05 0.000000000000e+00 -1.000000000000e+05 -1.000000000000e+05 0.000000000000e+00 0.000000000000e+00 0.000000000000e+00 
1.000000000000e-02 0.000000000000e+00 3.500000000000e-02 0.000000000000e+00 0.000000000000e+00 -1.000000000000e+05 0.000000000000e+00 -1.000000000000e+05 -1.000000000000e+05 0.000000000000e+00 0.000000000000e+00 0.000000000000e+00 
0.000000000000e+00 0.000000000000e+00 3.500000000000e-02 0.000000000000e+00 0.000000000000e+00 -1.000000000000e+05 0.000000000000e+00 -1.000000000000e+05 -1.000000000000e+05 0.000000000000e+00 0.000000000000e+00 0.000000000000e+00 
4.000000000000e-03 0.000000000000e+00 3.300000000000e-02 0.000000000000e+00 0.000000000000e+00 -1.000000000000e+05 0.000000000000e+00 -1.000000000000e+05 -1.000000000000e+05 0.000000000000e+00 0.000000000000e+00 0.000000000000e+00 
1.000000000000e-02 0.000000000000e+00 3.000000000000e-02 0.000000000000e+00 0.000000000000e+00 -1.000000000000e+05 0.000000000000e+00 -1.000000000000e+05 -1.000000000000e+05 0.000000000000e+00 0.000000000000e+00 0.000000000000e+00 
0.000000000000e+00 0.000000000000e+00 3.000000000000e-02 0.000000000000e+00 0.000000000000e+00 -1.000000000000e+05 0.000000000000e+00 -1.000000000000e+05 -1.000000000000e+05 0.000000000000e+00 0.000000000000e+00 0.000000000000e+00 
4.000000000000e-03 0.000000000000e+00 2.800000000000e-02 0.000000000000e+00 0.000000000000e+00 -1.000000000000e+05 0.000000000000e+00 -1.000000000000e+05 -1.000000000000e+05 0.000000000000e+00 0.000000000000e+00 0.000000000000e+00 
1.000000000000e-02 0.000000000000e+00 2.500000000000e-02 0.000000000000e+00 0.000000000000e+00 -1.000000000000e+05 0.000000000000e+00 -1.000000000000e+05 -1.000000000000e+05 0.000000000000e+00 0.000000000000e+00 0.000000000000e+00 
0.000000000000e+00 0.000000000000e+00 2.500000000000e-02 0.000000000000e+00 0.000000000000e+00 -1.000000000000e+05 0.000000000000e+00 -1.000000000000e+05 -1.000000000000e+05 0.000000000000e+00 0.000000000000e+00 0.000000000000e+00 
4.000000000000e-03 0.000000000000e+00 2.300000000000e-02 0.000000000000e+00 0.000000000000e+00 -1.000000000000e+05 0.000000000000e+00 -1.000000000000e+05 -1.000000000000e+05 0.000000000000e+00 0.000000000000e+00 0.000000000000e+00 
1.000000000000e-02 0.000000000000e+00 2.000000000000e-02 0.000000000000e+00 0.000000000000e+00 -1.000000000000e+05 0.000000000000e+00 -1.000000000000e+05 -1.000000000000e+05 0.000000000000e+00 0.000000000000e+00 0.000000000000e+00 
0.000000000000e+00 0.000000000000e+00 2.000000000000e-02 0.000000000000e+00 0.000000000000e+00 -1.000000000000e+05 0.000000000000e+00 -1.000000000000e+05 -1.000000000000e+05 0.000000000000e+00 0.000000000000e+00 0.000000000000e+00 
4.000000000000e-03 0.000000000000e+00 1.800000000000e-02 0.000000000000e+00 0.000000000000e+00 -1.000000000000e+05 0.000000000000e+00 -1.000000000000e+05 -1.000000000000e+05 0.000000000000e+00 0.000000000000e+00 0.000000000000e+00 
1.000000000000e-02 0.000000000000e+00 1.500000000000e-02 0.000000000000e+00 0.000000000000e+00 -1.000000000000e+05 0.000000000000e+00 -1.000000000000e+05 -1.000000000000e+05 0.000000000000e+00 0.000000000000e+00 0.000000000000e+00 
0.000000000000e+00 0.000000000000e+00 1.500000000000e-02 0.000000000000e+00 0.000000000000e+00 -1.000000000000e+05 0.000000000000e+00 -1.000000000000e+05 -1.000000000000e+05 0.000000000000e+00 0.000000000000e+00 0.000000000000e+00 
4.000000000000e-03 0.000000000000e+00 1.300000000000e-02 0.000000000000e+00 0.000000000000e+00 -1.000000000000e+05 0.000000000000e+00 -1.000000000000e+05 -1.000000000000e+05 0.000000000000e+00 0.000000000000e+00 0.000000000000e+00 
1.000000000000e-02 0.000000000000e+00 1.000000000000e-02 0.000000000000e+00 0.000000000000e+00 -1.000000000000e+05 0.000000000000e+00 -1.000000000000e+05 -1.000000000000e+05 0.000000000000e+00 0.000000000000e+00 0.000000000000e+00 
0.000000000000e+00 0.000000000000e+00 1.000000000000e-02 0.000000000000e+00 0.000000000000e+00 -1.000000000000e+05 0.000000000000e+00 -1.000000000000e+05 -1.000000000000e+05 0.000000000000e+00 0.000000000000e+00 0.000000000000e+00 
5.000000000000e-03 0.000000000000e+00 7.000000000000e-03 0.000000000000e+00 0.000000000000e+00 -1.000000000000e+05 0.000000000000e+00 -1.000000000000e+05 -1.000000000000e+05 0.000000000000e+00 0.000000000000e+00 0.000000000000e+00 
1.000000000000e-02 0.000000000000e+00 5.000000000000e-03 0.000000000000e+00 0.000000000000e+00 -1.000000000000e+05 0.000000000000e+00 -1.000000000000e+05 -1.000000000000e+05 0.000000000000e+00 0.000000000000e+00 0.000000000000e+00 
0.000000000000e+00 0.000000000000e+00 5.000000000000e-03 0.000000000000e+00 0.000000000000e+00 -1.000000000000e+05 0.000000000000e+00 -1.000000000000e+05 -1.000000000000e+05 0.000000000000e+00 0.000000000000e+00 0.000000000000e+00 
1.000000000000e-02 0.000000000000e+00 0.000000000000e+00 0.000000000000e+00 0.000000000000e+00 -1.000000000000e+05 0.000000000000e+00 -1.000000000000e+05 -1.000000000000e+05 0.000000000000e+00 0.000000000000e+00 0.000000000000e+00 
5.000000000000e-03 0.000000000000e+00 0.000000000000e+00 0.000000000000e+00 0.000000000000e+00 -1.000000000000e+05 0.000000000000e+00 -1.000000000000e+05 -1.000000000000e+05 0.000000000000e+00 0.000000000000e+00 0.000000000000e+00 
0.000000000000e+00 0.000000000000e+00 0.000000000000e+00 0.000000000000e+00 0.000000000000e+00 -1.000000000000e+05 0.000000000000e+00 -1.000000000000e+05 -1.000000000000e+05 0.000000000000e+00 0.000000000000e+00 0.000000000000e+00 
14  17  15  14
15  17  18  15
18  17  20  18
14  15  12  14
30  28  31  30
12  15  13  12
18  20  21  18
21  20  23  21
18  21  19  18
21  23  24  21
24  23  26  24
21  24  22  21
5  2  4  5
4  2  3  4
5  4  8  5
8  4  9  8
5  8  10  5
24  26  27  24
27  26  29  27
24  27  25  24
10  8  12  10
27  29  31  27
19  16  18  19
6  7  3  6
25  22  24  25
1  3  2  1
13  10  12  13
9  11  8  9
32  31  29  32
15  18  16  15
14  12  11  14
11  12  8  11
28  25  27  28
7  9  4  7
16  13  15  16
22  19  21  22
7  4  3  7
28  27  31  28
VARIABLES  = "X","Y","Z", "DISPLACEMENT_X1", "DISPLACEMENT_Y1", "STRESS_XX", "STRESS_XY", "STRESS_YY", "STRESS_ZZ", "STRAIN_XX", "STRAIN_XY", "STRAIN_YY"
ZONE T="1.000000000000e-03s", N=32, E=38, F=FEPOINT, ET=QUADRILATERAL
STRANDID=1, SOLUTIONTIME=1.000000000000e-03
1.000000000000e-02 0.000000000000e+00 5.000000000000e-02 0.000000000000e+00 0.000000000000e+00 -1.321012129114e+05 -3.567102611761e-02 -1.481511446964e+05 -1.321009438905e+05 -4.740823322122e-07 -1.257162102411e-07 -2.828474315184e-02 
1.000000000000e-02 0.000000000000e+00 4.500000000000e-02 0.000000000000e+00 1.414294469067e-04 -1.321011416279e+05 -1.460625254339e-01 -1.481494046000e+05 -1.321002170668e+05 -1.629511040908e-06 -5.148941164899e-07 -2.828658109612e-02 
5.000000000000e-03 0.000000000000e+00 5.000000000000e-02 2.071092380995e-09 0.000000000000e+00 -1.321012457881e+05 -2.767345957884e-02 -1.481519457179e+05 -1.321012753354e+05 5.207247268073e-08 -9.752159024518e-08 -2.828591118839e-02 
5.000000000000e-03 0.000000000000e+00 4.300000000000e-02 6.205204186854e-09 1.980086472078e-04 -1.321012303791e+05 -1.291729065166e+00 -1.481515732001e+05 -1.321011273181e+05 -1.815832381988e-07 -4.552960094031e-06 -2.828692636382e-02 
1.000000000000e-02 0.000000000000e+00 4.000000000000e-02 0.000000000000e+00 2.828729574196e-04 -1.321012391880e+05 9.122421971521e-01 -1.481517842818e+05 -1.321012073989e+05 -5.596170412329e-08 3.216039490898e-06 -2.829168560677e-02 
0.000000000000e+00 0.000000000000e+00 5.000000000000e-02 0.000000000000e+00 0.000000000000e+00 -1.321012819505e+05 1.847778255109e-02 -1.481528290386e+05 -1.321016454805e+05 6.406267372457e-07 6.511952993047e-08 -2.828579692986e-02 
0.000000000000e+00 0.000000000000e+00 4.500000000000e-02 0.000000000000e+00 1.414368303540e-04 -1.321012801006e+05 8.461292378841e-02 -1.481527825701e+05 -1.321016234358e+05 6.051136549123e-07 2.982354520620e-07 -2.828943173150e-02 
6.000000000000e-03 0.000000000000e+00 3.800000000000e-02 1.608695744154e-08 3.394612990478e-04 -1.321009549915e+05 -4.717971199350e+00 -1.481448377618e+05 -1.320982870935e+05 -4.703739906495e-06 -1.663749575925e-05 -2.829780508377e-02 
0.000000000000e+00 0.000000000000e+00 4.000000000000e-02 0.000000000000e+00 2.828970316281e-04 -1.321016243056e+05 -5.645399457219e-01 -1.481611817776e+05 -1.321051254556e+05 6.170937969584e-06 -1.989221487595e-06 -2.829704326545e-02 
1.000000000000e-02 0.000000000000e+00 3.500000000000e-02 0.000000000000e+00 4.242737249372e-04 -1.321004174155e+05 -3.115579573316e+00 -1.481317806747e+05 -1.320929685674e+05 -1.309873479287e-05 -1.097942909752e-05 -2.825169061813e-02 
0.000000000000e+00 0.000000000000e+00 3.500000000000e-02 0.000000000000e+00 4.243697618457e-04 -1.321012831368e+05 3.606332901448e+00 -1.481528853591e+05 -1.321017260672e+05 7.929668794158e-07 1.270929292773e-05 -2.827689450435e-02 
4.000000000000e-03 0.000000000000e+00 3.300000000000e-02 5.610886004880e-08 4.810003877458e-04 -1.321037888281e+05 -1.153116633314e+01 -1.482140287974e+05 -1.321272171512e+05 4.130520504228e-05 -4.064990847697e-05 -2.831050466320e-02 
1.000000000000e-02 0.000000000000e+00 3.000000000000e-02 0.000000000000e+00 5.658627583257e-04 -1.320980979414e+05 1.449526222502e+01 -1.480749208143e+05 -1.320687246340e+05 -5.165029053200e-05 5.185346081202e-05 -2.840030214826e-02 
0.000000000000e+00 0.000000000000e+00 3.000000000000e-02 0.000000000000e+00 5.661169925112e-04 -1.321027497154e+05 -7.625010936966e+00 -1.481884953663e+05 -1.321162164016e+05 2.403340795663e-05 -2.754681903011e-05 -2.844628999432e-02 
4.000000000000e-03 0.000000000000e+00 2.800000000000e-02 3.099954574393e-07 6.221713849557e-04 -1.320925000776e+05 -8.845135112166e+01 -1.479387380596e+05 -1.320127582913e+05 -1.402761042853e-04 -3.109401613676e-04 -2.803079467613e-02 
1.000000000000e-02 0.000000000000e+00 2.500000000000e-02 0.000000000000e+00 7.063489410516e-04 -1.321108455593e+05 5.902924686694e+01 -1.483865580773e+05 -1.322004645247e+05 1.684003761818e-04 2.291122256452e-04 -2.785434372737e-02 
0.000000000000e+00 0.000000000000e+00 2.500000000000e-02 0.000000000000e+00 7.083778414670e-04 -1.321424631156e+05 -1.562055690936e+02 -1.491585652804e+05 -1.325219867780e+05 6.608749396260e-04 -5.552354538458e-04 -2.847664836041e-02 
4.000000000000e-03 0.000000000000e+00 2.300000000000e-02 1.066825962861e-06 7.668393564433e-04 -1.320881147464e+05 -1.292702502140e+02 -1.488227730470e+05 -1.323603316390e+05 5.220092398070e-04 -4.810336528765e-04 -3.038691347122e-02 
1.000000000000e-02 0.000000000000e+00 2.000000000000e-02 0.000000000000e+00 8.453889879501e-04 -1.318583650909e+05 -5.338765736531e+02 -1.442121204999e+05 -1.304283194822e+05 -2.525993444452e-03 -2.064343028641e-03 -2.574104125886e-02 
0.000000000000e+00 0.000000000000e+00 2.000000000000e-02 0.000000000000e+00 8.461565718067e-04 -1.318632472025e+05 9.548499051174e+02 -1.433431604870e+05 -1.300805459538e+05 -3.068918300302e-03 3.395520756421e-03 -2.502152402015e-02 
4.000000000000e-03 0.000000000000e+00 1.800000000000e-02 8.062720961525e-07 9.001835501676e-04 -1.328834113125e+05 -3.689407100702e+02 -1.523760615331e+05 -1.341298231039e+05 1.658491318406e-03 -1.020440841726e-03 -2.106471090838e-02 
1.000000000000e-02 0.000000000000e+00 1.500000000000e-02 0.000000000000e+00 1.008987265317e-03 -2.143676658481e+05 1.288275949980e+03 -2.555352293565e+05 -2.060078288676e+05 6.822988173320e-03 1.753623569549e-02 -4.741691354794e-02 
0.000000000000e+00 0.000000000000e+00 1.500000000000e-02 0.000000000000e+00 1.025082243614e-03 -1.572265831912e+05 -1.503090543958e+04 -2.872945223964e+05 -1.976442677211e+05 1.723264173356e-02 -1.583489158533e-02 -6.018258588403e-02 
4.000000000000e-03 0.000000000000e+00 1.300000000000e-02 3.356510376833e-05 1.034702795328e-03 -2.025514703288e+05 -4.270435056810e+03 -1.963660488076e+05 -1.779719217989e+05 -2.902671458093e-02 -2.299919093269e-02 -2.081558294604e-02 
1.000000000000e-02 0.000000000000e+00 1.000000000000e-02 0.000000000000e+00 1.038150615902e-03 3.272185029056e+05 -3.740899147520e+04 4.484581009510e+05 2.770257869492e+05 2.170540526278e-02 -1.257651236472e-03 6.396616732484e-02 
0.000000000000e+00 0.000000000000e+00 1.000000000000e-02 0.000000000000e+00 1.115984006978e-03 2.463424311209e+05 2.288672866384e+03 1.439868284416e+05 1.325296527605e+05 4.825046449135e-02 -2.717806713889e-02 4.919862831790e-02 
5.000000000000e-03 0.000000000000e+00 7.000000000000e-03 5.395964823581e-05 1.348912346441e-03 1.956167194124e+04 7.397871024682e+03 -7.571214857470e+04 -4.231851561146e+04 9.719208535673e-02 -3.130704845549e-02 -9.042078058524e-02 
1.000000000000e-02 0.000000000000e+00 5.000000000000e-03 0.000000000000e+00 1.614902802430e-03 -7.304302519081e+04 7.682280164479e+02 5.244308918921e+02 -4.593012634435e+04 -1.318458722444e-01 5.639089304703e-02 4.249437333722e-02 
0.000000000000e+00 0.000000000000e+00 5.000000000000e-03 0.000000000000e+00 1.660092386367e-03 1.008152738014e+05 -1.400879437791e+05 4.689854260423e+05 2.309520642536e+05 -1.316049126569e-01 -8.611241543133e-02 7.108500860268e-02 
1.000000000000e-02 0.000000000000e+00 0.000000000000e+00 0.000000000000e+00 0.000000000000e+00 1.394554945386e+05 8.037013183047e+02 2.837315717651e+05 1.400204112590e+05 -2.612625218684e-03 2.566050526202e-03 3.442800141979e-01 
5.000000000000e-03 0.000000000000e+00 0.000000000000e+00 1.314367776040e-05 0.000000000000e+00 2.618478004174e+05 1.185540563614e+04 4.513522369128e+05 2.507957995909e+05 2.632052640626e-02 -3.453407500936e-03 4.344754097580e-01 
0.000000000000e+00 0.000000000000e+00 0.000000000000e+00 0.000000000000e+00 0.000000000000e+00 3.323146776878e+05 -1.156630934052e+02 5.993384191210e+05 3.276015392190e+05 1.022791165284e-02 -8.165344011322e-05 3.312364767848e-01 
14  17  15  14
15  17  18  15
18  17  20  18
14  15  12  14
30  28  31  30
12  15  13  12
18  20  21  18
21  20  23  21
18  21  19  18
21  23  24  21
24  23  26  24
21  24  22  21
5  2  4  5
4  2  3  4
5  4  8  5
8  4  9  8
5  8  10  5
24  26  27  24
27  26  29  27
24  27  25  24
10  8  12  10
27  29  31  27
19  16  18  19
6  7  3  6
25  22  24  25
1  3  2  1
13  10  12  13
9  11  8  9
32  31  29  32
15  18  16  15
14  12  11  14
11  12  8  11
28  25  27  28
7  9  4  7
16  13  15  16
22  19  21  22
7  4  3  7
28  27  31  28
VARIABLES  = "X","Y","Z", "DISPLACEMENT_X1", "DISPLACEMENT_Y1", "STRESS_XX", "STRESS_XY", "STRESS_YY", "STRESS_ZZ", "STRAIN_XX", "STRAIN_XY", "STRAIN_YY"
ZONE T="1.000000000000e-02s", N=32, E=38, F=FEPOINT, ET=QUADRILATERAL
STRANDID=1, SOLUTIONTIME=1.000000000000e-02
1.000000000000e-02 0.000000000000e+00 5.000000000000e-02 0.000000000000e+00 0.000000000000e+00 -2.981850087876e+06 -2.124951789794e+00 -4.422597258639e+06 -2.981778884043e+06 -4.656857539456e-06 -5.383446612146e-07 -1.017538883295e-01 
1.000000000000e-02 0.000000000000e+00 4.500000000000e-02 0.000000000000e+00 5.087786297645e-04 -2.981783925927e+06 8.659889390398e+01 -4.422403457871e+06 -2.981675065330e+06 -9.582935476500e-06 -8.416409806308e-07 -1.017560508306e-01 
5.000000000000e-03 0.000000000000e+00 5.000000000000e-02 1.818436563305e-08 0.000000000000e+00 -2.981831011885e+06 -2.786204160411e+00 -4.422775527414e+06 -2.981842655677e+06 -4.648924120574e-08 -1.371425361192e-06 -1.017595273129e-01 
5.000000000000e-03 0.000000000000e+00 4.300000000000e-02 4.527576597466e-08 7.123323804685e-04 -2.982162611301e+06 -3.829049104276e+02 -4.422595665490e+06 -2.981903074238e+06 -6.576471269721e-07 -3.155832443604e-05 -1.017622603102e-01 
1.000000000000e-02 0.000000000000e+00 4.000000000000e-02 0.000000000000e+00 1.017565005877e-03 -2.982211675418e+06 1.096439699971e+03 -4.424348826532e+06 -2.982624133215e+06 -1.688722078446e-05 4.285278740977e-06 -1.017528500798e-01 
0.000000000000e+00 0.000000000000e+00 5.000000000000e-02 0.000000000000e+00 0.000000000000e+00 -2.981793655566e+06 1.189382775137e+00 -4.422918474202e+06 -2.981884787947e+06 5.085607111017e-06 -1.039662620414e-07 -1.017628993882e-01 
0.000000000000e+00 0.000000000000e+00 4.500000000000e-02 0.000000000000e+00 5.088380099409e-04 -2.981707026049e+06 -5.112310231605e+01 -4.423041584278e+06 -2.981899542439e+06 7.889587387332e-06 -1.055907647839e-06 -1.017747116158e-01 
6.000000000000e-03 0.000000000000e+00 3.800000000000e-02 1.025731772574e-07 1.221153115668e-03 -2.982300114137e+06 5.819881859732e+02 -4.416409034185e+06 -2.979484982123e+06 -1.398180966419e-05 -8.582928395243e-05 -1.017827471131e-01 
0.000000000000e+00 0.000000000000e+00 4.000000000000e-02 0.000000000000e+00 1.017762858435e-03 -2.980684104567e+06 -6.872559852462e+02 -4.424481709641e+06 -2.982066069459e+06 3.116706327837e-05 -8.632432255828e-06 -1.018008914127e-01 
1.000000000000e-02 0.000000000000e+00 3.500000000000e-02 0.000000000000e+00 1.526044478038e-03 -2.983728201396e+06 -4.751678262054e+03 -4.421199682643e+06 -2.981968729210e+06 -7.501015131367e-05 -1.553793926139e-04 -1.015378508844e-01 
0.000000000000e+00 0.000000000000e+00 3.500000000000e-02 0.000000000000e+00 1.526830641211e-03 -2.978582724541e+06 -1.963943130858e+03 -4.436592061214e+06 -2.986068175504e+06 3.730290998041e-05 3.557397581061e-05 -1.018028697168e-01 
4.000000000000e-03 0.000000000000e+00 3.300000000000e-02 1.473608494011e-07 1.730562493491e-03 -2.991749952938e+06 -1.428965435730e+03 -4.405285146485e+06 -2.978809457119e+06 -6.102594180164e-06 -1.301395098831e-04 -1.017671517135e-01 
1.000000000000e-02 0.000000000000e+00 3.000000000000e-02 0.000000000000e+00 2.037178134491e-03 -2.936441482623e+06 4.143277623522e+04 -4.447876508510e+06 -2.973741854548e+06 1.645589840105e-04 5.547487510397e-04 -1.025458117597e-01 
0.000000000000e+00 0.000000000000e+00 3.000000000000e-02 0.000000000000e+00 2.037437839595e-03 -2.961656440456e+06 -1.485048281048e+04 -4.479626099018e+06 -2.996522737596e+06 2.782790936842e-04 -3.318180561610e-04 -1.025444562118e-01 
4.000000000000e-03 0.000000000000e+00 2.800000000000e-02 3.111732661785e-07 2.237258785655e-03 -3.016793019132e+06 -3.297543052746e+04 -4.242771747979e+06 -2.923826342268e+06 -8.602904757486e-04 -7.932158516313e-04 -1.006195987679e-01 
1.000000000000e-02 0.000000000000e+00 2.500000000000e-02 0.000000000000e+00 2.548115132556e-03 -2.982073780625e+06 9.552761349919e+04 -4.724780900800e+06 -3.102687875524e+06 1.367829481174e-03 1.592065514532e-03 -1.029325849756e-01 
0.000000000000e+00 0.000000000000e+00 2.500000000000e-02 0.000000000000e+00 2.547956946117e-03 -3.100130112807e+06 -8.516162016407e+04 -4.930138786559e+06 -3.232049613027e+06 1.146702150541e-03 -1.657342778328e-03 -1.004276548253e-01 
4.000000000000e-03 0.000000000000e+00 2.300000000000e-02 -1.362767272194e-06 2.766744149873e-03 -2.906250891027e+06 7.073227231436e+04 -4.075227086137e+06 -2.812649655035e+06 1.500619398859e-04 2.820494016623e-03 -1.097271008350e-01 
1.000000000000e-02 0.000000000000e+00 2.000000000000e-02 0.000000000000e+00 3.068778072152e-03 -2.935192071915e+06 -2.688001066931e+05 -4.882173901121e+06 -3.147041172295e+06 -1.100047140141e-03 -6.432069247584e-03 -1.029604390411e-01 
0.000000000000e+00 0.000000000000e+00 2.000000000000e-02 0.000000000000e+00 3.045057881864e-03 -2.882281453302e+06 2.333793158139e+05 -4.291883880490e+06 -2.889800644892e+06 -6.707274197713e-03 9.944926636345e-03 -9.855223747906e-02 
4.000000000000e-03 0.000000000000e+00 1.800000000000e-02 -5.579982055217e-06 3.236349944806e-03 -2.857475630838e+06 6.309039073905e+04 -4.090094618585e+06 -2.798620672972e+06 -1.428746903636e-03 4.662859980545e-03 -8.044903190672e-02 
1.000000000000e-02 0.000000000000e+00 1.500000000000e-02 0.000000000000e+00 3.676888671021e-03 -3.349031942996e+06 2.342740563053e+04 -5.479222723842e+06 -3.549671697969e+06 2.154861829250e-02 3.956643554239e-02 -1.365534223188e-01 
0.000000000000e+00 0.000000000000e+00 1.500000000000e-02 0.000000000000e+00 3.658339840560e-03 -2.966380319981e+06 4.252357519295e+05 -4.684835603569e+06 -3.080477995264e+06 2.751757675413e-02 -3.214320517975e-02 -1.411285575643e-01 
4.000000000000e-03 0.000000000000e+00 1.300000000000e-02 4.296618893761e-05 3.738053552124e-03 -3.411799195052e+06 -1.806956014707e+05 -4.917906644204e+06 -3.351827313126e+06 -5.459982639714e-02 -2.273328564343e-02 -1.032547333269e-01 
1.000000000000e-02 0.000000000000e+00 1.000000000000e-02 0.000000000000e+00 3.984221273257e-03 -3.804953081140e+05 -1.480775462526e+05 -9.164928504449e+05 -5.501800137590e+05 4.042711057064e-02 -2.952682612957e-02 6.046324699067e-02 
0.000000000000e+00 0.000000000000e+00 1.000000000000e-02 0.000000000000e+00 3.942323179739e-03 -1.362673556667e+05 1.443401848076e+06 1.182473431292e+06 3.973563789619e+05 6.524309050615e-02 4.829137877051e-02 8.630108458881e-02 
5.000000000000e-03 0.000000000000e+00 7.000000000000e-03 4.917073180278e-05 4.846670676340e-03 -1.227038030357e+06 -8.030389355646e+05 -7.760667790935e+06 -3.535529946693e+06 1.774420877857e-01 -3.356189769980e-02 -2.486599644552e-01 
1.000000000000e-02 0.000000000000e+00 5.000000000000e-03 0.000000000000e+00 5.717445996427e-03 -6.857811489025e+06 6.889080190184e+06 -1.333298624108e+07 -7.211402654451e+06 -1.874802160245e-01 3.709013656122e-01 -4.928723852003e-01 
0.000000000000e+00 0.000000000000e+00 5.000000000000e-03 0.000000000000e+00 4.904258078937e-03 -6.744128789049e+06 4.812855548246e+06 -7.594732750208e+06 -4.616623090818e+06 -2.298306523591e-01 1.327267435204e-01 -1.738487180756e-01 
1.000000000000e-02 0.000000000000e+00 0.000000000000e+00 0.000000000000e+00 0.000000000000e+00 8.558649850266e+06 -5.965178724151e+05 1.999920711448e+07 8.637081118159e+06 -3.298726293717e-02 4.715374419183e-02 2.535340978866e+00 
5.000000000000e-03 0.000000000000e+00 0.000000000000e+00 4.706616099921e-04 0.000000000000e+00 1.960666285972e+07 -3.010830703642e+06 4.641348031025e+07 2.278079711743e+07 1.743218089148e-01 -2.716341124668e-02 1.884677437168e+00 
0.000000000000e+00 0.000000000000e+00 0.000000000000e+00 0.000000000000e+00 0.000000000000e+00 1.542718538671e+07 3.306237732688e+06 7.614851826022e+07 2.797950029865e+07 -3.034471706322e-01 4.343559936299e-02 1.773520514379e+00 
14  17  15  14
15  17  18  15
18  17  20  18
14  15  12  14
30  28  31  30
12  15  13  12
18  20  21  18
21  20  23  21
18  21  19  18
21  23  24  21
24  23  26  24
21  24  22  21
5  2  4  5
4  2  3  4
5  4  8  5
8  4  9  8
5  8  10  5
24  26  27  24
27  26  29  27
24  27  25  24
10  8  12  10
27  29  31  27
19  16  18  19
6  7  3  6
25  22  24  25
1  3  2  1
13  10  12  13
9  11  8  9
32  31  29  32
15  18  16  15
14  12  11  14
11  12  8  11
28  25  27  28
7  9  4  7
16  13  15  16
22  19  21  22
7  4  3  7
28  27  31  28
VARIABLES  = "X","Y","Z", "DISPLACEMENT_X1", "DISPLACEMENT_Y1", "STRESS_XX", "STRESS_XY", "STRESS_YY", "STRESS_ZZ", "STRAIN_XX", "STRAIN_XY", "STRAIN_YY"
ZONE T="1.000000000000e-01s", N=32, E=38, F=FEPOINT, ET=QUADRILATERAL
STRANDID=1, SOLUTIONTIME=1.000000000000e-01
1.000000000000e-02 0.000000000000e+00 5.000000000000e-02 0.000000000000e+00 0.000000000000e+00 -4.990913475220e+06 2.789793247490e+01 -7.434146365348e+06 -4.990023570429e+06 -6.336766859141e-06 -4.006770800191e-07 -1.040728438976e-01 
1.000000000000e-02 0.000000000000e+00 4.500000000000e-02 0.000000000000e+00 5.203736895656e-04 -4.989907045690e+06 6.803227647732e+02 -7.434835465844e+06 -4.989897619156e+06 -9.161532809215e-06 2.037534689847e-06 -1.040760590573e-01 
5.000000000000e-03 0.000000000000e+00 5.000000000000e-02 2.742140035252e-08 0.000000000000e+00 -4.992105213066e+06 1.140451941599e+02 -7.434840273928e+06 -4.990778645190e+06 -2.624704677170e-06 -8.665081241618e-07 -1.040759904601e-01 
5.000000000000e-03 0.000000000000e+00 4.300000000000e-02 4.686358000981e-08 7.285536097489e-04 -4.994124590335e+06 -2.482448185125e+02 -7.427168868421e+06 -4.988515186798e+06 -1.143462707441e-05 -3.042008230092e-05 -1.040735014054e-01 
1.000000000000e-02 0.000000000000e+00 4.000000000000e-02 0.000000000000e+00 1.040797486939e-03 -4.982970372540e+06 1.120729212531e+04 -7.455545075919e+06 -4.995406656126e+06 8.114006097753e-06 4.474366207153e-05 -1.040928260337e-01 
0.000000000000e+00 0.000000000000e+00 5.000000000000e-02 0.000000000000e+00 0.000000000000e+00 -4.989655599101e+06 -2.200624795950e+02 -7.441725341041e+06 -4.992551922061e+06 1.059350511751e-05 -1.017720414258e-06 -1.040852954219e-01 
0.000000000000e+00 0.000000000000e+00 4.500000000000e-02 0.000000000000e+00 5.204473662290e-04 -4.990625982573e+06 -3.144894077242e+03 -7.446355703296e+06 -4.994793318279e+06 1.568508345813e-05 -1.425327033464e-05 -1.040934548063e-01 
6.000000000000e-03 0.000000000000e+00 3.800000000000e-02 7.925253233558e-08 1.248901823490e-03 -4.999268294330e+06 7.336955148330e+03 -7.377412628232e+06 -4.970683897543e+06 -6.896984787409e-05 -5.388499787405e-05 -1.040666154208e-01 
0.000000000000e+00 0.000000000000e+00 4.000000000000e-02 0.000000000000e+00 1.041010455240e-03 -4.985084463227e+06 -1.178424993811e+04 -7.460672443391e+06 -4.998301455083e+06 5.502679563161e-05 -5.498132544469e-05 -1.041297008320e-01 
1.000000000000e-02 0.000000000000e+00 3.500000000000e-02 0.000000000000e+00 1.561026735278e-03 -4.986414940680e+06 2.906044791611e+04 -7.492835449145e+06 -5.011670666009e+06 -1.462961877229e-05 -2.628624116531e-06 -1.038228079191e-01 
0.000000000000e+00 0.000000000000e+00 3.500000000000e-02 0.000000000000e+00 1.561589234933e-03 -4.980452926726e+06 -2.173048178470e+04 -7.523598902850e+06 -5.021599534021e+06 1.130542952505e-04 -6.501365398816e-05 -1.040855469775e-01 
4.000000000000e-03 0.000000000000e+00 3.300000000000e-02 2.017366226441e-07 1.769751746580e-03 -5.004455423240e+06 -2.148001752112e+02 -7.285091043455e+06 -4.935780330568e+06 -1.300080029588e-04 -1.293806137644e-04 -1.041065493431e-01 
1.000000000000e-02 0.000000000000e+00 3.000000000000e-02 0.000000000000e+00 2.083707309308e-03 -4.925900043362e+06 6.205630110536e+04 -7.597300017557e+06 -5.029440789954e+06 3.096427405702e-04 6.415230161980e-04 -1.049683700170e-01 
0.000000000000e+00 0.000000000000e+00 3.000000000000e-02 0.000000000000e+00 2.083609934776e-03 -4.968341901708e+06 -1.480895692028e+04 -7.627244068137e+06 -5.058338666167e+06 4.068285703234e-04 -3.231929725065e-04 -1.048851126159e-01 
4.000000000000e-03 0.000000000000e+00 2.800000000000e-02 2.426657777181e-07 2.287904012767e-03 -5.016259030771e+06 -1.297037486034e+04 -7.049177844412e+06 -4.846128478083e+06 -1.039367118703e-03 -7.097764430174e-04 -1.030375663322e-01 
1.000000000000e-02 0.000000000000e+00 2.500000000000e-02 0.000000000000e+00 2.606401914341e-03 -5.011674971298e+06 4.245193079101e+04 -7.962463242181e+06 -5.209072880791e+06 1.517757929888e-03 1.331579476651e-03 -1.052618162139e-01 
0.000000000000e+00 0.000000000000e+00 2.500000000000e-02 0.000000000000e+00 2.605838665067e-03 -5.185722647630e+06 -1.077266384880e+05 -8.218367768629e+06 -5.381030225954e+06 1.299208774958e-03 -1.763861679036e-03 -1.026675947151e-01 
4.000000000000e-03 0.000000000000e+00 2.300000000000e-02 -1.696364479379e-06 2.830065532687e-03 -4.917634957337e+06 1.554138395352e+05 -6.890892986710e+06 -4.744312278454e+06 -2.569784951498e-05 3.186001230749e-03 -1.119729510709e-01 
1.000000000000e-02 0.000000000000e+00 2.000000000000e-02 0.000000000000e+00 3.139089079830e-03 -4.839713059651e+06 -3.418166791476e+05 -8.106133814386e+06 -5.199075192146e+06 -7.947732610599e-04 -6.770663740518e-03 -1.055918264424e-01 
0.000000000000e+00 0.000000000000e+00 2.000000000000e-02 0.000000000000e+00 3.113830343799e-03 -4.946416885861e+06 3.519627660518e+05 -7.228271718465e+06 -4.891018842566e+06 -6.827994460511e-03 1.051087601944e-02 -1.005779860371e-01 
4.000000000000e-03 0.000000000000e+00 1.800000000000e-02 -6.551758634337e-06 3.309531807356e-03 -4.959430996351e+06 2.433035890359e+05 -7.234649379227e+06 -4.892086339724e+06 -1.425497225415e-03 5.465500767694e-03 -8.295321833023e-02 