 TITLE = "Time curves in points"
 VARIABLES = "TIME"  "DISPLACEMENT_X1"  "DISPLACEMENT_Y1"  "STRESS_XX"  "STRESS_XY"  "STRESS_YY"  "STRESS_ZZ"  "STRAIN_XX"  "STRAIN_XY"  "STRAIN_YY"  p_(1st_Invariant)  q_(2nd_Invariant)   Effective_Strain
 ZONE T="POINT=POINT6"
0.000000000000e+00 0.000000000000e+00 0.000000000000e+00 -1.000000000000e+05 0.000000000000e+00 -1.000000000000e+05 -1.000000000000e+05 0.000000000000e+00 0.000000000000e+00 0.000000000000e+00 1.000000000000e+05 0.000000000000e+00  0.000000000000e+00
1.000000000000e-03 2.071092380995e-09 0.000000000000e+00 -1.321012457881e+05 -2.767345957884e-02 -1.481519457179e+05 -1.321012753354e+05 5.207247268073e-08 -9.752159024518e-08 -2.828591118839e-02 1.374514889471e+05 1.605068515627e+04  2.828593722517e-02
2.000000000000e-03 3.847131055244e-10 0.000000000000e+00 -2.751338690066e+05 -7.642511559882e-02 -3.627010287568e+05 -2.751339578974e+05 9.060386656539e-08 -1.608465513852e-07 -7.472335681343e-02 3.043229518870e+05 8.756711530493e+04  7.472340211592e-02
3.000000000000e-03 1.787658740844e-08 0.000000000000e+00 -7.718627160010e+05 -8.096229292912e+00 -1.107788575772e+06 -7.718605158918e+05 -9.297582610518e-08 -1.446531063009e-06 -9.463336882847e-02 8.838372692216e+05 3.359269601237e+05  9.463332237376e-02
4.000000000000e-03 1.540545954590e-08 0.000000000000e+00 -2.435208044980e+06 5.841629188015e+00 -3.602815200796e+06 -2.435209300562e+06 -6.679653224584e-08 -1.235404224402e-06 -1.009326150487e-01 2.824410848779e+06 1.167606528069e+06  1.009325816732e-01
5.000000000000e-03 2.075889621940e-08 0.000000000000e+00 -2.715484237919e+06 -5.848181577543e+01 -4.023183320508e+06 -2.715467031515e+06 -1.280102629779e-07 -1.660057917772e-06 -1.013953470200e-01 3.151378196647e+06 1.307707689799e+06  1.013952830557e-01
6.000000000000e-03 1.413411290182e-08 0.000000000000e+00 -2.979548210091e+06 1.479254072745e+01 -4.419333804137e+06 -2.979552820339e+06 -6.536289791108e-08 -1.239666795689e-06 -1.017738562290e-01 3.459478278189e+06 1.439783289155e+06  1.017738235702e-01
7.000000000000e-03 1.790655503634e-08 0.000000000000e+00 -2.921664035234e+06 -1.548718579943e+01 -4.332505619627e+06 -2.921667882078e+06 -6.791038324937e-08 -1.441192404078e-06 -1.016775415835e-01 3.391945845646e+06 1.410839661230e+06  1.016775076590e-01
8.000000000000e-03 1.818570267287e-08 0.000000000000e+00 -2.937934383845e+06 -1.193348606847e+00 -4.356934068010e+06 -2.937947407501e+06 -4.272889979511e-08 -1.362737618320e-06 -1.016999062730e-01 3.410938619785e+06 1.418993172384e+06  1.016998849359e-01
9.000000000000e-03 1.817297191586e-08 0.000000000000e+00 -2.960475307230e+06 -2.839240675788e+00 -4.390742190095e+06 -2.960487032296e+06 -4.626918475622e-08 -1.371712294237e-06 -1.017306304913e-01 3.437234843207e+06 1.430261020377e+06  1.017306073845e-01
1.000000000000e-02 1.818436563305e-08 0.000000000000e+00 -2.981831011885e+06 -2.786204160411e+00 -4.422775527414e+06 -2.981842655677e+06 -4.648924120574e-08 -1.371425361192e-06 -1.017595273129e-01 3.462149731659e+06 1.440938693676e+06  1.017595040961e-01
2.000000000000e-02 1.870343186987e-08 0.000000000000e+00 -5.035108638424e+06 -1.173088774196e+01 -7.502644129785e+06 -5.035101210849e+06 -9.075266183939e-08 -1.412945023568e-06 -1.041418322168e-01 5.857617993019e+06 2.467539205240e+06  1.041417868693e-01
3.000000000000e-02 1.940921611939e-08 0.000000000000e+00 -3.622965878491e+06 -2.678631357437e+01 -5.384399346061e+06 -3.622946253703e+06 -1.172741924673e-07 -1.478372425690e-06 -1.026075349439e-01 4.210103826085e+06 1.761443280657e+06  1.026074763388e-01
4.000000000000e-02 2.435511483086e-08 0.000000000000e+00 -4.338877264870e+06 -5.950883670232e+01 -6.456877137102e+06 -4.338301980317e+06 -1.357300013183e-06 -1.623835272598e-06 -1.034037384937e-01 5.044685460763e+06 2.118287575605e+06  1.034030598886e-01
5.000000000000e-02 2.609263045084e-08 0.000000000000e+00 -3.994165055119e+06 -1.488614361897e+02 -5.940328623427e+06 -3.993797736001e+06 -8.479772047087e-07 -2.062644374494e-06 -1.029825264808e-01 4.642763804849e+06 1.946347270941e+06  1.029821025568e-01
6.000000000000e-02 2.355482488375e-08 0.000000000000e+00 -4.486075828130e+06 2.139883979114e+01 -6.677844348469e+06 -4.485568375448e+06 -1.187497335809e-06 -1.233679571431e-06 -1.035827125680e-01 5.216496184016e+06 2.192022291047e+06  1.035821188465e-01
7.000000000000e-02 2.649863167477e-08 0.000000000000e+00 -4.555905574466e+06 1.515952545195e+02 -6.780734939362e+06 -4.554656558123e+06 -2.504723818523e-06 -7.711305739015e-07 -1.036427607010e-01 5.297099023984e+06 2.225454151431e+06  1.036415083704e-01
8.000000000000e-02 2.640652371102e-08 0.000000000000e+00 -4.737400959090e+06 1.405564617039e+02 -7.053093930067e+06 -4.736198343645e+06 -2.408114716013e-06 -8.170245225579e-07 -1.038318543668e-01 5.508897744267e+06 2.316294525642e+06  1.038306503401e-01
9.000000000000e-02 2.483147954465e-08 0.000000000000e+00 -4.896109952026e+06 1.792769440371e+02 -7.291076418108e+06 -4.894874965954e+06 -2.475963857287e-06 -6.545815787618e-07 -1.039982464952e-01 5.694020445363e+06 2.395584217993e+06  1.039970085415e-01
1.000000000000e-01 2.742140035252e-08 0.000000000000e+00 -4.992105213066e+06 1.140451941599e+02 -7.434840273928e+06 -4.990778645190e+06 -2.624704677170e-06 -8.665081241618e-07 -1.040759904601e-01 5.805908044061e+06 2.443398622866e+06  1.040746781434e-01
1.100000000000e-01 2.717647169563e-08 0.000000000000e+00 -5.089843132216e+06 1.229898015379e+02 -7.581425475989e+06 -5.088507916052e+06 -2.641542382778e-06 -8.316811261725e-07 -1.041711196482e-01 5.919925508085e+06 2.492250229211e+06  1.041697989121e-01
1.200000000000e-01 2.745778614188e-08 0.000000000000e+00 -5.215538099813e+06 1.230563980573e+02 -7.769704627762e+06 -5.214097584442e+06 -2.823382267480e-06 -8.229306754758e-07 -1.042807772741e-01 6.066446770672e+06 2.554887099101e+06  1.042793656213e-01
1.300000000000e-01 2.222462674595e-08 0.000000000000e+00 -5.307668177990e+06 -3.216488360274e+02 -7.884879191423e+06 -5.297019458781e+06 -1.687695216174e-05 -2.165959500338e-06 -1.043300090456e-01 6.163188942732e+06 2.582551898758e+06  1.043215716609e-01
1.400000000000e-01 2.283216299286e-08 0.000000000000e+00 -5.407947435260e+06 -2.635153670550e+02 -8.037585395144e+06 -5.398213656151e+06 -1.550412761720e-05 -1.992437144041e-06 -1.044073356691e-01 6.281248828851e+06 2.634518375316e+06  1.043995845257e-01
1.500000000000e-01 2.277580699470e-08 0.000000000000e+00 -5.491687209364e+06 -2.671728675693e+02 -8.162709252777e+06 -5.481759117422e+06 -1.579070457920e-05 -2.003076673367e-06 -1.044686766455e-01 6.378718526521e+06 2.675999942074e+06  1.044607822459e-01
1.600000000000e-01 2.278265974196e-08 0.000000000000e+00 -5.578948662041e+06 -2.632597814235e+02 -8.293434333119e+06 -5.568953735040e+06 -1.588776813388e-05 -1.991698672951e-06 -1.045319040746e-01 6.480445576733e+06 2.719496948169e+06  1.045239611531e-01
1.700000000000e-01 2.277894529299e-08 0.000000000000e+00 -5.662266114970e+06 -2.602477344104e+02 -8.418216976977e+06 -5.652193774255e+06 -1.599847349994e-05 -1.983057774224e-06 -1.045913231003e-01 6.577558955401e+06 2.761000848444e+06  1.045833248377e-01
1.800000000000e-01 2.278073295703e-08 0.000000000000e+00 -5.746594977516e+06 -2.571578795141e+02 -8.544519410693e+06 -5.736446289612e+06 -1.610604552756e-05 -1.974326091206e-06 -1.046505808819e-01 6.675853559274e+06 2.803012591816e+06  1.046425288446e-01
1.900000000000e-01 2.277766459793e-08 0.000000000000e+00 -5.827451854454e+06 -2.541054624306e+02 -8.665622495917e+06 -5.817230267949e+06 -1.620728467655e-05 -1.965825000890e-06 -1.047065841557e-01 6.770101539440e+06 2.843295248708e+06  1.046984815095e-01
2.000000000000e-01 2.277592681871e-08 0.000000000000e+00 -5.912408013467e+06 -2.508836546909e+02 -8.792866010794e+06 -5.902110127870e+06 -1.631174764494e-05 -1.956979174916e-06 -1.047645946066e-01 6.869128050710e+06 2.885620754113e+06  1.047564397401e-01
2.100000000000e-01 2.276972705300e-08 0.000000000000e+00 -5.998977009873e+06 -2.475043741960e+02 -8.922526285071e+06 -5.988601823668e+06 -1.641605339455e-05 -1.947836133959e-06 -1.048228534202e-01 6.970035039537e+06 2.928750682609e+06  1.048146464119e-01
2.200000000000e-01 2.276218053614e-08 0.000000000000e+00 -6.078325863747e+06 -2.443174779747e+02 -9.041373425845e+06 -6.067880206488e+06 -1.650982841904e-05 -1.939333798359e-06 -1.048755152016e-01 7.062526498693e+06 2.968284205624e+06  1.048672613159e-01
2.300000000000e-01 2.275351296333e-08 0.000000000000e+00 -6.167970610174e+06 -2.406916221699e+02 -9.175642310690e+06 -6.157445641660e+06 -1.661391270640e-05 -1.929793856022e-06 -1.049341905227e-01 7.167019520841e+06 3.012948001011e+06  1.049258846060e-01
2.400000000000e-01 2.274657934841e-08 0.000000000000e+00 -6.246932704661e+06 -2.375630450325e+02 -9.293912031189e+06 -6.236338348284e+06 -1.670372735815e-05 -1.921674656702e-06 -1.049851667188e-01 7.259061028045e+06 3.052290322176e+06  1.049768159046e-01
2.500000000000e-01 2.273552251483e-08 0.000000000000e+00 -6.329960117862e+06 -2.340217973919e+02 -9.418271168949e+06 -6.319292947528e+06 -1.679676086954e-05 -1.912605054640e-06 -1.050380761571e-01 7.355841411446e+06 3.093658455795e+06  1.050296788362e-01
2.600000000000e-01 2.272886342993e-08 0.000000000000e+00 -6.409879730950e+06 -2.309229000842e+02 -9.537976396326e+06 -6.399142861058e+06 -1.688467138608e-05 -1.904768211401e-06 -1.050883512101e-01 7.448999662778e+06 3.133478922092e+06  1.050799099436e-01
2.700000000000e-01 2.272449112149e-08 0.000000000000e+00 -6.494674762833e+06 -2.275123510412e+02 -9.664984518236e+06 -6.483864098648e+06 -1.697655761237e-05 -1.896254178868e-06 -1.051410118307e-01 7.547841126572e+06 3.175728912404e+06  1.051325246312e-01
2.800000000000e-01 2.272568237021e-08 0.000000000000e+00 -6.573227237472e+06 -2.242137743906e+02 -9.782643686024e+06 -6.562348730657e+06 -1.705997125355e-05 -1.888123816029e-06 -1.051891828703e-01 7.639406551384e+06 3.214869529494e+06  1.051806539732e-01
2.900000000000e-01 2.272666624377e-08 0.000000000000e+00 -6.657197150672e+06 -2.208292768500e+02 -9.908417491076e+06 -6.646246192194e+06 -1.714795699366e-05 -1.879883429053e-06 -1.052400430969e-01 7.737286944647e+06 3.256709650951e+06  1.052314702166e-01
3.000000000000e-01 2.272838789357e-08 0.000000000000e+00 -6.732971851697e+06 -2.177964462042e+02 -1.002191706934e+07 -6.721955877562e+06 -1.722596410678e-05 -1.872587852828e-06 -1.052853886312e-01 7.825614932865e+06 3.294467039459e+06  1.052767767561e-01
3.100000000000e-01 2.272942395925e-08 0.000000000000e+00 -6.811148538976e+06 -2.146910145775e+02 -1.013901521472e+07 -6.800065783911e+06 -1.730517682659e-05 -1.865202666193e-06 -1.053316391963e-01 7.916743179202e+06 3.333421891768e+06  1.053229877236e-01
3.200000000000e-01 2.273144700875e-08 0.000000000000e+00 -6.885692606107e+06 -2.115742504305e+02 -1.025067233247e+07 -6.874546230980e+06 -1.737979502966e-05 -1.857874469622e-06 -1.053752465032e-01 8.003637056521e+06 3.370566756668e+06  1.053665577299e-01
3.300000000000e-01 2.273476319858e-08 0.000000000000e+00 -6.960731194980e+06 -2.085763598754e+02 -1.036307094640e+07 -6.949521085235e+06 -1.745373801224e-05 -1.850901357839e-06 -1.054186679963e-01 8.091107742206e+06 3.407958653386e+06  1.054099422598e-01
3.400000000000e-01 2.273525553247e-08 0.000000000000e+00 -7.025287310596e+06 -2.058255053877e+02 -1.045976806622e+07 -7.014022352747e+06 -1.751673044084e-05 -1.844568578861e-06 -1.054556475657e-01 8.166359243189e+06 3.440127086039e+06  1.054468903401e-01
3.500000000000e-01 2.273791777102e-08 0.000000000000e+00 -7.084629884727e+06 -2.034640263456e+02 -1.054865727268e+07 -7.073315038699e+06 -1.757352058868e-05 -1.839179050448e-06 -1.054893412100e-01 8.235534065369e+06 3.469698665729e+06  1.054805555957e-01
3.600000000000e-01 2.273761461181e-08 0.000000000000e+00 -7.136504206657e+06 -2.013246237465e+02 -1.062635989547e+07 -7.125145790843e+06 -1.762272710111e-05 -1.834335542435e-06 -1.055185623829e-01 8.296003297658e+06 3.495548754632e+06  1.055097521709e-01
3.700000000000e-01 2.273640467270e-08 0.000000000000e+00 -7.182770613755e+06 -1.993846172410e+02 -1.069566241661e+07 -7.171373337078e+06 -1.766631256601e-05 -1.829974023690e-06 -1.055444446578e-01 8.349935455813e+06 3.518604302209e+06  1.055356126581e-01
3.800000000000e-01 2.273747492596e-08 0.000000000000e+00 -7.224970626136e+06 -1.976381483155e+02 -1.075887430458e+07 -7.213538072983e+06 -1.770563356267e-05 -1.826071668466e-06 -1.055679065228e-01 8.399127667901e+06 3.539633818723e+06  1.055590548671e-01
3.900000000000e-01 2.273704642729e-08 0.000000000000e+00 -7.263934575293e+06 -1.959219604226e+02 -1.081723866123e+07 -7.252469372005e+06 -1.774182207220e-05 -1.822259233217e-06 -1.055894470461e-01 8.444547536178e+06 3.559050554137e+06  1.055805773002e-01
4.000000000000e-01 2.273610366803e-08 0.000000000000e+00 -7.300050439848e+06 -1.944184674120e+02 -1.087133711051e+07 -7.288555075278e+06 -1.777507867576e-05 -1.818936214586e-06 -1.056093097119e-01 8.486647541880e+06 3.577048222088e+06  1.056004233415e-01
4.100000000000e-01 2.273450099668e-08 0.000000000000e+00 -7.334204367580e+06 -1.929235448006e+02 -1.092249692419e+07 -7.322680550711e+06 -1.780629953671e-05 -1.815648499537e-06 -1.056280028467e-01 8.526460614160e+06 3.594068336596e+06  1.056191008695e-01
4.200000000000e-01 2.273303836751e-08 0.000000000000e+00 -7.367666804089e+06 -1.914725196331e+02 -1.097262097087e+07 -7.356115124067e+06 -1.783673284691e-05 -1.812472006053e-06 -1.056462329969e-01 8.565467633008e+06 3.610743880821e+06  1.056373158065e-01
4.300000000000e-01 2.273162455415e-08 0.000000000000e+00 -7.401101484269e+06 -1.900144025777e+02 -1.102270361704e+07 -7.389522035969e+06 -1.786692481738e-05 -1.809294514541e-06 -1.056643653943e-01 8.604442379093e+06 3.627405733400e+06  1.056554331114e-01
4.400000000000e-01 2.273015323542e-08 0.000000000000e+00 -7.433850856236e+06 -1.885589215139e+02 -1.107175952718e+07 -7.422244131504e+06 -1.789644926376e-05 -1.806137147796e-06 -1.056820464833e-01 8.642618171640e+06 3.643725912494e+06  1.056730994415e-01
4.500000000000e-01 2.272886527015e-08 0.000000000000e+00 -7.466978424107e+06 -1.871239981272e+02 -1.112138239838e+07 -7.455344291208e+06 -1.792598490119e-05 -1.803037936114e-06 -1.056998527878e-01 8.681235037899e+06 3.660234922353e+06  1.056908909816e-01
4.600000000000e-01 2.272751507397e-08 0.000000000000e+00 -7.500017385192e+06 -1.856706149600e+02 -1.117087244704e+07 -7.488355880593e+06 -1.795535051520e-05 -1.799912920674e-06 -1.057175326661e-01 8.719748570942e+06 3.676699698424e+06  1.057085561805e-01
4.700000000000e-01 2.272621125101e-08 0.000000000000e+00 -7.533054195801e+06 -1.842356988524e+02 -1.122035949262e+07 -7.521365410000e+06 -1.798449007837e-05 -1.796841089936e-06 -1.057351336097e-01 8.758259699474e+06 3.693163576569e+06  1.057261425577e-01
4.800000000000e-01 2.272497931151e-08 0.000000000000e+00 -7.566080975723e+06 -1.827883201106e+02 -1.126983157692e+07 -7.554364944080e+06 -1.801346424775e-05 -1.793756252397e-06 -1.057526520467e-01 8.796759165574e+06 3.709622506502e+06  1.057436465110e-01
4.900000000000e-01 2.272373386669e-08 0.000000000000e+00 -7.598936773382e+06 -1.813403463273e+02 -1.131904756060e+07 -7.587193646481e+06 -1.804215277992e-05 -1.790683642014e-06 -1.057700038633e-01 8.835059326822e+06 3.725996242879e+06  1.057609839866e-01
5.000000000000e-01 2.272247721068e-08 0.000000000000e+00 -7.631560147801e+06 -1.799083372992e+02 -1.136791555617e+07 -7.619790185815e+06 -1.807044336328e-05 -1.787657982208e-06 -1.057871587415e-01 8.873088629930e+06 3.742254284239e+06  1.057781247228e-01
5.100000000000e-01 2.272098982620e-08 0.000000000000e+00 -7.664892476887e+06 -1.784442318617e+02 -1.141784561072e+07 -7.653095132076e+06 -1.809918671383e-05 -1.784577893555e-06 -1.058046107475e-01 8.911944406561e+06 3.758865703879e+06  1.057955623604e-01
5.200000000000e-01 2.271966071229e-08 0.000000000000e+00 -7.698340972345e+06 -1.769636761022e+02 -1.146794970883e+07 -7.686516163772e+06 -1.812788944775e-05 -1.781476823480e-06 -1.058220472702e-01 8.950935614984e+06 3.775535041285e+06  1.058129845351e-01
5.300000000000e-01 2.271831073460e-08 0.000000000000e+00 -7.731403754206e+06 -1.754980905975e+02 -1.151747612407e+07 -7.719551838319e+06 -1.815609719211e-05 -1.778420397739e-06 -1.058392082511e-01 8.989477238865e+06 3.792012231181e+06  1.058301314154e-01
5.400000000000e-01 2.271695527740e-08 0.000000000000e+00 -7.765139726889e+06 -1.740016241561e+02 -1.156801104196e+07 -7.753260191676e+06 -1.818471364308e-05 -1.775313063045e-06 -1.058566430755e-01 9.028803653510e+06 3.808824989010e+06  1.058475519349e-01
5.500000000000e-01 2.271558438972e-08 0.000000000000e+00 -7.798841601745e+06 -1.725034920076e+02 -1.161849497961e+07 -7.786934515192e+06 -1.821313568405e-05 -1.772215801539e-06 -1.058739846610e-01 9.068090365515e+06 3.825620830449e+06  1.058648793127e-01
5.600000000000e-01 2.271413378367e-08 0.000000000000e+00 -7.832125958893e+06 -1.710404254526e+02 -1.166835364805e+07 -7.820191725303e+06 -1.824102028524e-05 -1.769203979683e-06 -1.058910378743e-01 9.106890444083e+06 3.842208718187e+06  1.058819185869e-01
5.700000000000e-01 2.271278243301e-08 0.000000000000e+00 -7.866117076301e+06 -1.694996663415e+02 -1.171927097076e+07 -7.854155102541e+06 -1.826939185748e-05 -1.766046040756e-06 -1.059083783893e-01 9.146514383201e+06 3.859148796713e+06  1.058992449195e-01
5.800000000000e-01 2.271131252543e-08 0.000000000000e+00 -7.899643367199e+06 -1.680153132145e+02 -1.176949220122e+07 -7.887654113551e+06 -1.829717283463e-05 -1.763016648433e-06 -1.059254084146e-01 9.185596560655e+06 3.875857379250e+06  1.059162610576e-01
5.900000000000e-01 2.270991950783e-08 0.000000000000e+00 -7.933789315084e+06 -1.664704175249e+02 -1.182064167009e+07 -7.921772283951e+06 -1.832533946949e-05 -1.759877337382e-06 -1.059426789282e-01 9.225401089708e+06 3.892874792172e+06  1.059335174911e-01
6.000000000000e-01 2.270851978285e-08 0.000000000000e+00 -7.967373728843e+06 -1.649580690432e+02 -1.187095003846e+07 -7.955329401681e+06 -1.835289965089e-05 -1.756817277360e-06 -1.059595928703e-01 9.264551056328e+06 3.909612398003e+06  1.059504176563e-01
6.100000000000e-01 2.270701816808e-08 0.000000000000e+00 -8.001466924465e+06 -1.634324006114e+02 -1.192202078262e+07 -7.989394983601e+06 -1.838066224166e-05 -1.753743342740e-06 -1.059766902676e-01 9.304294230229e+06 3.926603756545e+06  1.059675011756e-01
6.200000000000e-01 2.270556387942e-08 0.000000000000e+00 -8.035034936205e+06 -1.619034658254e+02 -1.197230469542e+07 -8.022935760497e+06 -1.840792805410e-05 -1.750675998418e-06 -1.059934529633e-01 9.343425130708e+06 3.943333278354e+06  1.059842502416e-01
6.300000000000e-01 2.270396604364e-08 0.000000000000e+00 -8.068703184622e+06 -1.604263678813e+02 -1.202273918510e+07 -8.056576863826e+06 -1.843499031580e-05 -1.747724806332e-06 -1.060101955936e-01 9.382673077848e+06 3.960113095214e+06  1.060009793439e-01
6.400000000000e-01 2.270274637068e-08 0.000000000000e+00 -8.102913572840e+06 -1.588541476102e+02 -1.207398559387e+07 -8.090759591670e+06 -1.846245037569e-05 -1.744597076865e-06 -1.060271361496e-01 9.422552919458e+06 3.977162949353e+06  1.060179061732e-01
6.500000000000e-01 2.270123362210e-08 0.000000000000e+00 -8.136624761036e+06 -1.573378884344e+02 -1.212448439210e+07 -8.124443596185e+06 -1.848932398867e-05 -1.741593221432e-06 -1.060437595741e-01 9.461850916441e+06 3.993964154531e+06  1.060345161640e-01
6.600000000000e-01 2.269988713690e-08 0.000000000000e+00 -8.170922389003e+06 -1.557764692828e+02 -1.217586173641e+07 -8.158713595869e+06 -1.851652306758e-05 -1.738512894138e-06 -1.060606015487e-01 9.501832573760e+06 4.011057688420e+06  1.060513445423e-01
6.700000000000e-01 2.269853815125e-08 0.000000000000e+00 -8.204626353880e+06 -1.542524023388e+02 -1.222634987715e+07 -8.192390449657e+06 -1.854310183875e-05 -1.735518746328e-06 -1.060770831076e-01 9.541122226894e+06 4.027855423195e+06  1.060678128149e-01
6.800000000000e-01 2.269713230335e-08 0.000000000000e+00 -8.238162615191e+06 -1.527267980950e+02 -1.227658688291e+07 -8.225899768734e+06 -1.856940679840e-05 -1.732533916332e-06 -1.060934154569e-01 9.580216422279e+06 4.044569642152e+06  1.060841320149e-01
6.900000000000e-01 2.269573499568e-08 0.000000000000e+00 -8.272190966985e+06 -1.511756017779e+02 -1.232756112758e+07 -8.259900820203e+06 -1.859595212510e-05 -1.729511478890e-06 -1.061099195553e-01 9.619884304922e+06 4.061529188647e+06  1.061006228437e-01
7.000000000000e-01 2.269432509693e-08 0.000000000000e+00 -8.305694271037e+06 -1.496519874682e+02 -1.237774894586e+07 -8.293377282593e+06 -1.862194486761e-05 -1.726554905150e-06 -1.061261026513e-01 9.658940166496e+06 4.078227127134e+06  1.061167929465e-01
7.100000000000e-01 2.269298571387e-08 0.000000000000e+00 -8.339233924823e+06 -1.481173765273e+02 -1.242799128572e+07 -8.326890094018e+06 -1.864783336905e-05 -1.723589060709e-06 -1.061422379279e-01 9.698038434854e+06 4.094943237866e+06  1.061329152818e-01
7.200000000000e-01 2.269166923838e-08 0.000000000000e+00 -8.373248497146e+06 -1.465815882874e+02 -1.247894518761e+07 -8.360877498109e+06 -1.867393008815e-05 -1.720632876642e-06 -1.061585354772e-01 9.737690394289e+06 4.111896155057e+06  1.061491997859e-01
7.300000000000e-01 2.269026594058e-08 0.000000000000e+00 -8.406719128174e+06 -1.450305279725e+02 -1.252908426775e+07 -8.394321397361e+06 -1.869950399713e-05 -1.717659524878e-06 -1.061745077085e-01 9.776708264430e+06 4.128577973608e+06  1.061651592333e-01
7.400000000000e-01 2.268896742110e-08 0.000000000000e+00 -8.440184758341e+06 -1.435011631410e+02 -1.257921596040e+07 -8.427760341583e+06 -1.872493242727e-05 -1.714739346211e-06 -1.061904140004e-01 9.815720353442e+06 4.145257382620e+06  1.061810528140e-01
7.500000000000e-01 2.268739705482e-08 0.000000000000e+00 -8.474063139023e+06 -1.419764498160e+02 -1.262996617500e+07 -8.461611795041e+06 -1.875048842505e-05 -1.711839592099e-06 -1.062064523540e-01 9.855213703022e+06 4.162142683659e+06  1.061970783927e-01
7.600000000000e-01 2.268630678073e-08 0.000000000000e+00 -8.507277645547e+06 -1.404310051309e+02 -1.267972181200e+07 -8.494799867983e+06 -1.877547654166e-05 -1.708912250928e-06 -1.062221140474e-01 9.893933108510e+06 4.178697034540e+06  1.062127275950e-01
7.700000000000e-01 2.268491834139e-08 0.000000000000e+00 -8.540486645109e+06 -1.389086843970e+02 -1.272946935192e+07 -8.527982499433e+06 -1.880030542789e-05 -1.706039904440e-06 -1.062377120646e-01 9.932646165488e+06 4.195248762531e+06  1.062283132007e-01
7.800000000000e-01 2.268360702296e-08 0.000000000000e+00 -8.573663257338e+06 -1.373815705910e+02 -1.277916844360e+07 -8.561132796718e+06 -1.882498793405e-05 -1.703169746752e-06 -1.062532343100e-01 9.971321499220e+06 4.211784403064e+06  1.062438231079e-01
7.900000000000e-01 2.268231371335e-08 0.000000000000e+00 -8.606782906395e+06 -1.358550229150e+02 -1.282878228588e+07 -8.594226208980e+06 -1.884950197720e-05 -1.700311765665e-06 -1.062686700037e-01 1.000993046709e+07 4.228291718307e+06  1.062592465474e-01
8.000000000000e-01 2.268102767634e-08 0.000000000000e+00 -8.640342490396e+06 -1.343160269512e+02 -1.287905527680e+07 -8.627759254623e+06 -1.887420176878e-05 -1.697441614113e-06 -1.062842502100e-01 1.004905234061e+07 4.245018398065e+06  1.062748144068e-01
8.100000000000e-01 2.267981351510e-08 0.000000000000e+00 -8.673339720258e+06 -1.327778909031e+02 -1.292848584880e+07 -8.660730390939e+06 -1.889839396328e-05 -1.694584228913e-06 -1.062995102694e-01 1.008751865333e+07 4.261464790674e+06  1.062900623730e-01
8.200000000000e-01 2.267859468889e-08 0.000000000000e+00 -8.706332886514e+06 -1.312513624318e+02 -1.297791046143e+07 -8.693697517903e+06 -1.892244400179e-05 -1.691759162547e-06 -1.063147104432e-01 1.012598028862e+07 4.277909260369e+06  1.063052505247e-01
8.300000000000e-01 2.267748625809e-08 0.000000000000e+00 -8.739241967999e+06 -1.297308475813e+02 -1.302720915357e+07 -8.726580642550e+06 -1.894632713133e-05 -1.688955877612e-06 -1.063298144821e-01 1.016434392137e+07 4.294311853166e+06  1.063203426249e-01
8.400000000000e-01 2.267625355513e-08 0.000000000000e+00 -8.772060484934e+06 -1.282026698621e+02 -1.307637229328e+07 -8.759373320143e+06 -1.897001272088e-05 -1.686149121863e-06 -1.063448203396e-01 1.020260203279e+07 4.310669399312e+06  1.063353366425e-01
8.500000000000e-01 2.267584085978e-08 0.000000000000e+00 -8.804812873756e+06 -1.266268433940e+02 -1.312543639475e+07 -8.792099930883e+06 -1.899355385674e-05 -1.683265831062e-06 -1.063597399675e-01 1.024078306646e+07 4.326994004755e+06  1.063502445026e-01
8.600000000000e-01 2.267466239759e-08 0.000000000000e+00 -8.837467584397e+06 -1.251047640294e+02 -1.317435430700e+07 -8.824728994304e+06 -1.901688844203e-05 -1.680491100925e-06 -1.063745598871e-01 1.027885029523e+07 4.343270033688e+06  1.063650527577e-01
8.700000000000e-01 2.267356416109e-08 0.000000000000e+00 -8.870524618103e+06 -1.235514524501e+02 -1.322387500736e+07 -8.857760101796e+06 -1.904038920126e-05 -1.677669993592e-06 -1.063895066661e-01 1.031738657575e+07 4.359746667220e+06  1.063799877891e-01
8.800000000000e-01 2.267214051032e-08 0.000000000000e+00 -8.903002866049e+06 -1.221093980653e+02 -1.327252869109e+07 -8.890212887888e+06 -1.906338369396e-05 -1.675060381983e-06 -1.064041374483e-01 1.035524814834e+07 4.375934837703e+06  1.063946070769e-01
8.900000000000e-01 2.267100983721e-08 0.000000000000e+00 -8.935419104705e+06 -1.206009735979e+02 -1.332108956865e+07 -8.922603747315e+06 -1.908622003452e-05 -1.672340858394e-06 -1.064186870889e-01 1.039303747356e+07 4.392092169994e+06  1.064091453021e-01
9.000000000000e-01 2.266993618426e-08 0.000000000000e+00 -8.967751796336e+06 -1.190767472494e+02 -1.336952536064e+07 -8.954911153183e+06 -1.910888982091e-05 -1.669602885170e-06 -1.064331466542e-01 1.043072943672e+07 4.408207917017e+06  1.064235935353e-01
9.100000000000e-01 2.266831935674e-08 0.000000000000e+00 -9.000001501746e+06 -1.176198933795e+02 -1.341783700604e+07 -8.987135705370e+06 -1.913135954769e-05 -1.666995145109e-06 -1.064475172315e-01 1.046832473772e+07 4.424282437323e+06  1.064379528804e-01
9.200000000000e-01 2.266766766234e-08 0.000000000000e+00 -9.032162400133e+06 -1.160579439105e+02 -1.346601557564e+07 -9.019271503846e+06 -1.915370141983e-05 -1.664209684393e-06 -1.064617968992e-01 1.050581649321e+07 4.440312662306e+06  1.064522213799e-01
9.300000000000e-01 2.266657365385e-08 0.000000000000e+00 -9.064259151307e+06 -1.145652219962e+02 -1.351409814722e+07 -9.051343243606e+06 -1.917588528862e-05 -1.661556948834e-06 -1.064759974106e-01 1.054323351404e+07 4.456310992213e+06  1.064664108021e-01
9.400000000000e-01 2.266546889796e-08 0.000000000000e+00 -9.096287912745e+06 -1.130709743296e+02 -1.356207895534e+07 -9.083347081446e+06 -1.919791305985e-05 -1.658910923011e-06 -1.064901177311e-01 1.058057131651e+07 4.472275504491e+06  1.064805201113e-01
9.500000000000e-01 2.266442593179e-08 0.000000000000e+00 -9.128261221839e+06 -1.115783768538e+02 -1.360997681974e+07 -9.115295560186e+06 -1.921978119483e-05 -1.656277125362e-06 -1.065041640501e-01 1.061784453392e+07 4.488212478732e+06  1.064945554989e-01
9.600000000000e-01 2.266341925137e-08 0.000000000000e+00 -9.160135503112e+06 -1.100814567557e+02 -1.365772633315e+07 -9.147145086708e+06 -1.924150648171e-05 -1.653644985810e-06 -1.065181178587e-01 1.065500230766e+07 4.504100092073e+06  1.065084984475e-01
9.700000000000e-01 2.266242353491e-08 0.000000000000e+00 -9.191982788099e+06 -1.085836509168e+02 -1.370543546982e+07 -9.178967663301e+06 -1.926311564657e-05 -1.651020467651e-06 -1.065320113606e-01 1.069212864041e+07 4.519974301797e+06  1.065223811475e-01
9.800000000000e-01 2.266140584263e-08 0.000000000000e+00 -9.223781094393e+06 -1.070985122618e+02 -1.375307148223e+07 -9.210741397977e+06 -1.928453077040e-05 -1.648427116805e-06 -1.065458355693e-01 1.072919799153e+07 4.535824297425e+06  1.065361946512e-01
9.900000000000e-01 2.266049485386e-08 0.000000000000e+00 -9.255532438698e+06 -1.055783265332e+02 -1.380063685888e+07 -9.242468092800e+06 -1.930593975208e-05 -1.645781870439e-06 -1.065595916310e-01 1.076621246346e+07 4.551650658524e+06  1.065499400110e-01
1.000000000000e+00 2.265950683245e-08 0.000000000000e+00 -9.287223174954e+06 -1.040892959093e+02 -1.384811162728e+07 -9.274134300334e+06 -1.932717080685e-05 -1.643199638596e-06 -1.065732744452e-01 1.080315636752e+07 4.567446958948e+06  1.065636122123e-01
1.050000000000e+00 2.265587493038e-08 0.000000000000e+00 -9.443870570839e+06 -9.669867187039e+01 -1.408278005762e+07 -9.430660639503e+06 -1.943094987331e-05 -1.630505627907e-06 -1.066402613854e-01 1.098577042265e+07 4.645528541798e+06  1.066305472756e-01
1.100000000000e+00 2.265099907432e-08 0.000000000000e+00 -9.597555959989e+06 -8.939692260999e+01 -1.431301398151e+07 -9.584228354223e+06 -1.953018015958e-05 -1.618169856686e-06 -1.067049082403e-01 1.116493276524e+07 4.722135932742e+06  1.066951445277e-01
1.150000000000e+00 2.264704787823e-08 0.000000000000e+00 -9.751280548612e+06 -8.204239816204e+01 -1.454330787264e+07 -9.737835717780e+06 -1.962745737223e-05 -1.605943080728e-06 -1.067685420668e-01 1.134414137968e+07 4.798763867358e+06  1.067587297275e-01
1.200000000000e+00 2.264211900005e-08 0.000000000000e+00 -9.902769981655e+06 -7.481133082308e+01 -1.477025513199e+07 -9.889210350552e+06 -1.972123868659e-05 -1.594108928441e-06 -1.068302745792e-01 1.152074515473e+07 4.874279113073e+06  1.068204153609e-01
1.250000000000e+00 2.263722138663e-08 0.000000000000e+00 -1.005411648905e+07 -6.748432722197e+01 -1.499698897618e+07 -1.004044243368e+07 -1.981329117247e-05 -1.582300685016e-06 -1.068910108139e-01 1.169718263297e+07 4.949723682138e+06  1.068811055808e-01
1.300000000000e+00 2.263346080268e-08 0.000000000000e+00 -1.020422845237e+07 -6.012879993308e+01 -1.522187470148e+07 -1.019044144115e+07 -1.990280666105e-05 -1.570623688825e-06 -1.069503532322e-01 1.187218153167e+07 5.024553942283e+06  1.069404032525e-01