 TITLE = "Profiles along polylines"
 VARIABLES = "DIST" "PRESSURE1" "PRESSURE2" "PRESSURE_W" "SATURATION1" SATURATION2 "VELOCITY_X1" "VELOCITY_Y1" "VELOCITY_X2" "VELOCITY_Y2"  p_(1st_Invariant)  q_(2nd_Invariant)   Effective_Strain
 ZONE T="TIME=0.000000000000e+00"
0.000000000000e+00 8.400000000000e+07 1.000000000000e+05 -8.390000000000e+07 6.601393844892e-01 3.398606155108e-01 0.000000000000e+00 0.000000000000e+00 0.000000000000e+00 0.000000000000e+00 1.000000000000e+05 0.000000000000e+00  0.000000000000e+00
5.000000000000e-03 8.400000000000e+07 1.000000000000e+05 -8.390000000000e+07 6.601393844892e-01 3.398606155108e-01 0.000000000000e+00 0.000000000000e+00 0.000000000000e+00 0.000000000000e+00 1.000000000000e+05 0.000000000000e+00  0.000000000000e+00
1.000000000000e-02 8.400000000000e+07 1.000000000000e+05 -8.390000000000e+07 6.601393844892e-01 3.398606155108e-01 0.000000000000e+00 0.000000000000e+00 0.000000000000e+00 0.000000000000e+00 1.000000000000e+05 0.000000000000e+00  0.000000000000e+00
1.500000000000e-02 8.400000000000e+07 1.000000000000e+05 -8.390000000000e+07 6.601393844892e-01 3.398606155108e-01 0.000000000000e+00 0.000000000000e+00 0.000000000000e+00 0.000000000000e+00 1.000000000000e+05 0.000000000000e+00  0.000000000000e+00
2.000000000000e-02 8.400000000000e+07 1.000000000000e+05 -8.390000000000e+07 6.601393844892e-01 3.398606155108e-01 0.000000000000e+00 0.000000000000e+00 0.000000000000e+00 0.000000000000e+00 1.000000000000e+05 0.000000000000e+00  0.000000000000e+00
2.500000000000e-02 8.400000000000e+07 1.000000000000e+05 -8.390000000000e+07 6.601393844892e-01 3.398606155108e-01 0.000000000000e+00 0.000000000000e+00 0.000000000000e+00 0.000000000000e+00 1.000000000000e+05 0.000000000000e+00  0.000000000000e+00
3.000000000000e-02 8.400000000000e+07 1.000000000000e+05 -8.390000000000e+07 6.601393844892e-01 3.398606155108e-01 0.000000000000e+00 0.000000000000e+00 0.000000000000e+00 0.000000000000e+00 1.000000000000e+05 0.000000000000e+00  0.000000000000e+00
3.500000000000e-02 8.400000000000e+07 1.000000000000e+05 -8.390000000000e+07 6.601393844892e-01 3.398606155108e-01 0.000000000000e+00 0.000000000000e+00 0.000000000000e+00 0.000000000000e+00 1.000000000000e+05 0.000000000000e+00  0.000000000000e+00
4.000000000000e-02 8.400000000000e+07 1.000000000000e+05 -8.390000000000e+07 6.601393844892e-01 3.398606155108e-01 0.000000000000e+00 0.000000000000e+00 0.000000000000e+00 0.000000000000e+00 1.000000000000e+05 0.000000000000e+00  0.000000000000e+00
4.500000000000e-02 8.400000000000e+07 1.000000000000e+05 -8.390000000000e+07 6.601393844892e-01 3.398606155108e-01 0.000000000000e+00 0.000000000000e+00 0.000000000000e+00 0.000000000000e+00 1.000000000000e+05 0.000000000000e+00  0.000000000000e+00
5.000000000000e-02 8.400000000000e+07 1.000000000000e+05 -8.390000000000e+07 6.601393844892e-01 3.398606155108e-01 0.000000000000e+00 0.000000000000e+00 0.000000000000e+00 0.000000000000e+00 1.000000000000e+05 0.000000000000e+00  0.000000000000e+00
 TITLE = "Profiles along polylines"
 VARIABLES = "DIST" "PRESSURE1" "PRESSURE2" "PRESSURE_W" "SATURATION1" SATURATION2 "VELOCITY_X1" "VELOCITY_Y1" "VELOCITY_X2" "VELOCITY_Y2"  p_(1st_Invariant)  q_(2nd_Invariant)   Effective_Strain
 ZONE T="TIME=1.000000000000e-02"
0.000000000000e+00 8.399996860436e+07 1.000000000000e+05 -8.389996860436e+07 6.601394589867e-01 3.398605410133e-01 7.254908942529e-11 -1.497342344510e-10 0.000000000000e+00 -1.327153063775e-15 1.085128562287e+06 3.825948305371e+05  4.371611799603e-02
5.000000000000e-03 8.400004005841e+07 1.000000209442e+05 -8.390004003747e+07 6.601392735272e-01 3.398607264728e-01 -8.946964639621e-11 -2.523912140280e-11 1.042913559515e-15 -2.833350033915e-15 1.085882210836e+06 3.857587028033e+05  4.486557910480e-02
1.000000000000e-02 8.399999352293e+07 9.999996413673e+04 -8.389999355879e+07 6.601395502267e-01 3.398604497733e-01 4.745353466216e-10 1.088728496021e-10 -4.967124836884e-15 -1.899276842512e-15 1.101927076858e+06 4.054503254639e+05  4.356884182275e-02
1.500000000000e-02 8.399886971754e+07 9.999977274636e+04 -8.389886994479e+07 6.601443350888e-01 3.398556649112e-01 -1.644806454576e-09 -3.300268378565e-09 2.108002686369e-14 1.530104260972e-14 1.077488277234e+06 3.908279539652e+05  4.157027932721e-02
2.000000000000e-02 8.400956910569e+07 1.000024597782e+05 -8.390956664591e+07 6.601164831099e-01 3.398835168901e-01 -1.219186701944e-08 1.755329022175e-08 3.045543304728e-14 -1.180535237886e-13 1.057224246691e+06 4.433373144410e+05  4.772332782098e-02
2.500000000000e-02 8.396564186855e+07 9.998952468967e+04 -8.386565234386e+07 6.602664499879e-01 3.397335500121e-01 1.340440335644e-07 -4.225476274148e-08 -5.284327528232e-13 4.043078873199e-13 1.210255145988e+06 7.628776675827e+05  5.396653992273e-02
3.000000000000e-02 8.397532882285e+07 1.000209076109e+05 -8.387530791524e+07 6.601234309264e-01 3.398765690736e-01 -7.167284984933e-07 -2.183132183774e-07 2.664167113214e-12 -6.162534316393e-13 1.332339372987e+06 5.524076221601e+05  3.098373783861e-02
3.500000000000e-02 8.531411863947e+07 1.000454412645e+05 -8.521407319821e+07 6.563194165733e-01 3.436805834267e-01 1.760649629988e-06 3.108891203741e-06 -7.076345119835e-12 -1.696242067433e-12 1.607765870678e+06 8.875475110502e+05  1.284512408457e-01
4.000000000000e-02 7.395228666387e+07 9.946647145613e+04 -7.385282019241e+07 6.905353841197e-01 3.094646158803e-01 1.172638820624e-06 -2.225727412165e-05 3.284465616829e-12 9.426865480346e-12 -2.745492985423e+06 1.089559390084e+07  8.795593326886e-01
4.500000000000e-02 1.358488715647e+08 1.016555849064e+05 -1.357472159798e+08 4.854376620382e-01 5.145623379618e-01 -1.292454988847e-05 -2.440523370027e-05 8.362253935008e-11 3.244568210374e-11 1.802605006787e+07 8.935393506284e+06  1.996687826516e+00
5.000000000000e-02 -6.051884453283e-313 1.000000000000e+05 1.000000000000e+05 9.835511870666e-01 1.644881293343e-02 0.000000000000e+00 5.327550681506e-04 0.000000000000e+00 6.258539200364e-12 -1.070938587849e+07 8.682317350251e+07  2.887508803068e+00
 TITLE = "Profiles along polylines"
 VARIABLES = "DIST" "PRESSURE1" "PRESSURE2" "PRESSURE_W" "SATURATION1" SATURATION2 "VELOCITY_X1" "VELOCITY_Y1" "VELOCITY_X2" "VELOCITY_Y2"  p_(1st_Invariant)  q_(2nd_Invariant)   Effective_Strain
 ZONE T="TIME=1.000000000000e-01"
0.000000000000e+00 8.400002045983e+07 1.000000000000e+05 -8.390002045983e+07 6.601393318250e-01 3.398606681750e-01 -3.237441841328e-11 -5.027889345603e-12 0.000000000000e+00 1.076672770251e-15 1.252027054069e+06 4.962827932820e+05  4.435233766221e-02
5.000000000000e-03 8.399997554419e+07 1.000000886839e+05 -8.389997545551e+07 6.601394521226e-01 3.398605478774e-01 3.144365348840e-11 -8.739389746775e-11 5.716571529688e-15 -4.894853363209e-15 1.234950446039e+06 4.641890742677e+05  4.533566074733e-02
1.000000000000e-02 8.400004577146e+07 9.999991646116e+04 -8.390004585500e+07 6.601391971414e-01 3.398608028586e-01 -2.011952737171e-10 -1.721257157825e-11 -2.510594523787e-14 -6.231688615033e-15 1.248563439838e+06 4.903636320081e+05  4.403931895946e-02
1.500000000000e-02 8.400018621778e+07 9.999836140630e+04 -8.390018785638e+07 6.601383288293e-01 3.398616711707e-01 1.113996310928e-09 2.404404664837e-10 1.017639967058e-13 1.237509000959e-13 1.239302962101e+06 4.725697646031e+05  4.188178192492e-02
2.000000000000e-02 8.399762248891e+07 1.000150753017e+05 -8.389760741361e+07 6.601457683695e-01 3.398542316305e-01 -3.823890835684e-09 -3.679489246132e-09 2.957393294614e-13 -7.601875193744e-13 1.217540531265e+06 5.114424438875e+05  4.792043182615e-02
2.500000000000e-02 8.401494401365e+07 9.993791230277e+04 -8.391500610135e+07 6.600957764386e-01 3.399042235614e-01 2.498115374588e-08 3.062049658204e-08 -3.880811638357e-12 2.579148501793e-12 1.371345611769e+06 8.099295068632e+05  5.431434480477e-02
3.000000000000e-02 8.389324656812e+07 1.001026181248e+05 -8.379314394999e+07 6.604371422148e-01 3.395628577852e-01 -1.598130180699e-07 -3.064822567883e-07 1.979067567120e-11 -2.892555301538e-12 1.426696376799e+06 7.744775435097e+05  3.210802587714e-02
3.500000000000e-02 8.489945261660e+07 1.005229671596e+05 -8.479892964945e+07 6.575588017456e-01 3.424411982544e-01 1.842677679884e-07 2.610542583603e-06 -5.583226020110e-11 -1.969256907917e-11 1.756523990104e+06 1.343856192291e+06  1.290041483241e-01
4.000000000000e-02 7.762220015124e+07 9.521611940853e+04 -7.752698403183e+07 6.786441089889e-01 3.213558910111e-01 2.804874788912e-06 -1.792447758925e-05 3.404578360414e-11 1.028203721005e-10 -9.583997067208e+05 7.493953741475e+06  8.360943903508e-01
4.500000000000e-02 1.199609696037e+08 1.162890620389e+05 -1.198446805417e+08 5.342592215877e-01 4.657407784123e-01 -1.285716885078e-05 -5.215844536307e-06 7.021262845390e-10 2.633274320195e-10 4.575858848907e+06 1.267202993816e+07  2.018543918984e+00
5.000000000000e-02 -6.051884453283e-313 1.000000000000e+05 1.000000000000e+05 9.908030085659e-01 9.196991434101e-03 0.000000000000e+00 4.847358171366e-04 0.000000000000e+00 5.475391484898e-11 1.256933475293e+07 1.182332682325e+08  3.770624197595e+00
 TITLE = "Profiles along polylines"
 VARIABLES = "DIST" "PRESSURE1" "PRESSURE2" "PRESSURE_W" "SATURATION1" SATURATION2 "VELOCITY_X1" "VELOCITY_Y1" "VELOCITY_X2" "VELOCITY_Y2"  p_(1st_Invariant)  q_(2nd_Invariant)   Effective_Strain
 ZONE T="TIME=1.000000000000e+00"
0.000000000000e+00 8.400002526667e+07 1.000000000000e+05 -8.390002526667e+07 6.601393102600e-01 3.398606897400e-01 -3.191375918482e-11 -2.172203236367e-11 0.000000000000e+00 7.210599769731e-16 8.347577181232e+06 3.652610708431e+06  5.301328932635e-02
5.000000000000e-03 8.399999377390e+07 1.000000786649e+05 -8.389999369524e+07 6.601393951242e-01 3.398606048758e-01 3.361674670095e-11 -6.970098984795e-11 5.158772080027e-15 -6.116548919845e-15 8.345233368755e+06 3.453656986871e+06  5.356792958612e-02
1.000000000000e-02 8.400000473203e+07 9.999983066023e+04 -8.390000490137e+07 6.601393451028e-01 3.398606548972e-01 -1.874117009601e-10 4.771730532580e-11 -2.971449245587e-14 1.017920291231e-15 8.277205347027e+06 3.480952020966e+06  5.248442554242e-02
1.500000000000e-02 8.400010966813e+07 9.999873787920e+04 -8.390011093025e+07 6.601386706888e-01 3.398613293112e-01 1.234314087199e-09 -9.349366950751e-10 1.621235502488e-13 8.077363639337e-14 8.302057858874e+06 3.529489101688e+06  5.043064305468e-02
2.000000000000e-02 8.399958051268e+07 1.000149030797e+05 -8.389956560960e+07 6.601425731764e-01 3.398574268236e-01 -6.678953405385e-09 5.821344062980e-09 1.729888290970e-14 -6.791685234018e-13 8.269159794726e+06 3.558401381928e+06  5.638301824375e-02
2.500000000000e-02 8.399826724123e+07 9.993054864285e+04 -8.389833669258e+07 6.601402825555e-01 3.398597174445e-01 3.122097460661e-08 -4.975627126856e-08 -4.494372073582e-12 1.662184990671e-12 8.526482822710e+06 3.944784107038e+06  6.228267319077e-02
3.000000000000e-02 8.405143575198e+07 1.000452391046e+05 -8.395139051287e+07 6.600356908968e-01 3.399643091032e-01 -9.844240227333e-08 4.315360184658e-07 3.561161255906e-11 1.625232875494e-11 8.684332261290e+06 4.155341911359e+06  3.902545180966e-02
3.500000000000e-02 8.329785486119e+07 1.023843863737e+05 -8.319547047482e+07 6.620629596388e-01 3.379370403612e-01 2.133817974732e-07 -2.741766214656e-06 -1.346862239772e-10 -2.105160397300e-10 8.399610450304e+06 5.424571119838e+06  1.429657274918e-01
4.000000000000e-02 8.934878100827e+07 7.721386693780e+04 -8.927156714133e+07 6.435804774336e-01 3.564195225664e-01 2.174594841053e-06 8.528049432634e-06 4.269402765709e-10 1.571119499030e-09 1.267254558482e+07 4.360725296159e+06  7.657092393584e-01
4.500000000000e-02 6.135814889866e+07 2.356812826929e+05 -6.112246761597e+07 7.603568866438e-01 2.396431133562e-01 6.184755180805e-06 9.005083350785e-05 2.653169458262e-09 1.527689813482e-09 -4.019105311281e+06 4.420268384871e+07  1.936084681313e+00
5.000000000000e-02 -6.051884453283e-313 1.000000000000e+05 1.000000000000e+05 1.000000000000e+00 0.000000000000e+00 0.000000000000e+00 2.651546225259e-04 0.000000000000e+00 1.671307874683e-10 4.397575816648e+05 1.168233411707e+08  3.783590167288e+00
 TITLE = "Profiles along polylines"
 VARIABLES = "DIST" "PRESSURE1" "PRESSURE2" "PRESSURE_W" "SATURATION1" SATURATION2 "VELOCITY_X1" "VELOCITY_Y1" "VELOCITY_X2" "VELOCITY_Y2"  p_(1st_Invariant)  q_(2nd_Invariant)   Effective_Strain
 ZONE T="TIME=5.000000000000e+00"
0.000000000000e+00 8.400005907795e+07 1.000000000000e+05 -8.390005907795e+07 6.601391983474e-01 3.398608016526e-01 -7.000579615495e-12 4.623614210906e-11 0.000000000000e+00 -5.370901852555e-15 2.086577132673e+07 9.239270152621e+06  5.687513710716e-02
5.000000000000e-03 8.399997273114e+07 9.999990698387e+04 -8.389997282416e+07 6.601394435998e-01 3.398605564002e-01 -5.073986890205e-11 -1.358645844747e-10 -4.631590736180e-15 -1.970944852234e-15 2.080937014944e+07 8.713478639484e+06  5.736218014093e-02
1.000000000000e-02 8.400030110583e+07 1.000000437500e+05 -8.390030106208e+07 6.601384189607e-01 3.398615810393e-01 2.739381315278e-10 -1.377314655177e-10 3.130908829426e-14 -1.807199459316e-14 2.064233138898e+07 8.774415992004e+06  5.623338811796e-02
1.500000000000e-02 8.399939975605e+07 1.000004112947e+05 -8.389939934476e+07 6.601410410562e-01 3.398589589438e-01 -1.652178740021e-10 7.233249433991e-09 -1.705681940485e-13 2.500050965973e-13 2.079099369121e+07 8.973939953979e+06  5.429368829801e-02
2.000000000000e-02 8.398853946323e+07 1.000060218911e+05 -8.388853344134e+07 6.601654169020e-01 3.398345830980e-01 -1.071919275194e-08 -4.083721979295e-08 4.752936744913e-13 -9.422639094498e-13 2.072898463769e+07 8.992229735023e+06  6.027096858358e-02
2.500000000000e-02 8.409366671160e+07 9.996339069902e+04 -8.399370332091e+07 6.597836045009e-01 3.402163954991e-01 4.465807329613e-08 -1.813203349924e-07 -2.772071795300e-12 -9.523808518144e-12 2.112723912737e+07 9.541732172608e+06  6.592548846490e-02
3.000000000000e-02 8.420688265330e+07 9.925654768638e+04 -8.410762610562e+07 6.599016583817e-01 3.400983416183e-01 4.861443702711e-07 2.284195828847e-06 3.507678797125e-11 1.111149393103e-10 2.146569481649e+07 1.035620097629e+07  4.277433884298e-02
3.500000000000e-02 7.930618700280e+07 1.093083788263e+05 -7.919687862398e+07 6.796392031785e-01 3.203607968215e-01 9.436802354650e-07 1.650919018585e-05 3.430584697519e-11 2.533107387015e-10 2.013113348031e+07 1.036324821649e+07  1.474661489439e-01
4.000000000000e-02 5.808292028646e+07 1.089512069089e+05 -5.797396907955e+07 7.685147414809e-01 2.314852585191e-01 7.719971351108e-07 5.149746750654e-05 9.914529873766e-10 5.132650421664e-09 1.486982512031e+07 5.431872143949e+06  7.686012803218e-01
4.500000000000e-02 2.798083209383e+07 6.105947807499e+05 -2.737023731308e+07 9.172701948253e-01 8.272980517468e-02 1.203880224664e-06 9.547293382668e-05 3.787821854626e-09 1.500151415862e-09 -3.543903167777e+06 4.374085371982e+07  1.876282619535e+00
5.000000000000e-02 -6.051884453283e-313 1.000000000000e+05 1.000000000000e+05 1.000000000000e+00 0.000000000000e+00 0.000000000000e+00 1.190564600277e-04 0.000000000000e+00 4.223376163259e-10 2.247806791464e+07 1.190838701280e+08  3.749848029202e+00
 TITLE = "Profiles along polylines"
 VARIABLES = "DIST" "PRESSURE1" "PRESSURE2" "PRESSURE_W" "SATURATION1" SATURATION2 "VELOCITY_X1" "VELOCITY_Y1" "VELOCITY_X2" "VELOCITY_Y2"  p_(1st_Invariant)  q_(2nd_Invariant)   Effective_Strain
 ZONE T="TIME=1.000000000000e+01"
0.000000000000e+00 8.399999234267e+07 1.000000000000e+05 -8.389999234267e+07 6.601394691710e-01 3.398605308290e-01 -5.383968516741e-11 1.200250833833e-10 0.000000000000e+00 3.687927202164e-15 2.875050713665e+07 1.271341225647e+07  5.819366279978e-02
5.000000000000e-03 8.399984687996e+07 1.000001650289e+05 -8.389984671493e+07 6.601396188316e-01 3.398603811684e-01 -4.433369719171e-10 -1.224308247731e-09 -1.947753099318e-14 -4.130687340494e-14 2.868435789388e+07 1.205014838557e+07  5.863199272594e-02
1.000000000000e-02 8.400281517824e+07 9.999674357607e+04 -8.390281843467e+07 6.601281605692e-01 3.398718394308e-01 -6.106272451994e-10 -9.354069490195e-09 9.378358702299e-15 -2.676562111035e-13 2.846990276922e+07 1.212160685911e+07  5.751672071925e-02
1.500000000000e-02 8.401588496432e+07 9.998616400591e+04 -8.391589880032e+07 6.600719301016e-01 3.399280698984e-01 1.722919422728e-08 4.309545496386e-08 3.853079460689e-13 1.070268361415e-12 2.867457726473e+07 1.240193894792e+07  5.559891267699e-02
2.000000000000e-02 8.389871243957e+07 1.000823069783e+05 -8.379863013259e+07 6.606579054078e-01 3.393420945922e-01 1.089627105623e-07 7.573777763722e-07 3.145133777635e-12 2.516622451527e-11 2.854830699736e+07 1.241009218559e+07  6.156327737284e-02
2.500000000000e-02 8.256282589411e+07 1.017127597548e+05 -8.246111313435e+07 6.660537328020e-01 3.339462671980e-01 3.373192456618e-07 4.264218877876e-06 1.835542206640e-11 1.265257558026e-10 2.843966388767e+07 1.268103962282e+07  6.710887172284e-02
3.000000000000e-02 7.653391820522e+07 1.082586401502e+05 -7.642565956507e+07 6.895386478065e-01 3.104613521935e-01 5.357518339934e-07 1.423937428061e-05 -9.513870069870e-12 5.169704731471e-10 2.678416833308e+07 1.218704152294e+07  4.348260216149e-02
3.500000000000e-02 6.173079837173e+07 1.359111409390e+05 -6.159488723079e+07 7.513191317477e-01 2.486808682523e-01 4.628891730310e-07 3.320871573023e-05 3.562163084555e-10 1.098430233106e-09 2.206236367730e+07 9.388173409286e+06  1.468357103325e-01
4.000000000000e-02 4.038601594275e+07 2.103966755088e+05 -4.017561926724e+07 8.521485596250e-01 1.478514403750e-01 1.086934627606e-07 5.754194483709e-05 7.400403888156e-10 6.060902279480e-09 1.622306654237e+07 5.994111694297e+06  7.693588804577e-01
4.500000000000e-02 1.963448694061e+07 8.718223589608e+05 -1.876266458165e+07 9.526539314651e-01 4.734606853488e-02 1.468812746679e-07 7.399136763380e-05 3.638665758008e-09 5.677727035892e-10 3.264615793434e+05 4.379235073816e+07  1.873586716709e+00
5.000000000000e-02 -6.051884453283e-313 1.000000000000e+05 1.000000000000e+05 1.000000000000e+00 0.000000000000e+00 0.000000000000e+00 8.162158405164e-05 0.000000000000e+00 5.027087013874e-10 3.659495593001e+07 1.244600965770e+08  3.751890180945e+00
 ZONE T="TIME=1.800000000000e+01"
0.000000000000e+00 8.398995472659e+07 1.000000000000e+05 -8.388995472659e+07 6.601822697693e-01 3.398177302307e-01 1.516921390906e-08 4.201480030601e-08 0.000000000000e+00 1.725239688892e-12 3.682313679565e+07 1.627000626635e+07  5.921134753296e-02
5.000000000000e-03 8.395615395252e+07 1.000486582082e+05 -8.385610529432e+07 6.603231688924e-01 3.396768311076e-01 1.750909806288e-08 1.326196045506e-07 4.219425530123e-13 4.171669153509e-12 3.673360373183e+07 1.547098661297e+07  5.961341253848e-02
1.000000000000e-02 8.373332452882e+07 1.002877383890e+05 -8.363303679043e+07 6.611807107956e-01 3.388192892044e-01 4.383269083373e-08 6.281850028443e-07 1.339094612762e-12 1.946485793353e-11 3.640839938611e+07 1.553527175071e+07  5.850394277585e-02
1.500000000000e-02 8.284092358628e+07 1.012692968705e+05 -8.273965428941e+07 6.641580360796e-01 3.358419639204e-01 1.321646531923e-07 2.236627218317e-06 4.998990963664e-12 7.033255524262e-11 3.658595232857e+07 1.577470136486e+07  5.657099891405e-02
2.000000000000e-02 7.999414550313e+07 1.045806940351e+05 -7.988956480910e+07 6.751489651046e-01 3.248510348954e-01 2.655627259145e-07 6.119549180229e-06 9.112106378207e-12 1.953813731574e-10 3.550473758231e+07 1.531889302148e+07  6.241579000424e-02
2.500000000000e-02 7.324506950816e+07 1.135044360146e+05 -7.313156507214e+07 7.025265178686e-01 2.974734821314e-01 3.502033674157e-07 1.371241942773e-05 3.367823407708e-11 4.493856401833e-10 3.327597728219e+07 1.436111373797e+07  6.763096504047e-02
3.000000000000e-02 6.135242294696e+07 1.371366750096e+05 -6.121528627195e+07 7.523238305771e-01 2.476761694229e-01 3.000022446475e-07 2.536028542611e-05 -1.588164719998e-11 9.034272263060e-10 2.982779293511e+07 1.229985382091e+07  4.356512471040e-02
3.500000000000e-02 4.568204211017e+07 1.815036933692e+05 -4.550053841680e+07 8.253303066113e-01 1.746696933887e-01 7.287315242592e-08 3.924997105869e-05 5.538309587178e-10 2.096288327399e-09 2.457544277975e+07 7.923947686299e+06  1.461662821968e-01
4.000000000000e-02 2.944390334318e+07 4.255890539298e+05 -2.901831428925e+07 9.052048648840e-01 9.479513511601e-02 -1.594673606283e-07 5.097123588506e-05 4.824969689129e-10 7.233564309471e-09 2.056925834076e+07 7.165132407561e+06  7.700860476223e-01
4.500000000000e-02 1.471418262442e+07 9.880928801182e+05 -1.372608974430e+07 9.704120471865e-01 2.958795281351e-02 -1.530944768193e-08 5.675402759827e-05 1.609254651196e-09 -1.049720956112e-09 8.786422164557e+06 4.497963467941e+07  1.872070795104e+00
5.000000000000e-02 -6.051884453283e-313 1.000000000000e+05 1.000000000000e+05 1.000000000000e+00 0.000000000000e+00 0.000000000000e+00 5.982142215188e-05 0.000000000000e+00 3.960195131626e-10 4.733877525240e+07 1.241452275688e+08  3.751503130437e+00
