 TITLE = "Time curves in points"
 VARIABLES = "TIME"  "PRESSURE1"  "PRESSURE2"  "PRESSURE_W"  "SATURATION1" SATURATION2  "VELOCITY_X1"  "VELOCITY_Y1"  "VELOCITY_X2"  "VELOCITY_Y2"  p_(1st_Invariant)  q_(2nd_Invariant)   Effective_Strain
 ZONE T="POINT=POINT6"
0.000000000000e+00 8.400000000000e+07 1.000000000000e+05 -8.390000000000e+07 6.601393844892e-01 3.398606155108e-01 0.000000000000e+00 0.000000000000e+00 0.000000000000e+00 0.000000000000e+00 1.000000000000e+05 0.000000000000e+00  0.000000000000e+00
1.000000000000e-03 8.400003165785e+07 1.000000000000e+05 -8.390003165785e+07 6.601392579556e-01 3.398607420444e-01 -3.080785121476e-12 -2.941642559373e-11 3.258740445104e-18 -2.087851568709e-15 1.468408605074e+04 3.656166180337e+04  3.753663947636e-03
2.000000000000e-03 8.400003113087e+07 1.000000000000e+05 -8.390003113087e+07 6.601392603682e-01 3.398607396318e-01 -3.034376707447e-12 -2.926996930671e-11 6.489044809021e-18 -2.104699811673e-15 1.369387515457e+05 1.583277614699e+04  2.541466060236e-02
3.000000000000e-03 8.400003060559e+07 1.000000000000e+05 -8.390003060559e+07 6.601392627652e-01 3.398607372348e-01 -2.988219090230e-12 -2.914118143043e-11 9.685428693410e-18 -2.121538016424e-15 2.994711113308e+05 8.657916856970e+04  3.715707002033e-02
4.000000000000e-03 8.400003008207e+07 1.000000000000e+05 -8.390003008207e+07 6.601392651466e-01 3.398607348534e-01 -2.942312384377e-12 -2.902971932556e-11 1.284442122243e-17 -2.138423682017e-15 8.352417929292e+05 3.162582413360e+05  4.293983242781e-02
5.000000000000e-03 8.400002956035e+07 1.000000000000e+05 -8.390002956035e+07 6.601392675122e-01 3.398607324878e-01 -2.896656273386e-12 -2.893524104919e-11 1.597782339705e-17 -2.155318059763e-15 1.026283208606e+06 4.300556830390e+05  4.422634057247e-02
6.000000000000e-03 8.400002904050e+07 1.000000000000e+05 -8.390002904050e+07 6.601392698620e-01 3.398607301380e-01 -2.851250661558e-12 -2.885740910797e-11 1.908872416189e-17 -2.172192369977e-15 1.068314056677e+06 4.466056850418e+05  4.440805014692e-02
7.000000000000e-03 8.400002852256e+07 1.000000000000e+05 -8.390002852256e+07 6.601392721960e-01 3.398607278040e-01 -2.806095500667e-12 -2.879589146399e-11 2.218342278420e-17 -2.189062266685e-15 1.096531684858e+06 4.589190920012e+05  4.452221793337e-02
8.000000000000e-03 8.400002800659e+07 1.000000000000e+05 -8.390002800659e+07 6.601392745139e-01 3.398607254861e-01 -2.761192275906e-12 -2.875035977653e-11 2.522450244726e-17 -2.205969850371e-15 1.141473248432e+06 4.787864982799e+05  4.467055383171e-02
9.000000000000e-03 8.400002749262e+07 1.000000000000e+05 -8.390002749262e+07 6.601392768159e-01 3.398607231841e-01 -2.716539182094e-12 -2.872048634856e-11 2.825484913703e-17 -2.222869616397e-15 1.136156971960e+06 4.794002747386e+05  4.467529625672e-02
1.000000000000e-02 8.400002698072e+07 1.000000000000e+05 -8.390002698072e+07 6.601392791017e-01 3.398607208983e-01 -2.672136784523e-12 -2.870595042955e-11 3.125573856262e-17 -2.239773106121e-15 1.146111167935e+06 4.834655361025e+05  4.470860180920e-02
2.000000000000e-02 8.400002210690e+07 1.000000000000e+05 -8.390002210690e+07 6.601393003076e-01 3.398606996924e-01 -2.253083787813e-12 -2.980817124486e-11 5.865127673347e-17 -2.405833200371e-15 1.824834152202e+06 7.811206311231e+05  4.687624029399e-02
3.000000000000e-02 8.400001750969e+07 1.000000000000e+05 -8.390001750969e+07 6.601393198373e-01 3.398606801627e-01 -1.858828433901e-12 -3.190407812757e-11 8.356877809258e-17 -2.567503313298e-15 1.099513751313e+06 4.628380202244e+05  4.463989638417e-02
4.000000000000e-02 8.400001321334e+07 1.000000000000e+05 -8.390001321334e+07 6.601393376852e-01 3.398606623148e-01 -1.489149321806e-12 -3.476960040422e-11 1.062731593864e-16 -2.722896753078e-15 9.498637142373e+05 3.832023394313e+05  4.383483028209e-02
5.000000000000e-02 8.400000923595e+07 1.000000000000e+05 -8.390000923595e+07 6.601393538604e-01 3.398606461396e-01 -1.143742294075e-12 -3.820742686963e-11 1.268472639691e-16 -2.870535464844e-15 1.126391494232e+06 4.548216544579e+05  4.467886653438e-02
6.000000000000e-02 8.400000558996e+07 1.000000000000e+05 -8.390000558996e+07 6.601393683859e-01 3.398606316141e-01 -8.222630658755e-13 -4.204533399371e-11 1.453387780185e-16 -3.009477678114e-15 9.921169448280e+05 3.947742883802e+05  4.407079284790e-02
7.000000000000e-02 8.400000228297e+07 1.000000000000e+05 -8.390000228297e+07 6.601393812959e-01 3.398606187041e-01 -5.243047480860e-13 -4.613327722573e-11 1.618418924329e-16 -3.139030151998e-15 1.004691532751e+06 3.998114473988e+05  4.411722044485e-02
8.000000000000e-02 8.399999931819e+07 1.000000000000e+05 -8.389999931819e+07 6.601393926345e-01 3.398606073655e-01 -2.494109730517e-13 -5.034202544349e-11 1.765779773003e-16 -3.258329679570e-15 1.127235837150e+06 4.522438613646e+05  4.469172011544e-02
9.000000000000e-02 8.399999669505e+07 1.000000000000e+05 -8.389999669505e+07 6.601394024539e-01 3.398605975461e-01 2.908543652653e-15 -5.456091234087e-11 1.895510949146e-16 -3.367032902472e-15 1.123406931009e+06 4.504816901539e+05  4.467731308883e-02
1.000000000000e-01 8.399999440986e+07 1.000000000000e+05 -8.389999440986e+07 6.601394108130e-01 3.398605891870e-01 2.332107897682e-13 -5.869580941117e-11 2.008646432664e-16 -3.464823312582e-15 1.263111420022e+06 5.103013493375e+05  4.524996263574e-02
1.100000000000e-01 8.399999245595e+07 1.000000000000e+05 -8.389999245595e+07 6.601394177763e-01 3.398605822237e-01 4.420817087715e-13 -6.266814295202e-11 2.106462212070e-16 -3.551541377455e-15 1.237843517167e+06 5.001602148571e+05  4.515927319332e-02
1.200000000000e-01 8.399999082441e+07 1.000000000000e+05 -8.389999082441e+07 6.601394234126e-01 3.398605765874e-01 6.301349386924e-13 -6.641278815080e-11 2.190769703817e-16 -3.627216628461e-15 1.346471639689e+06 5.473266813764e+05  4.554760767902e-02
1.300000000000e-01 8.399998950429e+07 1.000000000000e+05 -8.389998950429e+07 6.601394277939e-01 3.398605722061e-01 7.980045485163e-13 -6.987699575930e-11 2.261168490985e-16 -3.691819063196e-15 1.340359761335e+06 5.471532815995e+05  4.554627708590e-02
1.400000000000e-01 8.399998848287e+07 1.000000000000e+05 -8.389998848287e+07 6.601394309951e-01 3.398605690049e-01 9.463687038495e-13 -7.301912256255e-11 2.319478817321e-16 -3.745677878676e-15 1.417184984300e+06 5.798199933544e+05  4.582629423990e-02
1.500000000000e-01 8.399998774621e+07 1.000000000000e+05 -8.389998774621e+07 6.601394330920e-01 3.398605669080e-01 1.075917305413e-12 -7.580712767502e-11 2.365918317155e-16 -3.788999509527e-15 1.476364260763e+06 6.050100340833e+05  4.601135186910e-02
1.600000000000e-01 8.399998727917e+07 1.000000000000e+05 -8.389998727917e+07 6.601394341620e-01 3.398605658380e-01 1.187355630575e-12 -7.821801761464e-11 2.401448698625e-16 -3.822029637764e-15 1.541046637891e+06 6.307846219453e+05  4.616521288058e-02
1.700000000000e-01 8.399998706572e+07 1.000000000000e+05 -8.389998706572e+07 6.601394342825e-01 3.398605657175e-01 1.281410604262e-12 -8.023656979111e-11 2.427454704883e-16 -3.845260026414e-15 1.575754686911e+06 6.460574117458e+05  4.628544375029e-02
1.800000000000e-01 8.399998708933e+07 1.000000000000e+05 -8.389998708933e+07 6.601394335306e-01 3.398605664694e-01 1.358831064055e-12 -8.185412448233e-11 2.444191276112e-16 -3.859086634348e-15 1.621620982549e+06 6.646273967384e+05  4.643457064843e-02
1.900000000000e-01 8.399998733292e+07 1.000000000000e+05 -8.389998733292e+07 6.601394319828e-01 3.398605680172e-01 1.420365229914e-12 -8.306832034102e-11 2.452671495060e-16 -3.863979143508e-15 1.679001018736e+06 6.873166034844e+05  4.659672457338e-02
2.000000000000e-01 8.399998777919e+07 1.000000000000e+05 -8.389998777919e+07 6.601394297142e-01 3.398605702858e-01 1.466767349733e-12 -8.388200443692e-11 2.453691361516e-16 -3.860530602724e-15 1.754748653739e+06 7.192194960908e+05  4.678523681792e-02
2.100000000000e-01 8.399998841080e+07 1.000000000000e+05 -8.389998841080e+07 6.601394267983e-01 3.398605732017e-01 1.498806076220e-12 -8.430235212950e-11 2.447641664805e-16 -3.849274672450e-15 1.823092714032e+06 7.468641471760e+05  4.694617540374e-02
2.200000000000e-01 8.399998921038e+07 1.000000000000e+05 -8.389998921038e+07 6.601394233069e-01 3.398605766931e-01 1.517244997023e-12 -8.434063221119e-11 2.434892059115e-16 -3.830697615726e-15 1.888092659633e+06 7.735257854556e+05  4.712659957845e-02
2.300000000000e-01 8.399999016078e+07 1.000000000000e+05 -8.389999016078e+07 6.601394193094e-01 3.398605806906e-01 1.522852027150e-12 -8.401132621859e-11 2.416638685856e-16 -3.805371560608e-15 1.979306488553e+06 8.104632798531e+05  4.734329329378e-02
2.400000000000e-01 8.399999124516e+07 1.000000000000e+05 -8.389999124516e+07 6.601394148726e-01 3.398605851274e-01 1.516389517891e-12 -8.333152407032e-11 2.393378373726e-16 -3.773968508616e-15 2.060689029085e+06 8.429881957566e+05  4.753618549457e-02
2.500000000000e-01 8.399999244701e+07 1.000000000000e+05 -8.389999244701e+07 6.601394100608e-01 3.398605899392e-01 1.498618979240e-12 -8.232071915355e-11 2.365384526606e-16 -3.737069164702e-15 2.166637202382e+06 8.875450791870e+05  4.775669392512e-02
2.600000000000e-01 8.399999375024e+07 1.000000000000e+05 -8.389999375024e+07 6.601394049358e-01 3.398605950642e-01 1.470291000473e-12 -8.100025946393e-11 2.333445614795e-16 -3.695082444371e-15 2.251307972076e+06 9.241548879602e+05  4.795030526740e-02
2.700000000000e-01 8.399999513932e+07 1.000000000000e+05 -8.389999513932e+07 6.601393995561e-01 3.398606004439e-01 1.432148902797e-12 -7.939288682801e-11 2.298006734174e-16 -3.648718922853e-15 2.341964069180e+06 9.633869738602e+05  4.815512767078e-02
2.800000000000e-01 8.399999659933e+07 1.000000000000e+05 -8.389999659933e+07 6.601393939774e-01 3.398606060226e-01 1.384930274950e-12 -7.752225639262e-11 2.259410150243e-16 -3.598508879985e-15 2.447524785286e+06 1.008443611051e+06  4.835179677880e-02
2.900000000000e-01 8.399999811584e+07 1.000000000000e+05 -8.389999811584e+07 6.601393882524e-01 3.398606117476e-01 1.329361176857e-12 -7.541302821244e-11 2.218391294025e-16 -3.545009327928e-15 2.550376155691e+06 1.053119386083e+06  4.853053964509e-02
3.000000000000e-01 8.399999967516e+07 1.000000000000e+05 -8.389999967516e+07 6.601393824307e-01 3.398606175693e-01 1.266150087010e-12 -7.309026503381e-11 2.174886747203e-16 -3.488767200896e-15 2.612332928708e+06 1.074908606404e+06  4.864886113497e-02
3.100000000000e-01 8.400000126429e+07 1.000000000000e+05 -8.390000126429e+07 6.601393765587e-01 3.398606234413e-01 1.195996481340e-12 -7.057911661843e-11 2.129843493415e-16 -3.430247398972e-15 2.731757046283e+06 1.121217597590e+06  4.880896809040e-02
3.200000000000e-01 8.400000287096e+07 1.000000000000e+05 -8.390000287096e+07 6.601393706797e-01 3.398606293203e-01 1.119583186653e-12 -6.790474136174e-11 2.083549467015e-16 -3.369950082812e-15 2.814943326091e+06 1.160744080538e+06  4.895162183378e-02
3.300000000000e-01 8.400000448355e+07 1.000000000000e+05 -8.390000448355e+07 6.601393648340e-01 3.398606351660e-01 1.037576566881e-12 -6.509217637628e-11 2.036279056069e-16 -3.308400635111e-15 2.888318890537e+06 1.189304287577e+06  4.906908907630e-02
3.400000000000e-01 8.400000609117e+07 1.000000000000e+05 -8.390000609117e+07 6.601393590590e-01 3.398606409410e-01 9.506279746381e-13 -6.216608278518e-11 1.988552821403e-16 -3.246079622601e-15 2.974869496194e+06 1.222785630774e+06  4.920714231899e-02
3.500000000000e-01 8.400000768375e+07 1.000000000000e+05 -8.390000768375e+07 6.601393533886e-01 3.398606466114e-01 8.593678293354e-13 -5.915041134047e-11 1.940364534221e-16 -3.183289468775e-15 3.063289890560e+06 1.255086397159e+06  4.933518441321e-02
3.600000000000e-01 8.400000925197e+07 1.000000000000e+05 -8.390000925197e+07 6.601393478541e-01 3.398606521459e-01 7.644089933660e-13 -5.606844112952e-11 1.892508334075e-16 -3.120574047819e-15 3.153909127033e+06 1.288078369018e+06  4.945785092150e-02
3.700000000000e-01 8.400001078720e+07 1.000000000000e+05 -8.390001078720e+07 6.601393424837e-01 3.398606575163e-01 6.663407747973e-13 -5.294273733639e-11 1.844688134587e-16 -3.058257557782e-15 3.274852377869e+06 1.335025108660e+06  4.957786978576e-02
3.800000000000e-01 8.400001228149e+07 1.000000000000e+05 -8.390001228149e+07 6.601393373030e-01 3.398606626970e-01 5.657388801069e-13 -4.979501568238e-11 1.797573408956e-16 -2.996766020109e-15 3.340702157799e+06 1.363978510603e+06  4.967037138826e-02
3.900000000000e-01 8.400001372765e+07 1.000000000000e+05 -8.390001372765e+07 6.601393323350e-01 3.398606676650e-01 4.631557546908e-13 -4.664598881629e-11 1.751050807422e-16 -2.936410231531e-15 3.434439257266e+06 1.402498717675e+06  4.978638543127e-02
4.000000000000e-01 8.400001511923e+07 1.000000000000e+05 -8.390001511923e+07 6.601393275997e-01 3.398606724003e-01 3.591244881385e-13 -4.351518577562e-11 1.705836214591e-16 -2.877452962426e-15 3.523022520644e+06 1.441900633361e+06  4.990352546731e-02
4.100000000000e-01 8.400001645044e+07 1.000000000000e+05 -8.390001645044e+07 6.601393231146e-01 3.398606768854e-01 2.541506970616e-13 -4.042118627648e-11 1.661466201930e-16 -2.820227139544e-15 3.595456474100e+06 1.473913379206e+06  5.001355443970e-02
4.200000000000e-01 8.400001771613e+07 1.000000000000e+05 -8.390001771613e+07 6.601393188949e-01 3.398606811051e-01 1.487234468864e-13 -3.738143531084e-11 1.618634442842e-16 -2.764933041711e-15 3.739946773657e+06 1.529082701105e+06  5.011021103270e-02
4.300000000000e-01 8.400001891176e+07 1.000000000000e+05 -8.390001891176e+07 6.601393149537e-01 3.398606850463e-01 4.331021927275e-14 -3.441231677510e-11 1.577303967367e-16 -2.711856702606e-15 3.791086964228e+06 1.552007423296e+06  5.015693020881e-02
4.400000000000e-01 8.400002003344e+07 1.000000000000e+05 -8.390002003344e+07 6.601393113017e-01 3.398606886983e-01 -6.164284333431e-14 -3.152890910535e-11 1.537716789969e-16 -2.661251180068e-15 3.877574660984e+06 1.589561419053e+06  5.024021812244e-02
4.500000000000e-01 8.400002107796e+07 1.000000000000e+05 -8.390002107796e+07 6.601393079471e-01 3.398606920529e-01 -1.657161021480e-13 -2.874504039938e-11 1.499917851478e-16 -2.613302003227e-15 3.963838347656e+06 1.628225382784e+06  5.032401133218e-02
4.600000000000e-01 8.400002204264e+07 1.000000000000e+05 -8.390002204264e+07 6.601393048964e-01 3.398606951036e-01 -2.685112306843e-13 -2.607341534944e-11 1.464281517130e-16 -2.568142112118e-15 4.048431391625e+06 1.665583073027e+06  5.040223824307e-02
4.700000000000e-01 8.400002292535e+07 1.000000000000e+05 -8.390002292535e+07 6.601393021542e-01 3.398606978458e-01 -3.696540176307e-13 -2.352555988912e-11 1.430279210476e-16 -2.525936916558e-15 4.128928444034e+06 1.701079225072e+06  5.047671145302e-02
4.800000000000e-01 8.400002372449e+07 1.000000000000e+05 -8.390002372449e+07 6.601392997230e-01 3.398607002770e-01 -4.687876139936e-13 -2.111180134079e-11 1.398851572304e-16 -2.486846479990e-15 4.209681832261e+06 1.734957248781e+06  5.054673376086e-02
4.900000000000e-01 8.400002443892e+07 1.000000000000e+05 -8.390002443892e+07 6.601392976041e-01 3.398607023959e-01 -5.655769656226e-13 -1.884135224531e-11 1.369436368916e-16 -2.450926630135e-15 4.282863412980e+06 1.763714958168e+06  5.060976025519e-02
5.000000000000e-01 8.400002506803e+07 1.000000000000e+05 -8.390002506803e+07 6.601392957967e-01 3.398607042033e-01 -6.597114265112e-13 -1.672218022057e-11 1.342153206799e-16 -2.418292125858e-15 4.360183627877e+06 1.796574185240e+06  5.068076166231e-02
5.100000000000e-01 8.400002561166e+07 1.000000000000e+05 -8.390002561166e+07 6.601392942987e-01 3.398607057013e-01 -7.509013289749e-13 -1.476121195022e-11 1.317511544070e-16 -2.388990457423e-15 4.439885270744e+06 1.830165642073e+06  5.075202787001e-02
5.200000000000e-01 8.400002607003e+07 1.000000000000e+05 -8.390002607003e+07 6.601392931067e-01 3.398607068933e-01 -8.388814591589e-13 -1.296430149664e-11 1.295268544987e-16 -2.363139745890e-15 4.518758279336e+06 1.863440505288e+06  5.082137437800e-02
5.300000000000e-01 8.400002644377e+07 1.000000000000e+05 -8.390002644377e+07 6.601392922160e-01 3.398607077840e-01 -9.234060034994e-13 -1.133624027625e-11 1.275493598737e-16 -2.340722008196e-15 4.594959599692e+06 1.895586113031e+06  5.088722527449e-02
5.400000000000e-01 8.400002673388e+07 1.000000000000e+05 -8.390002673388e+07 6.601392916206e-01 3.398607083794e-01 -1.004248436045e-12 -9.880824846221e-12 1.258140052746e-16 -2.321765806164e-15 4.677166357322e+06 1.930266797545e+06  5.095705861633e-02
5.500000000000e-01 8.400002694165e+07 1.000000000000e+05 -8.390002694165e+07 6.601392913136e-01 3.398607086864e-01 -1.081197436810e-12 -8.600885531297e-12 1.243380652802e-16 -2.306265102704e-15 4.758326529064e+06 1.964507602572e+06  5.102481136534e-02
5.600000000000e-01 8.400002706868e+07 1.000000000000e+05 -8.390002706868e+07 6.601392912874e-01 3.398607087126e-01 -1.154068108264e-12 -7.498380947981e-12 1.230810372920e-16 -2.294245025764e-15 4.837050116855e+06 1.997721799201e+06  5.108943593879e-02
5.700000000000e-01 8.400002711693e+07 1.000000000000e+05 -8.390002711693e+07 6.601392915328e-01 3.398607084672e-01 -1.222692837305e-12 -6.574294736309e-12 1.220899191654e-16 -2.285658127795e-15 4.916197205212e+06 2.031115935041e+06  5.115335870442e-02
5.800000000000e-01 8.400002708861e+07 1.000000000000e+05 -8.390002708861e+07 6.601392920403e-01 3.398607079597e-01 -1.286925585668e-12 -5.828766234464e-12 1.213419768614e-16 -2.280500385562e-15 4.998343583950e+06 2.065776898053e+06  5.121862815163e-02
5.900000000000e-01 8.400002698615e+07 1.000000000000e+05 -8.390002698615e+07 6.601392927993e-01 3.398607072007e-01 -1.346637833522e-12 -5.261142700729e-12 1.208422644567e-16 -2.278661160041e-15 5.078641015143e+06 2.099659174587e+06  5.128140145356e-02
6.000000000000e-01 8.400002681222e+07 1.000000000000e+05 -8.390002681222e+07 6.601392937989e-01 3.398607062011e-01 -1.401722090629e-12 -4.870024885965e-12 1.205687601797e-16 -2.280098275301e-15 5.158692032811e+06 2.133438729929e+06  5.134300371461e-02
6.100000000000e-01 8.400002656965e+07 1.000000000000e+05 -8.390002656965e+07 6.601392950275e-01 3.398607049725e-01 -1.452078494581e-12 -4.653306583967e-12 1.205731773626e-16 -2.284788072762e-15 5.242699818598e+06 2.168889251371e+06  5.140663502101e-02
6.200000000000e-01 8.400002626145e+07 1.000000000000e+05 -8.390002626145e+07 6.601392964731e-01 3.398607035269e-01 -1.497633780078e-12 -4.608185180943e-12 1.207899499960e-16 -2.292563510186e-15 5.323724908969e+06 2.203082589767e+06  5.146704950899e-02
6.300000000000e-01 8.400002589082e+07 1.000000000000e+05 -8.390002589082e+07 6.601392981232e-01 3.398607018768e-01 -1.538328363122e-12 -4.731252447852e-12 1.212325885443e-16 -2.303430331605e-15 5.404881493971e+06 2.237332591293e+06  5.152664904793e-02
6.400000000000e-01 8.400002546106e+07 1.000000000000e+05 -8.390002546106e+07 6.601392999650e-01 3.398607000350e-01 -1.574117625491e-12 -5.018540420969e-12 1.219145173629e-16 -2.317232551049e-15 5.490146921450e+06 2.273317926251e+06  5.158831322818e-02
6.500000000000e-01 8.400002497558e+07 1.000000000000e+05 -8.390002497558e+07 6.601393019853e-01 3.398606980147e-01 -1.604973682207e-12 -5.465524326450e-12 1.228230129947e-16 -2.333865976906e-15 5.572292142817e+06 2.307987869148e+06  5.164682270393e-02
6.600000000000e-01 8.400002443791e+07 1.000000000000e+05 -8.390002443791e+07 6.601393041709e-01 3.398606958291e-01 -1.630884494134e-12 -6.067191107926e-12 1.239185554972e-16 -2.353201665750e-15 5.654827351328e+06 2.342823564598e+06  5.170474943004e-02
6.700000000000e-01 8.400002385164e+07 1.000000000000e+05 -8.390002385164e+07 6.601393065084e-01 3.398606934916e-01 -1.651848833832e-12 -6.818105587832e-12 1.252450593257e-16 -2.375190016711e-15 5.739017699813e+06 2.378359126638e+06  5.176297561738e-02
6.800000000000e-01 8.400002322033e+07 1.000000000000e+05 -8.390002322033e+07 6.601393089844e-01 3.398606910156e-01 -1.667877787852e-12 -7.712524609027e-12 1.267667654397e-16 -2.399644477958e-15 5.822797327865e+06 2.413722645934e+06  5.182007765028e-02
6.900000000000e-01 8.400002254770e+07 1.000000000000e+05 -8.390002254770e+07 6.601393115853e-01 3.398606884147e-01 -1.679000629462e-12 -8.744212757670e-12 1.284798578660e-16 -2.426485343066e-15 5.907798948769e+06 2.449603208005e+06  5.187718112731e-02
7.000000000000e-01 8.400002183747e+07 1.000000000000e+05 -8.390002183747e+07 6.601393142976e-01 3.398606857024e-01 -1.685257283734e-12 -9.906604881644e-12 1.303897674534e-16 -2.455508834817e-15 5.992581022486e+06 2.485392377211e+06  5.193332617544e-02
7.100000000000e-01 8.400002109339e+07 1.000000000000e+05 -8.390002109339e+07 6.601393171076e-01 3.398606828924e-01 -1.686699874272e-12 -1.119286279990e-11 1.324762946252e-16 -2.486657065219e-15 6.078743920981e+06 2.521765679978e+06  5.198957975393e-02
7.200000000000e-01 8.400002031921e+07 1.000000000000e+05 -8.390002031921e+07 6.601393200019e-01 3.398606799981e-01 -1.683390995813e-12 -1.259590543394e-11 1.347374326563e-16 -2.519783057463e-15 6.164271750346e+06 2.557872180439e+06  5.204463714567e-02
7.300000000000e-01 8.400001951863e+07 1.000000000000e+05 -8.390001951863e+07 6.601393229673e-01 3.398606770327e-01 -1.675403905380e-12 -1.410844813130e-11 1.371561969043e-16 -2.554717627013e-15 6.249544768011e+06 2.593872308921e+06  5.209877670688e-02
7.400000000000e-01 8.400001869534e+07 1.000000000000e+05 -8.390001869534e+07 6.601393259907e-01 3.398606740093e-01 -1.662822814175e-12 -1.572305546167e-11 1.397466000043e-16 -2.591351440762e-15 6.333537074680e+06 2.629332948345e+06  5.215138695028e-02
7.500000000000e-01 8.400001785299e+07 1.000000000000e+05 -8.390001785299e+07 6.601393290594e-01 3.398606709406e-01 -1.645739183851e-12 -1.743215720146e-11 1.424644646377e-16 -2.629517278771e-15 6.419721975888e+06 2.665720402972e+06  5.220465234460e-02
7.600000000000e-01 8.400001699517e+07 1.000000000000e+05 -8.390001699517e+07 6.601393321605e-01 3.398606678395e-01 -1.624255048081e-12 -1.922804339642e-11 1.452877615246e-16 -2.669067677603e-15 6.503472578748e+06 2.701081330843e+06  5.225573346965e-02
7.700000000000e-01 8.400001612545e+07 1.000000000000e+05 -8.390001612545e+07 6.601393352820e-01 3.398606647180e-01 -1.598480332537e-12 -2.110293675023e-11 1.482762902026e-16 -2.709917455539e-15 6.590498723925e+06 2.737826294074e+06  5.230812241360e-02
7.800000000000e-01 8.400001524730e+07 1.000000000000e+05 -8.390001524730e+07 6.601393384116e-01 3.398606615884e-01 -1.568534720156e-12 -2.304900727751e-11 1.513803732119e-16 -2.751864494671e-15 6.677016687022e+06 2.774357957924e+06  5.235952560816e-02
7.900000000000e-01 8.400001436409e+07 1.000000000000e+05 -8.390001436409e+07 6.601393415379e-01 3.398606584621e-01 -1.534543119224e-12 -2.505847577063e-11 1.545765311402e-16 -2.794840594193e-15 6.760314644244e+06 2.809531115452e+06  5.240839074060e-02
8.000000000000e-01 8.400001347915e+07 1.000000000000e+05 -8.390001347915e+07 6.601393446495e-01 3.398606553505e-01 -1.496636180445e-12 -2.712352572478e-11 1.578827874848e-16 -2.838646953915e-15 6.845920392365e+06 2.845679751992e+06  5.245798812484e-02
8.100000000000e-01 8.400001259570e+07 1.000000000000e+05 -8.390001259570e+07 6.601393477355e-01 3.398606522645e-01 -1.454952904424e-12 -2.923633302004e-11 1.612755666297e-16 -2.883144061179e-15 6.931287897961e+06 2.881728949397e+06  5.250683503846e-02
8.200000000000e-01 8.400001171691e+07 1.000000000000e+05 -8.390001171691e+07 6.601393507852e-01 3.398606492148e-01 -1.409636552720e-12 -3.138913488338e-11 1.647682738312e-16 -2.928199238735e-15 7.017344021148e+06 2.918069984853e+06  5.255547223652e-02
8.300000000000e-01 8.400001084578e+07 1.000000000000e+05 -8.390001084578e+07 6.601393537887e-01 3.398606462113e-01 -1.360835433072e-12 -3.357429381959e-11 1.683409149137e-16 -2.973705542639e-15 7.102182087772e+06 2.953897749848e+06  5.260284167266e-02
8.400000000000e-01 8.400000998525e+07 1.000000000000e+05 -8.390000998525e+07 6.601393567361e-01 3.398606432639e-01 -1.308701469751e-12 -3.578424030433e-11 1.719852353775e-16 -3.019561759834e-15 7.186305083352e+06 2.989424549777e+06  5.264925743283e-02
8.500000000000e-01 8.400000913814e+07 1.000000000000e+05 -8.390000913814e+07 6.601393596182e-01 3.398606403818e-01 -1.253392406568e-12 -3.801150305205e-11 1.756887163373e-16 -3.065578992323e-15 7.269671138281e+06 3.024632670922e+06  5.269472357062e-02
8.600000000000e-01 8.400000830716e+07 1.000000000000e+05 -8.390000830716e+07 6.601393624260e-01 3.398606375740e-01 -1.195073737291e-12 -4.024876786061e-11 1.794352572380e-16 -3.111696617134e-15 7.351956961143e+06 3.059385542167e+06  5.273909301395e-02
8.700000000000e-01 8.400000749492e+07 1.000000000000e+05 -8.390000749492e+07 6.601393651511e-01 3.398606348489e-01 -1.133910281799e-12 -4.248887507192e-11 1.832144651929e-16 -3.157693861700e-15 7.432992425911e+06 3.093611252756e+06  5.278230634688e-02
8.800000000000e-01 8.400000670387e+07 1.000000000000e+05 -8.390000670387e+07 6.601393677855e-01 3.398606322145e-01 -1.070070775802e-12 -4.472483522868e-11 1.870481684061e-16 -3.203522562928e-15 7.511961125574e+06 3.126964931727e+06  5.282396725776e-02
8.900000000000e-01 8.400000593636e+07 1.000000000000e+05 -8.390000593636e+07 6.601393703219e-01 3.398606296781e-01 -1.003725650064e-12 -4.694983375162e-11 1.909062209305e-16 -3.249080909663e-15 7.590348983157e+06 3.160074099210e+06  5.286489165259e-02
9.000000000000e-01 8.400000519460e+07 1.000000000000e+05 -8.390000519460e+07 6.601393727531e-01 3.398606272469e-01 -9.350476555935e-13 -4.915726448508e-11 1.947560332194e-16 -3.294173147991e-15 7.667257504301e+06 3.192559254841e+06  5.290463568131e-02
9.100000000000e-01 8.400000448062e+07 1.000000000000e+05 -8.390000448062e+07 6.601393750727e-01 3.398606249273e-01 -8.642069494745e-13 -5.134079639460e-11 1.986324905204e-16 -3.338783697847e-15 7.743235486986e+06 3.224652121505e+06  5.294350997747e-02
9.200000000000e-01 8.400000379638e+07 1.000000000000e+05 -8.390000379638e+07 6.601393772749e-01 3.398606227251e-01 -7.913762875523e-13 -5.349426373123e-11 2.025238643685e-16 -3.382795544555e-15 7.817682543287e+06 3.256099072895e+06  5.298123330089e-02
9.300000000000e-01 8.400000314371e+07 1.000000000000e+05 -8.390000314371e+07 6.601393793539e-01 3.398606206461e-01 -7.167315370241e-13 -5.561169297310e-11 2.063828463054e-16 -3.426120722694e-15 7.889776352890e+06 3.286552713419e+06  5.301742378285e-02
9.400000000000e-01 8.400000252436e+07 1.000000000000e+05 -8.390000252436e+07 6.601393813044e-01 3.398606186956e-01 -6.404464037422e-13 -5.768730604279e-11 2.102248463579e-16 -3.468636376988e-15 7.958553463433e+06 3.315605947405e+06  5.305164257935e-02
9.500000000000e-01 8.400000193989e+07 1.000000000000e+05 -8.390000193989e+07 6.601393831219e-01 3.398606168781e-01 -5.626952885503e-13 -5.971560861005e-11 2.140643319176e-16 -3.510251464600e-15 8.025721784200e+06 3.343980145178e+06  5.308477709525e-02
9.600000000000e-01 8.400000139178e+07 1.000000000000e+05 -8.390000139178e+07 6.601393848018e-01 3.398606151982e-01 -4.836540472773e-13 -6.169136755567e-11 2.178813524954e-16 -3.550898340122e-15 8.091324211274e+06 3.371693417842e+06  5.311687293813e-02
9.700000000000e-01 8.400000088134e+07 1.000000000000e+05 -8.390000088134e+07 6.601393863406e-01 3.398606136594e-01 -4.034980929456e-13 -6.360960472370e-11 2.216712850308e-16 -3.590494221080e-15 8.155702428656e+06 3.398890056391e+06  5.314811825513e-02
9.800000000000e-01 8.400000040977e+07 1.000000000000e+05 -8.390000040977e+07 6.601393877347e-01 3.398606122653e-01 -3.224010016398e-13 -6.546560524189e-11 2.254220492416e-16 -3.628941082068e-15 8.217629457628e+06 3.425051684009e+06  5.317794227194e-02
9.900000000000e-01 8.399999997813e+07 1.000000000000e+05 -8.389999997813e+07 6.601393889814e-01 3.398606110186e-01 -2.405366473479e-13 -6.725492414585e-11 2.291149605216e-16 -3.666209662765e-15 8.278344783875e+06 3.450701870763e+06  5.320696567580e-02
1.000000000000e+00 8.399999958736e+07 1.000000000000e+05 -8.389999958736e+07 6.601393900782e-01 3.398606099218e-01 -1.580726892265e-13 -6.897338833927e-11 2.327803735143e-16 -3.702218967973e-15 8.338740827296e+06 3.476217625423e+06  5.323562648427e-02
1.050000000000e+00 8.399999870128e+07 1.000000000000e+05 -8.389999870128e+07 6.601393917511e-01 3.398606082489e-01 2.498253561077e-13 -7.544008115755e-11 2.490800567684e-16 -3.845219599924e-15 8.673457329996e+06 3.617633427061e+06  5.343279551341e-02
1.100000000000e+00 8.399999887127e+07 1.000000000000e+05 -8.389999887127e+07 6.601393897404e-01 3.398606102596e-01 6.360734588937e-13 -7.957815036533e-11 2.630749894470e-16 -3.948352380764e-15 8.568271748053e+06 3.571867595896e+06  5.338327728135e-02
1.150000000000e+00 8.400000003474e+07 1.000000000000e+05 -8.390000003474e+07 6.601393843388e-01 3.398606156612e-01 9.860591242856e-13 -8.132616729554e-11 2.742625479598e-16 -4.010937796049e-15 9.056972305554e+06 3.778370624196e+06  5.365969519378e-02
1.200000000000e+00 8.400000208970e+07 1.000000000000e+05 -8.390000208970e+07 6.601393759622e-01 3.398606240378e-01 1.287992330230e-12 -8.074414256441e-11 2.826940170697e-16 -4.034444801710e-15 9.205538118743e+06 3.840564096383e+06  5.372327260310e-02
1.250000000000e+00 8.400000490554e+07 1.000000000000e+05 -8.390000490554e+07 6.601393651123e-01 3.398606348877e-01 1.532939389335e-12 -7.799199076622e-11 2.882004951940e-16 -4.021742108941e-15 9.570608377801e+06 3.994334145054e+06  5.387934648379e-02
1.300000000000e+00 8.400000833151e+07 1.000000000000e+05 -8.390000833151e+07 6.601393523468e-01 3.398606476532e-01 1.714814584796e-12 -7.331073591870e-11 2.908483238154e-16 -3.977109572806e-15 9.848525138857e+06 4.102363754120e+06  5.398068835540e-02
1.350000000000e+00 8.400001220703e+07 1.000000000000e+05 -8.390001220703e+07 6.601393382445e-01 3.398606617555e-01 1.830232976365e-12 -6.699865427233e-11 2.907160317519e-16 -3.905323198795e-15 1.004021574633e+07 4.189296914110e+06  5.407149149700e-02
1.400000000000e+00 8.400001636828e+07 1.000000000000e+05 -8.390001636828e+07 6.601393233835e-01 3.398606766165e-01 1.878342587843e-12 -5.939365721727e-11 2.880662528092e-16 -3.812192849784e-15 1.024616026916e+07 4.270523210801e+06  5.416412672376e-02