 TITLE = "Time curves in points"
 VARIABLES = "TIME"  "DISPLACEMENT_X1"  "DISPLACEMENT_Y1"  "STRESS_XX"  "STRESS_XY"  "STRESS_YY"  "STRESS_ZZ"  "STRAIN_XX"  "STRAIN_XY"  "STRAIN_YY"  p_(1st_Invariant)  q_(2nd_Invariant)   Effective_Strain
 ZONE T="POINT=POINT5"
0.000000000000e+00 0.000000000000e+00 0.000000000000e+00 -1.000000000000e+05 0.000000000000e+00 -1.000000000000e+05 -1.000000000000e+05 0.000000000000e+00 0.000000000000e+00 0.000000000000e+00 1.000000000000e+05 0.000000000000e+00  0.000000000000e+00
1.000000000000e-03 -8.409117696485e-07 -8.372191870033e-05 -2.901860928608e+04 4.532524550915e+03 1.558685587250e+04 -2.537747513784e+04 -3.738231058862e-04 9.306783744546e-04 4.205671317062e-03 1.293640951714e+04 4.361332633411e+04  4.690210951094e-03
2.000000000000e-03 3.093208986746e-06 5.598343849748e-04 -1.310273959750e+05 1.776292512575e+03 -1.396446634627e+05 -1.282736041898e+05 4.834309075767e-05 -2.031752307911e-03 -2.539891681855e-02 1.329818878758e+05 1.072550576149e+04  2.566552604317e-02
3.000000000000e-03 2.081407814425e-06 8.058868495635e-04 -2.687271434576e+05 1.744718022139e+03 -3.317471680073e+05 -2.601945552514e+05 -7.141675183159e-04 -2.873145337559e-03 -3.565470577804e-02 2.868896222388e+05 6.775828065189e+04  3.565206219861e-02
4.000000000000e-03 5.328189834196e-07 9.200323037626e-04 -6.750064658505e+05 6.093461351293e+03 -8.713738255946e+05 -6.385570130580e+05 -1.465723316114e-03 -3.497442232265e-03 -4.006225641836e-02 7.283124348344e+05 2.171579522017e+05  3.981342559169e-02
5.000000000000e-03 5.524809615401e-07 9.387583809363e-04 -8.355369135946e+05 -2.924318183046e+04 -1.115596158457e+06 -8.004581079307e+05 -1.469013878691e-03 -4.421133003362e-03 -4.118673835829e-02 9.171970599941e+05 3.034029303010e+05  4.119029957652e-02
6.000000000000e-03 1.063432326434e-06 9.437827043362e-04 -8.630079031517e+05 -4.259845709437e+04 -1.169578180675e+06 -8.330393235793e+05 -1.397761748323e-03 -4.743684956887e-03 -4.145764114015e-02 9.552084691353e+05 3.309302225835e+05  4.159626765420e-02
7.000000000000e-03 1.145599366711e-06 9.460691430970e-04 -8.836223550827e+05 -4.690958649979e+04 -1.203219812207e+06 -8.547418474663e+05 -1.388273585494e-03 -4.836157227203e-03 -4.158611422184e-02 9.805280049185e+05 3.446857743389e+05  4.175840688893e-02
8.000000000000e-03 1.105089484432e-06 9.492698130069e-04 -9.124668725045e+05 -4.578135305263e+04 -1.242869811491e+06 -8.821398226706e+05 -1.402193561360e-03 -4.812211272909e-03 -4.173263369992e-02 1.012492168889e+06 3.555190224174e+05  4.188715512001e-02
9.000000000000e-03 1.105397299492e-06 9.495427208100e-04 -9.172271983444e+05 -4.719480590783e+04 -1.247187010653e+06 -8.857708228920e+05 -1.412546480984e-03 -4.837629284627e-03 -4.173865751452e-02 1.016728343963e+06 3.562644665828e+05  4.189702848853e-02
1.000000000000e-02 1.108014102754e-06 9.501930584983e-04 -9.239860938948e+05 -4.737876429597e+04 -1.257530859957e+06 -8.926119031617e+05 -1.411764212041e-03 -4.841123523624e-03 -4.177084139656e-02 1.024709619005e+06 3.597713021335e+05  4.193012188260e-02
2.000000000000e-02 1.273386698022e-06 9.974707454510e-04 -1.541099682757e+06 -7.079150158793e+04 -2.169348410141e+06 -1.504183644438e+06 -1.453631308832e-03 -5.204887422747e-03 -4.403691485072e-02 1.738210579112e+06 6.590038099512e+05  4.425632197359e-02
3.000000000000e-02 1.190416782932e-06 9.500659034982e-04 -9.474886597233e+05 -5.165981391056e+04 -1.295471899144e+06 -9.171873085597e+05 -1.400982433825e-03 -4.897127817811e-03 -4.179139875856e-02 1.053382622476e+06 3.749147613217e+05  4.197475823662e-02
4.000000000000e-02 9.145476733556e-07 9.320142621500e-04 -7.936994046459e+05 -4.291378623692e+04 -1.067379452283e+06 -7.644330189667e+05 -1.390993576962e-03 -4.679069254074e-03 -4.089163782707e-02 8.751706252987e+05 2.988171594471e+05  4.102270065459e-02
5.000000000000e-02 8.772476629932e-07 9.392964227133e-04 -8.487826138215e+05 -4.395447582628e+04 -1.146570496298e+06 -8.181413856404e+05 -1.407051219812e-03 -4.706907495105e-03 -4.121030781213e-02 9.378314985865e+05 3.233219480737e+05  4.133701953132e-02
6.000000000000e-02 8.747943682836e-07 9.607611863770e-04 -1.049889697505e+06 -5.107564789881e+04 -1.440263870926e+06 -1.016059808421e+06 -1.440319080345e-03 -4.861552974576e-03 -4.223854514771e-02 1.168737792284e+06 4.178144768701e+05  4.238202832239e-02
7.000000000000e-02 8.519305739705e-07 9.682604791092e-04 -1.135400591606e+06 -5.584421446633e+04 -1.568797445123e+06 -1.101675465706e+06 -1.439447834785e-03 -4.946635438057e-03 -4.261899889551e-02 1.268624500812e+06 4.614567250269e+05  4.278446981926e-02
8.000000000000e-02 8.256882426125e-07 9.756408514636e-04 -1.228183404510e+06 -5.554390380094e+04 -1.708631958730e+06 -1.194719295613e+06 -1.437404912290e-03 -4.943005550687e-03 -4.297637404325e-02 1.377178219618e+06 5.072315233916e+05  4.313421286227e-02
9.000000000000e-02 8.038575009777e-07 9.821329529883e-04 -1.303879618161e+06 -5.401648934073e+04 -1.821006828774e+06 -1.269944386530e+06 -1.441415284613e-03 -4.923021068274e-03 -4.327026872359e-02 1.464943611155e+06 5.430233208061e+05  4.341349808576e-02
1.000000000000e-01 7.187169725740e-07 9.869328556518e-04 -1.364489503100e+06 -5.261704886164e+04 -1.910483193306e+06 -1.329975970584e+06 -1.445530654141e-03 -4.901063669927e-03 -4.350386765980e-02 1.534982888997e+06 5.713581417502e+05  4.363314292196e-02
1.100000000000e-01 7.045268927956e-07 9.917019759097e-04 -1.435108493770e+06 -5.118849072061e+04 -2.011752916398e+06 -1.398728366984e+06 -1.458356765183e-03 -4.883180096308e-03 -4.372325320661e-02 1.615196592384e+06 6.022304257723e+05  4.383630820305e-02
1.200000000000e-01 6.654184054158e-07 9.964762262281e-04 -1.498502218696e+06 -5.005029808129e+04 -2.105646018247e+06 -1.461639501034e+06 -1.461239553360e-03 -4.867521538428e-03 -4.393976351449e-02 1.688595912659e+06 6.323594869720e+05  4.404213682497e-02
1.300000000000e-01 6.462344378195e-07 1.001428448596e-03 -1.572877664291e+06 -4.933182283922e+04 -2.213658207766e+06 -1.534591011466e+06 -1.469999887386e-03 -4.858086774087e-03 -4.417498927446e-02 1.773708961175e+06 6.662580589529e+05  4.426574713165e-02
1.400000000000e-01 6.284732679051e-07 1.006991903044e-03 -1.663115434822e+06 -4.890576511172e+04 -2.345616209314e+06 -1.623465500156e+06 -1.478309532448e-03 -4.853136373004e-03 -4.443734678837e-02 1.877399048097e+06 7.082484431348e+05  4.451774739668e-02
1.500000000000e-01 5.974828325319e-07 1.011952935857e-03 -1.752591663591e+06 -4.820243632086e+04 -2.476223416767e+06 -1.711494744285e+06 -1.486668223193e-03 -4.846879004507e-03 -4.466508608767e-02 1.980103274881e+06 7.496941585411e+05  4.473538467148e-02
1.600000000000e-01 5.802582765311e-07 1.016839861711e-03 -1.830797443342e+06 -4.689054720241e+04 -2.594650222850e+06 -1.790143701951e+06 -1.483741338851e-03 -4.836069357759e-03 -4.489212428324e-02 2.071863789381e+06 7.891599578426e+05  4.495618657019e-02
1.700000000000e-01 5.438684712066e-07 1.021803034470e-03 -1.922189817973e+06 -4.731523499057e+04 -2.728935234703e+06 -1.880410675538e+06 -1.490500136294e-03 -4.843967890269e-03 -4.512331749564e-02 2.177178576071e+06 8.324692127754e+05  4.518264198071e-02
1.800000000000e-01 4.867010781203e-07 1.026639362815e-03 -2.014438986808e+06 -4.798078195056e+04 -2.866026421589e+06 -1.972142929237e+06 -1.493091013579e-03 -4.853999826693e-03 -4.535477904274e-02 2.284202779211e+06 8.774482167287e+05  4.541200758315e-02
1.900000000000e-01 4.482115468717e-07 1.031265724939e-03 -2.100487160347e+06 -4.602031648989e+04 -2.988542586146e+06 -2.055564894727e+06 -1.506302911440e-03 -4.835138905054e-03 -4.556807428705e-02 2.381531547074e+06 9.148264969668e+05  4.560937101536e-02
2.000000000000e-01 4.297577016821e-07 1.035943226829e-03 -2.211599945572e+06 -4.409147218469e+04 -3.152592639673e+06 -2.165626100504e+06 -1.511462488670e-03 -4.821301730293e-03 -4.580746644379e-02 2.509939561916e+06 9.678192346038e+05  4.583783464286e-02
2.100000000000e-01 3.989641466297e-07 1.040214160574e-03 -2.305006461054e+06 -4.237150039994e+04 -3.288898893973e+06 -2.257507291737e+06 -1.519444547850e-03 -4.806553882663e-03 -4.599420106078e-02 2.617137548921e+06 1.011148157315e+06  4.601302517331e-02
2.200000000000e-01 3.719891618882e-07 1.044568899679e-03 -2.393122124850e+06 -4.382860760782e+04 -3.420194024861e+06 -2.345268071080e+06 -1.521010816871e-03 -4.820562822250e-03 -4.619341888579e-02 2.719528073597e+06 1.054551607422e+06  4.621253304288e-02
2.300000000000e-01 3.517037463239e-07 1.048655883173e-03 -2.495059419016e+06 -4.461466719572e+04 -3.569391443760e+06 -2.445718163798e+06 -1.527196443131e-03 -4.829859325405e-03 -4.638722820398e-02 2.836723008858e+06 1.102544400496e+06  4.640309777175e-02
2.400000000000e-01 3.097792668313e-07 1.052043046378e-03 -2.571308019244e+06 -4.626941284746e+04 -3.679456037473e+06 -2.520240135281e+06 -1.534392601292e-03 -4.843980292700e-03 -4.654046676761e-02 2.923668063999e+06 1.137371227516e+06  4.655481172727e-02
2.500000000000e-01 2.926777519648e-07 1.055336922145e-03 -2.671957647053e+06 -4.692244147049e+04 -3.819479897149e+06 -2.616505841057e+06 -1.549492821768e-03 -4.846773089241e-03 -4.669135929072e-02 3.035981128419e+06 1.179033309531e+06  4.669699843133e-02
2.600000000000e-01 2.704010141182e-07 1.058494084019e-03 -2.756381788174e+06 -4.615823831727e+04 -3.945627758732e+06 -2.700731397242e+06 -1.550519412899e-03 -4.841041663423e-03 -4.683780929388e-02 3.134246981382e+06 1.220646016079e+06  4.683875116282e-02
2.700000000000e-01 2.899553309743e-07 1.061315620620e-03 -2.829376337446e+06 -4.327371378191e+04 -4.055411393802e+06 -2.773839891834e+06 -1.549473503488e-03 -4.818635327737e-03 -4.697673509516e-02 3.219542541027e+06 1.256962102987e+06  4.696895827346e-02
2.800000000000e-01 2.680560114222e-07 1.064244600564e-03 -2.915740086270e+06 -4.292986518491e+04 -4.178362322276e+06 -2.857563117808e+06 -1.558534710981e-03 -4.816263383343e-03 -4.712052240362e-02 3.317221842118e+06 1.294829689378e+06  4.710544417796e-02
2.900000000000e-01 2.686429198824e-07 1.067079886915e-03 -3.010990695249e+06 -4.453233182487e+04 -4.310329115912e+06 -2.948447362307e+06 -1.571994181039e-03 -4.826772765362e-03 -4.724796089923e-02 3.423255724490e+06 1.333943904776e+06  4.722775308255e-02
3.000000000000e-01 2.511543919155e-07 1.069901158524e-03 -3.091767265024e+06 -4.574985844215e+04 -4.425681480049e+06 -3.026896436144e+06 -1.578847980637e-03 -4.834059417717e-03 -4.737581647870e-02 3.514781727073e+06 1.369798024130e+06  4.735257043871e-02
3.100000000000e-01 2.691340181440e-07 1.072607700009e-03 -3.188814371677e+06 -4.919814764309e+04 -4.564715225157e+06 -3.121327054209e+06 -1.584799578767e-03 -4.856658101494e-03 -4.750301783634e-02 3.624952217014e+06 1.413426661530e+06  4.748185879208e-02
3.200000000000e-01 2.585645344950e-07 1.075335338436e-03 -3.298849889522e+06 -5.165229865355e+04 -4.727285081824e+06 -3.230367761336e+06 -1.588522220408e-03 -4.867640417790e-03 -4.762542680349e-02 3.752167577561e+06 1.466609376180e+06  4.760391162538e-02
3.300000000000e-01 2.446697572786e-07 1.077938406170e-03 -3.365952120308e+06 -5.210655953605e+04 -4.826982098493e+06 -3.297086119780e+06 -1.590197943954e-03 -4.871129235583e-03 -4.772558498643e-02 3.830006779527e+06 1.499370432906e+06  4.770273330500e-02
3.400000000000e-01 2.353783343868e-07 1.080589519975e-03 -3.480510212786e+06 -5.235858677383e+04 -4.996189095362e+06 -3.410591042680e+06 -1.592670079700e-03 -4.873738522107e-03 -4.785389518705e-02 3.962430116943e+06 1.554467896059e+06  4.782861483506e-02
3.500000000000e-01 2.261653026285e-07 1.083208643014e-03 -3.572840221409e+06 -5.266050176563e+04 -5.139685794829e+06 -3.504921030283e+06 -1.587749073927e-03 -4.879374810674e-03 -4.796537334609e-02 4.072482348840e+06 1.604480083010e+06  4.794231852831e-02
3.600000000000e-01 2.021464611673e-07 1.085779796341e-03 -3.645214802718e+06 -5.217273331572e+04 -5.245359539797e+06 -3.576140028507e+06 -1.591946604970e-03 -4.875398537826e-03 -4.806342116147e-02 4.155571457007e+06 1.638270466912e+06  4.803562095263e-02
3.700000000000e-01 1.930266156588e-07 1.088291684495e-03 -3.756940698766e+06 -4.980667901975e+04 -5.410267200065e+06 -3.686793499238e+06 -1.595342479625e-03 -4.865590169769e-03 -4.818368242734e-02 4.284667132690e+06 1.691693674782e+06  4.814940080193e-02
3.800000000000e-01 1.566826382273e-07 1.090659840511e-03 -3.842945425964e+06 -4.700406199110e+04 -5.540513041495e+06 -3.773293544831e+06 -1.594637655400e-03 -4.854079463573e-03 -4.828316556167e-02 4.385584004097e+06 1.735354176285e+06  4.824416083110e-02
3.900000000000e-01 1.701659387594e-07 1.092898356736e-03 -3.951378064722e+06 -5.100616350030e+04 -5.702416944968e+06 -3.881428965663e+06 -1.594299714742e-03 -4.870065908911e-03 -4.838785203483e-02 4.511741325118e+06 1.789222880143e+06  4.835218612742e-02
4.000000000000e-01 1.590087628371e-07 1.095085125720e-03 -4.023550765590e+06 -5.229531110074e+04 -5.811118117856e+06 -3.953779328373e+06 -1.594514697863e-03 -4.876930768093e-03 -4.847465716836e-02 4.596149403940e+06 1.825702778197e+06  4.843959818716e-02
4.100000000000e-01 1.546671863225e-07 1.097073924815e-03 -4.110824912089e+06 -5.601115955833e+04 -5.936950246544e+06 -4.039022894719e+06 -1.599896812864e-03 -4.895982259784e-03 -4.856673615766e-02 4.695599351118e+06 1.865588512991e+06  4.853346980481e-02
4.200000000000e-01 1.405815767351e-07 1.099018148027e-03 -4.202053970171e+06 -5.760143786391e+04 -6.069594398184e+06 -4.128573576283e+06 -1.603831589312e-03 -4.904000395892e-03 -4.865726566667e-02 4.800073981546e+06 1.907953878304e+06  4.862315680668e-02
4.300000000000e-01 1.330405467904e-07 1.100842907368e-03 -4.281786294060e+06 -5.979637650005e+04 -6.186645701720e+06 -4.207288632461e+06 -1.606028665419e-03 -4.915038887008e-03 -4.873898792333e-02 4.891906876080e+06 1.945937731791e+06  4.870590192080e-02
4.400000000000e-01 1.228561849646e-07 1.102461963765e-03 -4.370353424267e+06 -6.003460195516e+04 -6.315071781513e+06 -4.294088116437e+06 -1.609474811375e-03 -4.916059808023e-03 -4.881751579988e-02 4.993171107406e+06 1.986673825932e+06  4.878188832051e-02
4.500000000000e-01 1.190719328234e-07 1.103952100808e-03 -4.444899364237e+06 -5.999247033332e+04 -6.425611853246e+06 -4.368125019074e+06 -1.610417556077e-03 -4.916086527367e-03 -4.888522908391e-02 5.079545412186e+06 2.022864666255e+06  4.884810289433e-02
4.600000000000e-01 1.161792352138e-07 1.105478444898e-03 -4.523581191424e+06 -6.033212345351e+04 -6.542130601521e+06 -4.446208032586e+06 -1.611512909915e-03 -4.917501977402e-03 -4.895528477506e-02 5.170639941844e+06 2.060977866500e+06  4.891697338282e-02
4.700000000000e-01 1.120494057182e-07 1.106970861596e-03 -4.601803628508e+06 -6.035818024722e+04 -6.657864574645e+06 -4.523793654763e+06 -1.612661645279e-03 -4.917766624673e-03 -4.902359984723e-02 5.261153952639e+06 2.098760291322e+06  4.898376084072e-02
4.800000000000e-01 1.081115906969e-07 1.108422944510e-03 -4.679203594375e+06 -6.039466451156e+04 -6.772399738149e+06 -4.600571027283e+06 -1.613765426781e-03 -4.918059725068e-03 -4.909006790858e-02 5.350724786602e+06 2.136162238604e+06  4.904876233006e-02
4.900000000000e-01 1.041203893670e-07 1.109919595868e-03 -4.760320042377e+06 -6.044336601759e+04 -6.892461211574e+06 -4.681045767338e+06 -1.614883550148e-03 -4.918396319341e-03 -4.915857372120e-02 5.444609007096e+06 2.175383764540e+06  4.911577866831e-02
5.000000000000e-01 1.004274632582e-07 1.111352006067e-03 -4.839248888881e+06 -6.050880524472e+04 -7.009310658869e+06 -4.759360895002e+06 -1.615934379232e-03 -4.918778049064e-03 -4.922413279398e-02 5.535973480917e+06 2.213570871931e+06  4.917994161501e-02
5.100000000000e-01 9.655155785954e-08 1.112809272017e-03 -4.920884578353e+06 -6.054379929001e+04 -7.130170983893e+06 -4.840363336530e+06 -1.617001036530e-03 -4.919055155093e-03 -4.929081553222e-02 5.630472966259e+06 2.253069291412e+06  4.924517437509e-02
5.200000000000e-01 9.309111571642e-08 1.114172651420e-03 -4.998480315287e+06 -6.061039949639e+04 -7.245072296932e+06 -4.917366404177e+06 -1.617982327391e-03 -4.919420971033e-03 -4.935319024022e-02 5.720306338799e+06 2.290634349356e+06  4.930623461755e-02
5.300000000000e-01 8.950397316003e-08 1.115563389468e-03 -5.078887979160e+06 -6.065550762226e+04 -7.364150682489e+06 -4.997165269396e+06 -1.618974694228e-03 -4.919716404820e-03 -4.941681291703e-02 5.813401310349e+06 2.329570637901e+06  4.936849943908e-02
5.400000000000e-01 8.609774774088e-08 1.116899388184e-03 -5.157332669733e+06 -6.069866299146e+04 -7.480337754277e+06 -5.075022603874e+06 -1.619917004764e-03 -4.919996492371e-03 -4.947792150851e-02 5.904231009295e+06 2.367569904844e+06  4.942830988358e-02
5.500000000000e-01 8.262103444199e-08 1.118275860489e-03 -5.239409065316e+06 -6.075131968709e+04 -7.601927440273e+06 -5.156493836279e+06 -1.620872532002e-03 -4.920306942613e-03 -4.954088497845e-02 5.999276780623e+06 2.407348941867e+06  4.948995164444e-02
5.600000000000e-01 7.927344960292e-08 1.119592649812e-03 -5.319137824487e+06 -6.078728378430e+04 -7.720046583860e+06 -5.235637953317e+06 -1.621781458354e-03 -4.920555824623e-03 -4.960110443932e-02 6.091607453888e+06 2.445995902087e+06  4.954889700159e-02
5.700000000000e-01 7.600598689500e-08 1.120887983341e-03 -5.398738797532e+06 -6.082495915089e+04 -7.837992693497e+06 -5.314661883548e+06 -1.622664939823e-03 -4.920804613084e-03 -4.966033838149e-02 6.183797791526e+06 2.484595030062e+06  4.960688574987e-02
5.800000000000e-01 7.283905108829e-08 1.122173429112e-03 -5.478893729505e+06 -6.087504640482e+04 -7.956783296013e+06 -5.394245321503e+06 -1.623526663580e-03 -4.921086854552e-03 -4.971912041414e-02 6.276640782340e+06 2.523483460937e+06  4.966445150599e-02
5.900000000000e-01 6.981287658392e-08 1.123453543889e-03 -5.559881091524e+06 -6.095238301828e+04 -8.076838327991e+06 -5.474667616252e+06 -1.624365668870e-03 -4.921445772028e-03 -4.977766438954e-02 6.370462345256e+06 2.562803019896e+06  4.972181807068e-02
6.000000000000e-01 6.711152282444e-08 1.124657333983e-03 -5.637109923698e+06 -6.105561074206e+04 -8.191347242627e+06 -5.551368150136e+06 -1.625138400569e-03 -4.921868286509e-03 -4.983271485169e-02 6.459941772154e+06 2.600320775169e+06  4.977579580569e-02
6.100000000000e-01 6.460541839231e-08 1.125901468596e-03 -5.718022813437e+06 -6.123936927948e+04 -8.311385281295e+06 -5.631754040269e+06 -1.625897096924e-03 -4.922521187582e-03 -4.988963991768e-02 6.553720711667e+06 2.639687134955e+06  4.983169610101e-02
6.200000000000e-01 6.223203291306e-08 1.127119466592e-03 -5.798347219190e+06 -6.143930277921e+04 -8.430572397512e+06 -5.711564238275e+06 -1.626626588733e-03 -4.923208829249e-03 -4.994536953121e-02 6.646827951659e+06 2.678786551101e+06  4.988644446274e-02
6.300000000000e-01 5.986612946717e-08 1.128308731058e-03 -5.877860036263e+06 -6.161911206152e+04 -8.548561193786e+06 -5.790570529040e+06 -1.627335338954e-03 -4.923828477598e-03 -4.999977669627e-02 6.738997253030e+06 2.717494997927e+06  4.993988132800e-02
6.400000000000e-01 5.766868771858e-08 1.129477406854e-03 -5.957041353373e+06 -6.182963658580e+04 -8.666087052282e+06 -5.869259086830e+06 -1.628014983464e-03 -4.924523076457e-03 -5.005324676144e-02 6.830795830828e+06 2.756067707549e+06  4.999243233771e-02
6.500000000000e-01 5.557547432646e-08 1.130648836804e-03 -6.037465799902e+06 -6.207002894432e+04 -8.785486445401e+06 -5.949194339073e+06 -1.628680155378e-03 -4.925290201931e-03 -5.010684995960e-02 6.924048861458e+06 2.795270860066e+06  5.004514392491e-02
6.600000000000e-01 5.377507490011e-08 1.131731070115e-03 -6.112709982588e+06 -6.232698929165e+04 -8.897221104227e+06 -6.023991606870e+06 -1.629279481727e-03 -4.926084282463e-03 -5.015637020749e-02 7.011307564562e+06 2.831971822138e+06  5.009387385936e-02
6.700000000000e-01 5.197643205771e-08 1.132848487061e-03 -6.191378983485e+06 -6.261012706347e+04 -9.014061951693e+06 -6.102201278639e+06 -1.629887403754e-03 -4.926941472370e-03 -5.020750741050e-02 7.102547404606e+06 2.870361000763e+06  5.014421209111e-02
6.800000000000e-01 5.020674849065e-08 1.133952820325e-03 -6.270114907971e+06 -6.289350859391e+04 -9.131016285945e+06 -6.180483103479e+06 -1.630480622763e-03 -4.927787630660e-03 -5.025804552764e-02 7.193871432465e+06 2.908794438959e+06  5.019396488371e-02
6.900000000000e-01 4.854250897255e-08 1.135020664263e-03 -6.347191590318e+06 -6.318211297176e+04 -9.245522043184e+06 -6.257121776927e+06 -1.631045446284e-03 -4.928633762502e-03 -5.030691305323e-02 7.283278470143e+06 2.946431741366e+06  5.024208635234e-02
7.000000000000e-01 4.696120267786e-08 1.136084541196e-03 -6.424913313833e+06 -6.349044029168e+04 -9.361009741751e+06 -6.334411207414e+06 -1.631595736008e-03 -4.929520117499e-03 -5.035560440653e-02 7.373444754333e+06 2.984404276351e+06  5.029005384890e-02
7.100000000000e-01 4.542111327243e-08 1.137104112046e-03 -6.500287441367e+06 -6.378200581463e+04 -9.473014219268e+06 -6.409368263201e+06 -1.632120303973e-03 -4.930349846536e-03 -5.040226260534e-02 7.460889974612e+06 3.021233705188e+06  5.033601479148e-02
7.200000000000e-01 4.400241960608e-08 1.138091105406e-03 -6.574085569726e+06 -6.408457611497e+04 -9.582695799207e+06 -6.482765700345e+06 -1.632618165003e-03 -4.931195085208e-03 -5.044743232695e-02 7.546515689760e+06 3.057309474577e+06  5.038052729940e-02
7.300000000000e-01 4.270367678406e-08 1.139079215163e-03 -6.648791903456e+06 -6.442314569923e+04 -9.693758529472e+06 -6.557078808798e+06 -1.633100698264e-03 -4.932120100897e-03 -5.049266288928e-02 7.633209747242e+06 3.093856393368e+06  5.042513110135e-02
7.400000000000e-01 4.136485751184e-08 1.140026456447e-03 -6.721209494453e+06 -6.472253327020e+04 -9.801411736230e+06 -6.629112529006e+06 -1.633566786620e-03 -4.932935910474e-03 -5.053601387575e-02 7.717244586563e+06 3.129276593666e+06  5.046785962562e-02
7.500000000000e-01 4.009667195249e-08 1.140951300106e-03 -6.792668776837e+06 -6.502787552058e+04 -9.907655346224e+06 -6.700198994526e+06 -1.634014381465e-03 -4.933755667873e-03 -5.057834170846e-02 7.800174372529e+06 3.164240823936e+06  5.050959067548e-02
7.600000000000e-01 3.890595571644e-08 1.141859778194e-03 -6.863595458821e+06 -6.534614740100e+04 -1.001312488563e+07 -6.770762689251e+06 -1.634445321871e-03 -4.934596544279e-03 -5.061992424745e-02 7.882494344566e+06 3.198959741836e+06  5.055060210435e-02
7.700000000000e-01 3.775581816738e-08 1.142745828293e-03 -6.933480331041e+06 -6.566129013487e+04 -1.011705572608e+07 -6.840294068633e+06 -1.634860559930e-03 -4.935419721063e-03 -5.066048065689e-02 7.963610041919e+06 3.233177335478e+06  5.059060536437e-02
7.800000000000e-01 3.663367613229e-08 1.143606438510e-03 -7.002037759965e+06 -6.596745228829e+04 -1.021901956601e+07 -6.908507549491e+06 -1.635260488039e-03 -4.936211706211e-03 -5.069987197773e-02 8.043188291822e+06 3.266750670069e+06  5.062945936956e-02
7.900000000000e-01 3.556677815054e-08 1.144454706586e-03 -7.070270180445e+06 -6.628327629983e+04 -1.032051495054e+07 -6.976403514942e+06 -1.635647659113e-03 -4.937017536644e-03 -5.073870196148e-02 8.122396215309e+06 3.300177582071e+06  5.066777089415e-02
8.000000000000e-01 3.457389435245e-08 1.145280945630e-03 -7.137362630170e+06 -6.660820018549e+04 -1.042033076716e+07 -7.043171526848e+06 -1.636017177184e-03 -4.937834866944e-03 -5.077652683044e-02 8.200288308061e+06 3.333059870517e+06  5.070510426568e-02
8.100000000000e-01 3.365985060835e-08 1.146084758756e-03 -7.203239322232e+06 -6.694375759192e+04 -1.051835388563e+07 -7.108736010632e+06 -1.636369188973e-03 -4.938667081484e-03 -5.081332922711e-02 8.276776406163e+06 3.365360181161e+06  5.074144324469e-02
8.200000000000e-01 3.275112429645e-08 1.146880011281e-03 -7.269011373209e+06 -6.727563790725e+04 -1.061622886890e+07 -7.174199230983e+06 -1.636714145673e-03 -4.939482878164e-03 -5.084974056930e-02 8.353146491031e+06 3.397615222683e+06  5.077739588417e-02
8.300000000000e-01 3.187958166650e-08 1.147660795555e-03 -7.334168143878e+06 -6.761028434652e+04 -1.071319924019e+07 -7.239054334701e+06 -1.637047911819e-03 -4.940296468688e-03 -5.088549189230e-02 8.428807239590e+06 3.429577781170e+06  5.081270323786e-02
8.400000000000e-01 3.105769346147e-08 1.148424113048e-03 -7.398427350341e+06 -6.794992385952e+04 -1.080884635883e+07 -7.303020945644e+06 -1.637368594640e-03 -4.941112642916e-03 -5.092044612704e-02 8.503431551604e+06 3.461110744844e+06  5.084723249920e-02
8.500000000000e-01 3.024095190220e-08 1.149176489471e-03 -7.462317652487e+06 -6.828339456643e+04 -1.090395059299e+07 -7.366622669269e+06 -1.637682090412e-03 -4.941907498267e-03 -5.095490094142e-02 8.577630304916e+06 3.492467565976e+06  5.088126721155e-02
8.600000000000e-01 2.948578970921e-08 1.149910911162e-03 -7.525209436940e+06 -6.862460822765e+04 -1.099758320700e+07 -7.429236160532e+06 -1.637981614757e-03 -4.942711121080e-03 -5.098853707462e-02 8.650676268157e+06 3.523346926853e+06  5.091450471298e-02
8.700000000000e-01 2.874997441671e-08 1.150632858948e-03 -7.587548895674e+06 -6.896448700520e+04 -1.109040159753e+07 -7.491302849854e+06 -1.638272656748e-03 -4.943504305943e-03 -5.102160390346e-02 8.723084447688e+06 3.553961785855e+06  5.094718253318e-02
8.800000000000e-01 2.805764559411e-08 1.151334307116e-03 -7.648609420953e+06 -6.930448811482e+04 -1.118132664353e+07 -7.552100441091e+06 -1.638550765303e-03 -4.944289773600e-03 -5.105373426160e-02 8.794012168525e+06 3.583957760549e+06  5.097894172513e-02
8.900000000000e-01 2.734829182918e-08 1.152034990530e-03 -7.710097512441e+06 -6.963866249130e+04 -1.127289131069e+07 -7.613324716304e+06 -1.638827577367e-03 -4.945056625072e-03 -5.108583075418e-02 8.865437846478e+06 3.614165847157e+06  5.101066306661e-02
9.000000000000e-01 2.667507915497e-08 1.152720701438e-03 -7.770746923992e+06 -6.997478228306e+04 -1.136321744452e+07 -7.673717911546e+06 -1.639094138539e-03 -4.945820418042e-03 -5.111724371866e-02 8.935894093352e+06 3.643970684217e+06  5.104171508926e-02
9.100000000000e-01 2.599931299132e-08 1.153398547004e-03 -7.831171671980e+06 -7.030442822219e+04 -1.145321298835e+07 -7.733888807043e+06 -1.639356161205e-03 -4.946564188625e-03 -5.114829752082e-02 9.006091155792e+06 3.673668186891e+06  5.107240980258e-02
9.200000000000e-01 2.534243946900e-08 1.154068634076e-03 -7.891365628842e+06 -7.063506899269e+04 -1.154287289457e+07 -7.793832929721e+06 -1.639611950214e-03 -4.947303795379e-03 -5.117899809928e-02 9.076023817713e+06 3.703259002216e+06  5.110275845237e-02
9.300000000000e-01 2.468925574184e-08 1.154729949890e-03 -7.951226500741e+06 -7.096035301016e+04 -1.163204156056e+07 -7.853447118537e+06 -1.639862552894e-03 -4.948026159365e-03 -5.120929813639e-02 9.145571726612e+06 3.732689948256e+06  5.113271010871e-02
9.400000000000e-01 2.404241511872e-08 1.155382443758e-03 -8.010734572787e+06 -7.128121734857e+04 -1.172068989938e+07 -7.912711850882e+06 -1.640107855892e-03 -4.948733470285e-03 -5.123919529261e-02 9.214712107684e+06 3.761951612453e+06  5.116226314545e-02
9.500000000000e-01 2.340094492096e-08 1.156025786289e-03 -8.069844972595e+06 -7.159692391821e+04 -1.180875065112e+07 -7.971582272155e+06 -1.640347938627e-03 -4.949424458922e-03 -5.126867435497e-02 9.283392631958e+06 3.791021571877e+06  5.119140215510e-02
9.600000000000e-01 2.278016847242e-08 1.156655825346e-03 -8.128155121053e+06 -7.190979315024e+04 -1.189562635186e+07 -8.029658363738e+06 -1.640580309435e-03 -4.950103760384e-03 -5.129754574406e-02 9.351146612218e+06 3.819703894380e+06  5.121994280904e-02
9.700000000000e-01 2.214243435470e-08 1.157280161377e-03 -8.186356632370e+06 -7.221150336266e+04 -1.198234089249e+07 -8.087626326637e+06 -1.640810550644e-03 -4.950755537080e-03 -5.132615591148e-02 9.418774617164e+06 3.848332933431e+06  5.124821931475e-02
9.800000000000e-01 2.150945894231e-08 1.157894120090e-03 -8.243998864540e+06 -7.250671245179e+04 -1.206822612640e+07 -8.145038644730e+06 -1.641035577266e-03 -4.951389077540e-03 -5.135429176394e-02 9.485754545225e+06 3.876689994826e+06  5.127602580059e-02
9.900000000000e-01 2.087628595961e-08 1.158498516554e-03 -8.301141248149e+06 -7.279374007448e+04 -1.215336949676e+07 -8.201954067117e+06 -1.641256155970e-03 -4.952001415613e-03 -5.138198994868e-02 9.552154937341e+06 3.904803327019e+06  5.130339715464e-02
1.000000000000e+00 2.021889492574e-08 1.159086595874e-03 -8.357125943509e+06 -7.305824166106e+04 -1.223678471855e+07 -8.257714943828e+06 -1.641472302233e-03 -4.952564317873e-03 -5.140893888012e-02 9.617208535295e+06 3.932343834771e+06  5.133001810644e-02
1.050000000000e+00 1.535050420554e-08 1.162679836369e-03 -8.629464045948e+06 -7.386394908442e+04 -1.264232282805e+07 -8.528867154641e+06 -1.642861185804e-03 -4.955253667939e-03 -5.157359320304e-02 9.933551342878e+06 4.066104291242e+06  5.149242537504e-02
1.100000000000e+00 -3.259263602346e-08 1.163146862365e-03 -8.737759443938e+06 -8.221078998234e+04 -1.276718428490e+07 -8.622124617732e+06 -1.656932536018e-03 -4.971289901283e-03 -5.160351790341e-02 1.004235611552e+07 4.090947768566e+06  5.151995834138e-02
1.150000000000e+00 -2.984667776254e-08 1.167906270492e-03 -9.134232018191e+06 -8.467008740946e+04 -1.336152573727e+07 -9.018441728381e+06 -1.657074611080e-03 -4.976647278854e-03 -5.182115388897e-02 1.050473316128e+07 4.288870039363e+06  5.173593937138e-02
1.200000000000e+00 -2.236927747025e-08 1.169280186450e-03 -9.250578106509e+06 -8.595433052035e+04 -1.354933204278e+07 -9.140089093085e+06 -1.652302432677e-03 -4.979278059406e-03 -5.187940145039e-02 1.064666641412e+07 4.357593687904e+06  5.179634704239e-02
1.250000000000e+00 -2.458548036631e-08 1.171991514929e-03 -9.500913752481e+06 -8.789448737741e+04 -1.392121301889e+07 -9.388961016094e+06 -1.653679986739e-03 -4.983020451065e-03 -5.200450628172e-02 1.093702926249e+07 4.479912939007e+06  5.192009243340e-02
1.300000000000e+00 -2.134375973914e-08 1.174521808864e-03 -9.725702273717e+06 -8.750243860497e+04 -1.426873248292e+07 -9.617865815355e+06 -1.649588079060e-03 -4.982377834263e-03 -5.211733899884e-02 1.120410019066e+07 4.600394168086e+06  5.203304998437e-02