 TITLE = "Time curves in points"
 VARIABLES = "TIME"  "PRESSURE1"  "PRESSURE2"  "PRESSURE_W"  "SATURATION1" SATURATION2  "VELOCITY_X1"  "VELOCITY_Y1"  "VELOCITY_X2"  "VELOCITY_Y2"  p_(1st_Invariant)  q_(2nd_Invariant)   Effective_Strain
 ZONE T="POINT=POINT4"
0.000000000000e+00 8.400000000000e+07 1.000000000000e+05 -8.390000000000e+07 6.601393844892e-01 3.398606155108e-01 0.000000000000e+00 0.000000000000e+00 0.000000000000e+00 0.000000000000e+00 1.000000000000e+05 0.000000000000e+00  0.000000000000e+00
1.000000000000e-03 -1.244434314116e-313 1.000000000000e+05 1.000000000000e+05 1.000000000000e+00 0.000000000000e+00 2.245940086805e-06 3.928132542103e-04 2.868722598033e-13 -6.036658899473e-14 -3.213319456404e+05 1.963418785967e+05  4.219737057796e-01
2.000000000000e-03 -1.244434314116e-313 1.000000000000e+05 1.000000000000e+05 1.000000000000e+00 0.000000000000e+00 2.228286564512e-06 3.926518362089e-04 5.991790222671e-13 -1.181577695835e-13 -7.723393084891e+05 3.706279868189e+05  1.245844211997e+00
3.000000000000e-03 -1.244434314116e-313 1.000000000000e+05 1.000000000000e+05 1.000000000000e+00 0.000000000000e+00 2.210776655795e-06 3.924904951556e-04 9.071568225394e-13 -1.741853671347e-13 -2.220659601981e+06 1.091306768499e+06  1.620386081755e+00
4.000000000000e-03 -1.244434314116e-313 1.000000000000e+05 1.000000000000e+05 1.000000000000e+00 0.000000000000e+00 2.193409167145e-06 3.923292316165e-04 1.211623043898e-12 -2.282881264068e-13 -6.514938056892e+06 3.589515960182e+06  1.755244300503e+00
5.000000000000e-03 -1.244434314116e-313 1.000000000000e+05 1.000000000000e+05 1.000000000000e+00 0.000000000000e+00 2.176182751237e-06 3.921680469427e-04 1.513355768553e-12 -2.806458761225e-13 -1.807883891778e+07 9.993547218438e+06  1.794261474244e+00
6.000000000000e-03 -1.244434314116e-313 1.000000000000e+05 1.000000000000e+05 1.000000000000e+00 0.000000000000e+00 2.159096487992e-06 3.920069418772e-04 1.811649908114e-12 -3.312339744880e-13 -4.168162207395e+07 2.549841477578e+07  1.802513572240e+00
7.000000000000e-03 -1.244434314116e-313 1.000000000000e+05 1.000000000000e+05 1.000000000000e+00 0.000000000000e+00 2.142039756851e-06 3.918458202148e-04 2.105350474472e-12 -3.799556488898e-13 -3.276083572570e+07 2.258669068285e+07  1.802060939219e+00
8.000000000000e-03 -1.244434314116e-313 1.000000000000e+05 1.000000000000e+05 1.000000000000e+00 0.000000000000e+00 2.124233213100e-06 3.916839886931e-04 2.394739483786e-12 -4.268768576261e-13 -3.114508830225e+07 2.352740901957e+07  1.802783082462e+00
9.000000000000e-03 -1.244434314116e-313 1.000000000000e+05 1.000000000000e+05 1.000000000000e+00 0.000000000000e+00 2.106869592809e-06 3.915219730650e-04 2.680402381045e-12 -4.717867911257e-13 -3.034285042457e+07 2.475587914747e+07  1.803638279754e+00
1.000000000000e-02 -1.244434314116e-313 1.000000000000e+05 1.000000000000e+05 1.000000000000e+00 0.000000000000e+00 2.089685548304e-06 3.913600058151e-04 2.963570511529e-12 -5.148155403230e-13 -2.960031342913e+07 2.589956480484e+07  1.804458452804e+00
2.000000000000e-02 -1.244434314116e-313 1.000000000000e+05 1.000000000000e+05 1.000000000000e+00 0.000000000000e+00 1.927858121195e-06 3.897526576734e-04 5.585193040490e-12 -7.881242885886e-13 -6.071812763981e+07 7.676660790495e+07  1.866383680962e+00
3.000000000000e-02 -1.244434314116e-313 1.000000000000e+05 1.000000000000e+05 1.000000000000e+00 0.000000000000e+00 1.778617600576e-06 3.881460030389e-04 7.873406241049e-12 -9.126635251017e-13 -3.400117493993e+07 4.574992771068e+07  1.850321856750e+00
4.000000000000e-02 -1.244434314116e-313 1.000000000000e+05 1.000000000000e+05 1.000000000000e+00 0.000000000000e+00 1.638068561652e-06 3.865413875611e-04 1.004102047931e-11 -9.635009803159e-13 -3.585224603176e+07 6.414752093754e+07  1.958971841454e+00
5.000000000000e-02 -1.244434314116e-313 1.000000000000e+05 1.000000000000e+05 1.000000000000e+00 0.000000000000e+00 1.505919720179e-06 3.849286733534e-04 1.223688273211e-11 -1.028380693144e-12 -1.935810769234e+07 5.380185358996e+07  1.980749086185e+00
6.000000000000e-02 -1.244434314116e-313 1.000000000000e+05 1.000000000000e+05 1.000000000000e+00 0.000000000000e+00 1.384179132422e-06 3.833083526375e-04 1.431904315934e-11 -1.049724453568e-12 -2.985949292677e+07 6.352957325182e+07  1.984995745388e+00
7.000000000000e-02 -1.244434314116e-313 1.000000000000e+05 1.000000000000e+05 1.000000000000e+00 0.000000000000e+00 1.269526933404e-06 3.816815010152e-04 1.628940303532e-11 -1.040894667074e-12 -1.809792468222e+07 6.508066983836e+07  2.102837111307e+00
8.000000000000e-02 -1.244434314116e-313 1.000000000000e+05 1.000000000000e+05 1.000000000000e+00 0.000000000000e+00 1.162093949137e-06 3.800599214954e-04 1.812923901347e-11 -9.967389660646e-13 -2.428533663894e+07 6.698025386549e+07  2.089525531360e+00
9.000000000000e-02 -1.244434314116e-313 1.000000000000e+05 1.000000000000e+05 1.000000000000e+00 0.000000000000e+00 1.062771561643e-06 3.784592501830e-04 1.987302537858e-11 -9.290489655231e-13 -1.421958404804e+07 7.094093787320e+07  2.122740031830e+00
1.000000000000e-01 -1.244434314116e-313 1.000000000000e+05 1.000000000000e+05 1.000000000000e+00 0.000000000000e+00 9.699550987605e-07 3.768598793586e-04 2.151488731261e-11 -8.500380794413e-13 -1.731111307103e+07 7.030564154968e+07  2.110140439630e+00
1.100000000000e-01 -1.244434314116e-313 1.000000000000e+05 1.000000000000e+05 1.000000000000e+00 0.000000000000e+00 8.819747344008e-07 3.752670995999e-04 2.304763073590e-11 -7.419197481880e-13 -1.440109545097e+07 7.302195522060e+07  2.118367048399e+00
1.200000000000e-01 -1.244434314116e-313 1.000000000000e+05 1.000000000000e+05 1.000000000000e+00 0.000000000000e+00 8.011423006671e-07 3.736809241195e-04 2.448318585609e-11 -6.385315337877e-13 -1.352597450110e+07 7.370109728209e+07  2.117051555611e+00
1.300000000000e-01 -1.244434314116e-313 1.000000000000e+05 1.000000000000e+05 1.000000000000e+00 0.000000000000e+00 7.269264627624e-07 3.721052335617e-04 2.582819974125e-11 -5.371333273029e-13 -1.221348055291e+07 7.507578869107e+07  2.120230343660e+00
1.400000000000e-01 -1.244434314116e-313 1.000000000000e+05 1.000000000000e+05 1.000000000000e+00 0.000000000000e+00 6.552771097254e-07 3.705337763653e-04 2.704631734111e-11 -3.984019480493e-13 -1.109379333200e+07 7.575329065654e+07  2.120661831250e+00
1.500000000000e-01 -1.244434314116e-313 1.000000000000e+05 1.000000000000e+05 1.000000000000e+00 0.000000000000e+00 5.896076047035e-07 3.689457768993e-04 2.817486917655e-11 -2.739013493222e-13 -1.017547321794e+07 7.667774804088e+07  2.122150015579e+00
1.600000000000e-01 -1.244434314116e-313 1.000000000000e+05 1.000000000000e+05 1.000000000000e+00 0.000000000000e+00 5.294385477056e-07 3.673682392520e-04 2.922879914640e-11 -1.568941569729e-13 -9.249298082194e+06 7.732179958258e+07  2.122936252066e+00
1.700000000000e-01 -1.244434314116e-313 1.000000000000e+05 1.000000000000e+05 1.000000000000e+00 0.000000000000e+00 4.728556606604e-07 3.658018580018e-04 3.018129851731e-11 -3.263132540679e-14 -8.460387846663e+06 7.793584122450e+07  2.123995402732e+00
1.800000000000e-01 -1.244434314116e-313 1.000000000000e+05 1.000000000000e+05 1.000000000000e+00 0.000000000000e+00 4.196115163022e-07 3.642363555964e-04 3.103184179256e-11 5.232502158522e-14 -7.748402421581e+06 7.847576339826e+07  2.124844304530e+00
1.900000000000e-01 -1.244434314116e-313 1.000000000000e+05 1.000000000000e+05 1.000000000000e+00 0.000000000000e+00 3.709471379114e-07 3.626899823475e-04 3.180710008990e-11 1.293931589613e-13 -7.043791639060e+06 7.896724186504e+07  2.125692919117e+00
2.000000000000e-01 -1.244434314116e-313 1.000000000000e+05 1.000000000000e+05 1.000000000000e+00 0.000000000000e+00 3.265103750942e-07 3.611647235037e-04 3.251045437981e-11 1.959894192290e-13 -6.298592706775e+06 7.950457842382e+07  2.126534190968e+00
2.100000000000e-01 -1.244434314116e-313 1.000000000000e+05 1.000000000000e+05 1.000000000000e+00 0.000000000000e+00 2.840345399673e-07 3.596392309782e-04 3.310560227510e-11 6.304908367301e-13 -5.806620955145e+06 7.992962692964e+07  2.127322273444e+00
2.200000000000e-01 -1.244434314116e-313 1.000000000000e+05 1.000000000000e+05 1.000000000000e+00 0.000000000000e+00 2.447800908727e-07 3.581261684750e-04 3.362172744173e-11 1.469118771500e-12 -5.117870226103e+06 8.032564499851e+07  2.128298088034e+00
2.300000000000e-01 -1.244434314116e-313 1.000000000000e+05 1.000000000000e+05 1.000000000000e+00 0.000000000000e+00 2.090653547498e-07 3.566285204897e-04 3.407047309804e-11 2.353414855645e-12 -4.700496045174e+06 8.067272438373e+07  2.129122470766e+00
2.400000000000e-01 -1.244434314116e-313 1.000000000000e+05 1.000000000000e+05 1.000000000000e+00 0.000000000000e+00 1.766148515714e-07 3.551408582881e-04 3.445559244141e-11 3.257818880654e-12 -4.244012361550e+06 8.094237564478e+07  2.130173506656e+00
2.500000000000e-01 -1.244434314116e-313 1.000000000000e+05 1.000000000000e+05 1.000000000000e+00 0.000000000000e+00 1.454391298201e-07 3.536573138390e-04 3.472034187265e-11 4.201077099525e-12 -3.808927502480e+06 8.119189949869e+07  2.130980320724e+00
2.600000000000e-01 -1.244434314116e-313 1.000000000000e+05 1.000000000000e+05 1.000000000000e+00 0.000000000000e+00 1.169379556833e-07 3.521870608047e-04 3.492431512334e-11 5.183083391669e-12 -3.402112415750e+06 8.142137677039e+07  2.131972547364e+00
2.700000000000e-01 -1.244434314116e-313 1.000000000000e+05 1.000000000000e+05 1.000000000000e+00 0.000000000000e+00 9.147653115711e-08 3.507272262729e-04 3.507691935546e-11 6.191562251000e-12 -3.069328325237e+06 8.162030372844e+07  2.132860299725e+00
2.800000000000e-01 -1.244434314116e-313 1.000000000000e+05 1.000000000000e+05 1.000000000000e+00 0.000000000000e+00 6.850967161563e-08 3.492525172449e-04 3.517722877743e-11 7.149157304254e-12 -2.675537047166e+06 8.180272010882e+07  2.133782319742e+00
2.900000000000e-01 -1.244434314116e-313 1.000000000000e+05 1.000000000000e+05 1.000000000000e+00 0.000000000000e+00 4.673103869545e-08 3.477874387438e-04 3.517442904653e-11 8.142604442662e-12 -2.388689259222e+06 8.197056368600e+07  2.134643314488e+00
3.000000000000e-01 -1.244434314116e-313 1.000000000000e+05 1.000000000000e+05 1.000000000000e+00 0.000000000000e+00 2.656657351640e-08 3.463349274692e-04 3.509091642875e-11 9.165185090632e-12 -2.034902600002e+06 8.212200098740e+07  2.135560470390e+00
3.100000000000e-01 -1.244434314116e-313 1.000000000000e+05 1.000000000000e+05 1.000000000000e+00 0.000000000000e+00 8.491681841079e-09 3.448946449713e-04 3.495925918149e-11 1.019276406647e-11 -1.740951876313e+06 8.225504873632e+07  2.136394952779e+00
3.200000000000e-01 -1.244434314116e-313 1.000000000000e+05 1.000000000000e+05 1.000000000000e+00 0.000000000000e+00 -7.732899449326e-09 3.434706734600e-04 3.478842508856e-11 1.121786806336e-11 -1.463485311360e+06 8.238288848466e+07  2.137247326541e+00
3.300000000000e-01 -1.244434314116e-313 1.000000000000e+05 1.000000000000e+05 1.000000000000e+00 0.000000000000e+00 -2.239403135254e-08 3.420603935462e-04 3.454311374815e-11 1.226299132827e-11 -1.227726267886e+06 8.249261641020e+07  2.137975310462e+00
3.400000000000e-01 -1.244434314116e-313 1.000000000000e+05 1.000000000000e+05 1.000000000000e+00 0.000000000000e+00 -3.653163350704e-08 3.406582711426e-04 3.419334280498e-11 1.333534297487e-11 -1.032314223343e+06 8.259785420968e+07  2.138728004676e+00
3.500000000000e-01 -1.244434314116e-313 1.000000000000e+05 1.000000000000e+05 1.000000000000e+00 0.000000000000e+00 -4.906235622795e-08 3.392677414881e-04 3.379954405607e-11 1.440268435750e-11 -8.767679876429e+05 8.269700450154e+07  2.139430895170e+00
3.600000000000e-01 -1.244434314116e-313 1.000000000000e+05 1.000000000000e+05 1.000000000000e+00 0.000000000000e+00 -6.012532715186e-08 3.378879739580e-04 3.335552084886e-11 1.545988278021e-11 -7.586509550627e+05 8.277483909414e+07  2.140110095087e+00
3.700000000000e-01 -1.244434314116e-313 1.000000000000e+05 1.000000000000e+05 1.000000000000e+00 0.000000000000e+00 -6.984306306193e-08 3.365221936241e-04 3.286947198705e-11 1.652449894829e-11 -6.817936717750e+05 8.283990234672e+07  2.140720253588e+00
3.800000000000e-01 -1.244434314116e-313 1.000000000000e+05 1.000000000000e+05 1.000000000000e+00 0.000000000000e+00 -7.881692826126e-08 3.351663331891e-04 3.230975545054e-11 1.760559653730e-11 -6.202015066821e+05 8.289931945984e+07  2.141273432268e+00
3.900000000000e-01 -1.244434314116e-313 1.000000000000e+05 1.000000000000e+05 1.000000000000e+00 0.000000000000e+00 -8.721705371782e-08 3.338193319477e-04 3.164382459262e-11 1.869467641922e-11 -5.819537863192e+05 8.295290113721e+07  2.141823883989e+00
4.000000000000e-01 -1.244434314116e-313 1.000000000000e+05 1.000000000000e+05 1.000000000000e+00 0.000000000000e+00 -9.449821870356e-08 3.324810921540e-04 3.095166529911e-11 1.975570267645e-11 -5.609953867853e+05 8.300226525580e+07  2.142355980477e+00
4.100000000000e-01 -1.244434314116e-313 1.000000000000e+05 1.000000000000e+05 1.000000000000e+00 0.000000000000e+00 -1.007534389527e-07 3.311561048282e-04 3.022106994750e-11 2.081797335541e-11 -5.528273121655e+05 8.304870215841e+07  2.142875174424e+00
4.200000000000e-01 -1.244434314116e-313 1.000000000000e+05 1.000000000000e+05 1.000000000000e+00 0.000000000000e+00 -1.060396915214e-07 3.298440611585e-04 2.944889777309e-11 2.188079464928e-11 -5.487285755573e+05 8.309359202190e+07  2.143384760512e+00
4.300000000000e-01 -1.244434314116e-313 1.000000000000e+05 1.000000000000e+05 1.000000000000e+00 0.000000000000e+00 -1.104756037468e-07 3.285391939010e-04 2.862052315494e-11 2.295309524379e-11 -5.440860173086e+05 8.313762459264e+07  2.143885069916e+00
4.400000000000e-01 -1.244434314116e-313 1.000000000000e+05 1.000000000000e+05 1.000000000000e+00 0.000000000000e+00 -1.146630208252e-07 3.272404899315e-04 2.771199615795e-11 2.401423450939e-11 -5.377811597951e+05 8.317759147596e+07  2.144352214033e+00
4.500000000000e-01 -1.244434314116e-313 1.000000000000e+05 1.000000000000e+05 1.000000000000e+00 0.000000000000e+00 -1.180886434379e-07 3.259518668977e-04 2.676660248607e-11 2.505344152506e-11 -5.326833551187e+05 8.321910281762e+07  2.144828850987e+00
4.600000000000e-01 -1.244434314116e-313 1.000000000000e+05 1.000000000000e+05 1.000000000000e+00 0.000000000000e+00 -1.208520356298e-07 3.246763189270e-04 2.578546498770e-11 2.608823474813e-11 -5.271227717448e+05 8.325941901164e+07  2.145294672057e+00
4.700000000000e-01 -1.244434314116e-313 1.000000000000e+05 1.000000000000e+05 1.000000000000e+00 0.000000000000e+00 -1.229505970801e-07 3.234157949722e-04 2.476498375025e-11 2.711934530530e-11 -5.213242116577e+05 8.329890424918e+07  2.145752292832e+00
4.800000000000e-01 -1.244434314116e-313 1.000000000000e+05 1.000000000000e+05 1.000000000000e+00 0.000000000000e+00 -1.244613977953e-07 3.221516811612e-04 2.372788533521e-11 2.808537099404e-11 -5.154173383060e+05 8.333779263900e+07  2.146203269365e+00
4.900000000000e-01 -1.244434314116e-313 1.000000000000e+05 1.000000000000e+05 1.000000000000e+00 0.000000000000e+00 -1.260906301488e-07 3.208868067083e-04 2.290649610106e-11 2.895718601070e-11 -5.077140382484e+05 8.337562856788e+07  2.146642014162e+00
5.000000000000e-01 -1.244434314116e-313 1.000000000000e+05 1.000000000000e+05 1.000000000000e+00 0.000000000000e+00 -1.272375312951e-07 3.196316943520e-04 2.298332953594e-11 2.967916693183e-11 -4.977430690069e+05 8.341064404715e+07  2.147052017265e+00
5.100000000000e-01 -1.244434314116e-313 1.000000000000e+05 1.000000000000e+05 1.000000000000e+00 0.000000000000e+00 -1.279139183188e-07 3.183887853085e-04 2.306967769395e-11 3.039265969402e-11 -4.878730494832e+05 8.344824018928e+07  2.147471905198e+00
5.200000000000e-01 -1.244434314116e-313 1.000000000000e+05 1.000000000000e+05 1.000000000000e+00 0.000000000000e+00 -1.281697571071e-07 3.171578812938e-04 2.317487240299e-11 3.109808429835e-11 -4.764432636879e+05 8.348559796105e+07  2.147882640163e+00
5.300000000000e-01 -1.244434314116e-313 1.000000000000e+05 1.000000000000e+05 1.000000000000e+00 0.000000000000e+00 -1.280414576022e-07 3.159388022332e-04 2.327454965516e-11 3.179492456068e-11 -4.625868433697e+05 8.351994145283e+07  2.148266715662e+00
5.400000000000e-01 -1.244434314116e-313 1.000000000000e+05 1.000000000000e+05 1.000000000000e+00 0.000000000000e+00 -1.275996798678e-07 3.147305397243e-04 2.337852995702e-11 3.248494536364e-11 -4.489977892050e+05 8.355682751966e+07  2.148659714540e+00
5.500000000000e-01 -1.244434314116e-313 1.000000000000e+05 1.000000000000e+05 1.000000000000e+00 0.000000000000e+00 -1.272749570577e-07 3.135251495067e-04 2.343171316598e-11 3.314329786411e-11 -4.337459307643e+05 8.359328857894e+07  2.149042568475e+00
5.600000000000e-01 -1.244434314116e-313 1.000000000000e+05 1.000000000000e+05 1.000000000000e+00 0.000000000000e+00 -1.264293807066e-07 3.123278279773e-04 2.352245478562e-11 3.378927600032e-11 -4.163221487894e+05 8.362698750612e+07  2.149401473209e+00
5.700000000000e-01 -1.244434314116e-313 1.000000000000e+05 1.000000000000e+05 1.000000000000e+00 0.000000000000e+00 -1.253142124760e-07 3.111416923144e-04 2.364269965184e-11 3.445908145676e-11 -3.989025351406e+05 8.366351671850e+07  2.149770546539e+00
5.800000000000e-01 -1.244434314116e-313 1.000000000000e+05 1.000000000000e+05 1.000000000000e+00 0.000000000000e+00 -1.239664289896e-07 3.099665834838e-04 2.374543526553e-11 3.514653494083e-11 -3.791702424642e+05 8.369695517998e+07  2.150114890152e+00
5.900000000000e-01 -1.244434314116e-313 1.000000000000e+05 1.000000000000e+05 1.000000000000e+00 0.000000000000e+00 -1.224097645318e-07 3.088023441921e-04 2.384565108450e-11 3.581887378412e-11 -3.594852188939e+05 8.373316405774e+07  2.150468479766e+00
6.000000000000e-01 -1.244434314116e-313 1.000000000000e+05 1.000000000000e+05 1.000000000000e+00 0.000000000000e+00 -1.206740128314e-07 3.076488114936e-04 2.396328441902e-11 3.647849077158e-11 -3.375618138826e+05 8.376620589477e+07  2.150797527271e+00
6.100000000000e-01 -1.244434314116e-313 1.000000000000e+05 1.000000000000e+05 1.000000000000e+00 0.000000000000e+00 -1.190449672425e-07 3.064990126443e-04 2.404203306355e-11 3.710485872819e-11 -3.156218761095e+05 8.380177827581e+07  2.151134076670e+00
6.200000000000e-01 -1.244434314116e-313 1.000000000000e+05 1.000000000000e+05 1.000000000000e+00 0.000000000000e+00 -1.173377884921e-07 3.053578433070e-04 2.410653405978e-11 3.829240853232e-11 -2.911199719108e+05 8.383423637137e+07  2.151447549141e+00
6.300000000000e-01 -1.244434314116e-313 1.000000000000e+05 1.000000000000e+05 1.000000000000e+00 0.000000000000e+00 -1.154845276400e-07 3.042270268584e-04 2.416094964472e-11 3.973490937822e-11 -2.661006635377e+05 8.386675185051e+07  2.151755485052e+00
6.400000000000e-01 -1.244434314116e-313 1.000000000000e+05 1.000000000000e+05 1.000000000000e+00 0.000000000000e+00 -1.135046677661e-07 3.031077121627e-04 2.423760214159e-11 4.117676721712e-11 -2.410697773458e+05 8.390177351268e+07  2.152070961819e+00
6.500000000000e-01 -1.244434314116e-313 1.000000000000e+05 1.000000000000e+05 1.000000000000e+00 0.000000000000e+00 -1.114140677195e-07 3.019984211010e-04 2.431716005024e-11 4.262087994734e-11 -2.140726700432e+05 8.393386944182e+07  2.152365569134e+00
6.600000000000e-01 -1.244434314116e-313 1.000000000000e+05 1.000000000000e+05 1.000000000000e+00 0.000000000000e+00 -1.092326389366e-07 3.008990108694e-04 2.440633237365e-11 4.406530766087e-11 -1.872477510908e+05 8.396876020817e+07  2.152668916403e+00
6.700000000000e-01 -1.244434314116e-313 1.000000000000e+05 1.000000000000e+05 1.000000000000e+00 0.000000000000e+00 -1.069342159804e-07 2.998087331848e-04 2.450799447890e-11 4.550739099104e-11 -1.580399775449e+05 8.400051479758e+07  2.152951069727e+00
6.800000000000e-01 -1.244434314116e-313 1.000000000000e+05 1.000000000000e+05 1.000000000000e+00 0.000000000000e+00 -1.047004520511e-07 2.987182668846e-04 2.459258571449e-11 4.693803555974e-11 -1.284423973798e+05 8.403202402996e+07  2.153226114962e+00
6.900000000000e-01 -1.244434314116e-313 1.000000000000e+05 1.000000000000e+05 1.000000000000e+00 0.000000000000e+00 -1.024156515044e-07 2.976369738556e-04 2.468646890592e-11 4.836497507171e-11 -9.898693286241e+04 8.406610201916e+07  2.153508585055e+00
7.000000000000e-01 -1.244434314116e-313 1.000000000000e+05 1.000000000000e+05 1.000000000000e+00 0.000000000000e+00 -1.000815555611e-07 2.965650589966e-04 2.478221381702e-11 4.978804266996e-11 -6.734062543679e+04 8.409725105196e+07  2.153772055611e+00
7.100000000000e-01 -1.244434314116e-313 1.000000000000e+05 1.000000000000e+05 1.000000000000e+00 0.000000000000e+00 -9.771189833390e-08 2.955024094101e-04 2.488749905587e-11 5.120588347802e-11 -3.538045256422e+04 8.412844570855e+07  2.154030929939e+00
7.200000000000e-01 -1.244434314116e-313 1.000000000000e+05 1.000000000000e+05 1.000000000000e+00 0.000000000000e+00 -9.531458337500e-08 2.944489059092e-04 2.499329094532e-11 5.262052639867e-11 -3.574502867920e+03 8.416213702889e+07  2.154296703000e+00
7.300000000000e-01 -1.244434314116e-313 1.000000000000e+05 1.000000000000e+05 1.000000000000e+00 0.000000000000e+00 -9.290061180510e-08 2.934044409643e-04 2.510825317123e-11 5.402788747451e-11 3.031345384049e+04 8.419290960127e+07  2.154544477479e+00
7.400000000000e-01 -1.244434314116e-313 1.000000000000e+05 1.000000000000e+05 1.000000000000e+00 0.000000000000e+00 -9.048045747266e-08 2.923688989922e-04 2.523817168151e-11 5.543130972696e-11 6.434901002193e+04 8.422384039196e+07  2.154788338654e+00
7.500000000000e-01 -1.244434314116e-313 1.000000000000e+05 1.000000000000e+05 1.000000000000e+00 0.000000000000e+00 -8.814446120019e-08 2.913388710778e-04 2.533116306240e-11 5.682464996249e-11 9.816561397746e+04 8.425723743364e+07  2.155038611895e+00
7.600000000000e-01 -1.244434314116e-313 1.000000000000e+05 1.000000000000e+05 1.000000000000e+00 0.000000000000e+00 -8.588254036661e-08 2.903141766167e-04 2.541884164137e-11 5.820233733462e-11 1.340988149594e+05 8.428736930985e+07  2.155270110746e+00
7.700000000000e-01 -1.244434314116e-313 1.000000000000e+05 1.000000000000e+05 1.000000000000e+00 0.000000000000e+00 -8.361646966118e-08 2.892980931427e-04 2.550911271775e-11 5.957175273740e-11 1.706118853313e+05 8.431750697069e+07  2.155497416732e+00
7.800000000000e-01 -1.244434314116e-313 1.000000000000e+05 1.000000000000e+05 1.000000000000e+00 0.000000000000e+00 -8.135348564593e-08 2.882905173833e-04 2.560635861057e-11 6.093215486983e-11 2.077455151868e+05 8.434751622590e+07  2.155720165871e+00
7.900000000000e-01 -1.244434314116e-313 1.000000000000e+05 1.000000000000e+05 1.000000000000e+00 0.000000000000e+00 -7.903582420213e-08 2.872893681617e-04 2.573868947744e-11 6.228484764544e-11 2.450256760874e+05 8.437749025742e+07  2.155938762324e+00
8.000000000000e-01 -1.244434314116e-313 1.000000000000e+05 1.000000000000e+05 1.000000000000e+00 0.000000000000e+00 -7.670587815150e-08 2.862954191570e-04 2.563441449977e-11 6.361766276135e-11 2.819216304657e+05 8.441011808090e+07  2.156164338091e+00
8.100000000000e-01 -1.244434314116e-313 1.000000000000e+05 1.000000000000e+05 1.000000000000e+00 0.000000000000e+00 -7.440422808783e-08 2.853096702288e-04 2.505702361838e-11 6.492111140152e-11 3.207659059431e+05 8.443969133796e+07  2.156373753296e+00
8.200000000000e-01 -1.244434314116e-313 1.000000000000e+05 1.000000000000e+05 1.000000000000e+00 0.000000000000e+00 -7.213556379834e-08 2.843320228205e-04 2.448071025702e-11 6.621951424515e-11 3.600632908563e+05 8.446932741890e+07  2.156579699439e+00
8.300000000000e-01 -1.244434314116e-313 1.000000000000e+05 1.000000000000e+05 1.000000000000e+00 0.000000000000e+00 -6.995137560116e-08 2.833601843158e-04 2.385990127447e-11 6.751228395899e-11 3.999139849706e+05 8.449873747003e+07  2.156781102397e+00
8.400000000000e-01 -1.244434314116e-313 1.000000000000e+05 1.000000000000e+05 1.000000000000e+00 0.000000000000e+00 -6.784706947305e-08 2.823930130146e-04 2.321478462965e-11 6.878901525787e-11 4.402816473294e+05 8.452794317068e+07  2.156978111601e+00
8.500000000000e-01 -1.244434314116e-313 1.000000000000e+05 1.000000000000e+05 1.000000000000e+00 0.000000000000e+00 -6.577263795270e-08 2.814328252572e-04 2.256664682502e-11 7.005393559098e-11 4.811369663721e+05 8.455699891681e+07  2.157171070043e+00
8.600000000000e-01 -1.244434314116e-313 1.000000000000e+05 1.000000000000e+05 1.000000000000e+00 0.000000000000e+00 -6.372763104182e-08 2.804803701792e-04 2.190696064805e-11 7.131226884755e-11 5.221477381443e+05 8.458578818874e+07  2.157359568653e+00
8.700000000000e-01 -1.244434314116e-313 1.000000000000e+05 1.000000000000e+05 1.000000000000e+00 0.000000000000e+00 -6.171355407988e-08 2.795355631714e-04 2.123834984388e-11 7.256183069928e-11 5.626467593783e+05 8.461725154909e+07  2.157554659038e+00
8.800000000000e-01 -1.244434314116e-313 1.000000000000e+05 1.000000000000e+05 1.000000000000e+00 0.000000000000e+00 -5.973444537812e-08 2.785948860234e-04 2.055814940375e-11 7.377462460108e-11 6.048952761692e+05 8.464572883702e+07  2.157735508979e+00
8.900000000000e-01 -1.244434314116e-313 1.000000000000e+05 1.000000000000e+05 1.000000000000e+00 0.000000000000e+00 -5.779330732228e-08 2.776523925631e-04 1.987269930217e-11 7.490094469400e-11 6.474530303677e+05 8.467425459726e+07  2.157913271710e+00
9.000000000000e-01 -1.244434314116e-313 1.000000000000e+05 1.000000000000e+05 1.000000000000e+00 0.000000000000e+00 -5.587988969102e-08 2.767171278013e-04 1.917625450752e-11 7.601797367930e-11 6.903602688724e+05 8.470271390765e+07  2.158087691851e+00
9.100000000000e-01 -1.244434314116e-313 1.000000000000e+05 1.000000000000e+05 1.000000000000e+00 0.000000000000e+00 -5.396738878643e-08 2.757869895146e-04 1.850262991434e-11 7.712390672889e-11 7.335768703736e+05 8.473114790445e+07  2.158258987897e+00
9.200000000000e-01 -1.244434314116e-313 1.000000000000e+05 1.000000000000e+05 1.000000000000e+00 0.000000000000e+00 -5.214374172557e-08 2.748616911300e-04 1.778975298963e-11 7.822071525605e-11 7.772060244561e+05 8.475935661921e+07  2.158426525256e+00
9.300000000000e-01 -1.244434314116e-313 1.000000000000e+05 1.000000000000e+05 1.000000000000e+00 0.000000000000e+00 -5.037486894695e-08 2.739429079280e-04 1.704733071260e-11 7.930668501932e-11 8.212108087040e+05 8.478741398603e+07  2.158590678222e+00
9.400000000000e-01 -1.244434314116e-313 1.000000000000e+05 1.000000000000e+05 1.000000000000e+00 0.000000000000e+00 -4.864683298553e-08 2.730303550137e-04 1.630607349946e-11 8.037218541000e-11 8.655755356759e+05 8.481532447185e+07  2.158751524678e+00
9.500000000000e-01 -1.244434314116e-313 1.000000000000e+05 1.000000000000e+05 1.000000000000e+00 0.000000000000e+00 -4.695920627399e-08 2.721248394772e-04 1.555853311072e-11 8.142559686921e-11 9.102892335389e+05 8.484310529444e+07  2.158909210797e+00
9.600000000000e-01 -1.244434314116e-313 1.000000000000e+05 1.000000000000e+05 1.000000000000e+00 0.000000000000e+00 -4.530747100029e-08 2.712265074384e-04 1.479394927258e-11 8.246642514181e-11 9.555486590069e+05 8.487069210716e+07  2.159063367465e+00
9.700000000000e-01 -1.244434314116e-313 1.000000000000e+05 1.000000000000e+05 1.000000000000e+00 0.000000000000e+00 -4.369409482585e-08 2.703352758188e-04 1.402432260206e-11 8.349543542453e-11 1.001155682096e+06 8.489816372800e+07  2.159214757957e+00
9.800000000000e-01 -1.244434314116e-313 1.000000000000e+05 1.000000000000e+05 1.000000000000e+00 0.000000000000e+00 -4.211900716363e-08 2.694510663669e-04 1.324691624652e-11 8.451077707642e-11 1.047124021742e+06 8.492553258161e+07  2.159363268901e+00
9.900000000000e-01 -1.244434314116e-313 1.000000000000e+05 1.000000000000e+05 1.000000000000e+00 0.000000000000e+00 -4.058280272882e-08 2.685737996480e-04 1.245564078817e-11 8.551400153604e-11 1.093434106096e+06 8.495280352601e+07  2.159509013856e+00
1.000000000000e+00 -1.244434314116e-313 1.000000000000e+05 1.000000000000e+05 1.000000000000e+00 0.000000000000e+00 -3.908402311332e-08 2.677034010943e-04 1.165065796876e-11 8.650451128977e-11 1.140058767477e+06 8.497999895744e+07  2.159652077681e+00
1.050000000000e+00 -1.244434314116e-313 1.000000000000e+05 1.000000000000e+05 1.000000000000e+00 0.000000000000e+00 -3.273572849911e-08 2.634949950403e-04 7.686197514925e-12 9.146066789560e-11 1.374301749589e+06 8.508615405935e+07  2.160290228097e+00
1.100000000000e+00 -1.244434314116e-313 1.000000000000e+05 1.000000000000e+05 1.000000000000e+00 0.000000000000e+00 -2.710060538477e-08 2.594253711017e-04 3.537322514630e-12 9.601595635691e-11 1.606212276323e+06 8.520055681771e+07  2.160863715558e+00
1.150000000000e+00 -1.244434314116e-313 1.000000000000e+05 1.000000000000e+05 1.000000000000e+00 0.000000000000e+00 -2.211798573860e-08 2.554813482646e-04 -8.672750640271e-13 1.017145727983e-10 1.859613177477e+06 8.533575639410e+07  2.161389708491e+00
1.200000000000e+00 -1.244434314116e-313 1.000000000000e+05 1.000000000000e+05 1.000000000000e+00 0.000000000000e+00 -1.769302639802e-08 2.516605361579e-04 -5.437576266820e-12 1.091107803809e-10 2.109001507088e+06 8.546060016224e+07  2.161875517692e+00
1.250000000000e+00 -1.244434314116e-313 1.000000000000e+05 1.000000000000e+05 1.000000000000e+00 0.000000000000e+00 -1.368978192697e-08 2.479661300968e-04 -1.032987436123e-11 1.162481399080e-10 2.366071012033e+06 8.558127395728e+07  2.162320099532e+00
1.300000000000e+00 -1.244434314116e-313 1.000000000000e+05 1.000000000000e+05 1.000000000000e+00 0.000000000000e+00 -1.009638585688e-08 2.443801163919e-04 -1.064534108173e-11 1.234627410081e-10 2.626062371398e+06 8.570086969156e+07  2.162732070589e+00
1.350000000000e+00 -1.244434314116e-313 1.000000000000e+05 1.000000000000e+05 1.000000000000e+00 0.000000000000e+00 -6.856214809152e-09 2.409106357315e-04 -1.037759525135e-11 1.305432517780e-10 2.890107883466e+06 8.581765529685e+07  2.163113648429e+00
1.400000000000e+00 -1.244434314116e-313 1.000000000000e+05 1.000000000000e+05 1.000000000000e+00 0.000000000000e+00 -3.787565200365e-09 2.375454834003e-04 -1.014623088650e-11 1.374493733722e-10 3.160497385961e+06 8.593130612815e+07  2.163466444012e+00