VARIABLES  = "X","Y","Z", "DISPLACEMENT_X1", "DISPLACEMENT_Y1", "STRESS_XX", "STRESS_XY", "STRESS_YY", "STRESS_ZZ", "STRAIN_XX", "STRAIN_XY", "STRAIN_YY"
ZONE T="0.000000000000e+00s", N=32, E=38, F=FEPOINT, ET=QUADRILATERAL
STRANDID=1, SOLUTIONTIME=0.000000000000e+00
1.000000000000e-02 0.000000000000e+00 5.000000000000e-02 0.000000000000e+00 0.000000000000e+00 -1.000000000000e+05 0.000000000000e+00 -1.000000000000e+05 -1.000000000000e+05 0.000000000000e+00 0.000000000000e+00 0.000000000000e+00 
1.000000000000e-02 0.000000000000e+00 4.500000000000e-02 0.000000000000e+00 0.000000000000e+00 -1.000000000000e+05 0.000000000000e+00 -1.000000000000e+05 -1.000000000000e+05 0.000000000000e+00 0.000000000000e+00 0.000000000000e+00 
5.000000000000e-03 0.000000000000e+00 5.000000000000e-02 0.000000000000e+00 0.000000000000e+00 -1.000000000000e+05 0.000000000000e+00 -1.000000000000e+05 -1.000000000000e+05 0.000000000000e+00 0.000000000000e+00 0.000000000000e+00 
5.000000000000e-03 0.000000000000e+00 4.300000000000e-02 0.000000000000e+00 0.000000000000e+00 -1.000000000000e+05 0.000000000000e+00 -1.000000000000e+05 -1.000000000000e+05 0.000000000000e+00 0.000000000000e+00 0.000000000000e+00 
1.000000000000e-02 0.000000000000e+00 4.000000000000e-02 0.000000000000e+00 0.000000000000e+00 -1.000000000000e+05 0.000000000000e+00 -1.000000000000e+05 -1.000000000000e+05 0.000000000000e+00 0.000000000000e+00 0.000000000000e+00 
0.000000000000e+00 0.000000000000e+00 5.000000000000e-02 0.000000000000e+00 0.000000000000e+00 -1.000000000000e+05 0.000000000000e+00 -1.000000000000e+05 -1.000000000000e+05 0.000000000000e+00 0.000000000000e+00 0.000000000000e+00 
0.000000000000e+00 0.000000000000e+00 4.500000000000e-02 0.000000000000e+00 0.000000000000e+00 -1.000000000000e+05 0.000000000000e+00 -1.000000000000e+05 -1.000000000000e+05 0.000000000000e+00 0.000000000000e+00 0.000000000000e+00 
6.000000000000e-03 0.000000000000e+00 3.800000000000e-02 0.000000000000e+00 0.000000000000e+00 -1.000000000000e+05 0.000000000000e+00 -1.000000000000e+05 -1.000000000000e+05 0.000000000000e+00 0.000000000000e+00 0.000000000000e+00 
0.000000000000e+00 0.000000000000e+00 4.000000000000e-02 0.000000000000e+00 0.000000000000e+00 -1.000000000000e+05 0.000000000000e+00 -1.000000000000e+05 -1.000000000000e+05 0.000000000000e+00 0.000000000000e+00 0.000000000000e+00 
1.000000000000e-02 0.000000000000e+00 3.500000000000e-02 0.000000000000e+00 0.000000000000e+00 -1.000000000000e+05 0.000000000000e+00 -1.000000000000e+05 -1.000000000000e+05 0.000000000000e+00 0.000000000000e+00 0.000000000000e+00 
0.000000000000e+00 0.000000000000e+00 3.500000000000e-02 0.000000000000e+00 0.000000000000e+00 -1.000000000000e+05 0.000000000000e+00 -1.000000000000e+05 -1.000000000000e+05 0.000000000000e+00 0.000000000000e+00 0.000000000000e+00 
4.000000000000e-03 0.000000000000e+00 3.300000000000e-02 0.000000000000e+00 0.000000000000e+00 -1.000000000000e+05 0.000000000000e+00 -1.000000000000e+05 -1.000000000000e+05 0.000000000000e+00 0.000000000000e+00 0.000000000000e+00 
1.000000000000e-02 0.000000000000e+00 3.000000000000e-02 0.000000000000e+00 0.000000000000e+00 -1.000000000000e+05 0.000000000000e+00 -1.000000000000e+05 -1.000000000000e+05 0.000000000000e+00 0.000000000000e+00 0.000000000000e+00 
0.000000000000e+00 0.000000000000e+00 3.000000000000e-02 0.000000000000e+00 0.000000000000e+00 -1.000000000000e+05 0.000000000000e+00 -1.000000000000e+05 -1.000000000000e+05 0.000000000000e+00 0.000000000000e+00 0.000000000000e+00 
4.000000000000e-03 0.000000000000e+00 2.800000000000e-02 0.000000000000e+00 0.000000000000e+00 -1.000000000000e+05 0.000000000000e+00 -1.000000000000e+05 -1.000000000000e+05 0.000000000000e+00 0.000000000000e+00 0.000000000000e+00 
1.000000000000e-02 0.000000000000e+00 2.500000000000e-02 0.000000000000e+00 0.000000000000e+00 -1.000000000000e+05 0.000000000000e+00 -1.000000000000e+05 -1.000000000000e+05 0.000000000000e+00 0.000000000000e+00 0.000000000000e+00 
0.000000000000e+00 0.000000000000e+00 2.500000000000e-02 0.000000000000e+00 0.000000000000e+00 -1.000000000000e+05 0.000000000000e+00 -1.000000000000e+05 -1.000000000000e+05 0.000000000000e+00 0.000000000000e+00 0.000000000000e+00 
4.000000000000e-03 0.000000000000e+00 2.300000000000e-02 0.000000000000e+00 0.000000000000e+00 -1.000000000000e+05 0.000000000000e+00 -1.000000000000e+05 -1.000000000000e+05 0.000000000000e+00 0.000000000000e+00 0.000000000000e+00 
1.000000000000e-02 0.000000000000e+00 2.000000000000e-02 0.000000000000e+00 0.000000000000e+00 -1.000000000000e+05 0.000000000000e+00 -1.000000000000e+05 -1.000000000000e+05 0.000000000000e+00 0.000000000000e+00 0.000000000000e+00 
0.000000000000e+00 0.000000000000e+00 2.000000000000e-02 0.000000000000e+00 0.000000000000e+00 -1.000000000000e+05 0.000000000000e+00 -1.000000000000e+05 -1.000000000000e+05 0.000000000000e+00 0.000000000000e+00 0.000000000000e+00 
4.000000000000e-03 0.000000000000e+00 1.800000000000e-02 0.000000000000e+00 0.000000000000e+00 -1.000000000000e+05 0.000000000000e+00 -1.000000000000e+05 -1.000000000000e+05 0.000000000000e+00 0.000000000000e+00 0.000000000000e+00 
1.000000000000e-02 0.000000000000e+00 1.500000000000e-02 0.000000000000e+00 0.000000000000e+00 -1.000000000000e+05 0.000000000000e+00 -1.000000000000e+05 -1.000000000000e+05 0.000000000000e+00 0.000000000000e+00 0.000000000000e+00 
0.000000000000e+00 0.000000000000e+00 1.500000000000e-02 0.000000000000e+00 0.000000000000e+00 -1.000000000000e+05 0.000000000000e+00 -1.000000000000e+05 -1.000000000000e+05 0.000000000000e+00 0.000000000000e+00 0.000000000000e+00 
4.000000000000e-03 0.000000000000e+00 1.300000000000e-02 0.000000000000e+00 0.000000000000e+00 -1.000000000000e+05 0.000000000000e+00 -1.000000000000e+05 -1.000000000000e+05 0.000000000000e+00 0.000000000000e+00 0.000000000000e+00 
1.000000000000e-02 0.000000000000e+00 1.000000000000e-02 0.000000000000e+00 0.000000000000e+00 -1.000000000000e+05 0.000000000000e+00 -1.000000000000e+05 -1.000000000000e+05 0.000000000000e+00 0.000000000000e+00 0.000000000000e+00 
0.000000000000e+00 0.000000000000e+00 1.000000000000e-02 0.000000000000e+00 0.000000000000e+00 -1.000000000000e+05 0.000000000000e+00 -1.000000000000e+05 -1.000000000000e+05 0.000000000000e+00 0.000000000000e+00 0.000000000000e+00 
5.000000000000e-03 0.000000000000e+00 7.000000000000e-03 0.000000000000e+00 0.000000000000e+00 -1.000000000000e+05 0.000000000000e+00 -1.000000000000e+05 -1.000000000000e+05 0.000000000000e+00 0.000000000000e+00 0.000000000000e+00 
1.000000000000e-02 0.000000000000e+00 5.000000000000e-03 0.000000000000e+00 0.000000000000e+00 -1.000000000000e+05 0.000000000000e+00 -1.000000000000e+05 -1.000000000000e+05 0.000000000000e+00 0.000000000000e+00 0.000000000000e+00 
0.000000000000e+00 0.000000000000e+00 5.000000000000e-03 0.000000000000e+00 0.000000000000e+00 -1.000000000000e+05 0.000000000000e+00 -1.000000000000e+05 -1.000000000000e+05 0.000000000000e+00 0.000000000000e+00 0.000000000000e+00 
1.000000000000e-02 0.000000000000e+00 0.000000000000e+00 0.000000000000e+00 0.000000000000e+00 -1.000000000000e+05 0.000000000000e+00 -1.000000000000e+05 -1.000000000000e+05 0.000000000000e+00 0.000000000000e+00 0.000000000000e+00 
5.000000000000e-03 0.000000000000e+00 0.000000000000e+00 0.000000000000e+00 0.000000000000e+00 -1.000000000000e+05 0.000000000000e+00 -1.000000000000e+05 -1.000000000000e+05 0.000000000000e+00 0.000000000000e+00 0.000000000000e+00 
0.000000000000e+00 0.000000000000e+00 0.000000000000e+00 0.000000000000e+00 0.000000000000e+00 -1.000000000000e+05 0.000000000000e+00 -1.000000000000e+05 -1.000000000000e+05 0.000000000000e+00 0.000000000000e+00 0.000000000000e+00 
14  17  15  14
15  17  18  15
18  17  20  18
14  15  12  14
30  28  31  30
12  15  13  12
18  20  21  18
21  20  23  21
18  21  19  18
21  23  24  21
24  23  26  24
21  24  22  21
5  2  4  5
4  2  3  4
5  4  8  5
8  4  9  8
5  8  10  5
24  26  27  24
27  26  29  27
24  27  25  24
10  8  12  10
27  29  31  27
19  16  18  19
6  7  3  6
25  22  24  25
1  3  2  1
13  10  12  13
9  11  8  9
32  31  29  32
15  18  16  15
14  12  11  14
11  12  8  11
28  25  27  28
7  9  4  7
16  13  15  16
22  19  21  22
7  4  3  7
28  27  31  28
VARIABLES  = "X","Y","Z", "DISPLACEMENT_X1", "DISPLACEMENT_Y1", "STRESS_XX", "STRESS_XY", "STRESS_YY", "STRESS_ZZ", "STRAIN_XX", "STRAIN_XY", "STRAIN_YY"
ZONE T="1.000000000000e-03s", N=32, E=38, F=FEPOINT, ET=QUADRILATERAL
STRANDID=1, SOLUTIONTIME=1.000000000000e-03
1.000000000000e-02 0.000000000000e+00 5.000000000000e-02 0.000000000000e+00 0.000000000000e+00 -2.683091659894e+04 2.040101612321e-01 9.713203376986e+03 -2.684710023684e+04 1.661520157218e-06 4.189008643965e-08 3.753524504353e-03 
1.000000000000e-02 0.000000000000e+00 4.500000000000e-02 0.000000000000e+00 -1.875803256971e-05 -2.690160154783e+04 -5.728438403284e+00 9.600440107705e+03 -2.692043945062e+04 1.934024686228e-06 -1.176239352141e-06 3.749476967988e-03 
5.000000000000e-03 0.000000000000e+00 5.000000000000e-02 -4.199070397457e-09 0.000000000000e+00 -2.687055548970e+04 -4.438294012905e-01 9.690355130686e+03 -2.687205779322e+04 1.542364952885e-07 -9.113297039832e-08 3.753741060188e-03 
5.000000000000e-03 0.000000000000e+00 4.300000000000e-02 -1.305202054282e-08 -2.627419571522e-05 -2.680875842525e+04 4.059467782979e+01 9.795318268472e+03 -2.680547992085e+04 -3.365931183083e-07 8.335440514383e-06 3.757681947437e-03 
1.000000000000e-02 0.000000000000e+00 4.000000000000e-02 0.000000000000e+00 -3.747962072013e-05 -2.682857017110e+04 4.170963411082e+01 9.391899737346e+03 -2.697463310597e+04 1.499579464617e-05 8.564378204089e-06 3.733630705247e-03 
0.000000000000e+00 0.000000000000e+00 5.000000000000e-02 0.000000000000e+00 0.000000000000e+00 -2.685693508661e+04 1.444097720285e+00 9.742594177941e+03 -2.684575549970e+04 -1.147770922714e-06 2.965213985651e-07 3.756403900238e-03 
0.000000000000e+00 0.000000000000e+00 4.500000000000e-02 0.000000000000e+00 -1.877648217983e-05 -2.694323454615e+04 3.662275165897e+00 9.671689033306e+03 -2.690858940749e+04 -3.556900903049e-06 7.519871673976e-07 3.755575253255e-03 
6.000000000000e-03 0.000000000000e+00 3.800000000000e-02 -6.484836959653e-08 -4.500430857687e-05 -2.748529306361e+04 2.770223064352e+02 8.935517816974e+03 -2.741938067592e+04 -6.767005136044e-06 5.688191358803e-05 3.732436245270e-03 
0.000000000000e+00 0.000000000000e+00 4.000000000000e-02 0.000000000000e+00 -3.756496042377e-05 -2.689540281868e+04 -4.137021151419e+01 9.835329370958e+03 -2.682408272802e+04 -7.322195974003e-06 -8.494683430914e-06 3.763699642162e-03 
1.000000000000e-02 0.000000000000e+00 3.500000000000e-02 0.000000000000e+00 -5.617618878563e-05 -2.480245384345e+04 -2.471624437750e+02 1.177691646972e+04 -2.521179464133e+04 4.202565524838e-05 -5.075068845513e-05 3.797507674068e-03 
0.000000000000e+00 0.000000000000e+00 3.500000000000e-02 0.000000000000e+00 -5.644205162603e-05 -2.579668570596e+04 2.046190521069e+02 1.190470157666e+04 -2.555783195577e+04 -2.452231835305e-05 4.201511203261e-05 3.846153442662e-03 
4.000000000000e-03 0.000000000000e+00 3.300000000000e-02 -2.251824004207e-07 -6.391813665556e-05 -2.475415555007e+04 8.408299295696e+02 1.236181736150e+04 -2.495853016541e+04 2.098246050784e-05 1.726504122050e-04 3.831555679430e-03 
1.000000000000e-02 0.000000000000e+00 3.000000000000e-02 0.000000000000e+00 -7.479385205207e-05 -3.477405646730e+04 -3.359971743919e+01 -4.496841227407e+03 -3.569989670801e+04 9.505293137895e-05 -6.899141980846e-06 3.203513696008e-03 
0.000000000000e+00 0.000000000000e+00 3.000000000000e-02 0.000000000000e+00 -7.581285229644e-05 -2.914626397837e+04 -7.550159933011e+01 1.004869017233e+04 -2.763406817554e+04 -1.552521024238e-04 -1.550299506245e-05 3.868763190381e-03 
4.000000000000e-03 0.000000000000e+00 2.800000000000e-02 -8.409120033783e-07 -8.372192449678e-05 -2.901860775418e+04 4.532525193820e+03 1.558685985372e+04 -2.537747293259e+04 -3.738231750161e-04 9.306785064644e-04 4.205671499394e-03 
1.000000000000e-02 0.000000000000e+00 2.500000000000e-02 0.000000000000e+00 -9.003827773440e-05 1.112858331284e+03 2.244668776635e+03 1.737824781548e+04 -1.263041986787e+04 1.410976561780e-03 4.609053221358e-04 3.080889882157e-03 
0.000000000000e+00 0.000000000000e+00 2.500000000000e-02 0.000000000000e+00 -9.637829312613e-05 -4.471097287044e+02 -3.454413323958e+03 5.018555088711e+04 -1.326661999474e+02 -3.228286895238e-05 -7.093062025193e-04 5.166003620938e-03 
4.000000000000e-03 0.000000000000e+00 2.300000000000e-02 -5.475999066002e-06 -1.001611340155e-04 -5.304488566091e+04 2.400538782331e+04 -3.069624594908e+04 -5.339090757329e+04 8.691453957006e-07 4.795396845223e-03 2.197902191030e-03 
1.000000000000e-02 0.000000000000e+00 2.000000000000e-02 0.000000000000e+00 -1.049809010188e-04 8.316466541840e+04 -1.883860200148e+04 1.513977627367e+05 7.393235254782e+04 8.636309497218e-04 -4.296875410306e-03 7.813862303607e-03 
0.000000000000e+00 0.000000000000e+00 2.000000000000e-02 0.000000000000e+00 -1.415673911324e-04 -8.819746661176e+04 3.148809672336e+04 5.801428497449e+04 -3.201733393651e+04 -1.085438646333e-02 6.500693358222e-03 1.275619401691e-02 
4.000000000000e-03 0.000000000000e+00 1.800000000000e-02 -2.826286059381e-05 -1.460819971063e-04 7.859457703207e+04 3.236684387658e+04 1.672351932180e+05 7.754006823668e+04 6.872138367471e-04 1.043131301396e-02 1.450374968903e-02 
1.000000000000e-02 0.000000000000e+00 1.500000000000e-02 0.000000000000e+00 -9.697602514674e-05 -1.784190730442e+05 1.110847807687e+04 -2.297236156647e+05 -1.824055172929e+05 1.483319762318e-02 1.914721594755e-02 -7.351031300017e-02 
0.000000000000e+00 0.000000000000e+00 1.500000000000e-02 0.000000000000e+00 -9.984775604694e-05 -3.103833459482e+04 -2.715530096625e+03 -1.015521375243e+05 -7.308760145463e+04 5.838483958916e-03 -2.008654176931e-02 -2.294711440899e-02 
4.000000000000e-03 0.000000000000e+00 1.300000000000e-02 -1.482733526540e-05 -1.232292602398e-04 -9.186708111176e+04 2.826705260689e+05 4.489258706391e+05 1.239694121205e+05 -3.461705969373e-02 6.243851178978e-02 -7.768102429718e-03 
1.000000000000e-02 0.000000000000e+00 1.000000000000e-02 0.000000000000e+00 2.036669568780e-04 3.465475810820e+05 -1.784041771966e+05 3.704149269863e+05 2.641634056300e+05 8.790360641207e-02 -6.467564590625e-02 2.036890222128e-01 
0.000000000000e+00 0.000000000000e+00 1.000000000000e-02 0.000000000000e+00 -6.174784890068e-04 1.008394225738e+05 -7.237367222511e+02 2.065750889265e+05 9.972116708312e+04 -1.247018371508e-01 1.720907638567e-01 3.473105585807e-01 
5.000000000000e-03 0.000000000000e+00 7.000000000000e-03 -7.773703695620e-04 3.536589153641e-04 3.683925560549e+05 2.503523168656e+05 -9.317184354627e+05 -2.445164256613e+05 3.109169720654e-01 2.150039379828e-01 -1.991854499706e-01 
1.000000000000e-02 0.000000000000e+00 5.000000000000e-03 0.000000000000e+00 -1.417456457428e-03 -2.694758946619e+05 -1.941579163477e+04 -3.197653312748e+05 -2.516740176598e+05 -2.800495832997e-01 -3.276133310357e-01 -4.764754972299e-01 
0.000000000000e+00 0.000000000000e+00 5.000000000000e-03 0.000000000000e+00 -1.129409350880e-03 -3.075945728152e+05 4.996569298518e+03 -3.372099647526e+05 -2.721265479382e+05 -5.625206720616e-01 1.696257814626e-01 -6.427969347583e-01 
1.000000000000e-02 0.000000000000e+00 0.000000000000e+00 0.000000000000e+00 0.000000000000e+00 1.488723235095e+05 4.558231524380e+04 7.385655757097e+05 3.111357826487e+05 -1.656589435571e-01 4.994705110612e-02 6.361225573483e-01 
5.000000000000e-03 0.000000000000e+00 0.000000000000e+00 -6.568649086716e-05 0.000000000000e+00 2.485177156256e+05 -2.359418596854e+04 2.277252781430e+05 1.637981554782e+05 2.983767648148e-01 -3.776923276071e-02 2.494633776032e-01 
0.000000000000e+00 0.000000000000e+00 0.000000000000e+00 0.000000000000e+00 0.000000000000e+00 8.104232459914e+04 -6.441786944053e+04 9.300348683174e+05 3.488726584848e+05 -2.038640770415e-01 -5.675483510844e-02 6.537646395635e-01 
14  17  15  14
15  17  18  15
18  17  20  18
14  15  12  14
30  28  31  30
12  15  13  12
18  20  21  18
21  20  23  21
18  21  19  18
21  23  24  21
24  23  26  24
21  24  22  21
5  2  4  5
4  2  3  4
5  4  8  5
8  4  9  8
5  8  10  5
24  26  27  24
27  26  29  27
24  27  25  24
10  8  12  10
27  29  31  27
19  16  18  19
6  7  3  6
25  22  24  25
1  3  2  1
13  10  12  13
9  11  8  9
32  31  29  32
15  18  16  15
14  12  11  14
11  12  8  11
28  25  27  28
7  9  4  7
16  13  15  16
22  19  21  22
7  4  3  7
28  27  31  28
VARIABLES  = "X","Y","Z", "DISPLACEMENT_X1", "DISPLACEMENT_Y1", "STRESS_XX", "STRESS_XY", "STRESS_YY", "STRESS_ZZ", "STRAIN_XX", "STRAIN_XY", "STRAIN_YY"
ZONE T="1.000000000000e-02s", N=32, E=38, F=FEPOINT, ET=QUADRILATERAL
STRANDID=1, SOLUTIONTIME=1.000000000000e-02
1.000000000000e-02 0.000000000000e+00 5.000000000000e-02 0.000000000000e+00 0.000000000000e+00 -9.497805544606e+05 1.597117115960e+03 -1.353974604070e+06 -9.415020544012e+05 1.121729635986e-04 1.008012680675e-04 -4.487709028686e-02 
1.000000000000e-02 0.000000000000e+00 4.500000000000e-02 0.000000000000e+00 2.270627867883e-04 -9.486860501448e+05 3.587022643479e+03 -1.409714628772e+06 -9.633602951928e+05 3.515752437999e-04 -1.090560286181e-04 -4.640883148181e-02 
5.000000000000e-03 0.000000000000e+00 5.000000000000e-02 -1.706461619514e-07 0.000000000000e+00 -9.735287987162e+05 1.782446025395e+03 -1.468137992888e+06 -9.966667121992e+05 3.855149841827e-04 1.242836796890e-05 -4.451459252989e-02 
5.000000000000e-03 0.000000000000e+00 4.300000000000e-02 -5.748686465509e-07 3.131555017278e-04 -9.699136457083e+05 1.361774929850e+04 -1.406163939260e+06 -9.704310339168e+05 4.132770865851e-05 1.021424075644e-03 -4.453574851755e-02 
1.000000000000e-02 0.000000000000e+00 4.000000000000e-02 0.000000000000e+00 4.555301802124e-04 -9.836254812857e+05 2.926329290252e+04 -1.503711607626e+06 -1.014934769940e+06 8.496862281761e-04 1.330517857491e-03 -4.407647322664e-02 
0.000000000000e+00 0.000000000000e+00 5.000000000000e-02 0.000000000000e+00 0.000000000000e+00 -9.712703797356e+05 -6.207228369029e+01 -1.339719401585e+06 -9.443959055408e+05 -5.767029572839e-04 5.328616932282e-05 -4.400151899908e-02 
0.000000000000e+00 0.000000000000e+00 4.500000000000e-02 0.000000000000e+00 2.230707624044e-04 -9.700092455072e+05 -4.597723848058e+03 -1.342595482373e+06 -9.450419046281e+05 -8.194571875410e-04 2.319232950799e-04 -4.526789608424e-02 
6.000000000000e-03 0.000000000000e+00 3.800000000000e-02 -1.479392382614e-06 5.372068181738e-04 -9.486080139802e+05 2.080720826545e+04 -1.362163960987e+06 -9.443088405290e+05 -8.643222776876e-05 1.504584725820e-03 -4.431817673784e-02 
0.000000000000e+00 0.000000000000e+00 4.000000000000e-02 0.000000000000e+00 4.466360522530e-04 -9.749432425742e+05 -3.056579921452e+03 -1.372043392765e+06 -9.587945952354e+05 -5.524018641103e-04 -5.225597839263e-04 -4.383301338117e-02 
1.000000000000e-02 0.000000000000e+00 3.500000000000e-02 0.000000000000e+00 6.650421066483e-04 -9.789293107667e+05 -5.112550148232e+04 -1.465099334272e+06 -9.976119332044e+05 5.364640345882e-04 -1.770872331066e-03 -4.141781584525e-02 
0.000000000000e+00 0.000000000000e+00 3.500000000000e-02 0.000000000000e+00 6.641835448434e-04 -9.574186002886e+05 1.524907440860e+04 -1.337198894839e+06 -9.378473365757e+05 -5.632566684764e-04 1.115785977106e-03 -4.180409508112e-02 
4.000000000000e-03 0.000000000000e+00 3.300000000000e-02 -8.769724425237e-07 7.538734458809e-04 -1.001584417678e+06 1.931145308922e+04 -1.448793148316e+06 -1.000150630438e+06 -2.160975106227e-04 1.238777697834e-03 -4.072213172015e-02 
1.000000000000e-02 0.000000000000e+00 3.000000000000e-02 0.000000000000e+00 8.857541976894e-04 -9.815412971953e+05 1.567216943832e+04 -1.514113121433e+06 -1.018260055026e+06 1.111045985727e-03 1.462536022005e-03 -4.338795732868e-02 
0.000000000000e+00 0.000000000000e+00 3.000000000000e-02 0.000000000000e+00 8.907709514791e-04 -9.046581740030e+05 -5.173906139695e+04 -1.346537224787e+06 -9.204773412834e+05 8.127608636018e-04 -3.990683153012e-03 -4.680848933462e-02 
4.000000000000e-03 0.000000000000e+00 2.800000000000e-02 1.110260658854e-06 9.504843313205e-04 -9.267400150982e+05 -4.805166163998e+04 -1.266517124578e+06 -8.973077447506e+05 -1.390455880818e-03 -4.856063022053e-03 -4.178804703743e-02 
1.000000000000e-02 0.000000000000e+00 2.500000000000e-02 0.000000000000e+00 1.065633560013e-03 -1.126415955755e+06 -4.204638673577e+04 -1.512293755153e+06 -1.075485600820e+06 -1.573263920540e-03 -1.193425195713e-03 -3.036091691803e-02 
0.000000000000e+00 0.000000000000e+00 2.500000000000e-02 0.000000000000e+00 1.096235860708e-03 -8.775104024034e+05 7.309193749607e+04 -1.701608105330e+06 -1.051646930230e+06 7.230005084919e-03 3.858425145652e-03 -4.956883304009e-02 
4.000000000000e-03 0.000000000000e+00 2.300000000000e-02 1.186260968285e-05 1.190071157520e-03 -9.709896013244e+05 -1.668474365362e+05 -1.358226379612e+06 -9.516110056686e+05 -4.626152587416e-05 -1.319615776891e-02 -4.208490101821e-02 
1.000000000000e-02 0.000000000000e+00 2.000000000000e-02 0.000000000000e+00 1.217175913891e-03 -6.946953625225e+05 -1.188619666742e+04 -9.749626750708e+05 -6.877898784932e+05 -4.684346903627e-03 -1.941418493636e-03 -2.651517165552e-02 
0.000000000000e+00 0.000000000000e+00 2.000000000000e-02 0.000000000000e+00 1.309111540647e-03 -1.143825378407e+06 4.476555155782e+04 -1.696894282070e+06 -1.156298458484e+06 -5.444916967908e-03 7.154376931851e-03 -3.072605364622e-02 
4.000000000000e-03 0.000000000000e+00 1.800000000000e-02 -9.334160171567e-06 1.327562014235e-03 -6.908230490506e+05 -1.066709660746e+05 -1.294699408774e+06 -8.148033703817e+05 5.520094255848e-03 -2.573996930099e-02 -2.180367244161e-02 
1.000000000000e-02 0.000000000000e+00 1.500000000000e-02 0.000000000000e+00 1.393237662605e-03 -1.987614729522e+06 1.705866830057e+05 -2.807335997020e+06 -1.937514756915e+06 1.091555862298e-02 4.906812245306e-02 -1.461713505067e-01 
0.000000000000e+00 0.000000000000e+00 1.500000000000e-02 0.000000000000e+00 1.635909136123e-03 -1.238863095875e+06 -3.787339280427e+04 -2.191064168516e+06 -1.393370347643e+06 1.620379533099e-02 -4.660255910870e-02 -9.082940926519e-02 
4.000000000000e-03 0.000000000000e+00 1.300000000000e-02 -1.145676580446e-04 1.669143063002e-03 -2.586096542381e+06 3.788024357117e+05 -3.098880303233e+06 -2.298572081254e+06 -4.630589715591e-02 7.784363205625e-02 -9.118242963018e-02 
1.000000000000e-02 0.000000000000e+00 1.000000000000e-02 0.000000000000e+00 1.943100313785e-03 6.311408882037e+06 -2.461312503376e+06 9.734390304221e+06 6.441919890190e+06 1.679813907349e-01 -8.751772690425e-02 3.435970007290e-01 
0.000000000000e+00 0.000000000000e+00 1.000000000000e-02 0.000000000000e+00 9.397557866504e-04 -2.459425189918e+06 3.221399022107e+06 8.327134944624e+06 2.368769201564e+06 -2.129012281633e-01 2.816524481503e-01 6.018184840424e-01 
5.000000000000e-03 0.000000000000e+00 7.000000000000e-03 -1.392619320119e-03 2.473500237993e-03 1.018801326019e+07 2.675375302339e+06 -9.402536560236e+06 3.183121525941e+05 6.649148039784e-01 4.212587135227e-01 -5.080584386857e-01 
1.000000000000e-02 0.000000000000e+00 5.000000000000e-03 0.000000000000e+00 -1.162854973396e-03 -1.266940932328e+07 -7.627030446601e+06 -1.570903824576e+07 -1.042562456587e+07 -9.431530591918e-01 -9.643078510055e-01 -1.013734336265e+00 
0.000000000000e+00 0.000000000000e+00 5.000000000000e-03 0.000000000000e+00 1.459946016256e-04 -1.826750660964e+07 4.229414327085e+06 -2.085185889576e+07 -1.495878469823e+07 -1.681491959901e+00 7.247430734210e-01 -1.379673897888e+00 
1.000000000000e-02 0.000000000000e+00 0.000000000000e+00 0.000000000000e+00 0.000000000000e+00 -2.214873396888e+07 1.326950271645e+07 6.667586691900e+07 1.118072334721e+07 -6.335263309633e-01 1.368141633315e-01 2.045382076081e+00 
5.000000000000e-03 0.000000000000e+00 0.000000000000e+00 -7.572463805976e-04 0.000000000000e+00 1.307161961390e+07 -2.419079573122e+06 1.839439968542e+07 1.172972511930e+07 1.295858376415e+00 -1.515497305338e-01 1.564828790836e+00 
0.000000000000e+00 0.000000000000e+00 0.000000000000e+00 0.000000000000e+00 0.000000000000e+00 -3.626510916977e+07 -8.791984127804e+06 6.213411918784e+07 6.259147617408e+06 -8.402423263156e-01 -1.593877392012e-01 2.360524150141e+00 
14  17  15  14
15  17  18  15
18  17  20  18
14  15  12  14
30  28  31  30
12  15  13  12
18  20  21  18
21  20  23  21
18  21  19  18
21  23  24  21
24  23  26  24
21  24  22  21
5  2  4  5
4  2  3  4
5  4  8  5
8  4  9  8
5  8  10  5
24  26  27  24
27  26  29  27
24  27  25  24
10  8  12  10
27  29  31  27
19  16  18  19
6  7  3  6
25  22  24  25
1  3  2  1
13  10  12  13
9  11  8  9
32  31  29  32
15  18  16  15
14  12  11  14
11  12  8  11
28  25  27  28
7  9  4  7
16  13  15  16
22  19  21  22
7  4  3  7
28  27  31  28
VARIABLES  = "X","Y","Z", "DISPLACEMENT_X1", "DISPLACEMENT_Y1", "STRESS_XX", "STRESS_XY", "STRESS_YY", "STRESS_ZZ", "STRAIN_XX", "STRAIN_XY", "STRAIN_YY"
ZONE T="1.000000000000e-01s", N=32, E=38, F=FEPOINT, ET=QUADRILATERAL
STRANDID=1, SOLUTIONTIME=1.000000000000e-01
1.000000000000e-02 0.000000000000e+00 5.000000000000e-02 0.000000000000e+00 0.000000000000e+00 -1.063938572663e+06 1.082541576521e+03 -1.546192623281e+06 -1.064052344676e+06 2.062396358473e-04 9.167618816069e-05 -4.534318915888e-02 
1.000000000000e-02 0.000000000000e+00 4.500000000000e-02 0.000000000000e+00 2.298851234990e-04 -1.055889229303e+06 5.398094092990e+02 -1.548656274253e+06 -1.061818432049e+06 2.695630932679e-04 -1.514746777883e-04 -4.707597760260e-02 
5.000000000000e-03 0.000000000000e+00 5.000000000000e-02 1.787796362160e-07 0.000000000000e+00 -1.089113432247e+06 2.685936332773e+03 -1.603268072255e+06 -1.096952755563e+06 2.193543456532e-04 2.834230092610e-05 -4.513986007819e-02 
5.000000000000e-03 0.000000000000e+00 4.300000000000e-02 -4.720851536698e-07 3.162994079955e-04 -1.084503412152e+06 2.174869564981e+04 -1.567203622522e+06 -1.080682050234e+06 -3.607546660336e-06 1.190360950474e-03 -4.496386442613e-02 
1.000000000000e-02 0.000000000000e+00 4.000000000000e-02 0.000000000000e+00 4.603240260932e-04 -1.114053317588e+06 2.704036965494e+04 -1.683013901340e+06 -1.138826988901e+06 7.866097462670e-04 1.280301697856e-03 -4.430735971111e-02 
0.000000000000e+00 0.000000000000e+00 5.000000000000e-02 0.000000000000e+00 0.000000000000e+00 -1.085754462515e+06 1.688169614992e+03 -1.582875055988e+06 -1.087451643706e+06 -2.920033591905e-04 8.661991579314e-05 -4.449736465304e-02 
0.000000000000e+00 0.000000000000e+00 4.500000000000e-02 0.000000000000e+00 2.253561443317e-04 -1.087818909303e+06 -5.737990242041e+03 -1.544217595108e+06 -1.072814833705e+06 -7.118235718384e-04 2.096624569256e-04 -4.568592657481e-02 
6.000000000000e-03 0.000000000000e+00 3.800000000000e-02 -1.345528042982e-06 5.423243760426e-04 -1.057835823708e+06 2.309372437150e+04 -1.512718136854e+06 -1.048225611208e+06 -1.512662484826e-04 1.554754318407e-03 -4.480011725980e-02 
0.000000000000e+00 0.000000000000e+00 4.000000000000e-02 0.000000000000e+00 4.511659485930e-04 -1.085763614407e+06 3.677210382991e+03 -1.575444114771e+06 -1.084482590336e+06 -3.893296130700e-04 -3.872134715687e-04 -4.422758576841e-02 
1.000000000000e-02 0.000000000000e+00 3.500000000000e-02 0.000000000000e+00 6.715210861881e-04 -1.107746699951e+06 -6.254137540061e+04 -1.657535231251e+06 -1.126103315213e+06 5.383546468306e-04 -1.977016524708e-03 -4.188244663390e-02 
0.000000000000e+00 0.000000000000e+00 3.500000000000e-02 0.000000000000e+00 6.705726277699e-04 -1.087721068446e+06 1.732808572716e+04 -1.553647177726e+06 -1.076540640129e+06 -4.744129918324e-04 1.155469928757e-03 -4.206912641567e-02 
4.000000000000e-03 0.000000000000e+00 3.300000000000e-02 -8.338939946413e-07 7.613921995469e-04 -1.127129174412e+06 2.608256395048e+04 -1.630136588736e+06 -1.122893269790e+06 -2.569582041341e-04 1.394117198504e-03 -4.110176058729e-02 
1.000000000000e-02 0.000000000000e+00 3.000000000000e-02 0.000000000000e+00 8.944405138503e-04 -1.088481814835e+06 1.785385269722e+04 -1.670463265292e+06 -1.123632059392e+06 1.102226423188e-03 1.496249305082e-03 -4.369742935039e-02 
0.000000000000e+00 0.000000000000e+00 3.000000000000e-02 0.000000000000e+00 8.981034655012e-04 -1.039304473098e+06 -3.862798390139e+04 -1.555401266787e+06 -1.057915853910e+06 8.413275950112e-04 -3.695747214142e-03 -4.706471574083e-02 
4.000000000000e-03 0.000000000000e+00 2.800000000000e-02 1.036171963002e-06 9.594628972585e-04 -1.041769823681e+06 -4.492285567908e+04 -1.444590542841e+06 -1.014533596326e+06 -1.363973194705e-03 -4.726164461206e-03 -4.210516509856e-02 
1.000000000000e-02 0.000000000000e+00 2.500000000000e-02 0.000000000000e+00 1.076118715825e-03 -1.281435286685e+06 -3.999183584056e+04 -1.742352901352e+06 -1.229319848960e+06 -1.585439193734e-03 -1.151318298851e-03 -3.065901462281e-02 
0.000000000000e+00 0.000000000000e+00 2.500000000000e-02 0.000000000000e+00 1.105559474067e-03 -1.028012744473e+06 7.302924288182e+04 -1.896453089613e+06 -1.189571001220e+06 7.090167981519e-03 3.775673820116e-03 -5.002335869408e-02 
4.000000000000e-03 0.000000000000e+00 2.300000000000e-02 1.237615941913e-05 1.200554858848e-03 -1.081129488631e+06 -1.711289580731e+05 -1.498007556005e+06 -1.051901582461e+06 -1.296426536033e-04 -1.327202045084e-02 -4.233050655855e-02 
1.000000000000e-02 0.000000000000e+00 2.000000000000e-02 0.000000000000e+00 1.229195019050e-03 -8.210626826605e+05 8.972527594207e+02 -1.222713615517e+06 -8.376289814276e+05 -4.531204624521e-03 -1.824607295046e-03 -2.707210625137e-02 
0.000000000000e+00 0.000000000000e+00 2.000000000000e-02 0.000000000000e+00 1.322784382066e-03 -1.105315248352e+06 3.115709765741e+03 -1.937336092369e+06 -1.237437789676e+06 -4.345426419314e-03 6.495992802702e-03 -3.200842185173e-02 
4.000000000000e-03 0.000000000000e+00 1.800000000000e-02 -6.224847049108e-06 1.340850219002e-03 -8.945816897000e+05 -1.541406597187e+05 -1.621098869435e+06 -1.024976739025e+06 5.527724942584e-03 -2.690241645596e-02 -2.271887235714e-02 