 TITLE = "Time curves in points"
 VARIABLES = "TIME"  "DISPLACEMENT_X1"  "DISPLACEMENT_Y1"  "STRESS_XX"  "STRESS_XY"  "STRESS_YY"  "STRESS_ZZ"  "STRAIN_XX"  "STRAIN_XY"  "STRAIN_YY"  p_(1st_Invariant)  q_(2nd_Invariant)   Effective_Strain
 ZONE T="POINT=POINT4"
0.000000000000e+00 0.000000000000e+00 0.000000000000e+00 -1.000000000000e+05 0.000000000000e+00 -1.000000000000e+05 -1.000000000000e+05 0.000000000000e+00 0.000000000000e+00 0.000000000000e+00 1.000000000000e+05 0.000000000000e+00  0.000000000000e+00
1.000000000000e-03 1.314368023869e-05 0.000000000000e+00 2.618459796997e+05 1.185457256153e+04 4.513425231240e+05 2.507916536310e+05 2.632039726517e-02 -3.453411999209e-03 4.344757421491e-01 -3.213267188183e+05 1.963351403757e+05  4.219740961908e-01
2.000000000000e-03 2.239438811584e-04 0.000000000000e+00 6.606700420593e+05 -8.462169566679e+03 1.018574194646e+06 6.371367087397e+05 1.304980261671e-01 1.847081091005e-02 1.305584056367e+00 -7.721269818152e+05 3.705222029472e+05  1.245883956590e+00
3.000000000000e-03 3.064761238246e-04 0.000000000000e+00 1.836173276696e+06 -2.702018525170e+04 2.946647577071e+06 1.877860064855e+06 1.471530738499e-01 3.266535463960e-03 1.688995272944e+00 -2.220226972874e+06 1.091232846104e+06  1.620447538120e+00
4.000000000000e-03 4.104842896102e-04 0.000000000000e+00 5.115976693757e+06 -2.631875205752e+05 8.873878177487e+06 5.554539918357e+06 1.620052947965e-01 -1.712998409189e-02 1.830419062563e+00 -6.514798263200e+06 3.588019911304e+06  1.755284133515e+00
5.000000000000e-03 4.582621498586e-04 0.000000000000e+00 1.429565655637e+07 -1.021079851160e+06 2.481381124194e+07 1.554417405520e+07 1.726620970519e-01 -2.322650668335e-02 1.873905330655e+00 -1.821788061784e+07 1.010871336726e+07  1.794268479294e+00
6.000000000000e-03 4.762412438653e-04 0.000000000000e+00 3.174194103507e+07 -2.767941067654e+06 5.844784438612e+07 3.534105456490e+07 1.749681349082e-01 -2.655585226567e-02 1.883040914855e+00 -4.184361332870e+07 2.555436962989e+07  1.802526121390e+00
7.000000000000e-03 4.725614762927e-04 0.000000000000e+00 2.429542077139e+07 -2.914828828785e+06 4.741906807354e+07 2.716034684707e+07 1.748497086826e-01 -2.670887251623e-02 1.881930082819e+00 -3.295827856400e+07 2.240874845135e+07  1.801476733715e+00
8.000000000000e-03 4.718431781921e-04 0.000000000000e+00 2.198572030094e+07 -3.000059075549e+06 4.604834864499e+07 2.496800329917e+07 1.746925347191e-01 -2.683901432976e-02 1.882500419416e+00 -3.100069074837e+07 2.330544122458e+07  1.802117515309e+00
9.000000000000e-03 4.714991775125e-04 0.000000000000e+00 2.089751151129e+07 -3.055696621473e+06 4.605166397889e+07 2.386255874214e+07 1.746025969261e-01 -2.694700789738e-02 1.883270485852e+00 -3.027057807744e+07 2.439162739247e+07  1.802927701239e+00
1.000000000000e-02 4.709231262059e-04 0.000000000000e+00 1.979829458016e+07 -3.087766354802e+06 4.600287727257e+07 2.275209356439e+07 1.744848781500e-01 -2.701350623899e-02 1.884038910505e+00 -2.951775513904e+07 2.542842732001e+07  1.803746234321e+00
2.000000000000e-02 4.384005440703e-04 0.000000000000e+00 2.548185618862e+07 3.869386319645e+06 1.104108442301e+08 4.745167125201e+07 2.165472982298e-01 -2.073963098260e-01 1.928016809119e+00 -6.111479055692e+07 7.664625283961e+07  1.864316069138e+00
3.000000000000e-02 4.415098464343e-04 0.000000000000e+00 1.622926931870e+07 6.125088515163e+05 6.391993409651e+07 2.180596948543e+07 1.131175280299e-01 -5.128675481270e-03 1.902370602364e+00 -3.398505763355e+07 4.517375404769e+07  1.848430938360e+00
4.000000000000e-02 4.220583105227e-04 0.000000000000e+00 8.345335732013e+06 -6.200856082687e+05 7.868193323760e+07 2.166950000997e+07 1.640954691452e-01 -4.022167578154e-01 1.917814632391e+00 -3.623225632653e+07 6.472053337958e+07  1.968646884582e+00
5.000000000000e-02 4.029528524088e-04 0.000000000000e+00 1.561603715326e+06 6.096469592476e+05 5.453691187158e+07 4.950456610611e+06 1.254881779200e-01 -4.410752237151e-01 1.913280417654e+00 -2.034965739917e+07 5.137564676008e+07  2.004978110814e+00
6.000000000000e-02 4.341722389531e-04 0.000000000000e+00 8.004483589414e+06 5.746478252645e+06 7.483577335631e+07 1.231204294647e+07 1.388232740132e-01 -4.282675825729e-01 1.926182422635e+00 -3.171743329740e+07 6.554511918417e+07  2.003070403972e+00
7.000000000000e-02 4.391555987564e-04 0.000000000000e+00 3.417057881471e+06 -3.172246836978e+06 6.748889403274e+07 4.662268122830e+06 6.900031696253e-02 -5.322217303693e-01 1.926310357208e+00 -2.518940667901e+07 6.369581838525e+07  2.105302002479e+00
8.000000000000e-02 4.227006425922e-04 0.000000000000e+00 2.240163880307e+06 1.835560707180e+06 6.380549649179e+07 4.494437209549e+05 6.673574338809e-02 -5.124005584342e-01 1.928259431757e+00 -2.216503469768e+07 6.256077836636e+07  2.093231297739e+00
9.000000000000e-02 4.248590494144e-04 0.000000000000e+00 -3.118643549532e+06 8.269505395028e+05 6.761327979605e+07 -2.322316592800e+06 5.840452856953e-02 -5.344778431927e-01 1.936339827932e+00 -2.072410655124e+07 7.035172294343e+07  2.120549857463e+00
1.000000000000e-01 4.127819971722e-04 0.000000000000e+00 -2.711167746910e+06 2.330028909526e+06 6.477690916433e+07 -5.418546798220e+06 6.253628631056e-02 -5.253442649354e-01 1.935752860795e+00 -1.888239820640e+07 6.899980678455e+07  2.111386965990e+00
1.100000000000e-01 4.232718326591e-04 0.000000000000e+00 -5.502510749510e+06 9.172900988947e+05 6.597577796946e+07 -7.771905755432e+06 5.925994657468e-02 -5.326775666448e-01 1.940842781990e+00 -1.756712048817e+07 7.265695181270e+07  2.122876439202e+00
1.200000000000e-01 4.171331354301e-04 0.000000000000e+00 -6.431285068322e+06 1.658567428182e+06 6.504359197908e+07 -9.961427254970e+06 6.050844906617e-02 -5.313781250017e-01 1.942839595047e+00 -1.621695988526e+07 7.335999570127e+07  2.123162002534e+00
1.300000000000e-01 4.190366233587e-04 0.000000000000e+00 -8.202489413832e+06 1.326670309460e+06 6.459701053542e+07 -1.215065970786e+07 6.044161151647e-02 -5.322577297804e-01 1.945442356281e+00 -1.474795380458e+07 7.488698302764e+07  2.126195746309e+00
1.400000000000e-01 4.171732939943e-04 0.000000000000e+00 -9.400810243128e+06 1.445929302964e+06 6.398470012186e+07 -1.399410979654e+07 6.094942151462e-02 -5.319609791468e-01 1.947765146825e+00 -1.352992669406e+07 7.582799812042e+07  2.127847783613e+00
1.500000000000e-01 4.163855502335e-04 0.000000000000e+00 -1.061202773281e+07 1.374008032083e+06 6.354061871973e+07 -1.572868524623e+07 6.127715803750e-02 -5.320047872655e-01 1.950151356925e+00 -1.239996858023e+07 7.687569544306e+07  2.129890314814e+00
1.600000000000e-01 4.140433015682e-04 0.000000000000e+00 -1.163231954775e+07 1.410939539573e+06 6.301847258415e+07 -1.723656062904e+07 6.177140658900e-02 -5.316878719808e-01 1.952349757767e+00 -1.138319746912e+07 7.764329701389e+07  2.131422499709e+00
1.700000000000e-01 4.118843250482e-04 0.000000000000e+00 -1.261875175128e+07 1.397854608850e+06 6.260612372380e+07 -1.864034430805e+07 6.230609564609e-02 -5.315108636750e-01 1.954569176196e+00 -1.044900922149e+07 7.844665072473e+07  2.133061774695e+00
1.800000000000e-01 4.092281393234e-04 0.000000000000e+00 -1.355506113455e+07 1.353407171489e+06 6.213019201430e+07 -2.014751401776e+07 6.277535800785e-02 -5.310711359571e-01 1.956626347405e+00 -9.475872287328e+06 7.922224799560e+07  2.134387299397e+00
1.900000000000e-01 4.051676717300e-04 0.000000000000e+00 -1.411570968867e+07 1.391645855830e+06 6.184704287378e+07 -2.121527600938e+07 6.340686623063e-02 -5.303031362164e-01 1.958616722935e+00 -8.838685725246e+06 7.978631620204e+07  2.135339410572e+00
2.000000000000e-01 4.016160512153e-04 0.000000000000e+00 -1.478134074728e+07 1.384599777147e+06 6.147756847012e+07 -2.221893590129e+07 6.388624266667e-02 -5.296540426650e-01 1.960533595463e+00 -8.159097273849e+06 8.027249404358e+07  2.136380705922e+00
2.100000000000e-01 3.977150002600e-04 0.000000000000e+00 -1.536502379764e+07 1.351144692633e+06 6.117381767664e+07 -2.328618026096e+07 6.440565130523e-02 -5.289223193991e-01 1.962421010031e+00 -7.507537872680e+06 8.082506967967e+07  2.137318358392e+00
2.200000000000e-01 3.929016908419e-04 0.000000000000e+00 -1.572389109814e+07 1.368472467891e+06 6.091635482097e+07 -2.410897645469e+07 6.471194655799e-02 -5.277811369210e-01 1.964145501404e+00 -7.027829089378e+06 8.119291905975e+07  2.137898569498e+00
2.300000000000e-01 3.885595915910e-04 0.000000000000e+00 -1.612231703521e+07 1.356762608889e+06 6.067105865956e+07 -2.484723824461e+07 6.505143356881e-02 -5.268848164673e-01 1.965903622567e+00 -6.567167793245e+06 8.154069761401e+07  2.138678732956e+00
2.400000000000e-01 3.840315882586e-04 0.000000000000e+00 -1.644638047378e+07 1.366718521141e+06 6.043659674945e+07 -2.555122166490e+07 6.523623879014e-02 -5.259861782650e-01 1.967546288513e+00 -6.146331536926e+06 8.185048183297e+07  2.139421235746e+00
2.500000000000e-01 3.797897575284e-04 0.000000000000e+00 -1.671096764223e+07 1.364418814736e+06 6.022864423809e+07 -2.617461278015e+07 6.547974452319e-02 -5.251847262067e-01 1.969150388511e+00 -5.781021271902e+06 8.211564135767e+07  2.140177183102e+00
2.600000000000e-01 3.755202204795e-04 0.000000000000e+00 -1.697330022896e+07 1.366138656488e+06 6.000196029488e+07 -2.677190885994e+07 6.548824317616e-02 -5.242412654200e-01 1.970681819447e+00 -5.418917068661e+06 8.234714883008e+07  2.140865658183e+00
2.700000000000e-01 3.711848252203e-04 0.000000000000e+00 -1.724247508403e+07 1.384753900730e+06 5.978048797584e+07 -2.733697448639e+07 6.566560741114e-02 -5.234332838606e-01 1.972219083831e+00 -5.067012801807e+06 8.256934444078e+07  2.141588272870e+00
2.800000000000e-01 3.670953820328e-04 0.000000000000e+00 -1.749858092361e+07 1.400659492126e+06 5.957244915201e+07 -2.785577568451e+07 6.583138289374e-02 -5.227066163307e-01 1.973726975001e+00 -4.739364181295e+06 8.277282386260e+07  2.142350435122e+00
2.900000000000e-01 3.633972460892e-04 0.000000000000e+00 -1.781185163088e+07 1.420718274144e+06 5.931623604721e+07 -2.839055849815e+07 6.581521229778e-02 -5.219534260401e-01 1.975165622707e+00 -4.371275306061e+06 8.296156760745e+07  2.143110139815e+00
3.000000000000e-01 3.599700985535e-04 0.000000000000e+00 -1.807937715332e+07 1.434834594794e+06 5.909566166198e+07 -2.885723388854e+07 6.595222903412e-02 -5.214110204618e-01 1.976606617197e+00 -4.053016873373e+06 8.312705080043e+07  2.143961324304e+00
3.100000000000e-01 3.562471417922e-04 0.000000000000e+00 -1.836112537827e+07 1.469717668699e+06 5.886342253186e+07 -2.929910656312e+07 6.611027334225e-02 -5.207704115786e-01 1.977983037020e+00 -3.734396863489e+06 8.327323156003e+07  2.144674317575e+00
3.200000000000e-01 3.532234253515e-04 0.000000000000e+00 -1.864596806630e+07 1.484278554902e+06 5.862501014901e+07 -2.971619738969e+07 6.604987572334e-02 -5.202214491918e-01 1.979296124887e+00 -3.420948231008e+06 8.339886539393e+07  2.145491678289e+00
3.300000000000e-01 3.499825461725e-04 0.000000000000e+00 -1.893645040584e+07 1.531060510435e+06 5.842104157867e+07 -3.009333010410e+07 6.616924665859e-02 -5.197343902838e-01 1.980582340539e+00 -3.130420356240e+06 8.353896217589e+07  2.146253164184e+00
3.400000000000e-01 3.480714389121e-04 0.000000000000e+00 -1.919073866107e+07 1.539708606590e+06 5.820899169241e+07 -3.042628606978e+07 6.606660608000e-02 -5.194787015242e-01 1.981744597484e+00 -2.863988987187e+06 8.362832194868e+07  2.147166428211e+00
3.500000000000e-01 3.458050139871e-04 0.000000000000e+00 -1.943611293433e+07 1.562832600349e+06 5.801952237018e+07 -3.072259463618e+07 6.596589451664e-02 -5.191182716517e-01 1.982856315662e+00 -2.620271599890e+06 8.371552459019e+07  2.147957429077e+00
3.600000000000e-01 3.436156526471e-04 0.000000000000e+00 -1.967848644669e+07 1.596819125512e+06 5.784219682270e+07 -3.098555382547e+07 6.601713150436e-02 -5.188819121932e-01 1.983859368615e+00 -2.392718850180e+06 8.379431478445e+07  2.148674677021e+00
3.700000000000e-01 3.424459876769e-04 0.000000000000e+00 -1.988429702740e+07 1.616989146496e+06 5.769463995740e+07 -3.119970680980e+07 6.581899733734e-02 -5.187946071516e-01 1.984784379328e+00 -2.203545373400e+06 8.385828156122e+07  2.149536738063e+00
3.800000000000e-01 3.417067347296e-04 0.000000000000e+00 -2.007990952614e+07 1.643157258483e+06 5.758526937881e+07 -3.138138725693e+07 6.559326500514e-02 -5.187797405075e-01 1.985612672862e+00 -2.041324198579e+06 8.393708715709e+07  2.150375456119e+00
3.900000000000e-01 3.419073833202e-04 0.000000000000e+00 -2.021990845924e+07 1.655802992749e+06 5.750767800405e+07 -3.151257066690e+07 6.530990389546e-02 -5.189884322261e-01 1.986324016698e+00 -1.925066292639e+06 8.399451378479e+07  2.151294687061e+00
4.000000000000e-01 3.424029817853e-04 0.000000000000e+00 -2.033094826146e+07 1.666691622165e+06 5.745948855270e+07 -3.160956728573e+07 6.498283981997e-02 -5.192479766635e-01 1.986957098577e+00 -1.839657668502e+06 8.404916174645e+07  2.152198538703e+00
4.100000000000e-01 3.432452850495e-04 0.000000000000e+00 -2.041467346967e+07 1.674149108080e+06 5.743434621044e+07 -3.167877922988e+07 6.462121442845e-02 -5.195715565980e-01 1.987513683692e+00 -1.780297836964e+06 8.409909547936e+07  2.153094239359e+00
4.200000000000e-01 3.443192283783e-04 0.000000000000e+00 -2.047806294994e+07 1.679247760960e+06 5.742619900466e+07 -3.172790887283e+07 6.423643813551e-02 -5.199319435827e-01 1.988010869643e+00 -1.740075727297e+06 8.414572851211e+07  2.153972719984e+00
4.300000000000e-01 3.455804439675e-04 0.000000000000e+00 -2.052007943983e+07 1.682343803565e+06 5.743520976630e+07 -3.175729859205e+07 6.383318017877e-02 -5.203167880190e-01 1.988453249269e+00 -1.719277244808e+06 8.418903563048e+07  2.154827228472e+00
4.400000000000e-01 3.470060777224e-04 0.000000000000e+00 -2.054679683641e+07 1.683509579282e+06 5.745609413948e+07 -3.177190468906e+07 6.341795933480e-02 -5.207150063548e-01 1.988835646757e+00 -1.712464204669e+06 8.422913702771e+07  2.155642252958e+00
4.500000000000e-01 3.483664736135e-04 0.000000000000e+00 -2.057314274993e+07 1.684496215440e+06 5.747554716505e+07 -3.178680412383e+07 6.301766926778e-02 -5.210895345806e-01 1.989206472264e+00 -1.705200097096e+06 8.426783704792e+07  2.156423281619e+00
4.600000000000e-01 3.496026096479e-04 0.000000000000e+00 -2.059988185282e+07 1.685244798893e+06 5.748975337724e+07 -3.180381693804e+07 6.265040921272e-02 -5.214200493219e-01 1.989551078320e+00 -1.695351528791e+06 8.430273213722e+07  2.157134437470e+00
4.700000000000e-01 3.507768422251e-04 0.000000000000e+00 -2.062766060415e+07 1.685995134680e+06 5.750109443366e+07 -3.182233117142e+07 6.229656245147e-02 -5.217275549815e-01 1.989883574007e+00 -1.683700886029e+06 8.433609207290e+07  2.157812206458e+00
4.800000000000e-01 3.518642431070e-04 0.000000000000e+00 -2.065597092261e+07 1.686452649501e+06 5.750801350180e+07 -3.184266387843e+07 6.196625106354e-02 -5.220035505983e-01 1.990195716333e+00 -1.669792900253e+06 8.436634057468e+07  2.158438546420e+00
4.900000000000e-01 3.528857665153e-04 0.000000000000e+00 -2.068477567597e+07 1.686691094209e+06 5.751128013166e+07 -3.186451563425e+07 6.165369123355e-02 -5.222548146187e-01 1.990490783476e+00 -1.653996273816e+06 8.439405239493e+07  2.159023831910e+00
5.000000000000e-01 3.538841415370e-04 0.000000000000e+00 -2.071384293837e+07 1.686924363763e+06 5.751385356221e+07 -3.188652058901e+07 6.134444690786e-02 -5.224961010409e-01 1.990780320776e+00 -1.637830011611e+06 8.442127222124e+07  2.159595479684e+00
5.100000000000e-01 3.548624244134e-04 0.000000000000e+00 -2.074326421634e+07 1.687146203044e+06 5.751576301658e+07 -3.190871207851e+07 6.103788050770e-02 -5.227287656282e-01 1.991065038092e+00 -1.621262240576e+06 8.444808490813e+07  2.160155389350e+00
5.200000000000e-01 3.558172044371e-04 0.000000000000e+00 -2.077301013855e+07 1.687300800823e+06 5.751681481780e+07 -3.193118048832e+07 6.073617336636e-02 -5.229522399916e-01 1.991343465111e+00 -1.604208063642e+06 8.447433700683e+07  2.160700866108e+00
5.300000000000e-01 3.567357341946e-04 0.000000000000e+00 -2.080512143162e+07 1.687597425486e+06 5.751571764136e+07 -3.195553996273e+07 6.044364201180e-02 -5.231672786508e-01 1.991617728391e+00 -1.585018749006e+06 8.450053110542e+07  2.161232515315e+00
5.400000000000e-01 3.575601923074e-04 0.000000000000e+00 -2.083814576453e+07 1.688007203504e+06 5.751138480383e+07 -3.198143273095e+07 6.018145754289e-02 -5.233604405503e-01 1.991880015668e+00 -1.563935436117e+06 8.452479631719e+07  2.161724315045e+00
5.500000000000e-01 3.583780625345e-04 0.000000000000e+00 -2.087268675307e+07 1.688816724973e+06 5.750841656901e+07 -3.200737086322e+07 5.991774434393e-02 -5.235563444144e-01 1.992148352459e+00 -1.542786317574e+06 8.455107142850e+07  2.162224293625e+00
5.600000000000e-01 3.591578601714e-04 0.000000000000e+00 -2.090858145269e+07 1.689793307170e+06 5.750441515948e+07 -3.203425568404e+07 5.966414321017e-02 -5.237438957354e-01 1.992413973958e+00 -1.520526007585e+06 8.457743389862e+07  2.162711396810e+00
5.700000000000e-01 3.599058161520e-04 0.000000000000e+00 -2.094593742438e+07 1.690937142729e+06 5.749975182271e+07 -3.206199478313e+07 5.941832419490e-02 -5.239254691499e-01 1.992678423414e+00 -1.497273205068e+06 8.460424031414e+07  2.163189754849e+00
5.800000000000e-01 3.606185256613e-04 0.000000000000e+00 -2.098507227953e+07 1.692175171048e+06 5.749359093952e+07 -3.209113904418e+07 5.918193047344e-02 -5.240994901196e-01 1.992939881729e+00 -1.472459871939e+06 8.463111096618e+07  2.163655857615e+00
5.900000000000e-01 3.612682839187e-04 0.000000000000e+00 -2.102479759413e+07 1.693176649220e+06 5.748402065815e+07 -3.212182709543e+07 5.896676941565e-02 -5.242555589476e-01 1.993187377636e+00 -1.445798656195e+06 8.465573708188e+07  2.164087071961e+00
6.000000000000e-01 3.619143087030e-04 0.000000000000e+00 -2.106607782387e+07 1.694535673047e+06 5.747607761018e+07 -3.215252253501e+07 5.874844674558e-02 -5.244148665161e-01 1.993441643483e+00 -1.419159083764e+06 8.468262545360e+07  2.164528175470e+00
6.100000000000e-01 3.625292865241e-04 0.000000000000e+00 -2.110874948230e+07 1.695869547478e+06 5.746684244403e+07 -3.218441566850e+07 5.853922617212e-02 -5.245672337850e-01 1.993692412338e+00 -1.391225764412e+06 8.470949754995e+07  2.164957138895e+00
6.200000000000e-01 3.630897345924e-04 0.000000000000e+00 -2.115186406373e+07 1.696911623782e+06 5.745425748207e+07 -3.221779316913e+07 5.834906252419e-02 -5.247037269768e-01 1.993929702958e+00 -1.361533416404e+06 8.473408657023e+07  2.165354092946e+00
6.300000000000e-01 3.636492517107e-04 0.000000000000e+00 -2.119681112290e+07 1.698261710762e+06 5.744318990034e+07 -3.225144345116e+07 5.815476433708e-02 -5.248437859557e-01 1.994174396031e+00 -1.331645108761e+06 8.476109504348e+07  2.165762164994e+00
6.400000000000e-01 3.641600868791e-04 0.000000000000e+00 -2.124209018015e+07 1.699290289313e+06 5.742896690680e+07 -3.228646728113e+07 5.797782748451e-02 -5.249695023855e-01 1.994406218351e+00 -1.300136481841e+06 8.478590137865e+07  2.166140620532e+00
6.500000000000e-01 3.646711550144e-04 0.000000000000e+00 -2.128872697233e+07 1.700595110940e+06 5.741674805621e+07 -3.232131067729e+07 5.779643208891e-02 -5.250988102439e-01 1.994645227495e+00 -1.268903468863e+06 8.481315060273e+07  2.166530155631e+00
6.600000000000e-01 3.651598931768e-04 0.000000000000e+00 -2.133671323826e+07 1.701836584891e+06 5.740338961792e+07 -3.235730033101e+07 5.762115467845e-02 -5.252230816835e-01 1.994881202680e+00 -1.236458682884e+06 8.484048586716e+07  2.166910636950e+00
6.700000000000e-01 3.656048416310e-04 0.000000000000e+00 -2.138518015205e+07 1.702735491127e+06 5.738648316422e+07 -3.239497718022e+07 5.746226918156e-02 -5.253340241263e-01 1.995103983760e+00 -1.202108610650e+06 8.486547308155e+07  2.167262357665e+00
6.800000000000e-01 3.660285492198e-04 0.000000000000e+00 -2.143390114181e+07 1.703561988934e+06 5.736932248142e+07 -3.243286086111e+07 5.730966461087e-02 -5.254399095290e-01 1.995323145475e+00 -1.167520159501e+06 8.489042950211e+07  2.167604402986e+00
6.900000000000e-01 3.664537342192e-04 0.000000000000e+00 -2.148417366626e+07 1.704598063879e+06 5.735382934499e+07 -3.247087039713e+07 5.715256796033e-02 -5.255490300423e-01 1.995548729025e+00 -1.132928427199e+06 8.491775089749e+07  2.167956586401e+00
7.000000000000e-01 3.668412069363e-04 0.000000000000e+00 -2.153443590083e+07 1.705265772380e+06 5.733528679150e+07 -3.251010046163e+07 5.701016770484e-02 -5.256464786231e-01 1.995761658447e+00 -1.096916809683e+06 8.494274415425e+07  2.168282433441e+00
7.100000000000e-01 3.672310877977e-04 0.000000000000e+00 -2.158620967821e+07 1.706140378281e+06 5.731855111827e+07 -3.254938700548e+07 5.686284673350e-02 -5.257474341089e-01 1.995981080464e+00 -1.060984811527e+06 8.497018396478e+07  2.168618865560e+00
7.200000000000e-01 3.675864387520e-04 0.000000000000e+00 -2.163787122470e+07 1.706650305309e+06 5.729883239242e+07 -3.258983408316e+07 5.672934750680e-02 -5.258374826321e-01 1.996188155514e+00 -1.023709028188e+06 8.499528504787e+07  2.168930172676e+00
7.300000000000e-01 3.679454222313e-04 0.000000000000e+00 -2.169099884391e+07 1.707367074382e+06 5.728113478846e+07 -3.263023190926e+07 5.659035065907e-02 -5.259312679081e-01 1.996402022531e+00 -9.866346784287e+05 8.502296509155e+07  2.169252753492e+00
7.400000000000e-01 3.682722654828e-04 0.000000000000e+00 -2.174427291035e+07 1.707740794648e+06 5.726008815463e+07 -3.267211899119e+07 5.646453119606e-02 -5.260143924844e-01 1.996603701976e+00 -9.478987510311e+05 8.504824231312e+07  2.169550810033e+00
7.500000000000e-01 3.685856694299e-04 0.000000000000e+00 -2.179807971773e+07 1.708026634581e+06 5.723861337002e+07 -3.271448830319e+07 5.634256103991e-02 -5.260945228024e-01 1.996802445758e+00 -9.086817830359e+05 8.507359008878e+07  2.169842360324e+00
7.600000000000e-01 3.688856324374e-04 0.000000000000e+00 -2.185191028027e+07 1.708166266883e+06 5.721686703739e+07 -3.275699461259e+07 5.622522298980e-02 -5.261713705152e-01 1.996997174214e+00 -8.693207148434e+05 8.509875199728e+07  2.170125874583e+00
7.700000000000e-01 3.691880497865e-04 0.000000000000e+00 -2.190702102061e+07 1.708442449431e+06 5.719688870448e+07 -3.279948565419e+07 5.610351403398e-02 -5.262512983903e-01 1.997197143565e+00 -8.301273432268e+05 8.512618390046e+07  2.170418287738e+00
7.800000000000e-01 3.694632516581e-04 0.000000000000e+00 -2.196217148236e+07 1.708361232590e+06 5.717361993257e+07 -3.284340403676e+07 5.599371296009e-02 -5.263222021718e-01 1.997385340196e+00 -7.893481378168e+05 8.515118994375e+07  2.170688290199e+00
7.900000000000e-01 3.697285615661e-04 0.000000000000e+00 -2.201741031941e+07 1.708244867435e+06 5.715058880337e+07 -3.288728680936e+07 5.588622096577e-02 -5.263907115757e-01 1.997571623807e+00 -7.486305582008e+05 8.517644612223e+07  2.170953817213e+00
8.000000000000e-01 3.699978769765e-04 0.000000000000e+00 -2.207387424057e+07 1.708282500156e+06 5.712959111475e+07 -3.293102046521e+07 5.577363206659e-02 -5.264624358043e-01 1.997763612239e+00 -7.082321363227e+05 8.520413628808e+07  2.171229076973e+00
8.100000000000e-01 3.702424006677e-04 0.000000000000e+00 -2.213026735872e+07 1.707957326814e+06 5.710521149087e+07 -3.297617230121e+07 5.567252732126e-02 -5.265257409059e-01 1.997943767891e+00 -6.662572769818e+05 8.522925899544e+07  2.171482493242e+00
8.200000000000e-01 3.704781346887e-04 0.000000000000e+00 -2.218706807700e+07 1.707569511733e+06 5.708062927870e+07 -3.302166643380e+07 5.557368176844e-02 -5.265870472188e-01 1.998121691165e+00 -6.239649226345e+05 8.525454480588e+07  2.171731452713e+00
8.300000000000e-01 3.707044610905e-04 0.000000000000e+00 -2.224416888648e+07 1.707068227684e+06 5.705559377531e+07 -3.306755948787e+07 5.547792503229e-02 -5.266460864657e-01 1.998296421530e+00 -5.812884669858e+05 8.527973202358e+07  2.171974528066e+00
8.400000000000e-01 3.709218920824e-04 0.000000000000e+00 -2.230116781696e+07 1.706459710550e+06 5.703050884769e+07 -3.311345584480e+07 5.538511857616e-02 -5.267029326939e-01 1.998468031218e+00 -5.386283953057e+05 8.530482663298e+07  2.172211898551e+00
8.500000000000e-01 3.711433971067e-04 0.000000000000e+00 -2.235925808265e+07 1.705983940258e+06 5.700746366815e+07 -3.315914412188e+07 5.528753092457e-02 -5.267627638928e-01 1.998644698800e+00 -4.963538212098e+05 8.533227263913e+07  2.172458110251e+00
8.600000000000e-01 3.713435289313e-04 0.000000000000e+00 -2.241709396748e+07 1.705138189577e+06 5.698099488716e+07 -3.320619286621e+07 5.520077387551e-02 -5.268152443956e-01 1.998809641167e+00 -4.525693511572e+05 8.535700024354e+07  2.172683633946e+00
8.700000000000e-01 3.715370451728e-04 0.000000000000e+00 -2.247522942902e+07 1.704264065454e+06 5.695449873952e+07 -3.325346905083e+07 5.511548260767e-02 -5.268660425408e-01 1.998972848127e+00 -4.086000865577e+05 8.538195569079e+07  2.172905725307e+00
8.800000000000e-01 3.717236619885e-04 0.000000000000e+00 -2.253359344311e+07 1.703317415244e+06 5.692773578093e+07 -3.330103830563e+07 5.503227683780e-02 -5.269149729139e-01 1.999133538917e+00 -3.643680107320e+05 8.540690875270e+07  2.173123271610e+00
8.900000000000e-01 3.719033956281e-04 0.000000000000e+00 -2.259213312837e+07 1.702289910845e+06 5.690068109225e+07 -3.334888808464e+07 5.495131552427e-02 -5.269620815511e-01 1.999291526824e+00 -3.198866264117e+05 8.543180547126e+07  2.173336067655e+00
9.000000000000e-01 3.720767954937e-04 0.000000000000e+00 -2.265086860177e+07 1.701207352544e+06 5.687343125724e+07 -3.339698660683e+07 5.487216062231e-02 -5.270074372511e-01 1.999447240452e+00 -2.751920162135e+05 8.545673262049e+07  2.173544742577e+00
9.100000000000e-01 3.722442621300e-04 0.000000000000e+00 -2.270976774506e+07 1.700072203296e+06 5.684604223345e+07 -3.344529717322e+07 5.479470573659e-02 -5.270511602080e-01 1.999600810938e+00 -2.303257717236e+05 8.548171131379e+07  2.173749548887e+00
9.200000000000e-01 3.724055026541e-04 0.000000000000e+00 -2.276848047062e+07 1.698843900484e+06 5.681861967332e+07 -3.349356176328e+07 5.471940338360e-02 -5.270932147338e-01 1.999751499488e+00 -1.855258131396e+05 8.550655067737e+07  2.173949593459e+00
9.300000000000e-01 3.725703064845e-04 0.000000000000e+00 -2.282812693315e+07 1.697740969820e+06 5.679327404910e+07 -3.354153260582e+07 5.463972436837e-02 -5.271379452203e-01 1.999906718714e+00 -1.412048367118e+05 8.553366528820e+07  2.174157600322e+00
9.400000000000e-01 3.727196618970e-04 0.000000000000e+00 -2.288743041940e+07 1.696318302886e+06 5.676476086164e+07 -3.359071918398e+07 5.456875390793e-02 -5.271769794961e-01 2.000051836185e+00 -9.553708608678e+04 8.555819573610e+07  2.174348514615e+00
9.500000000000e-01 3.728640632982e-04 0.000000000000e+00 -2.294714443460e+07 1.694847242916e+06 5.673602695280e+07 -3.364029416764e+07 5.449910845932e-02 -5.272149263365e-01 2.000195118521e+00 -4.952945018225e+04 8.558290049973e+07  2.174536398852e+00
9.600000000000e-01 3.730019058681e-04 0.000000000000e+00 -2.300694381273e+07 1.693280536524e+06 5.670696528615e+07 -3.369013697936e+07 5.443185519781e-02 -5.272515756947e-01 2.000335916906e+00 -3.294831352331e+03 8.560746816695e+07  2.174720047400e+00
9.700000000000e-01 3.731344183717e-04 0.000000000000e+00 -2.306692728317e+07 1.691637874696e+06 5.667760016181e+07 -3.374027657521e+07 5.436637143482e-02 -5.272870106595e-01 2.000474391816e+00 4.320123218945e+04 8.563198090771e+07  2.174899936929e+00
9.800000000000e-01 3.732620048293e-04 0.000000000000e+00 -2.312708693100e+07 1.689927097111e+06 5.664797213024e+07 -3.379069264986e+07 5.430250845988e-02 -5.273212855908e-01 2.000610687317e+00 8.993581687227e+04 8.565646427422e+07  2.175076302241e+00
9.900000000000e-01 3.733848329364e-04 0.000000000000e+00 -2.318740830206e+07 1.688149653770e+06 5.661809399302e+07 -3.384137325772e+07 5.424022551876e-02 -5.273544569018e-01 2.000744850990e+00 1.368958555833e+05 8.568091816926e+07  2.175249245155e+00
1.000000000000e+00 3.735031343664e-04 0.000000000000e+00 -2.324788285850e+07 1.686319807326e+06 5.658800068148e+07 -3.389229997903e+07 5.417937873522e-02 -5.273864934182e-01 2.000877008019e+00 1.840607186858e+05 8.570536380827e+07  2.175418919059e+00
1.050000000000e+00 3.739706284874e-04 0.000000000000e+00 -2.355297903080e+07 1.677030008494e+06 5.643024265217e+07 -3.415049925796e+07 5.390657306642e-02 -5.275286294586e-01 2.001464603888e+00 4.244118788632e+05 8.582356485441e+07  2.176174107470e+00
1.100000000000e+00 3.743149940846e-04 0.000000000000e+00 -2.385172280006e+07 1.667218797470e+06 5.625868134169e+07 -3.440169806825e+07 5.362747229839e-02 -5.275702545771e-01 2.002014561242e+00 6.649131755406e+05 8.592136211613e+07  2.176824832027e+00
1.150000000000e+00 3.745222864869e-04 0.000000000000e+00 -2.418368118971e+07 1.656401240849e+06 5.609187375735e+07 -3.468600636771e+07 5.339644034620e-02 -5.276349129881e-01 2.002527609104e+00 9.259379333537e+05 8.605680991830e+07  2.177437935570e+00
1.200000000000e+00 3.749141670089e-04 0.000000000000e+00 -2.446788647651e+07 1.637936019891e+06 5.592877995779e+07 -3.494144472485e+07 5.322050189083e-02 -5.277490028789e-01 2.002989991935e+00 1.160183747856e+06 8.615919607458e+07  2.178017040126e+00
1.250000000000e+00 3.751254384410e-04 0.000000000000e+00 -2.475768699302e+07 1.620191089409e+06 5.575536680583e+07 -3.519972187991e+07 5.304820007027e-02 -5.278190882885e-01 2.003430346930e+00 1.400680689030e+06 8.625533663903e+07  2.178542600580e+00
1.300000000000e+00 3.752499448835e-04 0.000000000000e+00 -2.504845904889e+07 1.601263559482e+06 5.558045032619e+07 -3.546069267198e+07 5.289339089001e-02 -5.278837773903e-01 2.003847138460e+00 1.642900464893e+06 8.635192419505e+07  2.179035254977e+00
1.350000000000e+00 3.753298454593e-04 0.000000000000e+00 -2.534047340041e+07 1.582033957259e+06 5.540107475308e+07 -3.572536403994e+07 5.275380932811e-02 -5.279395865808e-01 2.004237947362e+00 1.888254229094e+06 8.644677086961e+07  2.179491259161e+00
1.400000000000e+00 3.753715120291e-04 0.000000000000e+00 -2.562656696483e+07 1.562684534493e+06 5.522023932440e+07 -3.598705708087e+07 5.262880674090e-02 -5.279878281464e-01 2.004604438317e+00 2.131128240434e+06 8.653602908008e+07  2.179913357420e+00