 TITLE = "Time curves in points"
 VARIABLES = "TIME"  "DISPLACEMENT_X1"  "DISPLACEMENT_Y1"  "STRESS_XX"  "STRESS_XY"  "STRESS_YY"  "STRESS_ZZ"  "STRAIN_XX"  "STRAIN_XY"  "STRAIN_YY"  p_(1st_Invariant)  q_(2nd_Invariant)   Effective_Strain
 ZONE T="POINT=POINT6"
0.000000000000e+00 0.000000000000e+00 0.000000000000e+00 -1.000000000000e+05 0.000000000000e+00 -1.000000000000e+05 -1.000000000000e+05 0.000000000000e+00 0.000000000000e+00 0.000000000000e+00 1.000000000000e+05 0.000000000000e+00  0.000000000000e+00
1.000000000000e-03 -4.199779267826e-09 0.000000000000e+00 -2.687056224515e+04 -4.441457474577e-01 9.690344884551e+03 -2.687206459386e+04 1.542411336252e-07 -9.119792681131e-08 3.753740706450e-03 1.468409398482e+04 3.656165833530e+04  3.753663591584e-03
2.000000000000e-03 2.562719295135e-08 0.000000000000e+00 -1.316563381832e+05 -1.792403033141e+00 -1.474876176234e+05 -1.316575600507e+05 -8.620154594367e-08 -1.513475223257e-06 -2.541470279488e-02 1.369338386191e+05 1.583066884627e+04  2.541465982941e-02
3.000000000000e-03 1.824049206148e-08 0.000000000000e+00 -2.702317324788e+05 1.477720186889e+01 -3.571654690330e+05 -2.709588585656e+05 1.180589002054e-04 -8.031950885550e-06 -3.709867358546e-02 2.994520200258e+05 8.657246751161e+04  3.715784630254e-02
4.000000000000e-03 2.713765902739e-08 0.000000000000e+00 -7.293934426327e+05 6.553401988168e+02 -1.046026282070e+06 -7.301678689925e+05 1.223158774445e-04 -1.107994666134e-05 -4.288012361908e-02 8.351958645652e+05 3.162483744489e+05  4.294141649972e-02
5.000000000000e-03 -1.491380275698e-07 0.000000000000e+00 -8.723671455003e+05 2.393635783892e+03 -1.313027244392e+06 -8.941577372611e+05 3.758147579043e-04 2.337498602784e-05 -4.403861617763e-02 1.026517375718e+06 4.301989037657e+05  4.422773962821e-02
6.000000000000e-03 -1.416514989632e-07 0.000000000000e+00 -9.091772217128e+05 1.756187018871e+03 -1.365963035861e+06 -9.300560869765e+05 3.654897692351e-04 1.103630021798e-05 -4.422462176056e-02 1.068398781517e+06 4.467228336819e+05  4.440849879063e-02
7.000000000000e-03 -1.319555746829e-07 0.000000000000e+00 -9.295699466671e+05 2.068890268528e+03 -1.397312063010e+06 -9.507527907662e+05 3.680415544122e-04 1.791420270917e-05 -4.433586816189e-02 1.092544933481e+06 4.575326577164e+05  4.452104069813e-02
8.000000000000e-03 -1.395732076429e-07 0.000000000000e+00 -9.669386287593e+05 2.110630132930e+03 -1.453381215587e+06 -9.881279271475e+05 3.687461415935e-04 2.035996826575e-05 -4.449185931750e-02 1.136149257165e+06 4.762156694229e+05  4.467738761707e-02
9.000000000000e-03 -1.527617144140e-07 0.000000000000e+00 -9.639634961826e+05 1.429261404933e+03 -1.452743371154e+06 -9.866827394200e+05 3.819191862798e-04 9.021084170554e-06 -4.449863171697e-02 1.134463202252e+06 4.778319261898e+05  4.469081798651e-02
1.000000000000e-02 -1.518672424771e-07 0.000000000000e+00 -9.716132851719e+05 1.510503578695e+03 -1.463971936892e+06 -9.942340843373e+05 3.810671146439e-04 1.036218718936e-05 -4.452877231076e-02 1.143273102134e+06 4.814540904007e+05  4.472052714981e-02
2.000000000000e-02 -1.946011217069e-07 0.000000000000e+00 -1.547904739131e+06 2.108912312110e+03 -2.339485655965e+06 -1.574956183903e+06 4.136350033328e-04 1.904536743589e-05 -4.667757013841e-02 1.820782193000e+06 7.784163819188e+05  4.688576770194e-02
3.000000000000e-02 -1.450635505230e-07 0.000000000000e+00 -1.028787822741e+06 1.283589244177e+03 -1.549131170901e+06 -1.051167649533e+06 3.765084350792e-04 5.546799798518e-06 -4.451596380783e-02 1.209695547725e+06 5.095270409125e+05  4.470540817969e-02
4.000000000000e-02 -1.802467591511e-07 0.000000000000e+00 -8.487744976265e+05 1.899714042552e+03 -1.294602765874e+06 -8.773509754900e+05 4.443643070878e-04 1.872030053624e-05 -4.366954714340e-02 1.006909412997e+06 4.322615932015e+05  4.389342828662e-02
5.000000000000e-02 -1.870029961864e-07 0.000000000000e+00 -8.945905227761e+05 2.499794897912e+03 -1.371286579285e+06 -9.263509271149e+05 4.800109065657e-04 3.258445625599e-05 -4.398740298757e-02 1.064076009725e+06 4.616563018058e+05  4.422939803442e-02
6.000000000000e-02 -2.259556197917e-07 0.000000000000e+00 -1.121621632292e+06 2.866909441532e+03 -1.715231304260e+06 -1.154741278220e+06 4.913187877982e-04 3.863893137556e-05 -4.496856015324e-02 1.330531404924e+06 5.777835831472e+05  4.521627111751e-02
7.000000000000e-02 -1.905235832734e-07 0.000000000000e+00 -1.184516476723e+06 3.312325881795e+03 -1.817930702291e+06 -1.220978992047e+06 5.211754706905e-04 5.072767653019e-05 -4.527508717369e-02 1.407808723687e+06 6.160195896052e+05  4.553799652177e-02
8.000000000000e-02 -2.589868381331e-07 0.000000000000e+00 -1.274056205846e+06 4.332628036550e+03 -1.953981253349e+06 -1.311215119643e+06 5.270019406779e-04 6.471666528499e-05 -4.561605377802e-02 1.513084192946e+06 6.621705927219e+05  4.588196167267e-02
9.000000000000e-02 -2.484225037604e-07 0.000000000000e+00 -1.357447519074e+06 4.458229481826e+03 -2.081253533960e+06 -1.395480570995e+06 5.339887354585e-04 6.482730046291e-05 -4.591864277881e-02 1.611393874676e+06 7.056009749918e+05  4.618808877130e-02
1.000000000000e-01 -2.443294453182e-07 0.000000000000e+00 -1.423028968448e+06 4.649128590286e+03 -2.181360127437e+06 -1.461755800277e+06 5.397306060393e-04 6.634997489215e-05 -4.613962949174e-02 1.688714965387e+06 7.397722582812e+05  4.641199086343e-02
1.100000000000e-01 -2.737011361956e-07 0.000000000000e+00 -1.477888321262e+06 4.693272131421e+03 -2.267715482017e+06 -1.518241693810e+06 5.508762422048e-04 6.615323732303e-05 -4.635554694710e-02 1.754615165696e+06 7.704863589222e+05  4.663356619067e-02
1.200000000000e-01 -2.667678808038e-07 0.000000000000e+00 -1.557729016896e+06 4.811614904805e+03 -2.391485637869e+06 -1.599686043031e+06 5.600239950987e-04 6.772250978567e-05 -4.659669970795e-02 1.849633565932e+06 8.136325962230e+05  4.687936731113e-02
1.300000000000e-01 -2.806742281620e-07 0.000000000000e+00 -1.618305230508e+06 4.346661275896e+03 -2.483554350929e+06 -1.660744020515e+06 5.633356962795e-04 6.129280401348e-05 -4.680191666763e-02 1.920867867317e+06 8.448630930233e+05  4.708623165648e-02
1.400000000000e-01 -3.104137100079e-07 0.000000000000e+00 -1.711214380135e+06 4.509887041270e+03 -2.627321543047e+06 -1.755414562610e+06 5.742002950231e-04 6.370317867679e-05 -4.708407017684e-02 2.031316828597e+06 8.948602704029e+05  4.737390876493e-02
1.500000000000e-01 -3.458122267701e-07 0.000000000000e+00 -1.808057731622e+06 4.837928394835e+03 -2.778543492247e+06 -1.854640686203e+06 5.871560885192e-04 6.614820211607e-05 -4.732763419069e-02 2.147080636691e+06 9.480900304177e+05  4.762406477491e-02
1.600000000000e-01 -3.677768793483e-07 0.000000000000e+00 -1.886279442313e+06 5.263810068593e+03 -2.902276842758e+06 -1.935422712634e+06 6.020441019542e-04 7.114570175767e-05 -4.754057008869e-02 2.241326332568e+06 9.923807066455e+05  4.784459181994e-02
1.700000000000e-01 -3.857569390835e-07 0.000000000000e+00 -1.975822009202e+06 6.528616096490e+03 -3.043127347417e+06 -2.027579941311e+06 6.160002614140e-04 8.271600913834e-05 -4.777046325860e-02 2.348843099310e+06 1.042451878874e+06  4.808163641072e-02
1.800000000000e-01 -4.376919112580e-07 0.000000000000e+00 -2.066816226314e+06 6.987338160877e+03 -3.180207300837e+06 -2.118809608186e+06 6.162297098654e-04 8.856161285351e-05 -4.798132940929e-02 2.455277711779e+06 1.088393540020e+06  4.829263671738e-02
1.900000000000e-01 -4.345218037262e-07 0.000000000000e+00 -2.163769930692e+06 5.575024847703e+03 -3.333980611409e+06 -2.219100411411e+06 6.316520544773e-04 7.734430098939e-05 -4.821245161316e-02 2.572283651171e+06 1.143590583452e+06  4.853154556992e-02
2.000000000000e-01 -4.807140940854e-07 0.000000000000e+00 -2.248208064645e+06 5.511812981923e+03 -3.462337412244e+06 -2.304218381308e+06 6.346452176011e-04 7.600822698240e-05 -4.842226541902e-02 2.671587952732e+06 1.187153991398e+06  4.874286464487e-02
2.100000000000e-01 -4.739043833666e-07 0.000000000000e+00 -2.345847358958e+06 5.048917538513e+03 -3.608545283908e+06 -2.401757242049e+06 6.343452697394e-04 7.230751873309e-05 -4.863180250205e-02 2.785383294972e+06 1.235722924462e+06  4.895221800417e-02
2.200000000000e-01 -4.862165156131e-07 0.000000000000e+00 -2.441208159409e+06 5.100402906969e+03 -3.752180723640e+06 -2.497355730994e+06 6.354174693998e-04 7.276290270705e-05 -4.883563150306e-02 2.896914871348e+06 1.283850353583e+06  4.915658202489e-02
2.300000000000e-01 -5.127451656907e-07 0.000000000000e+00 -2.541194196915e+06 4.838453123609e+03 -3.905379742140e+06 -2.598629745135e+06 6.405786967898e-04 7.028896301788e-05 -4.903600087658e-02 3.015067894730e+06 1.336420042959e+06  4.935955796182e-02
2.400000000000e-01 -5.327521312585e-07 0.000000000000e+00 -2.644239704418e+06 5.452107172300e+03 -4.061985377639e+06 -2.702490190936e+06 6.450980275005e-04 7.407385068850e-05 -4.920106663082e-02 3.136238424331e+06 1.389568535305e+06  4.952693288420e-02
2.500000000000e-01 -5.313578951321e-07 0.000000000000e+00 -2.719376986490e+06 5.690348209758e+03 -4.191521106167e+06 -2.784359382605e+06 6.644216677959e-04 7.525244746825e-05 -4.935075410799e-02 3.231752491754e+06 1.440786142622e+06  4.968646783908e-02
2.600000000000e-01 -5.516026346830e-07 0.000000000000e+00 -2.794679429885e+06 6.044350824426e+03 -4.304036622889e+06 -2.859486555715e+06 6.628670147656e-04 7.608910287818e-05 -4.948451899789e-02 3.319400869496e+06 1.478056697367e+06  4.981943433212e-02
2.700000000000e-01 -5.269058943200e-07 0.000000000000e+00 -2.868921523099e+06 4.662638885177e+03 -4.406140406010e+06 -2.930024893971e+06 6.494404358926e-04 6.508037247574e-05 -4.960509012079e-02 3.401695607694e+06 1.507617816624e+06  4.993310521574e-02
2.800000000000e-01 -5.448426675602e-07 0.000000000000e+00 -2.952323018287e+06 4.284140022629e+03 -4.533131381915e+06 -3.014181868590e+06 6.513330507567e-04 6.220423505910e-05 -4.976149104314e-02 3.499878756264e+06 1.550822257231e+06  5.009044956328e-02
2.900000000000e-01 -5.364591531577e-07 0.000000000000e+00 -3.044130413515e+06 4.446493642903e+03 -4.673608567297e+06 -3.107095684030e+06 6.555551128047e-04 6.326914796147e-05 -4.991229424949e-02 3.608278221614e+06 1.598944170417e+06  5.024339895346e-02
3.000000000000e-01 -5.315553218461e-07 0.000000000000e+00 -3.143166009256e+06 4.068053939920e+03 -4.826624264249e+06 -3.207916185564e+06 6.623666797163e-04 6.083767208950e-05 -5.006196079111e-02 3.725902153023e+06 1.652050153599e+06  5.039651898976e-02
3.100000000000e-01 -5.452807976689e-07 0.000000000000e+00 -3.250957245511e+06 3.037143548538e+03 -4.996169211828e+06 -3.318850642415e+06 6.709112845318e-04 5.666529273144e-05 -5.019146223685e-02 3.855325699918e+06 1.712283161375e+06  5.053035379544e-02
3.200000000000e-01 -5.703944332313e-07 0.000000000000e+00 -3.309256671226e+06 4.429104917652e+03 -5.088944706584e+06 -3.379280595622e+06 6.771061756515e-04 6.323369946838e-05 -5.029375543351e-02 3.925827324477e+06 1.745746534769e+06  5.063582246080e-02
3.300000000000e-01 -5.488538301180e-07 0.000000000000e+00 -3.411306782846e+06 3.198153266482e+03 -5.242846609902e+06 -3.481661385460e+06 6.774657571331e-04 5.691344185390e-05 -5.042920955909e-02 4.045271592736e+06 1.797404054755e+06  5.077142815267e-02
3.400000000000e-01 -5.372960355961e-07 0.000000000000e+00 -3.500361785503e+06 3.301813033521e+03 -5.380223265207e+06 -3.572234033093e+06 6.811774099100e-04 5.882523967137e-05 -5.055208857210e-02 4.150939694601e+06 1.844984454962e+06  5.089619812570e-02
3.500000000000e-01 -5.407272536350e-07 0.000000000000e+00 -3.584373264849e+06 2.483772645641e+03 -5.500665884652e+06 -3.654015658001e+06 6.757752223905e-04 5.429030419491e-05 -5.066426748970e-02 4.246351602501e+06 1.882442766990e+06  5.100559941183e-02
3.600000000000e-01 -5.176955170511e-07 0.000000000000e+00 -3.696914278061e+06 1.717102972564e+03 -5.659090437854e+06 -3.762401868114e+06 6.666371104988e-04 5.145402633238e-05 -5.077606765790e-02 4.372802194676e+06 1.930268003122e+06  5.111272449609e-02
3.700000000000e-01 -4.851352878357e-07 0.000000000000e+00 -3.781302459893e+06 3.036047561871e+03 -5.781543287062e+06 -3.845138262991e+06 6.618136709210e-04 5.921572703336e-05 -5.087051411830e-02 4.469328003315e+06 1.969106154983e+06  5.120473147271e-02
3.800000000000e-01 -4.687684002949e-07 0.000000000000e+00 -3.887453745316e+06 4.227270432849e+03 -5.942800910443e+06 -3.952101810057e+06 6.638616929246e-04 6.526823328192e-05 -5.098287243038e-02 4.594118821938e+06 2.023810943324e+06  5.131814834372e-02
3.900000000000e-01 -4.517937477423e-07 0.000000000000e+00 -3.967347455409e+06 2.098658824528e+03 -6.067396699165e+06 -4.033897592636e+06 6.699529799652e-04 5.515961996949e-05 -5.108120739514e-02 4.689547249070e+06 2.067580807301e+06  5.141954609686e-02
4.000000000000e-01 -4.586035878456e-07 0.000000000000e+00 -4.050638183520e+06 2.333864417078e+03 -6.195853865337e+06 -4.118596735025e+06 6.729053160282e-04 5.556254453325e-05 -5.118666673167e-02 4.788362927961e+06 2.112060433938e+06  5.152650477575e-02
4.100000000000e-01 -4.628342483124e-07 0.000000000000e+00 -4.140997193192e+06 2.506009390747e+03 -6.327891429852e+06 -4.207555349290e+06 6.700173811618e-04 5.681330369938e-05 -5.128253264655e-02 4.892147990778e+06 2.154390768352e+06  5.162089644139e-02
4.200000000000e-01 -4.550344147185e-07 0.000000000000e+00 -4.237066058083e+06 3.469218041945e+03 -6.469456797390e+06 -4.302609027288e+06 6.679969311826e-04 5.982754100854e-05 -5.137185659247e-02 5.003043960921e+06 2.200359716659e+06  5.170919502578e-02
4.300000000000e-01 -4.417658621007e-07 0.000000000000e+00 -4.319234732128e+06 3.780754338978e+03 -6.600433989740e+06 -4.387867359670e+06 6.737753668193e-04 6.097814586338e-05 -5.145638543158e-02 5.102512027179e+06 2.247678507662e+06  5.179666760420e-02
4.400000000000e-01 -4.457470360806e-07 0.000000000000e+00 -4.399498938921e+06 3.887406665145e+03 -6.720772554212e+06 -4.468108454900e+06 6.737378520380e-04 6.137300977541e-05 -5.152911354907e-02 5.196126649344e+06 2.287750497611e+06  5.186937323764e-02
4.500000000000e-01 -4.465662564519e-07 0.000000000000e+00 -4.474657134456e+06 3.934732799126e+03 -6.834597276935e+06 -4.543701609886e+06 6.745251200166e-04 6.154502018986e-05 -5.159725289622e-02 5.284318673759e+06 2.326196516388e+06  5.193791001903e-02
4.600000000000e-01 -4.477356040364e-07 0.000000000000e+00 -4.552939393883e+06 3.989602081292e+03 -6.952995602791e+06 -4.622373832691e+06 6.752194749115e-04 6.174110866457e-05 -5.166686136093e-02 5.376102943121e+06 2.366113298642e+06  5.200786855007e-02
4.700000000000e-01 -4.488480693343e-07 0.000000000000e+00 -4.630840355301e+06 4.043571910826e+03 -7.070821643482e+06 -4.700664623272e+06 6.759016955161e-04 6.193064572138e-05 -5.173496452600e-02 5.467442207351e+06 2.405839408436e+06  5.207631567290e-02
4.800000000000e-01 -4.499291193508e-07 0.000000000000e+00 -4.707916791470e+06 4.096782150419e+03 -7.187388182368e+06 -4.778121804112e+06 6.765569294930e-04 6.211439610617e-05 -5.180122249467e-02 5.557808925983e+06 2.445135201294e+06  5.214290394531e-02
4.900000000000e-01 -4.510347103707e-07 0.000000000000e+00 -4.788700248777e+06 4.152316444240e+03 -7.309550919573e+06 -4.859300273840e+06 6.772253996638e-04 6.230297575520e-05 -5.186951194661e-02 5.652517147397e+06 2.486312947448e+06  5.221153033346e-02
5.000000000000e-01 -4.520882206553e-07 0.000000000000e+00 -4.867315651680e+06 4.206034029006e+03 -7.428423554583e+06 -4.938295482054e+06 6.778574840431e-04 6.248235587152e-05 -5.193486575836e-02 5.744678229439e+06 2.526376435585e+06  5.227720269562e-02
5.100000000000e-01 -4.531546224575e-07 0.000000000000e+00 -4.948622760881e+06 4.261481085629e+03 -7.551356402300e+06 -5.019991459009e+06 6.784940898560e-04 6.266447657595e-05 -5.200135459829e-02 5.839990207397e+06 2.567803860958e+06  5.234401232764e-02
5.200000000000e-01 -4.541447792607e-07 0.000000000000e+00 -5.025919060778e+06 4.313839410066e+03 -7.668214614920e+06 -5.097653259351e+06 6.790828775781e-04 6.283370660977e-05 -5.206355255629e-02 5.930595645016e+06 2.607179407779e+06  5.240650693995e-02
5.300000000000e-01 -4.551520106699e-07 0.000000000000e+00 -5.106015456001e+06 4.367928155534e+03 -7.789297305988e+06 -5.178124890352e+06 6.796779463230e-04 6.300579643308e-05 -5.212700163159e-02 6.024479217447e+06 2.647974425287e+06  5.247025580097e-02
5.400000000000e-01 -4.561164181995e-07 0.000000000000e+00 -5.184167566964e+06 4.420463513702e+03 -7.907430687553e+06 -5.256639084994e+06 6.802432958177e-04 6.317035646419e-05 -5.218795381552e-02 6.116079113170e+06 2.687771149862e+06  5.253149275986e-02
5.500000000000e-01 -4.571038580057e-07 0.000000000000e+00 -5.265933744827e+06 4.475233798090e+03 -8.031018384083e+06 -5.338780633520e+06 6.808204107882e-04 6.333928438058e-05 -5.225074839736e-02 6.211910920810e+06 2.729401399877e+06  5.259457801046e-02
5.600000000000e-01 -4.580444599792e-07 0.000000000000e+00 -5.345368590397e+06 4.528224076741e+03 -8.151072097795e+06 -5.418576057128e+06 6.813663299079e-04 6.350022068017e-05 -5.231082099196e-02 6.305005581773e+06 2.769836560680e+06  5.265492552341e-02
5.700000000000e-01 -4.589649496181e-07 0.000000000000e+00 -5.424678753946e+06 4.580913812951e+03 -8.270929049640e+06 -5.498242904285e+06 6.818983696955e-04 6.365787570457e-05 -5.236991296013e-02 6.397950235957e+06 2.810201665292e+06  5.271428538909e-02
5.800000000000e-01 -4.598745392041e-07 0.000000000000e+00 -5.504546310318e+06 4.633798573934e+03 -8.391620336989e+06 -5.578466443858e+06 6.824216120738e-04 6.381379745325e-05 -5.242855178136e-02 6.491544363722e+06 2.850844110137e+06  5.277318764842e-02
5.900000000000e-01 -4.607755724714e-07 0.000000000000e+00 -5.585250406068e+06 4.686981240228e+03 -8.513566293126e+06 -5.659526467753e+06 6.829371820614e-04 6.396831630367e-05 -5.248694398547e-02 6.586114388982e+06 2.891904735578e+06  5.283183939241e-02
6.000000000000e-01 -4.616189567481e-07 0.000000000000e+00 -5.662223518642e+06 4.737452620322e+03 -8.629866869617e+06 -5.736835947544e+06 6.834175553090e-04 6.411289254100e-05 -5.254185234360e-02 6.676308778601e+06 2.931060955521e+06  5.288698954299e-02
6.100000000000e-01 -4.624839686069e-07 0.000000000000e+00 -5.742880372198e+06 4.790129621105e+03 -8.751726046422e+06 -5.817842364843e+06 6.839098660235e-04 6.426170037916e-05 -5.259859316727e-02 6.770816261154e+06 2.972085355497e+06  5.294397814091e-02
6.200000000000e-01 -4.633259337302e-07 0.000000000000e+00 -5.822955632846e+06 4.842248726536e+03 -8.872697857263e+06 -5.898261199548e+06 6.843869968478e-04 6.440687663351e-05 -5.265413901187e-02 6.864638229885e+06 3.012807053129e+06  5.299976408863e-02
6.300000000000e-01 -4.641449392196e-07 0.000000000000e+00 -5.902222306542e+06 4.893635697662e+03 -8.992440603555e+06 -5.977864974563e+06 6.848487583498e-04 6.454805722853e-05 -5.270837449480e-02 6.957509294887e+06 3.053111596827e+06  5.305423191310e-02
6.400000000000e-01 -4.649458403635e-07 0.000000000000e+00 -5.981165697225e+06 4.944553946271e+03 -9.111687896286e+06 -6.057141255817e+06 6.852986633889e-04 6.468608276064e-05 -5.276166783739e-02 7.049998283109e+06 3.093246142388e+06  5.310775160517e-02
6.500000000000e-01 -4.657432441442e-07 0.000000000000e+00 -6.061350207253e+06 4.996139958167e+03 -9.232802634244e+06 -6.137660963721e+06 6.857456877398e-04 6.482406263560e-05 -5.281508233667e-02 7.143937935073e+06 3.134005867680e+06  5.316139097893e-02
6.600000000000e-01 -4.664765282967e-07 0.000000000000e+00 -6.136387900313e+06 5.044205780023e+03 -9.346135906645e+06 -6.213009359387e+06 6.861547453902e-04 6.495098101377e-05 -5.286442822227e-02 7.231844388782e+06 3.172143418680e+06  5.321094261314e-02
6.700000000000e-01 -4.672297937209e-07 0.000000000000e+00 -6.214835248885e+06 5.094285462147e+03 -9.464613475952e+06 -6.291779336740e+06 6.865742204862e-04 6.508157132537e-05 -5.291537565444e-02 7.323742687192e+06 3.212009581492e+06  5.326210101409e-02
6.800000000000e-01 -4.679717895400e-07 0.000000000000e+00 -6.293349765889e+06 5.144190704161e+03 -9.583185324543e+06 -6.370613893850e+06 6.869850964121e-04 6.521006616877e-05 -5.296572485823e-02 7.415716328094e+06 3.251904190006e+06  5.331265683622e-02
6.900000000000e-01 -4.686854213733e-07 0.000000000000e+00 -6.370212651301e+06 5.192852978697e+03 -9.699256863669e+06 -6.447787675153e+06 6.873793181301e-04 6.533381741209e-05 -5.301440835097e-02 7.505752396708e+06 3.290954795377e+06  5.336153855087e-02
7.000000000000e-01 -4.693934097953e-07 0.000000000000e+00 -6.447723029226e+06 5.241774873327e+03 -9.816299825305e+06 -6.525609023026e+06 6.877688750892e-04 6.545672403445e-05 -5.306290931673e-02 7.596543959185e+06 3.330329313487e+06  5.341023537093e-02
7.100000000000e-01 -4.700692477075e-07 0.000000000000e+00 -6.522891540806e+06 5.289126758920e+03 -9.929800823543e+06 -6.601076839506e+06 6.881393895419e-04 6.557427774877e-05 -5.310938934329e-02 7.684589734618e+06 3.368509686257e+06  5.345690165878e-02
7.200000000000e-01 -4.707204251984e-07 0.000000000000e+00 -6.596493247893e+06 5.335169021837e+03 -1.004093036157e+07 -6.674969350551e+06 6.884952848143e-04 6.568728077481e-05 -5.315438266365e-02 7.770797653339e+06 3.405889739897e+06  5.350207387007e-02
7.300000000000e-01 -4.713697284797e-07 0.000000000000e+00 -6.671007331613e+06 5.381808448162e+03 -1.015343263999e+07 -6.749775908793e+06 6.888492207072e-04 6.580046460058e-05 -5.319942465649e-02 7.858071960132e+06 3.443729333452e+06  5.354729375375e-02
7.400000000000e-01 -4.719899413530e-07 0.000000000000e+00 -6.743234096831e+06 5.426745705215e+03 -1.026247522345e+07 -6.822283661984e+06 6.891855244992e-04 6.590831923741e-05 -5.324260389390e-02 7.942664327422e+06 3.480402391826e+06  5.359064199746e-02
7.500000000000e-01 -4.725932960150e-07 0.000000000000e+00 -6.814506037508e+06 5.470993652251e+03 -1.037007237907e+07 -6.893831314494e+06 6.895120100815e-04 6.601339027841e-05 -5.328476071321e-02 8.026136577025e+06 3.516587553191e+06  5.363296287587e-02
7.600000000000e-01 -4.731835398559e-07 0.000000000000e+00 -6.885249213052e+06 5.514771633296e+03 -1.047686649228e+07 -6.964846244203e+06 6.898304645536e-04 6.611626378560e-05 -5.332616981306e-02 8.108987316512e+06 3.552500462138e+06  5.367453198284e-02
7.700000000000e-01 -4.737571511531e-07 0.000000000000e+00 -6.954953778602e+06 5.557761832276e+03 -1.058208830099e+07 -7.034816808272e+06 6.901390020124e-04 6.621625641454e-05 -5.336655579628e-02 8.190619629287e+06 3.587882615297e+06  5.371507297524e-02
7.800000000000e-01 -4.743127349889e-07 0.000000000000e+00 -7.023333258017e+06 5.599801190510e+03 -1.068530564192e+07 -7.103455550877e+06 6.904367477227e-04 6.631306682547e-05 -5.340578154306e-02 8.270698150270e+06 3.622588821793e+06  5.375444829514e-02
7.900000000000e-01 -4.748580637395e-07 0.000000000000e+00 -7.091389055535e+06 5.641550591539e+03 -1.078803035924e+07 -7.171767771329e+06 6.907283778082e-04 6.640827666349e-05 -5.344444339162e-02 8.350395728701e+06 3.657127543133e+06  5.379325663126e-02
8.000000000000e-01 -4.753869357796e-07 0.000000000000e+00 -7.158310846707e+06 5.682517687925e+03 -1.088903913604e+07 -7.238940013026e+06 6.910105095654e-04 6.650081394611e-05 -5.348209967711e-02 8.428763331925e+06 3.691087372657e+06  5.383105461927e-02
8.100000000000e-01 -4.758994456374e-07 0.000000000000e+00 -7.224020011553e+06 5.722605248198e+03 -1.098821457385e+07 -7.304893868535e+06 6.912836025774e-04 6.659052690936e-05 -5.351873213769e-02 8.505709484645e+06 3.724429432209e+06  5.386782423208e-02
8.200000000000e-01 -4.764051697574e-07 0.000000000000e+00 -7.289623244619e+06 5.762496003776e+03 -1.108722664609e+07 -7.370740004994e+06 6.915522426319e-04 6.667898859270e-05 -5.355497402055e-02 8.582529965235e+06 3.757714978236e+06  5.390420101900e-02
8.300000000000e-01 -4.768998140373e-07 0.000000000000e+00 -7.354612043998e+06 5.801940629317e+03 -1.118530777710e+07 -7.435967991321e+06 6.918144073762e-04 6.676567770846e-05 -5.359055545944e-02 8.658629270808e+06 3.790685913798e+06  5.393991409855e-02
8.400000000000e-01 -4.773813836779e-07 0.000000000000e+00 -7.418707563378e+06 5.840662919413e+03 -1.128203669702e+07 -7.500297780999e+06 6.920689335189e-04 6.685003394849e-05 -5.362533995817e-02 8.733680680466e+06 3.823200417677e+06  5.397482638836e-02
8.500000000000e-01 -4.778554416442e-07 0.000000000000e+00 -7.482430419950e+06 5.879088124078e+03 -1.137820043885e+07 -7.564252434059e+06 6.923186070264e-04 6.693302105663e-05 -5.365962522404e-02 8.808294430952e+06 3.855523676974e+06  5.400923699993e-02
8.600000000000e-01 -4.783166561810e-07 0.000000000000e+00 -7.545160112361e+06 5.916829247936e+03 -1.147286215783e+07 -7.627209012014e+06 6.925609288168e-04 6.701384196857e-05 -5.369309132029e-02 8.881743760737e+06 3.887340578797e+06  5.404282474047e-02
8.700000000000e-01 -4.787680737992e-07 0.000000000000e+00 -7.607336293763e+06 5.954144210284e+03 -1.156668578274e+07 -7.689608947580e+06 6.927979306396e-04 6.709308972741e-05 -5.372598818057e-02 8.954543674693e+06 3.918874497996e+06  5.407584056519e-02
8.800000000000e-01 -4.792057909409e-07 0.000000000000e+00 -7.668237680739e+06 5.990579764973e+03 -1.165858272247e+07 -7.750728290920e+06 6.930269263505e-04 6.716984367979e-05 -5.375795013677e-02 9.025849564711e+06 3.949759475800e+06  5.410791745708e-02
8.900000000000e-01 -4.796420437360e-07 0.000000000000e+00 -7.729560924918e+06 6.027155271149e+03 -1.175111221738e+07 -7.812269398780e+06 6.932540057411e-04 6.724627829984e-05 -5.378987688112e-02 9.097647513694e+06 3.980855196993e+06  5.413995816220e-02
9.000000000000e-01 -4.800672560171e-07 0.000000000000e+00 -7.790045048907e+06 6.063258121758e+03 -1.184237548502e+07 -7.872968367183e+06 6.934761732566e-04 6.732113084696e-05 -5.382112063326e-02 9.168462967035e+06 4.011525376078e+06  5.417131341036e-02
9.100000000000e-01 -4.804868465361e-07 0.000000000000e+00 -7.850302511050e+06 6.099081165270e+03 -1.193329246645e+07 -7.933438155863e+06 6.936940400651e-04 6.739482730830e-05 -5.385200554530e-02 9.239011044454e+06 4.042077201760e+06  5.420230764601e-02
9.200000000000e-01 -4.809004065424e-07 0.000000000000e+00 -7.910327929667e+06 6.134677290467e+03 -1.202385696715e+07 -7.993674134305e+06 6.939084411927e-04 6.746749628036e-05 -5.388253640428e-02 9.309286343707e+06 4.072509496846e+06  5.423294608185e-02
9.300000000000e-01 -4.813076129534e-07 0.000000000000e+00 -7.970017855164e+06 6.170009995394e+03 -1.211391264288e+07 -8.053572384942e+06 6.941189643954e-04 6.753908113700e-05 -5.391266722989e-02 9.379167627664e+06 4.102769600863e+06  5.426318253020e-02
9.400000000000e-01 -4.817083763758e-07 0.000000000000e+00 -8.029353018782e+06 6.205053270661e+03 -1.220343058940e+07 -8.113113638543e+06 6.943256760401e-04 6.760954933593e-05 -5.394239570334e-02 9.448632415575e+06 4.132847878978e+06  5.429301470611e-02
9.500000000000e-01 -4.821025725955e-07 0.000000000000e+00 -8.088288606969e+06 6.239782833939e+03 -1.229234327184e+07 -8.172252955714e+06 6.945285167565e-04 6.767887213863e-05 -5.397170685854e-02 9.517628278175e+06 4.162721673345e+06  5.432242761406e-02
9.600000000000e-01 -4.824876717410e-07 0.000000000000e+00 -8.146424477902e+06 6.273942303427e+03 -1.238004723977e+07 -8.230588899527e+06 6.947262771085e-04 6.774656348094e-05 -5.400041137228e-02 9.585686872399e+06 4.192188332551e+06  5.435123132479e-02
9.700000000000e-01 -4.828686224079e-07 0.000000000000e+00 -8.204446866424e+06 6.307965242902e+03 -1.246757784064e+07 -8.288810102881e+06 6.949213951362e-04 6.781350319466e-05 -5.402885603449e-02 9.653611603316e+06 4.221595753251e+06  5.437977385175e-02
9.800000000000e-01 -4.832423855577e-07 0.000000000000e+00 -8.261908407011e+06 6.341614736699e+03 -1.255425969001e+07 -8.346467465761e+06 6.951122256952e-04 6.787924189457e-05 -5.405682751190e-02 9.720878520928e+06 4.250716790731e+06  5.440784103525e-02
9.900000000000e-01 -4.836095144281e-07 0.000000000000e+00 -8.318868063886e+06 6.374894580346e+03 -1.264018261309e+07 -8.403620503926e+06 6.952993738564e-04 6.794380762349e-05 -5.408436314195e-02 9.787557060299e+06 4.279582032727e+06  5.443547051877e-02
1.000000000000e+00 -4.839647864687e-07 0.000000000000e+00 -8.374668792797e+06 6.407524142287e+03 -1.272435499593e+07 -8.459609754082e+06 6.954805823899e-04 6.800668136410e-05 -5.411115571457e-02 9.852877847602e+06 4.307858130709e+06  5.446235395962e-02
1.050000000000e+00 -4.861506055847e-07 0.000000000000e+00 -8.811367837853e+06 6.605863765137e+03 -1.338233050195e+07 -8.897479579290e+06 6.965855975774e-04 6.838954775899e-05 -5.427486891753e-02 1.036372597303e+07 4.528535333401e+06  5.462662126563e-02
1.100000000000e+00 -5.293786363046e-07 0.000000000000e+00 -8.747573083986e+06 7.959618169260e+03 -1.335089744500e+07 -8.859388444683e+06 7.201866989246e-04 7.086870857233e-05 -5.428071317065e-02 1.031928632456e+07 4.548468482947e+06  5.464450389519e-02
1.150000000000e+00 -5.284951743711e-07 0.000000000000e+00 -9.133188269814e+06 8.074583417026e+03 -1.392784458028e+07 -9.244413351562e+06 7.195086596124e-04 7.113501818342e-05 -5.449908808401e-02 1.076848206722e+07 4.740043218251e+06  5.486251945627e-02
1.200000000000e+00 -5.282002253857e-07 0.000000000000e+00 -9.276725458569e+06 8.162424617305e+03 -1.414223877352e+07 -9.387585861031e+06 7.191902730944e-04 7.128824438140e-05 -5.456037730428e-02 1.093551669771e+07 4.811061936621e+06  5.492364285924e-02
1.250000000000e+00 -5.304218245057e-07 0.000000000000e+00 -9.495649457422e+06 8.297384034045e+03 -1.447311684759e+07 -9.607506646755e+06 7.202839898758e-04 7.158386080773e-05 -5.468395496334e-02 1.119209098392e+07 4.922513045029e+06  5.504777097640e-02
1.300000000000e+00 -5.299422179791e-07 0.000000000000e+00 -9.738902528222e+06 8.414102968422e+03 -1.483588473049e+07 -9.849914971094e+06 7.194481907495e-04 7.181454397780e-05 -5.479886105530e-02 1.147490074327e+07 5.042413636201e+06  5.516224426258e-02
1.350000000000e+00 -5.427764558160e-07 0.000000000000e+00 -9.936280630393e+06 1.071689698829e+04 -1.513805015223e+07 -1.004973231778e+07 7.218177549667e-04 7.624165638762e-05 -5.490123909536e-02 1.170802103347e+07 5.146015203021e+06  5.526584119143e-02