 TITLE = "Time curves in points"
 VARIABLES = "TIME"  "PRESSURE1"  "PRESSURE2"  "PRESSURE_W"  "SATURATION1" SATURATION2  "VELOCITY_X1"  "VELOCITY_Y1"  "VELOCITY_X2"  "VELOCITY_Y2"  p_(1st_Invariant)  q_(2nd_Invariant)   Effective_Strain
 ZONE T="POINT=POINT5"
0.000000000000e+00 8.400000000000e+07 1.000000000000e+05 -8.390000000000e+07 6.601393844892e-01 3.398606155108e-01 0.000000000000e+00 0.000000000000e+00 0.000000000000e+00 0.000000000000e+00 1.000000000000e+05 0.000000000000e+00  0.000000000000e+00
1.000000000000e-03 8.398925712626e+07 9.999997500180e+04 -8.388925715126e+07 6.601661737227e-01 3.398338262773e-01 7.276330203871e-09 -3.333900985035e-08 -5.144086208898e-15 2.146376229102e-15 1.293640951714e+04 4.361332633411e+04  4.690210951094e-03
2.000000000000e-03 8.398926450631e+07 9.999995280747e+04 -8.388926455350e+07 6.601661937129e-01 3.398338062871e-01 7.105618164292e-09 -3.322924828995e-08 -1.023152209047e-14 6.179827833598e-15 1.329818878758e+05 1.072550576149e+04  2.566552604317e-02
3.000000000000e-03 8.398927351811e+07 9.999992938320e+04 -8.388927358872e+07 6.601662086116e-01 3.398337913884e-01 6.936778477603e-09 -3.311741700117e-08 -1.527543379604e-14 1.026580249347e-14 2.868896222388e+05 6.775828065189e+04  3.565206219861e-02
4.000000000000e-03 8.398928413994e+07 9.999990424722e+04 -8.388928423570e+07 6.601662184860e-01 3.398337815140e-01 6.769797937495e-09 -3.300354233615e-08 -2.025325059893e-14 1.440710958196e-14 7.283124348344e+05 2.171579522017e+05  3.981342559169e-02
5.000000000000e-03 8.398929635027e+07 9.999987765193e+04 -8.388929647262e+07 6.601662234022e-01 3.398337765978e-01 6.604662123191e-09 -3.288765044254e-08 -2.517901496065e-14 1.860766897012e-14 9.171970599941e+05 3.034029303010e+05  4.119029957652e-02
6.000000000000e-03 8.398931012772e+07 9.999984957134e+04 -8.388931027815e+07 6.601662234261e-01 3.398337765739e-01 6.441357365284e-09 -3.276976780366e-08 -3.004562304798e-14 2.285485860979e-14 9.552084691353e+05 3.309302225835e+05  4.159626765420e-02
7.000000000000e-03 8.398932545112e+07 9.999982007362e+04 -8.388932563105e+07 6.601662186229e-01 3.398337813771e-01 6.279869299451e-09 -3.264992029545e-08 -3.486190683562e-14 2.714637251367e-14 9.805280049185e+05 3.446857743389e+05  4.175840688893e-02
8.000000000000e-03 8.398934229914e+07 9.999978922238e+04 -8.388934250991e+07 6.601662090583e-01 3.398337909417e-01 6.120183430301e-09 -3.252813345255e-08 -3.962842806690e-14 3.149557475020e-14 1.012492168889e+06 3.555190224174e+05  4.188715512001e-02
9.000000000000e-03 8.398936065056e+07 9.999975695801e+04 -8.388936089360e+07 6.601661947979e-01 3.398338052021e-01 5.962286822350e-09 -3.240443339915e-08 -4.433550921755e-14 3.589224788353e-14 1.016728343963e+06 3.562644665828e+05  4.189702848853e-02
1.000000000000e-02 8.398938048472e+07 9.999972325748e+04 -8.388938076147e+07 6.601661759052e-01 3.398338240948e-01 5.806165494574e-09 -3.227884530485e-08 -4.899950962875e-14 4.033933866977e-14 1.024709619005e+06 3.597713021335e+05  4.193012188260e-02
2.000000000000e-02 8.398970795511e+07 9.999926401817e+04 -8.388970869109e+07 6.601655827066e-01 3.398344172934e-01 4.409740658633e-09 -3.085793058547e-08 -9.061583942761e-14 8.920744406071e-14 1.738210579112e+06 6.590038099512e+05  4.425632197359e-02
3.000000000000e-02 8.399014688730e+07 9.999870217713e+04 -8.389014818512e+07 6.601646396045e-01 3.398353603955e-01 3.166080655917e-09 -2.929408054053e-08 -1.278437679146e-13 1.417883799877e-13 1.053382622476e+06 3.749147613217e+05  4.197475823662e-02
4.000000000000e-02 8.399068110690e+07 9.999805442208e+04 -8.389068305248e+07 6.601633963217e-01 3.398366036783e-01 2.063898092361e-09 -2.760782560459e-08 -1.608184125352e-13 1.974389622512e-13 8.751706252987e+05 2.988171594471e+05  4.102270065459e-02
5.000000000000e-02 8.399129566888e+07 9.999733553217e+04 -8.389129833335e+07 6.601618987919e-01 3.398381012081e-01 1.092554240603e-09 -2.581834246267e-08 -1.899024527111e-13 2.556419694654e-13 9.378314985865e+05 3.233219480737e+05  4.133701953132e-02
6.000000000000e-02 8.399197698753e+07 9.999655797453e+04 -8.389198042956e+07 6.601601887308e-01 3.398398112692e-01 2.420931505987e-10 -2.394328944143e-08 -2.154251512737e-13 3.159702023231e-13 1.168737792284e+06 4.178144768701e+05  4.238202832239e-02
7.000000000000e-02 8.399271253151e+07 9.999573633238e+04 -8.389271679518e+07 6.601582848884e-01 3.398417151116e-01 -4.969033753005e-10 -2.199914129471e-08 -2.375987413423e-13 3.777640304750e-13 1.268624500812e+06 4.614567250269e+05  4.278446981926e-02
8.000000000000e-02 8.399349096695e+07 9.999488179241e+04 -8.389349608516e+07 6.601562303203e-01 3.398437696797e-01 -1.133234821790e-09 -2.000101234066e-08 -2.568144359743e-13 4.407253738903e-13 1.377178219618e+06 5.072315233916e+05  4.313421286227e-02
9.000000000000e-02 8.399430197082e+07 9.999400332477e+04 -8.389430796749e+07 6.601540695427e-01 3.398459304573e-01 -1.675139810485e-09 -1.796288357035e-08 -2.732244556534e-13 5.045221410874e-13 1.464943611155e+06 5.430233208061e+05  4.341349808576e-02
1.000000000000e-01 8.399513607656e+07 9.999311114063e+04 -8.389514296542e+07 6.601518315396e-01 3.398481684604e-01 -2.130381057216e-09 -1.589773098943e-08 -2.871001465821e-13 5.686262798911e-13 1.534982888997e+06 5.713581417502e+05  4.363314292196e-02
1.100000000000e-01 8.399598481043e+07 9.999221344350e+04 -8.389599259698e+07 6.601495422283e-01 3.398504577717e-01 -2.506198190068e-09 -1.381733869832e-08 -2.986421442042e-13 6.328125521180e-13 1.615196592384e+06 6.022304257723e+05  4.383630820305e-02
1.200000000000e-01 8.399684043959e+07 9.999131893720e+04 -8.389684912066e+07 6.601472252242e-01 3.398527747758e-01 -2.809387542965e-09 -1.173268594891e-08 -3.080301157305e-13 6.967066221292e-13 1.688595912659e+06 6.323594869720e+05  4.404213682497e-02
1.300000000000e-01 8.399769601821e+07 9.999043418257e+04 -8.389770558403e+07 6.601449017143e-01 3.398550982857e-01 -3.046304075042e-09 -9.653812719531e-09 -3.154919237998e-13 7.600894190760e-13 1.773708961175e+06 6.662580589529e+05  4.426574713165e-02
1.400000000000e-01 8.399854533568e+07 9.998956373794e+04 -8.389855577194e+07 6.601425906410e-01 3.398574093590e-01 -3.222919564592e-09 -7.589810696738e-09 -3.211709846179e-13 8.227324931312e-13 1.877399048097e+06 7.082484431348e+05  4.451774739668e-02
1.500000000000e-01 8.399938275995e+07 9.998871381933e+04 -8.389939404613e+07 6.601403091510e-01 3.398596908490e-01 -3.344829334922e-09 -5.549131747229e-09 -3.252654678455e-13 8.843553046372e-13 1.980103274881e+06 7.496941585411e+05  4.473538467148e-02
1.600000000000e-01 8.400020336390e+07 9.998789032557e+04 -8.390021547357e+07 6.601380722180e-01 3.398619277820e-01 -3.417220184703e-09 -3.539357100245e-09 -3.279116920421e-13 9.447108724244e-13 2.071863789381e+06 7.891599578426e+05  4.495618657019e-02
1.700000000000e-01 8.400100279781e+07 9.998709631768e+04 -8.390101570149e+07 6.601358930492e-01 3.398641069508e-01 -3.444949127647e-09 -1.567320201706e-09 -3.292533046358e-13 1.003668711103e-12 2.177178576071e+06 8.324692127754e+05  4.518264198071e-02
1.800000000000e-01 8.400177715134e+07 9.998633652296e+04 -8.390179081482e+07 6.601337835147e-01 3.398662164853e-01 -3.432590601011e-09 3.607072875205e-10 -3.294750988258e-13 1.061007647336e-12 2.284202779211e+06 8.774482167287e+05  4.541200758315e-02
1.900000000000e-01 8.400252309618e+07 9.998561301773e+04 -8.390253748316e+07 6.601317536861e-01 3.398682463139e-01 -3.384359541173e-09 2.239181212957e-09 -3.286191225787e-13 1.116625772745e-12 2.381531547074e+06 9.148264969668e+05  4.560937101536e-02
2.000000000000e-01 8.400323775689e+07 9.998492820573e+04 -8.390325282869e+07 6.601298122455e-01 3.398701877545e-01 -3.304183583664e-09 4.063136233157e-09 -3.268549262587e-13 1.170365532101e-12 2.509939561916e+06 9.678192346038e+05  4.583783464286e-02
2.100000000000e-01 8.400391861756e+07 9.998428502046e+04 -8.390393433254e+07 6.601279667908e-01 3.398720332092e-01 -3.195765683237e-09 5.828116742674e-09 -3.242745452459e-13 1.222084853399e-12 2.617137548921e+06 1.011148157315e+06  4.601302517331e-02
2.200000000000e-01 8.400456361983e+07 9.998368530495e+04 -8.390457993452e+07 6.601262235114e-01 3.398737764886e-01 -3.062508284005e-09 7.530260474997e-09 -3.209982838082e-13 1.271697770624e-12 2.719528073597e+06 1.054551607422e+06  4.621253304288e-02
2.300000000000e-01 8.400517104282e+07 9.998313035554e+04 -8.390518791246e+07 6.601245875667e-01 3.398754124333e-01 -2.907571822071e-09 9.166156258099e-09 -3.171306090772e-13 1.319129171465e-12 2.836723008858e+06 1.102544400496e+06  4.640309777175e-02
2.400000000000e-01 8.400573944703e+07 9.998262083464e+04 -8.390575682620e+07 6.601230632553e-01 3.398769367447e-01 -2.733905109959e-09 1.073277102787e-08 -3.127136739731e-13 1.364340607831e-12 2.923668063999e+06 1.137371227516e+06  4.655481172727e-02
2.500000000000e-01 8.400626774054e+07 9.998215718774e+04 -8.390628558335e+07 6.601216538271e-01 3.398783461729e-01 -2.544247293852e-09 1.222759065297e-08 -3.078514146326e-13 1.407266470360e-12 3.035981128419e+06 1.179033309531e+06  4.669699843133e-02
2.600000000000e-01 8.400675512175e+07 9.998174094655e+04 -8.390677338081e+07 6.601203616386e-01 3.398796383614e-01 -2.341112026466e-09 1.364848290922e-08 -3.026373528468e-13 1.447792226081e-12 3.134246981382e+06 1.220646016079e+06  4.683875116282e-02
2.700000000000e-01 8.400720103323e+07 9.998137264471e+04 -8.390721966058e+07 6.601191883068e-01 3.398808116932e-01 -2.126824864924e-09 1.499367582926e-08 -2.971170614387e-13 1.485876553930e-12 3.219542541027e+06 1.256962102987e+06  4.696895827346e-02
2.800000000000e-01 8.400760510018e+07 9.998105213787e+04 -8.390762404805e+07 6.601181349010e-01 3.398818650990e-01 -1.903560505889e-09 1.626168367631e-08 -2.913520599270e-13 1.521525341722e-12 3.317221842118e+06 1.294829689378e+06  4.710544417796e-02
2.900000000000e-01 8.400796724173e+07 9.998077920534e+04 -8.390798646252e+07 6.601172016008e-01 3.398827983992e-01 -1.673299778099e-09 1.745146624886e-08 -2.854276959989e-13 1.554695117686e-12 3.423255724490e+06 1.333943904776e+06  4.722775308255e-02
3.000000000000e-01 8.400828755540e+07 9.998055312184e+04 -8.390830700228e+07 6.601163880428e-01 3.398836119572e-01 -1.437861369662e-09 1.856224956345e-08 -2.793896292023e-13 1.585394664066e-12 3.514781727073e+06 1.369798024130e+06  4.735257043871e-02
3.100000000000e-01 8.400856627813e+07 9.998037262612e+04 -8.390858590550e+07 6.601156934445e-01 3.398843065555e-01 -1.198921984922e-09 1.959348149902e-08 -2.732701278650e-13 1.613672535315e-12 3.624952217014e+06 1.413426661530e+06  4.748185879208e-02
3.200000000000e-01 8.400880381364e+07 9.998023794641e+04 -8.390882357569e+07 6.601151165245e-01 3.398848834755e-01 -9.580255103968e-10 2.054488477062e-08 -2.671244222135e-13 1.639437470782e-12 3.752167577561e+06 1.466609376180e+06  4.760391162538e-02
3.300000000000e-01 8.400900074238e+07 9.998014854018e+04 -8.390902059384e+07 6.601146554697e-01 3.398853445303e-01 -7.165701360165e-10 2.141647568969e-08 -2.609902941690e-13 1.662718979124e-12 3.830006779527e+06 1.499370432906e+06  4.770273330500e-02
3.400000000000e-01 8.400915778460e+07 9.998010278742e+04 -8.390917768181e+07 6.601143080530e-01 3.398856919470e-01 -4.758372025036e-10 2.220852416500e-08 -2.549105484531e-13 1.683559287361e-12 3.962430116943e+06 1.554467896059e+06  4.782861483506e-02
3.500000000000e-01 8.400927572668e+07 9.998009923103e+04 -8.390929562745e+07 6.601140718470e-01 3.398859281530e-01 -2.369907217270e-10 2.292141024300e-08 -2.489028306605e-13 1.702002140088e-12 4.072482348840e+06 1.604480083010e+06  4.794231852831e-02
3.600000000000e-01 8.400935545661e+07 9.998013792191e+04 -8.390937531869e+07 6.601139441223e-01 3.398860558777e-01 -1.092775892308e-12 2.355569942968e-08 -2.429914208368e-13 1.718002342781e-12 4.155571457007e+06 1.638270466912e+06  4.803562095263e-02
3.700000000000e-01 8.400939798241e+07 9.998021678125e+04 -8.390941776563e+07 6.601139217907e-01 3.398860782093e-01 2.309119257139e-10 2.411217474290e-08 -2.372311981798e-13 1.731642221811e-12 4.284667132690e+06 1.691693674782e+06  4.814940080193e-02
3.800000000000e-01 8.400940440750e+07 9.998033353498e+04 -8.390942407397e+07 6.601140014881e-01 3.398859985119e-01 4.581696126619e-10 2.459182173958e-08 -2.316380306979e-13 1.743004283938e-12 4.385584004097e+06 1.735354176285e+06  4.824416083110e-02
3.900000000000e-01 8.400937589832e+07 9.998048763251e+04 -8.390939541069e+07 6.601141796670e-01 3.398858203330e-01 6.799129564599e-10 2.499576112309e-08 -2.262148227791e-13 1.752076641830e-12 4.511741325118e+06 1.789222880143e+06  4.835218612742e-02
4.000000000000e-01 8.400931363321e+07 9.998067799416e+04 -8.390933295521e+07 6.601144527486e-01 3.398855472514e-01 8.954447330695e-10 2.532516707140e-08 -2.210101051319e-13 1.758891153057e-12 4.596149403940e+06 1.825702778197e+06  4.843959818716e-02
4.100000000000e-01 8.400921888482e+07 9.998090288555e+04 -8.390923798193e+07 6.601148168729e-01 3.398851831271e-01 1.104167854798e-09 2.558139356371e-08 -2.160277617204e-13 1.763500562259e-12 4.695599351118e+06 1.865588512991e+06  4.853346980481e-02
4.200000000000e-01 8.400909297098e+07 9.998116050969e+04 -8.390911181047e+07 6.601152680523e-01 3.398847319477e-01 1.305557683036e-09 2.576591320549e-08 -2.112897968952e-13 1.765985659397e-12 4.800073981546e+06 1.907953878304e+06  4.862315680668e-02
4.300000000000e-01 8.400893727929e+07 9.998144885064e+04 -8.390895583044e+07 6.601158021026e-01 3.398841978974e-01 1.499153902531e-09 2.588037459719e-08 -2.067882415448e-13 1.766405698556e-12 4.891906876080e+06 1.945937731791e+06  4.870590192080e-02
4.400000000000e-01 8.400875318675e+07 9.998176654364e+04 -8.390877142020e+07 6.601164148791e-01 3.398835851209e-01 1.684546589779e-09 2.592645484053e-08 -2.025500701899e-13 1.764794352798e-12 4.993171107406e+06 1.986673825932e+06  4.878188832051e-02
4.500000000000e-01 8.400854207107e+07 9.998211234488e+04 -8.390855995873e+07 6.601171022360e-01 3.398828977640e-01 1.861389952685e-09 2.590586003008e-08 -1.985965951871e-13 1.761210921999e-12 5.079545412186e+06 2.022864666255e+06  4.884810289433e-02
4.600000000000e-01 8.400830534762e+07 9.998248460867e+04 -8.390832286301e+07 6.601178599203e-01 3.398821400797e-01 2.029405490826e-09 2.582039761185e-08 -1.949075926943e-13 1.755707085017e-12 5.170639941844e+06 2.060977866500e+06  4.891697338282e-02
4.700000000000e-01 8.400804444553e+07 9.998288124311e+04 -8.390806156429e+07 6.601186836471e-01 3.398813163529e-01 2.188361881229e-09 2.567195128862e-08 -1.914964308386e-13 1.748374393599e-12 5.261153952639e+06 2.098760291322e+06  4.898376084072e-02
4.800000000000e-01 8.400776079204e+07 9.998330106052e+04 -8.390777749098e+07 6.601195691438e-01 3.398804308562e-01 2.338074866730e-09 2.546244395481e-08 -1.884071797664e-13 1.739261968824e-12 5.350724786602e+06 2.136162238604e+06  4.904876233006e-02
4.900000000000e-01 8.400745583080e+07 9.998374201195e+04 -8.390747208878e+07 6.601205121052e-01 3.398794878948e-01 2.478395360552e-09 2.519390079015e-08 -1.856090799011e-13 1.728427794413e-12 5.444609007096e+06 2.175383764540e+06  4.911577866831e-02
5.000000000000e-01 8.400713096316e+07 9.998420217891e+04 -8.390714676098e+07 6.601215083531e-01 3.398784916469e-01 2.609213916970e-09 2.486830619494e-08 -1.830869016184e-13 1.715974598955e-12 5.535973480917e+06 2.213570871931e+06  4.917994161501e-02
5.100000000000e-01 8.400678760414e+07 9.998468042505e+04 -8.390680292371e+07 6.601225536740e-01 3.398774463260e-01 2.730469450669e-09 2.448770474134e-08 -1.808509027260e-13 1.701952808719e-12 5.630472966259e+06 2.253069291412e+06  4.924517437509e-02
5.200000000000e-01 8.400642715917e+07 9.998517454504e+04 -8.390644198463e+07 6.601236438888e-01 3.398763561112e-01 2.842137485784e-09 2.405416793262e-08 -1.789435943801e-13 1.686414193436e-12 5.720306338799e+06 2.290634349356e+06  4.930623461755e-02
5.300000000000e-01 8.400605101560e+07 9.998568354654e+04 -8.390606533206e+07 6.601247748813e-01 3.398752251187e-01 2.944223344464e-09 2.356978908047e-08 -1.773149322212e-13 1.669425054747e-12 5.813401310349e+06 2.329570637901e+06  4.936849943908e-02
5.400000000000e-01 8.400566054732e+07 9.998620555273e+04 -8.390567434177e+07 6.601259425851e-01 3.398740574149e-01 3.036758724100e-09 2.303669235784e-08 -1.759744811220e-13 1.651088763531e-12 5.904231009295e+06 2.367569904844e+06  4.942830988358e-02
5.500000000000e-01 8.400525710940e+07 9.998673870979e+04 -8.390527037069e+07 6.601271430051e-01 3.398728569949e-01 3.119788673166e-09 2.245703922167e-08 -1.749240211359e-13 1.631478752324e-12 5.999276780623e+06 2.407348941867e+06  4.948995164444e-02
5.600000000000e-01 8.400484205257e+07 9.998728276051e+04 -8.390485476981e+07 6.601283721594e-01 3.398716278406e-01 3.193397671964e-09 2.183300760063e-08 -1.741678730908e-13 1.610599159382e-12 6.091607453888e+06 2.445995902087e+06  4.954889700159e-02
5.700000000000e-01 8.400441667591e+07 9.998783502790e+04 -8.390442884088e+07 6.601296262252e-01 3.398703737748e-01 3.257695638173e-09 2.116672893563e-08 -1.736809298266e-13 1.588572862343e-12 6.183797791526e+06 2.484595030062e+06  4.960688574987e-02
5.800000000000e-01 8.400398225116e+07 9.998839438499e+04 -8.390399385678e+07 6.601309014684e-01 3.398690985316e-01 3.312809466833e-09 2.046033143785e-08 -1.734763611127e-13 1.565463517628e-12 6.276640782340e+06 2.523483460937e+06  4.966445150599e-02
5.900000000000e-01 8.400354002525e+07 9.998895921590e+04 -8.390355106603e+07 6.601321942346e-01 3.398678057654e-01 3.358890990739e-09 1.971593953754e-08 -1.735261860489e-13 1.541319180714e-12 6.370462345256e+06 2.562803019896e+06  4.972181807068e-02
6.000000000000e-01 8.400309121770e+07 9.998952846660e+04 -8.390310168923e+07 6.601335009560e-01 3.398664990440e-01 3.396103684889e-09 1.893567218733e-08 -1.738594393123e-13 1.516223691970e-12 6.459941772154e+06 2.600320775169e+06  4.977579580569e-02
6.100000000000e-01 8.400263701845e+07 9.999010081023e+04 -8.390264691764e+07 6.601348181705e-01 3.398651818295e-01 3.424615364460e-09 1.812166736619e-08 -1.744427646432e-13 1.490213687182e-12 6.553720711667e+06 2.639687134955e+06  4.983169610101e-02
6.200000000000e-01 8.400217857414e+07 9.999067524323e+04 -8.390218789890e+07 6.601361425436e-01 3.398638574564e-01 3.444611117944e-09 1.727601289005e-08 -1.752721571909e-13 1.463390501899e-12 6.646827951659e+06 2.678786551101e+06  4.988644446274e-02
6.300000000000e-01 8.400171700012e+07 9.999124947668e+04 -8.390172575064e+07 6.601374708395e-01 3.398625291605e-01 3.456294036653e-09 1.640077594472e-08 -1.763315115934e-13 1.435823852969e-12 6.738997253030e+06 2.717494997927e+06  4.993988132800e-02
6.400000000000e-01 8.400125338460e+07 9.999182350939e+04 -8.390126156109e+07 6.601387999102e-01 3.398612000898e-01 3.459876064864e-09 1.549801747427e-08 -1.776477523851e-13 1.407537520502e-12 6.830795830828e+06 2.756067707549e+06  4.999243233771e-02
6.500000000000e-01 8.400078877162e+07 9.999239538255e+04 -8.390079637623e+07 6.601401267441e-01 3.398598732559e-01 3.455580087167e-09 1.456975916229e-08 -1.791929796500e-13 1.378621094673e-12 6.924048861458e+06 2.795270860066e+06  5.004514392491e-02
6.600000000000e-01 8.400032416911e+07 9.999296477285e+04 -8.390033120434e+07 6.601414484426e-01 3.398585515574e-01 3.443635003171e-09 1.361799430730e-08 -1.809814730856e-13 1.349129034182e-12 7.011307564562e+06 2.831971822138e+06  5.009387385936e-02
6.700000000000e-01 8.399986055524e+07 9.999352946208e+04 -8.389986702577e+07 6.601427622000e-01 3.398572378000e-01 3.424285249152e-09 1.264469725848e-08 -1.829647840635e-13 1.319160557047e-12 7.102547404606e+06 2.870361000763e+06  5.014421209111e-02
6.800000000000e-01 8.399939890629e+07 9.999408874228e+04 -8.389940481755e+07 6.601440652292e-01 3.398559347708e-01 3.397768210347e-09 1.165189517771e-08 -1.851677704208e-13 1.288750128952e-12 7.193871432465e+06 2.908794438959e+06  5.019396488371e-02
6.900000000000e-01 8.399894011828e+07 9.999464202725e+04 -8.389894547625e+07 6.601453549786e-01 3.398546450214e-01 3.364330018103e-09 1.064148739598e-08 -1.875607352340e-13 1.257959919419e-12 7.283278470143e+06 2.946431741366e+06  5.024208635234e-02
7.000000000000e-01 8.399848504878e+07 9.999518873822e+04 -8.389848986004e+07 6.601466290163e-01 3.398533709837e-01 3.324222049931e-09 9.615336044824e-09 -1.901293110878e-13 1.226798620464e-12 7.373444754333e+06 2.984404276351e+06  5.029005384890e-02
7.100000000000e-01 8.399803451938e+07 9.999572701323e+04 -8.389803879237e+07 6.601478850225e-01 3.398521149775e-01 3.277697889209e-09 8.575275106574e-09 -1.928918258181e-13 1.195397917492e-12 7.460889974612e+06 3.021233705188e+06  5.033601479148e-02
7.200000000000e-01 8.399758931565e+07 9.999625686949e+04 -8.389759305878e+07 6.601491207884e-01 3.398508792116e-01 3.225014253649e-09 7.523099241015e-09 -1.958406473367e-13 1.163756266294e-12 7.546515689760e+06 3.057309474577e+06  5.038052729940e-02
7.300000000000e-01 8.399715018804e+07 9.999677657198e+04 -8.389715341147e+07 6.601503342140e-01 3.398496657860e-01 3.166432025202e-09 6.460571286478e-09 -1.989516792463e-13 1.131964646547e-12 7.633209747242e+06 3.093856393368e+06  5.042513110135e-02
7.400000000000e-01 8.399671785727e+07 9.999728581916e+04 -8.389672057145e+07 6.601515232887e-01 3.398484767113e-01 3.102213542824e-09 5.389421250094e-09 -2.022190966784e-13 1.100079072026e-12 7.717244586563e+06 3.129276593666e+06  5.046785962562e-02
7.500000000000e-01 8.399629301127e+07 9.999778400294e+04 -8.389629522726e+07 6.601526861088e-01 3.398473138912e-01 3.032617362245e-09 4.311359384416e-09 -2.056242079769e-13 1.068129702676e-12 7.800174372529e+06 3.164240823936e+06  5.050959067548e-02
7.600000000000e-01 8.399587629058e+07 9.999827036498e+04 -8.389587802021e+07 6.601538209112e-01 3.398461790888e-01 2.957901048583e-09 3.228029734209e-09 -2.091932375455e-13 1.036184932973e-12 7.882494344566e+06 3.198959741836e+06  5.055060210435e-02
7.700000000000e-01 8.399546830220e+07 9.999874389802e+04 -8.389546955830e+07 6.601549260330e-01 3.398450739670e-01 2.878324362341e-09 2.141030860451e-09 -2.128849990706e-13 1.004263514132e-12 7.963610041919e+06 3.233177335478e+06  5.059060536437e-02
7.800000000000e-01 8.399506961780e+07 9.999920433245e+04 -8.389507041346e+07 6.601559999210e-01 3.398440000790e-01 2.794143969762e-09 1.051925453521e-09 -2.166899170214e-13 9.724329462183e-13 8.043188291822e+06 3.266750670069e+06  5.062945936956e-02
7.900000000000e-01 8.399468079684e+07 9.999965086052e+04 -8.389468114598e+07 6.601570410618e-01 3.398429589382e-01 2.705615985816e-09 -3.772257399002e-11 -2.206045378145e-13 9.407486763985e-13 8.122396215309e+06 3.300177582071e+06  5.066777089415e-02
8.000000000000e-01 8.399430235273e+07 1.000000828083e+05 -8.389430226992e+07 6.601580480809e-01 3.398419519191e-01 2.612993162969e-09 -1.126414142947e-09 -2.246278424042e-13 9.092544264865e-13 8.200288308061e+06 3.333059870517e+06  5.070510426568e-02
8.100000000000e-01 8.399393475209e+07 1.000004998997e+05 -8.389393425219e+07 6.601590197441e-01 3.398409802559e-01 2.516524862051e-09 -2.212718622105e-09 -2.287549135008e-13 8.779860995296e-13 8.276776406163e+06 3.365360181161e+06  5.074144324469e-02
8.200000000000e-01 8.399357842962e+07 1.000009015261e+05 -8.389357752809e+07 6.601599549135e-01 3.398400450865e-01 2.416457268279e-09 -3.295245612123e-09 -2.329860224041e-13 8.470131375953e-13 8.353146491031e+06 3.397615222683e+06  5.077739588417e-02
8.300000000000e-01 8.399323380282e+07 1.000012868371e+05 -8.389323251598e+07 6.601608525061e-01 3.398391474939e-01 2.313033862155e-09 -4.372617309494e-09 -2.372891370051e-13 8.163648409451e-13 8.428807239590e+06 3.429577781170e+06  5.081270323786e-02
8.400000000000e-01 8.399290124809e+07 1.000016572237e+05 -8.389289959086e+07 6.601617115633e-01 3.398382884367e-01 2.206489087859e-09 -5.443514256604e-09 -2.416808050739e-13 7.859959664688e-13 8.503431551604e+06 3.461110744844e+06  5.084723249920e-02
8.500000000000e-01 8.399258110423e+07 1.000020105779e+05 -8.389257909365e+07 6.601625312365e-01 3.398374687635e-01 2.097061744898e-09 -6.506675714537e-09 -2.461500293471e-13 7.560490956566e-13 8.577630304916e+06 3.492467565976e+06  5.088126721155e-02
8.600000000000e-01 8.399227368466e+07 1.000023469362e+05 -8.389227133772e+07 6.601633107483e-01 3.398366892517e-01 1.984989808386e-09 -7.560892459013e-09 -2.506640309330e-13 7.265412680865e-13 8.650676268157e+06 3.523346926853e+06  5.091450471298e-02
8.700000000000e-01 8.399197927675e+07 1.000026660824e+05 -8.389197661066e+07 6.601640494026e-01 3.398359505974e-01 1.870507472698e-09 -8.604985228466e-09 -2.552268174772e-13 6.974919714082e-13 8.723084447688e+06 3.553961785855e+06  5.094718253318e-02
8.800000000000e-01 8.399169813815e+07 1.000029677346e+05 -8.389169517042e+07 6.601647465910e-01 3.398352534090e-01 1.753837323956e-09 -9.637818288845e-09 -2.598371448034e-13 6.689436694708e-13 8.794012168525e+06 3.583957760549e+06  5.097894172513e-02
8.900000000000e-01 8.399143049686e+07 1.000032523739e+05 -8.389142724448e+07 6.601654017957e-01 3.398345982043e-01 1.635199570341e-09 -1.065829953598e-08 -2.644755732476e-13 6.408899652204e-13 8.865437846478e+06 3.614165847157e+06  5.101066306661e-02
9.000000000000e-01 8.399117655830e+07 1.000035189138e+05 -8.389117303939e+07 6.601660145661e-01 3.398339854339e-01 1.514806481531e-09 -1.166536736493e-08 -2.691609951233e-13 6.134016388886e-13 8.935894093352e+06 3.643970684217e+06  5.104171508926e-02
9.100000000000e-01 8.399093652269e+07 1.000037675245e+05 -8.389093275517e+07 6.601665844689e-01 3.398334155311e-01 1.392868282984e-09 -1.265796093296e-08 -2.738734547484e-13 5.864946244686e-13 9.006091155792e+06 3.673668186891e+06  5.107240980258e-02
9.200000000000e-01 8.399071055004e+07 1.000039980331e+05 -8.389070655201e+07 6.601671111909e-01 3.398328888091e-01 1.269587482960e-09 -1.363508391286e-08 -2.785930269963e-13 5.602096821636e-13 9.076023817713e+06 3.703259002216e+06  5.110275845237e-02
9.300000000000e-01 8.399049876268e+07 1.000042094809e+05 -8.389049455320e+07 6.601675945285e-01 3.398324054715e-01 1.145161354562e-09 -1.459580835676e-08 -2.833237863249e-13 5.345893586597e-13 9.145571726612e+06 3.732689948256e+06  5.113271010871e-02
9.400000000000e-01 8.399030124474e+07 1.000044036300e+05 -8.389029684111e+07 6.601680343918e-01 3.398319656082e-01 1.019778891803e-09 -1.553927343057e-08 -2.880536377273e-13 5.095861963989e-13 9.214712107684e+06 3.761951612453e+06  5.116226314545e-02
9.500000000000e-01 8.399011806752e+07 1.000045787505e+05 -8.389011348877e+07 6.601684307267e-01 3.398315692733e-01 8.936274381803e-10 -1.646463991539e-08 -2.928060257441e-13 4.853145711206e-13 9.283392631958e+06 3.791021571877e+06  5.119140215510e-02
9.600000000000e-01 8.398994928323e+07 1.000047352989e+05 -8.388994454793e+07 6.601687835310e-01 3.398312164690e-01 7.669060008029e-10 -1.737112251428e-08 -2.975552987332e-13 4.617590968094e-13 9.351146612218e+06 3.819703894380e+06  5.121994280904e-02
9.700000000000e-01 8.398979492231e+07 1.000048736605e+05 -8.388979004865e+07 6.601690928684e-01 3.398309071316e-01 6.397911914383e-10 -1.825796214191e-08 -3.022793313947e-13 4.389340560658e-13 9.418774617164e+06 3.848332933431e+06  5.124821931475e-02
9.800000000000e-01 8.398965499486e+07 1.000049935888e+05 -8.388965000128e+07 6.601693588625e-01 3.398306411375e-01 5.124529953330e-10 -1.912443545387e-08 -3.069920133565e-13 4.168719297189e-13 9.485754545225e+06 3.876689994826e+06  5.127602580059e-02
9.900000000000e-01 8.398952949180e+07 1.000050957573e+05 -8.388952439604e+07 6.601695816913e-01 3.398304183087e-01 3.850557357982e-10 -1.996985981817e-08 -3.116735069888e-13 3.955566202137e-13 9.552154937341e+06 3.904803327019e+06  5.130339715464e-02
1.000000000000e+00 8.398941838669e+07 1.000051791788e+05 -8.388941320751e+07 6.601697615846e-01 3.398302384154e-01 2.577647285225e-10 -2.079358329072e-08 -3.163262872283e-13 3.750567085712e-13 9.617208535295e+06 3.932343834771e+06  5.133001810644e-02
1.050000000000e+00 8.398921067072e+07 1.000051567539e+05 -8.388920551396e+07 6.601696396833e-01 3.398303603167e-01 -3.592366137322e-10 -2.430729233354e-08 -3.384449668380e-13 2.939167855222e-13 9.933551342878e+06 4.066104291242e+06  5.149242537504e-02
1.100000000000e+00 8.398932930595e+07 1.000047208752e+05 -8.388932458508e+07 6.601685723545e-01 3.398314276455e-01 -9.426969691090e-10 -2.717668182308e-08 -3.588702241957e-13 2.353479407742e-13 1.004235611552e+07 4.090947768566e+06  5.151995834138e-02
1.150000000000e+00 8.398974729126e+07 1.000039063752e+05 -8.388974338489e+07 6.601666631816e-01 3.398333368184e-01 -1.481403366008e-09 -2.937895649314e-08 -3.773553898277e-13 1.996855044740e-13 1.050473316128e+07 4.288870039363e+06  5.173593937138e-02
1.200000000000e+00 8.399043328239e+07 1.000027513410e+05 -8.389043053105e+07 6.601640195135e-01 3.398359804865e-01 -1.966740412599e-09 -3.090663440040e-08 -3.935356995124e-13 1.869651320858e-13 1.064666641412e+07 4.357593687904e+06  5.179634704239e-02
1.250000000000e+00 8.399135255326e+07 1.000012964504e+05 -8.389135125681e+07 6.601607550139e-01 3.398392449861e-01 -2.392508774141e-09 -3.176644827019e-08 -4.071506449137e-13 1.966454439734e-13 1.093702926249e+07 4.479912939007e+06  5.192009243340e-02
1.300000000000e+00 8.399246933579e+07 9.999958449832e+04 -8.389246975129e+07 6.601569827908e-01 3.398430172092e-01 -2.754506176012e-09 -3.197526800653e-08 -4.183084442753e-13 2.281420412264e-13 1.120410019066e+07 4.600394168086e+06  5.203304998437e-02
1.350000000000e+00 8.399374671750e+07 9.999766076428e+04 -8.389374905674e+07 6.601528135474e-01 3.398471864526e-01 -3.050347506853e-09 -3.156047222805e-08 -4.268525280634e-13 2.802193168718e-13 1.145415326734e+07 4.680729515593e+06  5.210036905681e-02
1.400000000000e+00 8.399514828011e+07 9.999557376821e+04 -8.389515270634e+07 6.601483617992e-01 3.398516382008e-01 -3.279292654218e-09 -3.055659730538e-08 -4.327697537357e-13 3.514856266766e-13 1.169044591456e+07 4.782500015267e+06  5.218568809640e-02