 TITLE = "Time curves in points"
 VARIABLES = "TIME"  "DISPLACEMENT_X1"  "DISPLACEMENT_Y1"  "STRESS_XX"  "STRESS_XY"  "STRESS_YY"  "STRESS_ZZ"  "STRAIN_XX"  "STRAIN_XY"  "STRAIN_YY"  p_(1st_Invariant)  q_(2nd_Invariant)   Effective_Strain
 ZONE T="POINT=POINT5"
0.000000000000e+00 0.000000000000e+00 0.000000000000e+00 -1.000000000000e+05 0.000000000000e+00 -1.000000000000e+05 -1.000000000000e+05 0.000000000000e+00 0.000000000000e+00 0.000000000000e+00 1.000000000000e+05 0.000000000000e+00  0.000000000000e+00
1.000000000000e-03 3.099957343243e-07 6.222092248712e-04 -1.320925001109e+05 -8.845067723885e+01 -1.479387388665e+05 -1.320127586252e+05 -1.402762156240e-04 -3.109404051162e-04 -2.803100810089e-02 1.373479992009e+05 1.588699828770e+04  2.796632011257e-02
2.000000000000e-03 -4.370749230521e-07 1.643430486540e-03 -2.737827271047e+05 2.817217177124e+02 -3.598724412105e+05 -2.734623311512e+05 -2.987126974282e-04 1.713731852090e-04 -7.425977004054e-02 3.023724998221e+05 8.625173868283e+04  7.411145961210e-02
3.000000000000e-03 1.605349019836e-07 2.081163645844e-03 -7.709862912162e+05 -2.857662756100e+03 -1.103007717851e+06 -7.695978776231e+05 -3.852986768969e-04 -3.367236768597e-04 -9.412916860584e-02 8.811972955635e+05 3.327546201155e+05  9.393892240110e-02
4.000000000000e-03 4.090884639297e-07 2.218297409232e-03 -2.514802762863e+06 -2.364813486321e+04 -3.630506489161e+06 -2.478124089687e+06 -6.503855866537e-04 -6.522902652913e-04 -1.000402717699e-01 2.874477780570e+06 1.135227010393e+06  9.972306991934e-02
5.000000000000e-03 5.611365786187e-07 2.227724902018e-03 -2.690621243621e+06 -5.094983841557e+04 -3.757136401854e+06 -2.599103600334e+06 -8.464442512170e-04 -8.285918944787e-04 -1.000517276408e-01 3.015620415270e+06 1.118580651402e+06  9.964153830441e-02
6.000000000000e-03 5.803483272347e-07 2.235373479027e-03 -2.911510111111e+06 -3.996448813203e+04 -4.082642406405e+06 -2.817661629798e+06 -8.527654439755e-04 -7.493616467842e-04 -1.004564404038e-01 3.270604715771e+06 1.222725994976e+06  1.000412038869e-01
7.000000000000e-03 5.692845384647e-07 2.235425726373e-03 -2.927735692153e+06 -4.021913910731e+04 -4.105799703032e+06 -2.833414797033e+06 -8.541314515177e-04 -7.508859315966e-04 -1.004769052702e-01 3.288983397406e+06 1.229918710505e+06  1.000610265654e-01
8.000000000000e-03 5.710615724113e-07 2.236138810335e-03 -2.949742741202e+06 -4.033040759525e+04 -4.138454231002e+06 -2.855279429285e+06 -8.545260680774e-04 -7.514897553162e-04 -1.005074737102e-01 3.314492133830e+06 1.240615803886e+06  1.000914104239e-01
9.000000000000e-03 5.707663332366e-07 2.236812014528e-03 -2.972271288971e+06 -4.031877288835e+04 -4.171701814598e+06 -2.877589869503e+06 -8.551300044478e-04 -7.514174469353e-04 -1.005381568405e-01 3.340520991024e+06 1.251414700273e+06  1.001217904267e-01
1.000000000000e-02 5.710203431368e-07 2.237506081825e-03 -2.995483676094e+06 -4.036546017136e+04 -4.206001190750e+06 -2.900594548677e+06 -8.557005269569e-04 -7.516658612847e-04 -1.005695996173e-01 3.367359805174e+06 1.262580556480e+06  1.001529537053e-01
2.000000000000e-02 5.494653078072e-07 2.289763935191e-03 -4.915135601509e+06 -3.942987431088e+04 -7.033060909445e+06 -4.799278201857e+06 -9.063260524167e-04 -7.439315150178e-04 -1.029311485096e-01 5.582491570937e+06 2.179236566059e+06  1.024890915230e-01
3.000000000000e-02 6.213066469783e-07 2.256076221170e-03 -3.556926887739e+06 -4.283200743934e+04 -5.019019713140e+06 -3.450375112455e+06 -8.858889179257e-04 -7.593846310260e-04 -1.014545128427e-01 4.008773904445e+06 1.519987184046e+06  1.010230446076e-01
4.000000000000e-02 7.195149930162e-07 2.275696953716e-03 -4.324570822900e+06 -4.697906057056e+04 -6.125172253037e+06 -4.199891470483e+06 -9.299426679294e-04 -7.847307457991e-04 -1.023686210865e-01 4.883211515473e+06 1.867840830424e+06  1.019158958894e-01
5.000000000000e-02 6.790085911602e-07 2.267256231107e-03 -3.960667580743e+06 -5.487795514884e+04 -5.599559696562e+06 -3.844081871929e+06 -9.138132271697e-04 -8.188813403990e-04 -1.019871627924e-01 4.468103049745e+06 1.702840498599e+06  1.015432465044e-01
6.000000000000e-02 6.341760008519e-07 2.277533539393e-03 -4.379156247913e+06 -4.978680914636e+04 -6.226681364480e+06 -4.262320537485e+06 -9.147501289338e-04 -7.874975418944e-04 -1.024745610258e-01 4.956052716626e+06 1.910573926389e+06  1.020293794182e-01
7.000000000000e-02 6.959838944820e-07 2.276155471145e-03 -4.310748493381e+06 -5.420340446790e+04 -6.132048582131e+06 -4.197098412572e+06 -9.078484669234e-04 -8.037667650852e-04 -1.024162260339e-01 4.879965162695e+06 1.883044153381e+06  1.019748363721e-01
8.000000000000e-02 7.277960927069e-07 2.277746667669e-03 -4.386594559727e+06 -5.902414180870e+04 -6.248940033706e+06 -4.274186214900e+06 -9.055522288813e-04 -8.217877998226e-04 -1.024917649592e-01 4.969906936111e+06 1.923736213884e+06  1.020519292745e-01
9.000000000000e-02 7.446741201431e-07 2.287004198369e-03 -4.796596189187e+06 -6.207806023658e+04 -6.856713713863e+06 -4.681289830767e+06 -9.114440658981e-04 -8.344849498363e-04 -1.029146307910e-01 5.444866577939e+06 2.122848435039e+06  1.024721431756e-01
1.000000000000e-01 7.551965897747e-07 2.285980514226e-03 -4.712197144217e+06 -6.634987336663e+04 -6.738700512962e+06 -4.600315731954e+06 -9.044175590276e-04 -8.498618691214e-04 -1.028468376655e-01 5.350404463044e+06 2.087862143409e+06  1.024082042545e-01
1.100000000000e-01 7.679644379959e-07 2.291332692426e-03 -4.937037556122e+06 -6.664041167295e+04 -7.068352930729e+06 -4.822106425556e+06 -9.107488902633e-04 -8.511498353867e-04 -1.030863431593e-01 5.609165637469e+06 2.194081062725e+06  1.026445868275e-01
1.200000000000e-01 7.736518981682e-07 2.293338713187e-03 -5.052934173151e+06 -6.732641701035e+04 -7.232099685470e+06 -4.933954618506e+06 -9.175704795080e-04 -8.530988412122e-04 -1.031731513824e-01 5.739662825709e+06 2.244057295601e+06  1.027280672293e-01
1.300000000000e-01 7.722975936515e-07 2.295324116169e-03 -5.152724917101e+06 -6.786396975608e+04 -7.383254763514e+06 -5.034324965588e+06 -9.165875908711e-04 -8.548794335575e-04 -1.032693836876e-01 5.856768215401e+06 2.295036628269e+06  1.028248158810e-01
1.400000000000e-01 7.750777836136e-07 2.297223198544e-03 -5.273645451229e+06 -6.785926563260e+04 -7.560375581928e+06 -5.153533133296e+06 -9.193599224284e-04 -8.548022620699e-04 -1.033695234602e-01 5.995851388818e+06 2.352029072067e+06  1.029235729399e-01
1.500000000000e-01 7.747655931298e-07 2.299044428949e-03 -5.375801578107e+06 -6.711389172725e+04 -7.711414540847e+06 -5.254802935098e+06 -9.208161920589e-04 -8.519919932943e-04 -1.034608951962e-01 6.114006351351e+06 2.401217900525e+06  1.030141443724e-01
1.600000000000e-01 7.775839640869e-07 2.300744766891e-03 -5.484422384570e+06 -6.744444351999e+04 -7.870836001913e+06 -5.362010921908e+06 -9.231173342061e-04 -8.521947127744e-04 -1.035522040870e-01 6.239089769464e+06 2.452697527119e+06  1.031043112085e-01
1.700000000000e-01 7.812158181669e-07 2.302389912036e-03 -5.599040978367e+06 -6.821980915875e+04 -8.037360331671e+06 -5.474458961925e+06 -9.263803503561e-04 -8.542455949579e-04 -1.036359741854e-01 6.370286757321e+06 2.505724349637e+06  1.031865117273e-01
1.800000000000e-01 7.773652932706e-07 2.303941460708e-03 -5.702278311185e+06 -6.806494738699e+04 -8.188905009974e+06 -5.576363045025e+06 -9.283143176979e-04 -8.537219801106e-04 -1.037080972690e-01 6.489182122062e+06 2.554636914943e+06  1.032576584023e-01
1.900000000000e-01 7.750245038081e-07 2.305428839767e-03 -5.799354764259e+06 -6.731438588106e+04 -8.332397012797e+06 -5.672581952588e+06 -9.295240263600e-04 -8.515842250515e-04 -1.037755451999e-01 6.601444576548e+06 2.601362901678e+06  1.033244478374e-01
2.000000000000e-01 7.730479400264e-07 2.306749525461e-03 -5.887274056958e+06 -6.675396892432e+04 -8.462409043313e+06 -5.759746301526e+06 -9.305741998952e-04 -8.500061205581e-04 -1.038356916083e-01 6.703143133932e+06 2.643738449280e+06  1.033840294034e-01
2.100000000000e-01 7.709960693077e-07 2.308056394158e-03 -5.975553812649e+06 -6.615508428017e+04 -8.592936169763e+06 -5.847261212129e+06 -9.316219263272e-04 -8.483471304805e-04 -1.038951574873e-01 6.805250398180e+06 2.686274310147e+06  1.034429298722e-01
2.200000000000e-01 7.683313567486e-07 2.309186393646e-03 -6.053040217802e+06 -6.538781178533e+04 -8.707387946671e+06 -5.924029018019e+06 -9.325919385873e-04 -8.462580586014e-04 -1.039465248885e-01 6.894819060831e+06 2.723503816475e+06  1.034937608316e-01
2.300000000000e-01 7.659809434373e-07 2.310327039433e-03 -6.132249004174e+06 -6.469997727490e+04 -8.824431733305e+06 -6.002522988266e+06 -9.335446560051e-04 -8.444084880506e-04 -1.039983863865e-01 6.986401241915e+06 2.761608423900e+06  1.035451003952e-01
2.400000000000e-01 7.625004305552e-07 2.311403236740e-03 -6.208032784204e+06 -6.368837993084e+04 -8.936238822809e+06 -6.077552711253e+06 -9.345360511866e-04 -8.417299318775e-04 -1.040472331033e-01 7.073941439422e+06 2.797906072526e+06  1.035933864277e-01
2.500000000000e-01 7.587151034797e-07 2.312466631880e-03 -6.283856373681e+06 -6.257829594352e+04 -9.048059004518e+06 -6.152604051271e+06 -9.355388059027e-04 -8.388279863205e-04 -1.040954677510e-01 7.161506476490e+06 2.834184097892e+06  1.036410497184e-01
2.600000000000e-01 7.551915545573e-07 2.313457673580e-03 -6.355359465484e+06 -6.153244950652e+04 -9.153505455728e+06 -6.223378174580e+06 -9.364743120872e-04 -8.361264197756e-04 -1.041404133646e-01 7.244081031930e+06 2.868397059479e+06  1.036854627230e-01
2.700000000000e-01 7.518370086687e-07 2.314524432212e-03 -6.433184136270e+06 -6.052280263104e+04 -9.268342680649e+06 -6.300437727210e+06 -9.374450535411e-04 -8.335479147118e-04 -1.041888059632e-01 7.333988181376e+06 2.905699868479e+06  1.037333081361e-01
2.800000000000e-01 7.483169463741e-07 2.315587288499e-03 -6.511682960921e+06 -5.945073547570e+04 -9.384149858746e+06 -6.378155421129e+06 -9.384240364900e-04 -8.308441109452e-04 -1.042370010396e-01 7.424662746932e+06 2.943306353547e+06  1.037809492341e-01
2.900000000000e-01 7.456415179982e-07 2.316606541368e-03 -6.587799321648e+06 -5.862084627989e+04 -9.496550187325e+06 -6.453557896140e+06 -9.393086173178e-04 -8.287740959359e-04 -1.042832531729e-01 7.512635801704e+06 2.979871881878e+06  1.038267096375e-01
3.000000000000e-01 7.425443257536e-07 2.317692157115e-03 -6.669858532929e+06 -5.765401374937e+04 -9.617695246664e+06 -6.534835914912e+06 -9.402648950537e-04 -8.263923968175e-04 -1.043324912095e-01 7.607463231502e+06 3.019266299070e+06  1.038754129442e-01
3.100000000000e-01 7.398587131330e-07 2.318791689464e-03 -6.753966114614e+06 -5.679658131037e+04 -9.741936591466e+06 -6.618172309560e+06 -9.411975600633e-04 -8.243050966000e-04 -1.043823772946e-01 7.704691671880e+06 3.059711254909e+06  1.039247830903e-01
3.200000000000e-01 7.378057513913e-07 2.319807609492e-03 -6.832587018182e+06 -5.612873516922e+04 -9.858140167932e+06 -6.696099440434e+06 -9.420267922461e-04 -8.226974275155e-04 -1.044284889214e-01 7.795608875516e+06 3.097580095225e+06  1.039704418170e-01
3.300000000000e-01 7.360276100637e-07 2.320865634639e-03 -6.915398598557e+06 -5.553971964497e+04 -9.980607729823e+06 -6.778208949391e+06 -9.428563348502e-04 -8.212948852023e-04 -1.044765300128e-01 7.891405092590e+06 3.137530392673e+06  1.040180345868e-01
3.400000000000e-01 7.343209345852e-07 2.321830982055e-03 -6.991839432151e+06 -5.496888404649e+04 -1.009363940115e+07 -6.853996312639e+06 -9.436195022844e-04 -8.199518859452e-04 -1.045203483225e-01 7.979825048647e+06 3.174396051497e+06  1.040614393301e-01
3.500000000000e-01 7.332131547795e-07 2.322790260202e-03 -7.068583670543e+06 -5.458324766856e+04 -1.020721859853e+07 -6.930124552364e+06 -9.443314700994e-04 -8.190516808532e-04 -1.045639224286e-01 8.068642273812e+06 3.211496653553e+06  1.041046356795e-01
3.600000000000e-01 7.325134411440e-07 2.323763714642e-03 -7.147277904239e+06 -5.432620882332e+04 -1.032376141057e+07 -7.008218732954e+06 -9.450177258718e-04 -8.184552419815e-04 -1.046081612082e-01 8.159752682589e+06 3.249608914012e+06  1.041485165050e-01
3.700000000000e-01 7.316710206934e-07 2.324614488830e-03 -7.216797145671e+06 -5.402231085875e+04 -1.042667395995e+07 -7.077191299306e+06 -9.456362498170e-04 -8.177600949595e-04 -1.046468019926e-01 8.240220801643e+06 3.283241044270e+06  1.041868311282e-01
3.800000000000e-01 7.310533500455e-07 2.325408635788e-03 -7.282280099147e+06 -5.379315666862e+04 -1.052364298062e+07 -7.142172415584e+06 -9.461988512361e-04 -8.172394646263e-04 -1.046828754881e-01 8.316031831784e+06 3.314948634354e+06  1.042226104893e-01
3.900000000000e-01 7.304063841889e-07 2.326110264619e-03 -7.340638055759e+06 -5.355655163766e+04 -1.061004164850e+07 -7.200075855776e+06 -9.467039706534e-04 -8.167076305831e-04 -1.047147331559e-01 8.383585186679e+06 3.343189653399e+06  1.042542026429e-01
4.000000000000e-01 7.299251826423e-07 2.326755410403e-03 -7.394697518383e+06 -5.337611391934e+04 -1.069009337062e+07 -7.253721570133e+06 -9.471603364382e-04 -8.163041983972e-04 -1.047440259798e-01 8.446170819713e+06 3.369365908399e+06  1.042832573422e-01
4.100000000000e-01 7.295630697727e-07 2.327346006353e-03 -7.444525236457e+06 -5.323729350190e+04 -1.076388955285e+07 -7.303172805217e+06 -9.475727292631e-04 -8.159951825422e-04 -1.047708400857e-01 8.503862531509e+06 3.393503030695e+06  1.043098575393e-01
4.200000000000e-01 7.292870318161e-07 2.327894604266e-03 -7.491101285382e+06 -5.312878618905e+04 -1.083287777447e+07 -7.349400606259e+06 -9.479517581292e-04 -8.157544621170e-04 -1.047957444667e-01 8.557793222037e+06 3.416072187063e+06  1.043345663080e-01
4.300000000000e-01 7.290658970626e-07 2.328402385729e-03 -7.534464497174e+06 -5.304020944105e+04 -1.089711079805e+07 -7.392441593142e+06 -9.483003758842e-04 -8.155586237901e-04 -1.048187916365e-01 8.608005629455e+06 3.437087900300e+06  1.043574341474e-01
4.400000000000e-01 7.288949550724e-07 2.328869005783e-03 -7.574526763971e+06 -5.297007794633e+04 -1.095645679267e+07 -7.432207772181e+06 -9.486189562505e-04 -8.154038777994e-04 -1.048399659118e-01 8.654397109606e+06 3.456506295941e+06  1.043784451011e-01
4.500000000000e-01 7.287436297279e-07 2.329328893499e-03 -7.614213547837e+06 -5.290652956343e+04 -1.101525086096e+07 -7.471603350957e+06 -9.489306430961e-04 -8.152640738693e-04 -1.048608324449e-01 8.700355919919e+06 3.475746305035e+06  1.043991521027e-01
4.600000000000e-01 7.286047237400e-07 2.329773886486e-03 -7.652807673063e+06 -5.284764556824e+04 -1.107242724310e+07 -7.509915136424e+06 -9.492312884150e-04 -8.151350376354e-04 -1.048810191564e-01 8.745050017529e+06 3.494457470972e+06  1.044191850656e-01
4.700000000000e-01 7.284778932340e-07 2.330212640342e-03 -7.691046618826e+06 -5.279228090548e+04 -1.112908252309e+07 -7.547876734670e+06 -9.495251459283e-04 -8.150141481761e-04 -1.049009214603e-01 8.789335292196e+06 3.513000536814e+06  1.044389371961e-01
4.800000000000e-01 7.283593910322e-07 2.330638981436e-03 -7.728381391527e+06 -5.274017185468e+04 -1.118439839047e+07 -7.584941204783e+06 -9.498101266325e-04 -8.149008201127e-04 -1.049202563293e-01 8.832573662261e+06 3.531105334749e+06  1.044581265176e-01
4.900000000000e-01 7.282490072217e-07 2.331054118793e-03 -7.764905027873e+06 -5.269138117642e+04 -1.123851515068e+07 -7.621201863933e+06 -9.500860621474e-04 -8.147950872104e-04 -1.049390810198e-01 8.874874014161e+06 3.548818929512e+06  1.044768103632e-01
5.000000000000e-01 7.281498317185e-07 2.331466134037e-03 -7.801319881196e+06 -5.264588121142e+04 -1.129247586952e+07 -7.657356860633e+06 -9.503574515679e-04 -8.146967449775e-04 -1.049577634991e-01 8.917050870450e+06 3.566483928729e+06  1.044953544314e-01
5.100000000000e-01 7.280600859066e-07 2.331875779502e-03 -7.837691186482e+06 -5.260346782883e+04 -1.134637562130e+07 -7.693470299220e+06 -9.506255097666e-04 -8.146052978648e-04 -1.049763376438e-01 8.959179035666e+06 3.584130729233e+06  1.045137919839e-01
5.200000000000e-01 7.279805313970e-07 2.332281631213e-03 -7.873888284757e+06 -5.256453899833e+04 -1.140002196036e+07 -7.729412918499e+06 -9.508888281867e-04 -8.145215158322e-04 -1.049947390358e-01 9.001107721204e+06 3.601696874556e+06  1.045320593229e-01
5.300000000000e-01 7.279042959349e-07 2.332686754866e-03 -7.910183293833e+06 -5.252644303538e+04 -1.145381744489e+07 -7.765454569710e+06 -9.511497808895e-04 -8.144398559066e-04 -1.050131066972e-01 9.043151769478e+06 3.619313765237e+06  1.045502941531e-01
5.400000000000e-01 7.278176460759e-07 2.333086163849e-03 -7.946129252734e+06 -5.248469044811e+04 -1.150709625007e+07 -7.801150119458e+06 -9.514065066450e-04 -8.143511528146e-04 -1.050312139337e-01 9.084791874088e+06 3.636761573477e+06  1.045682705116e-01
5.500000000000e-01 7.277396747933e-07 2.333490510972e-03 -7.982683278347e+06 -5.244547023871e+04 -1.156128261212e+07 -7.837452090203e+06 -9.516637492061e-04 -8.142679928065e-04 -1.050495464384e-01 9.127139326890e+06 3.654509694183e+06  1.045864719869e-01
5.600000000000e-01 7.276619489160e-07 2.333893923989e-03 -8.019318454554e+06 -5.240609289961e+04 -1.161559291079e+07 -7.873836248638e+06 -9.519187576220e-04 -8.141849221294e-04 -1.050678366392e-01 9.169582537993e+06 3.672300120289e+06  1.046046322689e-01
5.700000000000e-01 7.275876739574e-07 2.334298101772e-03 -8.056189742169e+06 -5.236753154848e+04 -1.167025805809e+07 -7.910456925731e+06 -9.521721880329e-04 -8.141038920747e-04 -1.050861623396e-01 9.212301575331e+06 3.690209109998e+06  1.046228288733e-01
5.800000000000e-01 7.275154393658e-07 2.334701572062e-03 -8.093164029949e+06 -5.232944876123e+04 -1.172508001968e+07 -7.947181645403e+06 -9.524234075208e-04 -8.140242195517e-04 -1.051044565368e-01 9.255141898344e+06 3.708171447403e+06  1.046409951018e-01
5.900000000000e-01 7.274382644959e-07 2.335096105263e-03 -8.129481290844e+06 -5.228962276708e+04 -1.177892967605e+07 -7.983254731342e+06 -9.526680776666e-04 -8.139415106738e-04 -1.051223443165e-01 9.297221899411e+06 3.725815966788e+06  1.046587581225e-01
6.000000000000e-01 7.273675462879e-07 2.335496444224e-03 -8.166498863627e+06 -5.225160574287e+04 -1.183382362072e+07 -8.020025739158e+06 -9.529140335152e-04 -8.138627506369e-04 -1.051404975771e-01 9.340116074501e+06 3.743805611498e+06  1.046767860512e-01
6.100000000000e-01 7.273023639593e-07 2.335894062443e-03 -8.203430674246e+06 -5.221527777993e+04 -1.188859518472e+07 -8.056713554872e+06 -9.531563266486e-04 -8.137877347119e-04 -1.051585287112e-01 9.382913137945e+06 3.761757489453e+06  1.046946937633e-01
6.200000000000e-01 7.272320305705e-07 2.336282964123e-03 -8.239712575291e+06 -5.217741451751e+04 -1.194240482523e+07 -8.092756685937e+06 -9.533923649666e-04 -8.137101122041e-04 -1.051761636185e-01 9.424958028819e+06 3.779394900182e+06  1.047122083216e-01
6.300000000000e-01 7.271708888770e-07 2.336677927877e-03 -8.276724563513e+06 -5.214215321763e+04 -1.199730374745e+07 -8.129527597172e+06 -9.536296319898e-04 -8.136379172233e-04 -1.051940765392e-01 9.467851969379e+06 3.797392630767e+06  1.047300003815e-01
6.400000000000e-01 7.271055355088e-07 2.337064295022e-03 -8.313090527117e+06 -5.210547958792e+04 -1.205124664578e+07 -8.165657706038e+06 -9.538607229633e-04 -8.135633652671e-04 -1.052115991040e-01 9.509998292978e+06 3.815077908700e+06  1.047474051247e-01
6.500000000000e-01 7.270496306024e-07 2.337456418709e-03 -8.350162165997e+06 -5.207166976573e+04 -1.210624277412e+07 -8.202491379029e+06 -9.540928605798e-04 -8.134946914444e-04 -1.052293859462e-01 9.552965439715e+06 3.833111784401e+06  1.047650737354e-01
6.600000000000e-01 7.269973040799e-07 2.337846790394e-03 -8.387231860440e+06 -5.203902355890e+04 -1.216124057661e+07 -8.239324931496e+06 -9.543221971240e-04 -8.134286097016e-04 -1.052470947505e-01 9.595932456182e+06 3.851148460952e+06  1.047826657605e-01
6.700000000000e-01 7.269403954103e-07 2.338227855247e-03 -8.423576684267e+06 -5.200468367009e+04 -1.221516516687e+07 -8.275439224155e+06 -9.545450977532e-04 -8.133596363626e-04 -1.052643816470e-01 9.638060358431e+06 3.868834149648e+06  1.047998390366e-01
6.800000000000e-01 7.268901947145e-07 2.338605017998e-03 -8.459702061620e+06 -5.197288831789e+04 -1.226876900512e+07 -8.311337396465e+06 -9.547638394740e-04 -8.132958955704e-04 -1.052814922711e-01 9.679936154401e+06 3.886417056739e+06  1.048168382354e-01
6.900000000000e-01 7.268486127244e-07 2.338986812121e-03 -8.496430674684e+06 -5.194377779779e+04 -1.232327382096e+07 -8.347837200166e+06 -9.549831839986e-04 -8.132375464299e-04 -1.052988165092e-01 9.722513898603e+06 3.904298512481e+06  1.048340508517e-01
7.000000000000e-01 7.267975091734e-07 2.339359840084e-03 -8.532470574673e+06 -5.191108822926e+04 -1.237675785601e+07 -8.383653139901e+06 -9.551969491034e-04 -8.131727126846e-04 -1.053157429721e-01 9.764293856860e+06 3.921845558572e+06  1.048508683425e-01
7.100000000000e-01 7.267564119946e-07 2.339737747750e-03 -8.569138712498e+06 -5.188175826220e+04 -1.243118044925e+07 -8.420095719615e+06 -9.554113298899e-04 -8.131145066883e-04 -1.053328941337e-01 9.806804960454e+06 3.939703745174e+06  1.048679103565e-01
7.200000000000e-01 7.267108248632e-07 2.340106841577e-03 -8.605104085554e+06 -5.185089540072e+04 -1.248456225060e+07 -8.455840786749e+06 -9.556198237837e-04 -8.130537342664e-04 -1.053496457518e-01 9.848502374301e+06 3.957221431267e+06  1.048845557196e-01
7.300000000000e-01 7.266753542224e-07 2.340480839542e-03 -8.641702620262e+06 -5.182335589478e+04 -1.253888985597e+07 -8.492217339214e+06 -9.558290260298e-04 -8.129994454497e-04 -1.053666233014e-01 9.890936605147e+06 3.975052617168e+06  1.049014267893e-01
7.400000000000e-01 7.266342379226e-07 2.340845486983e-03 -8.677536584774e+06 -5.179382868035e+04 -1.259208453340e+07 -8.527834780903e+06 -9.560322197279e-04 -8.129417454838e-04 -1.053831768618e-01 9.932485299694e+06 3.992512863287e+06  1.049178768058e-01
7.500000000000e-01 7.265954899454e-07 2.341207831948e-03 -8.713292539787e+06 -5.176504499904e+04 -1.264516728040e+07 -8.563376124878e+06 -9.562327882161e-04 -8.128857002572e-04 -1.053996278066e-01 9.973945315023e+06 4.009938320224e+06  1.049342255531e-01
7.600000000000e-01 7.265588002593e-07 2.341566806962e-03 -8.748862293333e+06 -5.173699325016e+04 -1.269797736085e+07 -8.598733790453e+06 -9.564301865736e-04 -8.128312823163e-04 -1.054159275831e-01 1.001519114821e+07 4.027276159647e+06  1.049504247523e-01
7.700000000000e-01 7.265307472225e-07 2.341929501771e-03 -8.784949802843e+06 -5.171187291304e+04 -1.275156150791e+07 -8.634608044948e+06 -9.566278641582e-04 -8.127824949246e-04 -1.054323994017e-01 1.005703978523e+07 4.044870924138e+06  1.049667959670e-01
7.800000000000e-01 7.264978587988e-07 2.342283572110e-03 -8.820323991458e+06 -5.168504614504e+04 -1.280408867509e+07 -8.669774030583e+06 -9.568200664502e-04 -8.127308387371e-04 -1.054484804765e-01 1.009806223238e+07 4.062119643057e+06  1.049827791192e-01
7.900000000000e-01 7.264672153112e-07 2.342635746776e-03 -8.855651600694e+06 -5.165892660473e+04 -1.285655037322e+07 -8.704895039942e+06 -9.570100242185e-04 -8.126807124896e-04 -1.054644775052e-01 1.013903233795e+07 4.079348747235e+06  1.049986793788e-01
8.000000000000e-01 7.264455367509e-07 2.342991693053e-03 -8.891503209327e+06 -5.163592721639e+04 -1.290979540571e+07 -8.740538818369e+06 -9.572003512907e-04 -8.126364729813e-04 -1.054806489798e-01 1.018061247780e+07 4.096837837145e+06  1.050147540185e-01
8.100000000000e-01 7.264183585535e-07 2.343338912692e-03 -8.926617528025e+06 -5.161088250508e+04 -1.296194745568e+07 -8.775450316479e+06 -9.573853416418e-04 -8.125887622418e-04 -1.054964251282e-01 1.022133843339e+07 4.113968859054e+06  1.050304359317e-01
8.200000000000e-01 7.263938573457e-07 2.343684395417e-03 -8.961695342238e+06 -5.158732940465e+04 -1.301404859751e+07 -8.810326671697e+06 -9.575683662151e-04 -8.125439690401e-04 -1.055121242148e-01 1.026202353715e+07 4.131084901380e+06  1.050460418302e-01
8.300000000000e-01 7.263713786737e-07 2.344027245669e-03 -8.996644444325e+06 -5.156380633037e+04 -1.306596212444e+07 -8.845076312093e+06 -9.577488687499e-04 -8.124994305114e-04 -1.055277060104e-01 1.030256096029e+07 4.148141106448e+06  1.050615317023e-01
8.400000000000e-01 7.263492162877e-07 2.344367409706e-03 -9.031456452978e+06 -5.154082605496e+04 -1.311767506178e+07 -8.879690689712e+06 -9.579270182641e-04 -8.124560719869e-04 -1.055431676652e-01 1.034294073482e+07 4.165132989729e+06  1.050769026365e-01
8.500000000000e-01 7.263363795319e-07 2.344710932214e-03 -9.066750477896e+06 -5.152089992960e+04 -1.317010883339e+07 -8.914786013012e+06 -9.581054447310e-04 -8.124183373298e-04 -1.055587847543e-01 1.038388177476e+07 4.182364266568e+06  1.050924289809e-01
8.600000000000e-01 7.263173504143e-07 2.345045573552e-03 -9.101266510248e+06 -5.149853727991e+04 -1.322138873948e+07 -8.949108393903e+06 -9.582786591505e-04 -8.123764704459e-04 -1.055739992660e-01 1.042392121455e+07 4.199217261794e+06  1.051075552715e-01
8.700000000000e-01 7.263001326929e-07 2.345378383598e-03 -9.135726736929e+06 -5.147718873905e+04 -1.327258893773e+07 -8.983376365912e+06 -9.584499719450e-04 -8.123365886377e-04 -1.055891328838e-01 1.046389734686e+07 4.216045741921e+06  1.051226016623e-01
8.800000000000e-01 7.262844437961e-07 2.345708798334e-03 -9.170070306163e+06 -5.145638605581e+04 -1.332361886591e+07 -9.017529359658e+06 -9.586191477113e-04 -8.122978504927e-04 -1.056041596575e-01 1.050373951058e+07 4.232819850429e+06  1.051375423029e-01
8.900000000000e-01 7.262701499332e-07 2.346036599131e-03 -9.204271341355e+06 -5.143594976377e+04 -1.337444007044e+07 -9.051541639739e+06 -9.587860805348e-04 -8.122599297318e-04 -1.056190693265e-01 1.054341768385e+07 4.249526936881e+06  1.051523669787e-01
9.000000000000e-01 7.262566660759e-07 2.346362052209e-03 -9.238356562166e+06 -5.141589070343e+04 -1.342509208434e+07 -9.085439704242e+06 -9.589509842029e-04 -8.122228360262e-04 -1.056338744990e-01 1.058296278358e+07 4.266179921260e+06  1.051670881909e-01
9.100000000000e-01 7.262439565111e-07 2.346685152521e-03 -9.272322253048e+06 -5.139606146513e+04 -1.347556959661e+07 -9.119219939655e+06 -9.591137877446e-04 -8.121863018136e-04 -1.056485746448e-01 1.062237059644e+07 4.282777148879e+06  1.051817054382e-01
9.200000000000e-01 7.262335180633e-07 2.347005838550e-03 -9.306160083358e+06 -5.137714227624e+04 -1.352586029382e+07 -9.152874086086e+06 -9.592744466715e-04 -8.121515138295e-04 -1.056631671815e-01 1.066163148776e+07 4.299314625652e+06  1.051962161881e-01
9.300000000000e-01 7.262292804098e-07 2.347329490958e-03 -9.340438703870e+06 -5.136054132090e+04 -1.357680979879e+07 -9.186967851286e+06 -9.594355423100e-04 -8.121208681321e-04 -1.056778972901e-01 1.070140545131e+07 4.316070731098e+06  1.052108643746e-01
9.400000000000e-01 7.262204004215e-07 2.347645430387e-03 -9.374024584237e+06 -5.134211273122e+04 -1.362673130244e+07 -9.220373098390e+06 -9.595923799995e-04 -8.120872303172e-04 -1.056922776897e-01 1.074037632836e+07 4.332489579207e+06  1.052251649250e-01
9.500000000000e-01 7.262126467246e-07 2.347959806299e-03 -9.407566684647e+06 -5.132419623947e+04 -1.367659058138e+07 -9.253735721168e+06 -9.597476562505e-04 -8.120546113272e-04 -1.057065890248e-01 1.077929766240e+07 4.348889464526e+06  1.052393972133e-01
9.600000000000e-01 7.262058676429e-07 2.348271990053e-03 -9.440996184609e+06 -5.130662101193e+04 -1.372628502547e+07 -9.286987146749e+06 -9.599011689532e-04 -8.120227160842e-04 -1.057208024869e-01 1.081808945228e+07 4.365236483029e+06  1.052535325275e-01
9.700000000000e-01 7.261999411202e-07 2.348582209529e-03 -9.474335493026e+06 -5.128933794463e+04 -1.377584787699e+07 -9.320149635319e+06 -9.600530600424e-04 -8.119914532907e-04 -1.057349283885e-01 1.085677766844e+07 4.381541536152e+06  1.052675811065e-01
9.800000000000e-01 7.261949941284e-07 2.348890570367e-03 -9.507594273760e+06 -5.127241862755e+04 -1.382529349557e+07 -9.353232796322e+06 -9.602033891357e-04 -8.119609391103e-04 -1.057489715558e-01 1.089537352188e+07 4.397809346652e+06  1.052815477492e-01
9.900000000000e-01 7.261909153493e-07 2.349197074997e-03 -9.540771106123e+06 -5.125586905894e+04 -1.387461971620e+07 -9.386235195811e+06 -9.603521797521e-04 -8.119311781274e-04 -1.057629320674e-01 1.093387533938e+07 4.414039176886e+06  1.052954325229e-01
1.000000000000e+00 7.261867474316e-07 2.349501656341e-03 -9.573856904175e+06 -5.123934192444e+04 -1.392381293002e+07 -9.419147756492e+06 -9.604994361874e-04 -8.119015746301e-04 -1.057768067688e-01 1.097227253023e+07 4.430226489341e+06  1.053092322572e-01
1.050000000000e+00 7.261981498016e-07 2.350982906957e-03 -9.736395398674e+06 -5.116824086407e+04 -1.416551835932e+07 -9.580844790037e+06 -9.612077885255e-04 -8.117746273817e-04 -1.058443260028e-01 1.116091951601e+07 4.509781982677e+06  1.053763911463e-01
1.100000000000e+00 7.262055373180e-07 2.352401082034e-03 -9.894656024412e+06 -5.109782147335e+04 -1.440090626436e+07 -9.738298718234e+06 -9.618757390262e-04 -8.116513104779e-04 -1.059090043217e-01 1.134462033567e+07 4.587282086677e+06  1.054407294792e-01
1.150000000000e+00 7.269684840660e-07 2.353799697684e-03 -1.005319220312e+07 -5.137437329410e+04 -1.463696603330e+07 -9.896127112198e+06 -9.624530429516e-04 -8.120939621113e-04 -1.059728837802e-01 1.152876178287e+07 4.665138883371e+06  1.055043268208e-01
1.200000000000e+00 7.269689152900e-07 2.355141724356e-03 -1.020787078775e+07 -5.130397429652e+04 -1.486709695973e+07 -1.005003694804e+07 -9.630696649399e-04 -8.119750501101e-04 -1.060341463112e-01 1.170833489850e+07 4.740947151447e+06  1.055652751988e-01
1.250000000000e+00 7.269447771448e-07 2.356460102540e-03 -1.036219681896e+07 -5.122099952510e+04 -1.509670694500e+07 -1.020359397542e+07 -9.636771625306e-04 -8.118381872697e-04 -1.060943433490e-01 1.188749924646e+07 4.816587852073e+06  1.056251623066e-01
1.300000000000e+00 7.270101875772e-07 2.357749920457e-03 -1.051546294933e+07 -5.118183083663e+04 -1.532478641331e+07 -1.035611201475e+07 -9.642594679591e-04 -8.117714603411e-04 -1.061532583617e-01 1.206545379247e+07 4.891749567351e+06  1.056837815912e-01