 TITLE = "Time curves in points"
 VARIABLES = "TIME"  "DISPLACEMENT_X1"  "DISPLACEMENT_Y1"  "STRESS_XX"  "STRESS_XY"  "STRESS_YY"  "STRESS_ZZ"  "STRAIN_XX"  "STRAIN_XY"  "STRAIN_YY"  p_(1st_Invariant)  q_(2nd_Invariant)   Effective_Strain
 ZONE T="POINT=POINT6"
0.000000000000e+00 0.000000000000e+00 0.000000000000e+00 -1.000000000000e+05 0.000000000000e+00 -1.000000000000e+05 -1.000000000000e+05 0.000000000000e+00 0.000000000000e+00 0.000000000000e+00 1.000000000000e+05 0.000000000000e+00  0.000000000000e+00
1.000000000000e-03 2.070718376913e-09 0.000000000000e+00 -1.321012457859e+05 -2.767500662958e-02 -1.481519456663e+05 -1.321012753139e+05 5.203840635738e-08 -9.752704443450e-08 -2.828591102109e-02 1.374514889221e+05 1.605068511653e+04  2.828593704083e-02
2.000000000000e-03 3.839326215401e-10 0.000000000000e+00 -2.751338690887e+05 -7.634456227259e-02 -3.627010282574e+05 -2.751339577305e+05 9.042066148684e-08 -1.607453861398e-07 -7.472335688937e-02 3.043229516922e+05 8.756711484795e+04  7.472340210026e-02
3.000000000000e-03 1.787475797178e-08 0.000000000000e+00 -7.718627125282e+05 -8.097009191923e+00 -1.107788573016e+06 -7.718605134004e+05 -9.306039660744e-08 -1.446567866817e-06 -9.463336915098e-02 8.838372663150e+05 3.359269603502e+05  9.463332265398e-02
4.000000000000e-03 1.540372027194e-08 0.000000000000e+00 -2.435208011783e+06 5.837712745286e+00 -3.602815190300e+06 -2.435209283085e+06 -6.676947268251e-08 -1.235488542861e-06 -1.009326152035e-01 2.824410828389e+06 1.167606542910e+06  1.009325818414e-01
5.000000000000e-03 2.075751866475e-08 0.000000000000e+00 -2.715484220253e+06 -5.846912997017e+01 -4.023183304731e+06 -2.715467018138e+06 -1.280208984037e-07 -1.660032411552e-06 -1.013953470547e-01 3.151378181041e+06 1.307707689541e+06  1.013952830851e-01
6.000000000000e-03 1.413205575918e-08 0.000000000000e+00 -2.979548255815e+06 1.477273066296e+01 -4.419333859126e+06 -2.979552860625e+06 -6.540124776975e-08 -1.239827240482e-06 -1.017738565461e-01 3.459478325189e+06 1.439783301139e+06  1.017738238681e-01
7.000000000000e-03 1.790484304746e-08 0.000000000000e+00 -2.921663865007e+06 -1.550076461633e+01 -4.332505428234e+06 -2.921667737430e+06 -6.784551593876e-08 -1.441311377311e-06 -1.016775416944e-01 3.391945676890e+06 1.410839627275e+06  1.016775078023e-01
8.000000000000e-03 1.818488260770e-08 0.000000000000e+00 -2.937934435677e+06 -1.181849262673e+00 -4.356934194411e+06 -2.937947478795e+06 -4.268082403615e-08 -1.362718933718e-06 -1.016999066637e-01 3.410938702961e+06 1.418993237222e+06  1.016998853507e-01
9.000000000000e-03 1.817010623255e-08 0.000000000000e+00 -2.960474626067e+06 -2.837173175585e+00 -4.390741233063e+06 -2.960486377018e+06 -4.620359040083e-08 -1.371745046336e-06 -1.017306299118e-01 3.437234078716e+06 1.430260731565e+06  1.017306068378e-01
1.000000000000e-02 1.818242397537e-08 0.000000000000e+00 -2.981830358333e+06 -2.802346820875e+00 -4.422774546460e+06 -2.981842001875e+06 -4.649437912624e-08 -1.371556675619e-06 -1.017595266710e-01 3.462148968889e+06 1.440938366399e+06  1.017595034516e-01
2.000000000000e-02 1.870161459842e-08 0.000000000000e+00 -5.035107008504e+06 -1.172055970909e+01 -7.502641701799e+06 -5.035099587686e+06 -9.074158131810e-08 -1.412953544757e-06 -1.041418330728e-01 5.857616099330e+06 2.467538403796e+06  1.041417877308e-01
3.000000000000e-02 1.940735917864e-08 0.000000000000e+00 -3.622965660930e+06 -2.678873319268e+01 -5.384399088626e+06 -3.622946063705e+06 -1.172179304683e-07 -1.478436420823e-06 -1.026075362863e-01 4.210103604421e+06 1.761443227002e+06  1.026074777093e-01
4.000000000000e-02 2.435350385462e-08 0.000000000000e+00 -4.338876981084e+06 -5.948883847074e+01 -6.456876737711e+06 -4.338301707046e+06 -1.357282696924e-06 -1.623799375562e-06 -1.034037402650e-01 5.044685141947e+06 2.118287454739e+06  1.034030616686e-01
5.000000000000e-02 2.609087236492e-08 0.000000000000e+00 -3.994163266664e+06 -1.488627779371e+02 -5.940325907521e+06 -3.993795934257e+06 -8.480195473261e-07 -2.062711731733e-06 -1.029825275625e-01 4.642761702814e+06 1.946346350136e+06  1.029821036174e-01
6.000000000000e-02 2.355331915062e-08 0.000000000000e+00 -4.486074501891e+06 2.140245771846e+01 -6.677842433974e+06 -4.485567079154e+06 -1.187434643410e-06 -1.233725299483e-06 -1.035827131888e-01 5.216494671673e+06 2.192021687812e+06  1.035821194987e-01
7.000000000000e-02 2.649728089901e-08 0.000000000000e+00 -4.555900583522e+06 1.515461344301e+02 -6.780728187716e+06 -4.554651861087e+06 -2.504193078890e-06 -7.713633514564e-07 -1.036427588089e-01 5.297093544109e+06 2.225452243642e+06  1.036415067437e-01
8.000000000000e-02 2.640495295081e-08 0.000000000000e+00 -4.737396896385e+06 1.405348796541e+02 -7.053088221251e+06 -4.736194435037e+06 -2.407875961465e-06 -8.171424235384e-07 -1.038318514855e-01 5.508893184224e+06 2.316292802419e+06  1.038306475781e-01
9.000000000000e-02 2.483105330063e-08 0.000000000000e+00 -4.896106255380e+06 1.792435985487e+02 -7.291071031322e+06 -4.894871332582e+06 -2.475915661005e-06 -6.547482621155e-07 -1.039982441377e-01 5.694016206428e+06 2.395582496185e+06  1.039970062082e-01
1.000000000000e-01 2.742092047638e-08 0.000000000000e+00 -4.992104397718e+06 1.139841838056e+02 -7.434839173893e+06 -4.990777879038e+06 -2.624679404460e-06 -8.667647800049e-07 -1.040759904450e-01 5.805907150216e+06 2.443398313554e+06  1.040746781410e-01
1.100000000000e-01 2.717617222404e-08 0.000000000000e+00 -5.089856311230e+06 1.229635712090e+02 -7.581445279968e+06 -5.088521109250e+06 -2.641585262408e-06 -8.318023913450e-07 -1.041711330481e-01 5.919940900149e+06 2.492256847074e+06  1.041698122906e-01
1.200000000000e-01 2.745742084844e-08 0.000000000000e+00 -5.215551363863e+06 1.230136833728e+02 -7.769724617569e+06 -5.214110885984e+06 -2.823401725325e-06 -8.231101625902e-07 -1.042808012630e-01 6.066462289138e+06 2.554893806089e+06  1.042793896005e-01
1.300000000000e-01 2.222333561216e-08 0.000000000000e+00 -5.307687321031e+06 -3.217506634991e+02 -7.884905591903e+06 -5.297037676188e+06 -1.687839904814e-05 -2.166312596164e-06 -1.043300351669e-01 6.163210196374e+06 2.582559621866e+06  1.043215970589e-01
1.400000000000e-01 2.283079865303e-08 0.000000000000e+00 -5.407968848563e+06 -2.636190087671e+02 -8.037615467656e+06 -5.398234250476e+06 -1.550541947521e-05 -1.992796523160e-06 -1.044073634546e-01 6.281272855565e+06 2.634527446268e+06  1.043996116655e-01
1.500000000000e-01 2.277424046154e-08 0.000000000000e+00 -5.491708165736e+06 -2.672577608702e+02 -8.162738355784e+06 -5.481779141172e+06 -1.579216296558e-05 -2.003380722106e-06 -1.044687036122e-01 6.378741887564e+06 2.676008557595e+06  1.044608084836e-01
1.600000000000e-01 2.278153095305e-08 0.000000000000e+00 -5.578974420727e+06 -2.633540466038e+02 -8.293470871279e+06 -5.568978653777e+06 -1.588909157729e-05 -1.992029916761e-06 -1.045319344753e-01 6.480474648594e+06 2.719508149903e+06  1.045239908922e-01
1.700000000000e-01 2.277786498668e-08 0.000000000000e+00 -5.662295963609e+06 -2.603318009328e+02 -8.418259636299e+06 -5.652222777438e+06 -1.599980430017e-05 -1.983359884725e-06 -1.045913561293e-01 6.577592792449e+06 2.761014084126e+06  1.045833572015e-01
1.800000000000e-01 2.277958097757e-08 0.000000000000e+00 -5.746625183728e+06 -2.572547405668e+02 -8.544562643468e+06 -5.736475665205e+06 -1.610735485457e-05 -1.974664285650e-06 -1.046506138898e-01 6.675887830801e+06 2.803026035903e+06  1.046425611980e-01
1.900000000000e-01 2.277648659270e-08 0.000000000000e+00 -5.827482794950e+06 -2.541998575320e+02 -8.665666713338e+06 -5.817260331114e+06 -1.620865835339e-05 -1.966156395524e-06 -1.047066172873e-01 6.770136613134e+06 2.843308966623e+06  1.046985139545e-01
2.000000000000e-01 2.277476406533e-08 0.000000000000e+00 -5.912439128714e+06 -2.509788379799e+02 -8.792910488011e+06 -5.902140364854e+06 -1.631312206164e-05 -1.957312763694e-06 -1.047646275567e-01 6.869163327193e+06 2.885634557523e+06  1.047564720032e-01
2.100000000000e-01 2.276882149978e-08 0.000000000000e+00 -5.999007589465e+06 -2.475859544442e+02 -8.922569937391e+06 -5.988631516432e+06 -1.641743885039e-05 -1.948133048942e-06 -1.048228856967e-01 6.970069681096e+06 2.928764201065e+06  1.048146779959e-01
2.200000000000e-01 2.276081239517e-08 0.000000000000e+00 -6.078356170137e+06 -2.444047810264e+02 -9.041416737390e+06 -6.067909653661e+06 -1.651117665422e-05 -1.939645988804e-06 -1.048755470924e-01 7.062560853729e+06 2.968297642614e+06  1.048672925328e-01
2.300000000000e-01 2.275235448663e-08 0.000000000000e+00 -6.168000565652e+06 -2.407956715573e+02 -9.175684979048e+06 -6.157474691193e+06 -1.661532176544e-05 -1.930150030483e-06 -1.049342218094e-01 7.167053411964e+06 3.012961169201e+06  1.049259151884e-01
2.400000000000e-01 2.274623969286e-08 0.000000000000e+00 -6.246963853684e+06 -2.376082622940e+02 -9.293956352070e+06 -6.236368536244e+06 -1.670520739452e-05 -1.921878533273e-06 -1.049851984269e-01 7.259096247332e+06 3.052303977015e+06  1.049768468729e-01
2.500000000000e-01 2.273412908171e-08 0.000000000000e+00 -6.329989416523e+06 -2.341287482786e+02 -9.418312863273e+06 -6.319321344720e+06 -1.679816426054e-05 -1.912966759796e-06 -1.050381065492e-01 7.355874541505e+06 3.093671304491e+06  1.050297085268e-01
2.600000000000e-01 2.272967001536e-08 0.000000000000e+00 -6.409907609995e+06 -2.308782500071e+02 -9.538015864602e+06 -6.399169799985e+06 -1.688612322736e-05 -1.904747485746e-06 -1.050883804137e-01 7.449031091527e+06 3.133490983735e+06  1.050799384215e-01
2.700000000000e-01 2.272537612531e-08 0.000000000000e+00 -6.494705248690e+06 -2.274323898790e+02 -9.665028115080e+06 -6.483893731727e+06 -1.697790033754e-05 -1.896145528081e-06 -1.051410425897e-01 7.547875698499e+06 3.175742451881e+06  1.051325547190e-01
2.800000000000e-01 2.272543974335e-08 0.000000000000e+00 -6.573255713453e+06 -2.242943804956e+02 -9.782683972515e+06 -6.562376235644e+06 -1.706145889420e-05 -1.888410043761e-06 -1.051892119633e-01 7.639438640537e+06 3.214881827929e+06  1.051806823226e-01
2.900000000000e-01 2.272549008763e-08 0.000000000000e+00 -6.657224276779e+06 -2.209173417075e+02 -9.908455849115e+06 -6.646272385850e+06 -1.714939742071e-05 -1.880187838928e-06 -1.052400712328e-01 7.737317503915e+06 3.256721351427e+06  1.052314976325e-01
3.000000000000e-01 2.272719385549e-08 0.000000000000e+00 -6.732998355032e+06 -2.178770009025e+02 -1.002195447531e+07 -6.721981441282e+06 -1.722741281981e-05 -1.872874267910e-06 -1.052854162044e-01 7.825644757207e+06 3.294478414227e+06  1.052768036052e-01
3.100000000000e-01 2.272825006945e-08 0.000000000000e+00 -6.811174423114e+06 -2.147182671111e+02 -1.013905143651e+07 -6.800090626279e+06 -1.730674642486e-05 -1.865362657400e-06 -1.053316660473e-01 7.916772161966e+06 3.333432752859e+06  1.053230137901e-01
3.200000000000e-01 2.273041512868e-08 0.000000000000e+00 -6.885717185720e+06 -2.117023535906e+02 -1.025070684658e+07 -6.874569868467e+06 -1.738124747275e-05 -1.858271052911e-06 -1.053752726092e-01 8.003664633591e+06 3.370577164546e+06  1.053665831098e-01
3.300000000000e-01 2.273359450249e-08 0.000000000000e+00 -6.960755485789e+06 -2.086780112228e+02 -1.036310500674e+07 -6.949544425693e+06 -1.745519976537e-05 -1.851236572002e-06 -1.054186937724e-01 8.091134972742e+06 3.407968900416e+06  1.054099673052e-01
3.400000000000e-01 2.273406478248e-08 0.000000000000e+00 -7.025309098359e+06 -2.060132336204e+02 -1.045979902430e+07 -7.014043451081e+06 -1.751789234083e-05 -1.845101419336e-06 -1.054556722357e-01 8.166383857913e+06 3.440136602755e+06  1.054469144293e-01
3.500000000000e-01 2.273673019957e-08 0.000000000000e+00 -7.084650616822e+06 -2.035993129148e+02 -1.054868613196e+07 -7.073334875245e+06 -1.757491694935e-05 -1.839592592891e-06 -1.054893648286e-01 8.235557208008e+06 3.469707242863e+06  1.054805785163e-01
3.600000000000e-01 2.273637403577e-08 0.000000000000e+00 -7.136524387489e+06 -2.014226011039e+02 -1.062638773260e+07 -7.125164998024e+06 -1.762421152195e-05 -1.834664862566e-06 -1.055185854772e-01 8.296025706038e+06 3.495556900109e+06  1.055097745232e-01
3.700000000000e-01 2.273582920327e-08 0.000000000000e+00 -7.182789924521e+06 -1.994815526571e+02 -1.069568905158e+07 -7.171391715372e+06 -1.766775071191e-05 -1.830300987496e-06 -1.055444672651e-01 8.349956897158e+06 3.518612094905e+06  1.055356345465e-01
3.800000000000e-01 2.273624760551e-08 0.000000000000e+00 -7.224989784363e+06 -1.977081763244e+02 -1.075890049233e+07 -7.213556211370e+06 -1.770716899694e-05 -1.826338686635e-06 -1.055679288393e-01 8.399148829354e+06 3.539641360614e+06  1.055590764160e-01
3.900000000000e-01 2.273574459525e-08 0.000000000000e+00 -7.263953131075e+06 -1.960560488497e+02 -1.081726413012e+07 -7.252486981870e+06 -1.774327544876e-05 -1.822668239872e-06 -1.055894690982e-01 8.444568081022e+06 3.559057942478e+06  1.055805986259e-01
4.000000000000e-01 2.273481920690e-08 0.000000000000e+00 -7.300069302333e+06 -1.945005826013e+02 -1.087136302056e+07 -7.288572984287e+06 -1.777654031222e-05 -1.819230625099e-06 -1.056093318720e-01 8.486668435726e+06 3.577055748668e+06  1.056004447711e-01
4.100000000000e-01 2.273336959406e-08 0.000000000000e+00 -7.334222224520e+06 -1.930226892286e+02 -1.092252126942e+07 -7.322697431577e+06 -1.780778589937e-05 -1.815980290161e-06 -1.056280243732e-01 8.526480308505e+06 3.594075315260e+06  1.056191216530e-01
4.200000000000e-01 2.273190437550e-08 0.000000000000e+00 -7.367684282242e+06 -1.915713457317e+02 -1.097264478617e+07 -7.356131641447e+06 -1.783820242956e-05 -1.812803095078e-06 -1.056462543000e-01 8.565486903286e+06 3.610750700654e+06  1.056373363750e-01
4.300000000000e-01 2.273045083312e-08 0.000000000000e+00 -7.401119628019e+06 -1.901151475247e+02 -1.102272836775e+07 -7.389539193751e+06 -1.786842172072e-05 -1.809629790251e-06 -1.056643869767e-01 8.604462396508e+06 3.627412835694e+06  1.056554539456e-01
4.400000000000e-01 2.272904501838e-08 0.000000000000e+00 -7.433868874275e+06 -1.886867736968e+02 -1.107178432404e+07 -7.422261257460e+06 -1.789784448430e-05 -1.806531068377e-06 -1.056820681090e-01 8.642638151924e+06 3.643733139478e+06  1.056731203699e-01
4.500000000000e-01 2.272767813189e-08 0.000000000000e+00 -7.466996667720e+06 -1.872400627131e+02 -1.112140740044e+07 -7.455361589473e+06 -1.792743744615e-05 -1.803406482394e-06 -1.056998744078e-01 8.681255219211e+06 3.660242155715e+06  1.056909118755e-01
4.600000000000e-01 2.272634654922e-08 0.000000000000e+00 -7.500035685775e+06 -1.857951834894e+02 -1.117089759324e+07 -7.488373259303e+06 -1.795677780379e-05 -1.800299699629e-06 -1.057175543133e-01 8.719768846106e+06 3.676707007162e+06  1.057085771142e-01
4.700000000000e-01 2.272502727325e-08 0.000000000000e+00 -7.533072789993e+06 -1.843475353692e+02 -1.122038502318e+07 -7.521383059897e+06 -1.798594125280e-05 -1.797200699197e-06 -1.057351553367e-01 8.758280291023e+06 3.693170987313e+06  1.057261635593e-01
4.800000000000e-01 2.272375490626e-08 0.000000000000e+00 -7.566099671745e+06 -1.829002643397e+02 -1.126985720287e+07 -7.554382672866e+06 -1.801493974758e-05 -1.794116101170e-06 -1.057526737500e-01 8.796779849161e+06 3.709629922328e+06  1.057436674767e-01
4.900000000000e-01 2.272249273357e-08 0.000000000000e+00 -7.598955495266e+06 -1.814584805264e+02 -1.131907325650e+07 -7.587211413590e+06 -1.804361501719e-05 -1.791056598797e-06 -1.057700255594e-01 8.835080055119e+06 3.726003696525e+06  1.057610049517e-01
5.000000000000e-01 2.272117606226e-08 0.000000000000e+00 -7.631579503841e+06 -1.800208391331e+02 -1.136794213779e+07 -7.619808560874e+06 -1.807193315343e-05 -1.788019079776e-06 -1.057871806896e-01 8.873110067501e+06 3.742262002605e+06  1.057781459262e-01
5.100000000000e-01 2.271984947308e-08 0.000000000000e+00 -7.664911411966e+06 -1.785485678752e+02 -1.141787154119e+07 -7.653113078293e+06 -1.810068471999e-05 -1.784921850595e-06 -1.058046324205e-01 8.911965343817e+06 3.758873196016e+06  1.057955832847e-01
5.200000000000e-01 2.271850335056e-08 0.000000000000e+00 -7.698360255961e+06 -1.770690444728e+02 -1.146797615762e+07 -7.686534456729e+06 -1.812938926356e-05 -1.781822943986e-06 -1.058220690813e-01 8.950956956769e+06 3.775542704094e+06  1.058130055965e-01
5.300000000000e-01 2.271715414623e-08 0.000000000000e+00 -7.731423195022e+06 -1.756035215728e+02 -1.151750280293e+07 -7.719570286185e+06 -1.815759932395e-05 -1.778766653881e-06 -1.058392300995e-01 8.989498761377e+06 3.792019968010e+06  1.058301525129e-01
5.400000000000e-01 2.271579772833e-08 0.000000000000e+00 -7.765159400324e+06 -1.741072310036e+02 -1.156803806378e+07 -7.753278869776e+06 -1.818621817780e-05 -1.775659689144e-06 -1.058566649988e-01 9.028825444628e+06 3.808832837377e+06  1.058475731061e-01
5.500000000000e-01 2.271442603236e-08 0.000000000000e+00 -7.798861705361e+06 -1.726092449622e+02 -1.161852264046e+07 -7.786953620976e+06 -1.821464272584e-05 -1.772562734635e-06 -1.058740067601e-01 9.068112655598e+06 3.825628888913e+06  1.058649006584e-01
5.600000000000e-01 2.271303317971e-08 0.000000000000e+00 -7.832147594999e+06 -1.711252130438e+02 -1.166838353804e+07 -7.820212335737e+06 -1.824255586174e-05 -1.769507847799e-06 -1.058910606742e-01 9.106914489591e+06 3.842217487272e+06  1.058819406193e-01
5.700000000000e-01 2.271161691998e-08 0.000000000000e+00 -7.866137380435e+06 -1.696078861054e+02 -1.171929892747e+07 -7.854174406878e+06 -1.827090088773e-05 -1.766397846824e-06 -1.059084005034e-01 9.146536904929e+06 3.859156951501e+06  1.058992662793e-01
5.800000000000e-01 2.271019213248e-08 0.000000000000e+00 -7.899664895397e+06 -1.681081150689e+02 -1.176952194741e+07 -7.887674623306e+06 -1.829870078901e-05 -1.763337056579e-06 -1.059254310805e-01 9.185620488706e+06 3.875866108815e+06  1.059162829597e-01
5.900000000000e-01 2.270875442919e-08 0.000000000000e+00 -7.933809981154e+06 -1.665781671985e+02 -1.182067015528e+07 -7.921791944455e+06 -1.832685428860e-05 -1.760228067572e-06 -1.059427011325e-01 9.225424026964e+06 3.892883116394e+06  1.059335389382e-01
6.000000000000e-01 2.270730034435e-08 0.000000000000e+00 -7.967395298506e+06 -1.650706316708e+02 -1.187097993870e+07 -7.955349989638e+06 -1.835439031853e-05 -1.757177732876e-06 -1.059596155240e-01 9.264575075613e+06 3.909621221681e+06  1.059504395649e-01
6.100000000000e-01 2.270586109561e-08 0.000000000000e+00 -8.001488193515e+06 -1.635384828695e+02 -1.192205014973e+07 -7.989415238060e+06 -1.838218589114e-05 -1.754090773078e-06 -1.059767126767e-01 9.304317860434e+06 3.926612364217e+06  1.059675228230e-01
6.200000000000e-01 2.270444041310e-08 0.000000000000e+00 -8.035056959680e+06 -1.620259347844e+02 -1.197233532140e+07 -8.022956820275e+06 -1.840940069482e-05 -1.751056226791e-06 -1.059934757832e-01 9.343449700452e+06 3.943342364906e+06  1.059842723254e-01
6.300000000000e-01 2.270300789093e-08 0.000000000000e+00 -8.068725715458e+06 -1.605074136428e+02 -1.202277035898e+07 -8.056598345710e+06 -1.843654788096e-05 -1.748022460900e-06 -1.060102184946e-01 9.382698140048e+06 3.960122265123e+06  1.060010014663e-01
6.400000000000e-01 2.270156122863e-08 0.000000000000e+00 -8.102935311096e+06 -1.589639720606e+02 -1.207401566301e+07 -8.090780314629e+06 -1.846397444401e-05 -1.744951883648e-06 -1.060271586628e-01 9.422577096246e+06 3.977171790201e+06  1.060179279246e-01
6.500000000000e-01 2.270013880760e-08 0.000000000000e+00 -8.136647670703e+06 -1.574374446110e+02 -1.212451619221e+07 -8.124465480093e+06 -1.849085833660e-05 -1.741927727843e-06 -1.060437826071e-01 9.461876447669e+06 3.993973560179e+06  1.060345384301e-01
6.600000000000e-01 2.269871447994e-08 0.000000000000e+00 -8.170944296296e+06 -1.558847613006e+02 -1.217589204097e+07 -8.158734480611e+06 -1.851805417955e-05 -1.738864611076e-06 -1.060606240487e-01 9.501856939294e+06 4.011066599285e+06  1.060513662769e-01
6.700000000000e-01 2.269736711790e-08 0.000000000000e+00 -8.204649498574e+06 -1.543564764238e+02 -1.222638202810e+07 -8.192412567913e+06 -1.854463669091e-05 -1.735862200632e-06 -1.060771061651e-01 9.541148031528e+06 4.027864944991e+06  1.060678351052e-01
6.800000000000e-01 2.269596325019e-08 0.000000000000e+00 -8.238185875810e+06 -1.528319748872e+02 -1.227661920490e+07 -8.225922001773e+06 -1.857094269398e-05 -1.732879529893e-06 -1.060934385252e-01 9.580242360826e+06 4.044579219624e+06  1.060841543154e-01
6.900000000000e-01 2.269456729039e-08 0.000000000000e+00 -8.272213822395e+06 -1.512838101842e+02 -1.232759283545e+07 -8.259922645512e+06 -1.859749040233e-05 -1.729862992410e-06 -1.061099423786e-01 9.619909767785e+06 4.061538558474e+06  1.061006448981e-01
7.000000000000e-01 2.269318398145e-08 0.000000000000e+00 -8.305718395651e+06 -1.497563792886e+02 -1.237778254306e+07 -8.293400371318e+06 -1.862348867887e-05 -1.726899034765e-06 -1.061261260369e-01 9.658967103343e+06 4.078237119992e+06  1.061168155604e-01
7.100000000000e-01 2.269181360965e-08 0.000000000000e+00 -8.339257184877e+06 -1.482259923379e+02 -1.242802359027e+07 -8.326912319856e+06 -1.864937549721e-05 -1.723941342852e-06 -1.061422608548e-01 9.698064365000e+06 4.094952801784e+06  1.061329374379e-01
7.200000000000e-01 2.269043897149e-08 0.000000000000e+00 -8.373271457648e+06 -1.466724295121e+02 -1.247897699742e+07 -8.360899406233e+06 -1.867548958362e-05 -1.720951032109e-06 -1.061585581909e-01 9.737715953768e+06 4.111905532908e+06  1.061492217201e-01
7.300000000000e-01 2.268910100695e-08 0.000000000000e+00 -8.406742944124e+06 -1.451408506654e+02 -1.252911739811e+07 -8.394344175880e+06 -1.870104913492e-05 -1.718014946146e-06 -1.061745308102e-01 9.776734839370e+06 4.128587809041e+06  1.061651815627e-01
7.400000000000e-01 2.268775182777e-08 0.000000000000e+00 -8.440207600756e+06 -1.436078696426e+02 -1.257924764940e+07 -8.427782154145e+06 -1.872647026889e-05 -1.715087891297e-06 -1.061904366068e-01 9.815745801432e+06 4.145266746421e+06  1.061810746517e-01
7.500000000000e-01 2.268640841852e-08 0.000000000000e+00 -8.474087063002e+06 -1.420568229272e+02 -1.262999937244e+07 -8.461634643608e+06 -1.875206944861e-05 -1.712138158492e-06 -1.062064753664e-01 9.855240359684e+06 4.162152497217e+06  1.061971006148e-01
7.600000000000e-01 2.268512886050e-08 0.000000000000e+00 -8.507301198065e+06 -1.405281579959e+02 -1.267975450236e+07 -8.494822365131e+06 -1.877703853866e-05 -1.709242550810e-06 -1.062221368706e-01 9.893959355185e+06 4.178706702408e+06  1.062127496375e-01
7.700000000000e-01 2.268385006758e-08 0.000000000000e+00 -8.540510438855e+06 -1.390016161687e+02 -1.272950238617e+07 -8.528005230630e+06 -1.880187412609e-05 -1.706362257188e-06 -1.062377349498e-01 9.932672685220e+06 4.195258536665e+06  1.062283353017e-01
7.800000000000e-01 2.268258432603e-08 0.000000000000e+00 -8.573687328719e+06 -1.374746501109e+02 -1.277920188987e+07 -8.561155803775e+06 -1.882655823553e-05 -1.703492379780e-06 -1.062532572813e-01 9.971348340788e+06 4.211794312462e+06  1.062438452942e-01
7.900000000000e-01 2.268132557307e-08 0.000000000000e+00 -8.606807189898e+06 -1.359485112949e+02 -1.282881604574e+07 -8.594249426324e+06 -1.885107392918e-05 -1.700635166251e-06 -1.062686930298e-01 1.000995755399e+07 4.228301730097e+06  1.062592687878e-01
8.000000000000e-01 2.268007205134e-08 0.000000000000e+00 -8.640367404811e+06 -1.343989552447e+02 -1.287908993491e+07 -8.627783083632e+06 -1.887579157034e-05 -1.697745366922e-06 -1.062842734603e-01 1.004908014112e+07 4.245028686853e+06  1.062748368624e-01
8.100000000000e-01 2.267883183000e-08 0.000000000000e+00 -8.673364669494e+06 -1.328769081158e+02 -1.292852061005e+07 -8.660754275130e+06 -1.889996481780e-05 -1.694917814455e-06 -1.062995335219e-01 1.008754651822e+07 4.261475137547e+06  1.062900848403e-01
8.200000000000e-01 2.267757244407e-08 0.000000000000e+00 -8.706357820123e+06 -1.313536436654e+02 -1.297794519211e+07 -8.693721383618e+06 -1.892401741991e-05 -1.692098784420e-06 -1.063147336426e-01 1.012600813195e+07 4.277919593734e+06  1.063052729376e-01
8.300000000000e-01 2.267646324649e-08 0.000000000000e+00 -8.739267341032e+06 -1.298224333998e+02 -1.302724456269e+07 -8.726604955410e+06 -1.894789338363e-05 -1.689275824680e-06 -1.063298378525e-01 1.016437228638e+07 4.294322421660e+06  1.063203652124e-01
8.400000000000e-01 2.267524177875e-08 0.000000000000e+00 -8.772085876279e+06 -1.283053037807e+02 -1.307640772450e+07 -8.759397649167e+06 -1.897158087925e-05 -1.686489323918e-06 -1.063448436737e-01 1.020263041665e+07 4.310679972667e+06  1.063353591927e-01
8.500000000000e-01 2.267408144340e-08 0.000000000000e+00 -8.804839394898e+06 -1.267858043267e+02 -1.312547355924e+07 -8.792125405134e+06 -1.899510782893e-05 -1.683708930922e-06 -1.063597637963e-01 1.024081278642e+07 4.327005173835e+06  1.063502675546e-01
8.600000000000e-01 2.267299120004e-08 0.000000000000e+00 -8.837493812306e+06 -1.252681077360e+02 -1.317439101540e+07 -8.824754168826e+06 -1.901844826049e-05 -1.680942170764e-06 -1.063745835309e-01 1.027887966551e+07 4.343281043170e+06  1.063650756218e-01
8.700000000000e-01 2.267187528107e-08 0.000000000000e+00 -8.870551025191e+06 -1.237290346558e+02 -1.322391196402e+07 -8.857785447295e+06 -1.904195638227e-05 -1.678146889475e-06 -1.063895303372e-01 1.031741614550e+07 4.359757749903e+06  1.063800106769e-01
8.800000000000e-01 2.267067694214e-08 0.000000000000e+00 -8.903029130118e+06 -1.222250374695e+02 -1.327256544860e+07 -8.890238096520e+06 -1.906494527259e-05 -1.675425399841e-06 -1.064041610214e-01 1.035527755841e+07 4.375945861158e+06  1.063946298694e-01
8.900000000000e-01 2.266956298541e-08 0.000000000000e+00 -8.935445445144e+06 -1.207135443716e+02 -1.332112644718e+07 -8.922629034899e+06 -1.908777922730e-05 -1.672700358708e-06 -1.064187106585e-01 1.039306697574e+07 4.392103236789e+06  1.064091680924e-01
9.000000000000e-01 2.266853016262e-08 0.000000000000e+00 -8.967778103580e+06 -1.191980859832e+02 -1.336956219767e+07 -8.954936410891e+06 -1.911044597695e-05 -1.669978105448e-06 -1.064331701725e-01 1.043075890405e+07 4.408218973840e+06  1.064236162757e-01
9.100000000000e-01 2.266743453020e-08 0.000000000000e+00 -9.000028099056e+06 -1.176860998948e+02 -1.341787418209e+07 -8.987161214714e+06 -1.913294997877e-05 -1.667271884588e-06 -1.064475407870e-01 1.046835449862e+07 4.424293562396e+06  1.064379756409e-01
9.200000000000e-01 2.266634704541e-08 0.000000000000e+00 -9.032188791187e+06 -1.161864387698e+02 -1.346605247010e+07 -9.019296818048e+06 -1.915528187843e-05 -1.664597313404e-06 -1.064618203375e-01 1.050584602645e+07 4.440323706455e+06  1.064522440281e-01
9.300000000000e-01 2.266530428617e-08 0.000000000000e+00 -9.064285731652e+06 -1.146810923908e+02 -1.351413532334e+07 -9.051368746191e+06 -1.917746649225e-05 -1.661922191236e-06 -1.064760208916e-01 1.054326326706e+07 4.456322129189e+06  1.064664334927e-01
9.400000000000e-01 2.266427749367e-08 0.000000000000e+00 -9.096314591415e+06 -1.131789029635e+02 -1.356211626787e+07 -9.083372677925e+06 -1.919949811949e-05 -1.659262133417e-06 -1.064901412098e-01 1.058060117907e+07 4.472286681774e+06  1.064805427977e-01
9.500000000000e-01 2.266324013064e-08 0.000000000000e+00 -9.128288065362e+06 -1.116835626649e+02 -1.361001434388e+07 -9.115321307248e+06 -1.922137876137e-05 -1.656623514332e-06 -1.065041875429e-01 1.061787457216e+07 4.488223709927e+06  1.064945781931e-01
9.600000000000e-01 2.266223057791e-08 0.000000000000e+00 -9.160162445713e+06 -1.101858569202e+02 -1.365776400069e+07 -9.147170930761e+06 -1.924310581849e-05 -1.653990002242e-06 -1.065181413527e-01 1.065503245905e+07 4.504111368633e+06  1.065085211421e-01
9.700000000000e-01 2.266124488100e-08 0.000000000000e+00 -9.192009962794e+06 -1.086885965379e+02 -1.370547349460e+07 -9.178993743088e+06 -1.926471174037e-05 -1.651366442156e-06 -1.065320349215e-01 1.069215906683e+07 4.519985701671e+06  1.065224039105e-01
9.800000000000e-01 2.266027255041e-08 0.000000000000e+00 -9.223808947835e+06 -1.071880367351e+02 -1.375311030691e+07 -9.210768069223e+06 -1.928620288271e-05 -1.648746237600e-06 -1.065458592721e-01 1.072922910799e+07 4.535835862279e+06  1.065362175182e-01
9.900000000000e-01 2.265931907352e-08 0.000000000000e+00 -9.255559516381e+06 -1.056905997824e+02 -1.380067471535e+07 -9.242494066459e+06 -1.930754389955e-05 -1.646140496486e-06 -1.065596150594e-01 1.076624276606e+07 4.551661991674e+06  1.065499626376e-01
1.000000000000e+00 2.265835330647e-08 0.000000000000e+00 -9.287250893024e+06 -1.041972641405e+02 -1.384815047844e+07 -9.274160928024e+06 -1.932876308284e-05 -1.643550808009e-06 -1.065732981296e-01 1.080318743316e+07 4.567458639545e+06  1.065636351008e-01
1.050000000000e+00 2.265461202657e-08 0.000000000000e+00 -9.443899857063e+06 -9.682642577884e+01 -1.408282123987e+07 -9.430688826892e+06 -1.943254909759e-05 -1.630890748258e-06 -1.066402855347e-01 1.098580330794e+07 4.645540989559e+06  1.066305706256e-01
1.100000000000e+00 2.264975369644e-08 0.000000000000e+00 -9.597587269955e+06 -8.950373234532e+01 -1.431305812536e+07 -9.584258535746e+06 -1.953180404770e-05 -1.618519697192e-06 -1.067049330071e-01 1.116496797702e+07 4.722149333199e+06  1.066951684827e-01
1.150000000000e+00 2.264570386059e-08 0.000000000000e+00 -9.751311560447e+06 -8.217106223607e+01 -1.454335164719e+07 -9.737865632328e+06 -1.962905510494e-05 -1.606329213455e-06 -1.067685665503e-01 1.134417627999e+07 4.798777180980e+06  1.067587534124e-01
1.200000000000e+00 2.264118194471e-08 0.000000000000e+00 -9.902802016244e+06 -7.488797939715e+01 -1.477030015088e+07 -9.889241171941e+06 -1.972293084378e-05 -1.594410129616e-06 -1.068302991469e-01 1.152078111302e+07 4.874292706467e+06  1.068204390828e-01
1.250000000000e+00 2.263707212889e-08 0.000000000000e+00 -1.005414819405e+07 -6.757251323551e+01 -1.499703377286e+07 -1.004047303435e+07 -1.981489548352e-05 -1.582620406860e-06 -1.068910351929e-01 1.169721833375e+07 4.949737328239e+06  1.068811291579e-01
1.300000000000e+00 2.263293970665e-08 0.000000000000e+00 -1.020426038311e+07 -6.029404611707e+01 -1.522192018916e+07 -1.019047240851e+07 -1.990429902161e-05 -1.571065525625e-06 -1.069503776874e-01 1.187221766026e+07 5.024567982856e+06  1.069404269618e-01