 TITLE = "Time curves in points"
 VARIABLES = "TIME"  "PRESSURE1"  "PRESSURE2"  "PRESSURE_W"  "SATURATION1" SATURATION2  "VELOCITY_X1"  "VELOCITY_Y1"  "VELOCITY_X2"  "VELOCITY_Y2"  p_(1st_Invariant)  q_(2nd_Invariant)   Effective_Strain
 ZONE T="POINT=POINT6"
0.000000000000e+00 8.400000000000e+07 1.000000000000e+05 -8.390000000000e+07 6.601393844892e-01 3.398606155108e-01 0.000000000000e+00 0.000000000000e+00 0.000000000000e+00 0.000000000000e+00 1.000000000000e+05 0.000000000000e+00  0.000000000000e+00
1.000000000000e-03 8.400003165785e+07 1.000000000000e+05 -8.390003165785e+07 6.601392579556e-01 3.398607420444e-01 -3.080786148164e-12 -2.941642478284e-11 3.229084286534e-18 -2.087827819770e-15 1.468409398482e+04 3.656165833530e+04  3.753663591584e-03
2.000000000000e-03 8.400003113087e+07 1.000000000000e+05 -8.390003113087e+07 6.601392603682e-01 3.398607396318e-01 -3.034378123772e-12 -2.926996827711e-11 6.448085711200e-18 -2.104668900355e-15 1.369338386191e+05 1.583066884627e+04  2.541465982941e-02
3.000000000000e-03 8.400003060559e+07 1.000000000000e+05 -8.390003060559e+07 6.601392627652e-01 3.398607372348e-01 -2.988220619149e-12 -2.914118100440e-11 9.640576643367e-18 -2.121526173875e-15 2.994520200258e+05 8.657246751161e+04  3.715784630254e-02
4.000000000000e-03 8.400003008207e+07 1.000000000000e+05 -8.390003008207e+07 6.601392651466e-01 3.398607348534e-01 -2.942314132560e-12 -2.902971870791e-11 1.279288644873e-17 -2.138406807326e-15 8.351958645652e+05 3.162483744489e+05  4.294141649972e-02
5.000000000000e-03 8.400002956035e+07 1.000000000000e+05 -8.390002956035e+07 6.601392675122e-01 3.398607324878e-01 -2.896657944530e-12 -2.893524011754e-11 1.592901083868e-17 -2.155291780815e-15 1.026517375718e+06 4.301989037657e+05  4.422773962821e-02
6.000000000000e-03 8.400002904050e+07 1.000000000000e+05 -8.390002904050e+07 6.601392698620e-01 3.398607301380e-01 -2.851252378630e-12 -2.885740845505e-11 1.903881943818e-17 -2.172173525604e-15 1.068398781517e+06 4.467228336819e+05  4.440849879063e-02
7.000000000000e-03 8.400002852256e+07 1.000000000000e+05 -8.390002852256e+07 6.601392721960e-01 3.398607278040e-01 -2.806097601450e-12 -2.879589085930e-11 2.212264204587e-17 -2.189044969162e-15 1.092544933481e+06 4.575326577164e+05  4.452104069813e-02
8.000000000000e-03 8.400002800659e+07 1.000000000000e+05 -8.390002800659e+07 6.601392745139e-01 3.398607254861e-01 -2.761194087794e-12 -2.875035796245e-11 2.517081936639e-17 -2.205918439833e-15 1.136149257165e+06 4.762156694229e+05  4.467738761707e-02
9.000000000000e-03 8.400002749262e+07 1.000000000000e+05 -8.390002749262e+07 6.601392768159e-01 3.398607231841e-01 -2.716541177690e-12 -2.872048410042e-11 2.819591712943e-17 -2.222807478427e-15 1.134463202252e+06 4.778319261898e+05  4.469081798651e-02
1.000000000000e-02 8.400002698072e+07 1.000000000000e+05 -8.390002698072e+07 6.601392791017e-01 3.398607208983e-01 -2.672139109014e-12 -2.870594818398e-11 3.118741745135e-17 -2.239710303577e-15 1.143273102134e+06 4.814540904007e+05  4.472052714981e-02
2.000000000000e-02 8.400002210690e+07 1.000000000000e+05 -8.390002210690e+07 6.601393003076e-01 3.398606996924e-01 -2.253086450088e-12 -2.980817988342e-11 5.857637371175e-17 -2.406093915454e-15 1.820782193000e+06 7.784163819188e+05  4.688576770194e-02
3.000000000000e-02 8.400001750969e+07 1.000000000000e+05 -8.390001750969e+07 6.601393198373e-01 3.398606801627e-01 -1.858826636827e-12 -3.190408637403e-11 8.362498900290e-17 -2.567730374056e-15 1.209695547725e+06 5.095270409125e+05  4.470540817969e-02
4.000000000000e-02 8.400001321334e+07 1.000000000000e+05 -8.390001321334e+07 6.601393376852e-01 3.398606623148e-01 -1.489144909867e-12 -3.476960327825e-11 1.064092939007e-16 -2.722943855259e-15 1.006909412997e+06 4.322615932015e+05  4.389342828662e-02
5.000000000000e-02 8.400000923595e+07 1.000000000000e+05 -8.390000923595e+07 6.601393538604e-01 3.398606461396e-01 -1.143740270331e-12 -3.820742816580e-11 1.269193940797e-16 -2.870523447521e-15 1.064076009725e+06 4.616563018058e+05  4.422939803442e-02
6.000000000000e-02 8.400000558996e+07 1.000000000000e+05 -8.390000558996e+07 6.601393683859e-01 3.398606316141e-01 -8.222617265896e-13 -4.204534338292e-11 1.453942529541e-16 -3.009704923155e-15 1.330531404924e+06 5.777835831472e+05  4.521627111751e-02
7.000000000000e-02 8.400000228298e+07 1.000000000000e+05 -8.390000228298e+07 6.601393812959e-01 3.398606187041e-01 -5.243009806032e-13 -4.613328551617e-11 1.619733671851e-16 -3.139239020701e-15 1.407808723687e+06 6.160195896052e+05  4.553799652177e-02
8.000000000000e-02 8.399999931819e+07 1.000000000000e+05 -8.389999931819e+07 6.601393926345e-01 3.398606073655e-01 -2.494094856140e-13 -5.034203453291e-11 1.766455985113e-16 -3.258573289866e-15 1.513084192946e+06 6.621705927219e+05  4.588196167267e-02
9.000000000000e-02 8.399999669506e+07 1.000000000000e+05 -8.389999669506e+07 6.601394024539e-01 3.398605975461e-01 2.908737730608e-15 -5.456092288838e-11 1.895828977150e-16 -3.367341851835e-15 1.611393874676e+06 7.056009749918e+05  4.618808877130e-02
1.000000000000e-01 8.399999440986e+07 1.000000000000e+05 -8.389999440986e+07 6.601394108130e-01 3.398605891870e-01 2.332110845892e-13 -5.869581999133e-11 2.008995411589e-16 -3.465165768577e-15 1.688714965387e+06 7.397722582812e+05  4.641199086343e-02
1.100000000000e-01 8.399999245595e+07 1.000000000000e+05 -8.389999245595e+07 6.601394177763e-01 3.398605822237e-01 4.420825295286e-13 -6.266815737242e-11 2.106972757779e-16 -3.552041655708e-15 1.754615165696e+06 7.704863589222e+05  4.663356619067e-02
1.200000000000e-01 8.399999082441e+07 1.000000000000e+05 -8.389999082441e+07 6.601394234126e-01 3.398605765874e-01 6.301337801512e-13 -6.641280079600e-11 2.190705389890e-16 -3.627719885742e-15 1.849633565932e+06 8.136325962230e+05  4.687936731113e-02
1.300000000000e-01 8.399998950429e+07 1.000000000000e+05 -8.389998950429e+07 6.601394277939e-01 3.398605722061e-01 7.980033736784e-13 -6.987700649358e-11 2.261103980807e-16 -3.692319733835e-15 1.920867867317e+06 8.448630930233e+05  4.708623165648e-02
1.400000000000e-01 8.399998848287e+07 1.000000000000e+05 -8.389998848287e+07 6.601394309951e-01 3.398605690049e-01 9.463674919739e-13 -7.301913069856e-11 2.319416242746e-16 -3.746153577389e-15 2.031316828597e+06 8.948602704029e+05  4.737390876493e-02
1.500000000000e-01 8.399998774622e+07 1.000000000000e+05 -8.389998774622e+07 6.601394330920e-01 3.398605669080e-01 1.075915755753e-12 -7.580713411293e-11 2.365794406872e-16 -3.789469562975e-15 2.147080636691e+06 9.480900304177e+05  4.762406477491e-02
1.600000000000e-01 8.399998727918e+07 1.000000000000e+05 -8.389998727918e+07 6.601394341620e-01 3.398605658380e-01 1.187356303182e-12 -7.821802254836e-11 2.401993111620e-16 -3.822500913301e-15 2.241326332568e+06 9.923807066455e+05  4.784459181994e-02
1.700000000000e-01 8.399998706573e+07 1.000000000000e+05 -8.389998706573e+07 6.601394342825e-01 3.398605657175e-01 1.281411633913e-12 -8.023657372547e-11 2.428141475152e-16 -3.845749497348e-15 2.348843099310e+06 1.042451878874e+06  4.808163641072e-02
1.800000000000e-01 8.399998708934e+07 1.000000000000e+05 -8.389998708934e+07 6.601394335306e-01 3.398605664694e-01 1.358831735181e-12 -8.185412649673e-11 2.444832894580e-16 -3.859546732548e-15 2.455277711779e+06 1.088393540020e+06  4.829263671738e-02
1.900000000000e-01 8.399998733293e+07 1.000000000000e+05 -8.389998733293e+07 6.601394319828e-01 3.398605680172e-01 1.420365348436e-12 -8.306832207620e-11 2.453219593326e-16 -3.864445121245e-15 2.572283651171e+06 1.143590583452e+06  4.853154556992e-02
2.000000000000e-01 8.399998777920e+07 1.000000000000e+05 -8.389998777920e+07 6.601394297142e-01 3.398605702858e-01 1.466766660831e-12 -8.388200589718e-11 2.454076547542e-16 -3.860992854105e-15 2.671587952732e+06 1.187153991398e+06  4.874286464487e-02
2.100000000000e-01 8.399998841081e+07 1.000000000000e+05 -8.389998841081e+07 6.601394267983e-01 3.398605732017e-01 1.498804819900e-12 -8.430235169024e-11 2.447942727919e-16 -3.849684122698e-15 2.785383294972e+06 1.235722924462e+06  4.895221800417e-02
2.200000000000e-01 8.399998921039e+07 1.000000000000e+05 -8.389998921039e+07 6.601394233069e-01 3.398605766931e-01 1.517244191082e-12 -8.434063058768e-11 2.435395166673e-16 -3.831068883893e-15 2.896914871348e+06 1.283850353583e+06  4.915658202489e-02
2.300000000000e-01 8.399999016078e+07 1.000000000000e+05 -8.389999016078e+07 6.601394193094e-01 3.398605806906e-01 1.522850902684e-12 -8.401132544685e-11 2.417123369595e-16 -3.805746804806e-15 3.015067894730e+06 1.336420042959e+06  4.935955796182e-02
2.400000000000e-01 8.399999124517e+07 1.000000000000e+05 -8.389999124517e+07 6.601394148725e-01 3.398605851275e-01 1.516388107492e-12 -8.333152401195e-11 2.393870652915e-16 -3.774342745395e-15 3.136238424331e+06 1.389568535305e+06  4.952693288420e-02
2.500000000000e-01 8.399999244702e+07 1.000000000000e+05 -8.389999244702e+07 6.601394100608e-01 3.398605899392e-01 1.498617881440e-12 -8.232071628579e-11 2.366055932171e-16 -3.737343153866e-15 3.231752491754e+06 1.440786142622e+06  4.968646783908e-02
2.600000000000e-01 8.399999375025e+07 1.000000000000e+05 -8.389999375025e+07 6.601394049358e-01 3.398605950642e-01 1.470289501184e-12 -8.100025868867e-11 2.334096938555e-16 -3.695409710277e-15 3.319400869496e+06 1.478056697367e+06  4.981943433212e-02
2.700000000000e-01 8.399999513933e+07 1.000000000000e+05 -8.389999513933e+07 6.601393995561e-01 3.398606004439e-01 1.432146290892e-12 -7.939288631058e-11 2.298432680552e-16 -3.649045357324e-15 3.401695607694e+06 1.507617816624e+06  4.993310521574e-02
2.800000000000e-01 8.399999659933e+07 1.000000000000e+05 -8.389999659933e+07 6.601393939774e-01 3.398606060226e-01 1.384928211204e-12 -7.752225427522e-11 2.260109558934e-16 -3.598773200784e-15 3.499878756264e+06 1.550822257231e+06  5.009044956328e-02
2.900000000000e-01 8.399999811585e+07 1.000000000000e+05 -8.389999811585e+07 6.601393882523e-01 3.398606117477e-01 1.329358477543e-12 -7.541302462366e-11 2.219008358496e-16 -3.545212858591e-15 3.608278221614e+06 1.598944170417e+06  5.024339895346e-02
3.000000000000e-01 8.399999967516e+07 1.000000000000e+05 -8.389999967516e+07 6.601393824307e-01 3.398606175693e-01 1.266147215840e-12 -7.309026080770e-11 2.175560294317e-16 -3.488922324186e-15 3.725902153023e+06 1.652050153599e+06  5.039651898976e-02
3.100000000000e-01 8.400000126430e+07 1.000000000000e+05 -8.390000126430e+07 6.601393765587e-01 3.398606234413e-01 1.195993361276e-12 -7.057911461613e-11 2.130543362519e-16 -3.430431318924e-15 3.855325699918e+06 1.712283161375e+06  5.053035379544e-02
3.200000000000e-01 8.400000287096e+07 1.000000000000e+05 -8.390000287096e+07 6.601393706797e-01 3.398606293203e-01 1.119579842881e-12 -6.790474142311e-11 2.084260052840e-16 -3.370166009899e-15 3.925827324477e+06 1.745746534769e+06  5.063582246080e-02
3.300000000000e-01 8.400000448355e+07 1.000000000000e+05 -8.390000448355e+07 6.601393648340e-01 3.398606351660e-01 1.037573532746e-12 -6.509217650533e-11 2.037161392154e-16 -3.308590163046e-15 4.045271592736e+06 1.797404054755e+06  5.077142815267e-02
3.400000000000e-01 8.400000609117e+07 1.000000000000e+05 -8.390000609117e+07 6.601393590590e-01 3.398606409410e-01 9.506240486328e-13 -6.216608305469e-11 1.989220881960e-16 -3.246241193762e-15 4.150939694601e+06 1.844984454962e+06  5.089619812570e-02
3.500000000000e-01 8.400000768375e+07 1.000000000000e+05 -8.390000768375e+07 6.601393533886e-01 3.398606466114e-01 8.593635936946e-13 -5.915041513449e-11 1.940995407625e-16 -3.183522934033e-15 4.246351602501e+06 1.882442766990e+06  5.100559941183e-02
3.600000000000e-01 8.400000925197e+07 1.000000000000e+05 -8.390000925197e+07 6.601393478541e-01 3.398606521459e-01 7.644047636511e-13 -5.606844477076e-11 1.893194688541e-16 -3.120764208236e-15 4.372802194676e+06 1.930268003122e+06  5.111272449609e-02
3.700000000000e-01 8.400001078720e+07 1.000000000000e+05 -8.390001078720e+07 6.601393424837e-01 3.398606575163e-01 6.663358887731e-13 -5.294274202029e-11 1.845234918221e-16 -3.058429527769e-15 4.469328003315e+06 1.969106154983e+06  5.120473147271e-02
3.800000000000e-01 8.400001228149e+07 1.000000000000e+05 -8.390001228149e+07 6.601393373030e-01 3.398606626970e-01 5.657342044573e-13 -4.979502122292e-11 1.798205594594e-16 -2.996923690026e-15 4.594118821938e+06 2.023810943324e+06  5.131814834372e-02
3.900000000000e-01 8.400001372764e+07 1.000000000000e+05 -8.390001372764e+07 6.601393323351e-01 3.398606676649e-01 4.631508405178e-13 -4.664599414272e-11 1.751661811740e-16 -2.936540009759e-15 4.689547249070e+06 2.067580807301e+06  5.141954609686e-02
4.000000000000e-01 8.400001511923e+07 1.000000000000e+05 -8.390001511923e+07 6.601393275997e-01 3.398606724003e-01 3.591191709948e-13 -4.351519173399e-11 1.706374409369e-16 -2.877574362999e-15 4.788362927961e+06 2.112060433938e+06  5.152650477575e-02
4.100000000000e-01 8.400001645044e+07 1.000000000000e+05 -8.390001645044e+07 6.601393231146e-01 3.398606768854e-01 2.541450332444e-13 -4.042119152416e-11 1.661941953954e-16 -2.820300526744e-15 4.892147990778e+06 2.154390768352e+06  5.162089644139e-02
4.200000000000e-01 8.400001771613e+07 1.000000000000e+05 -8.390001771613e+07 6.601393188949e-01 3.398606811051e-01 1.487165297115e-13 -3.738144175608e-11 1.618780146853e-16 -2.765017985880e-15 5.003043960921e+06 2.200359716659e+06  5.170919502578e-02
4.300000000000e-01 8.400001891175e+07 1.000000000000e+05 -8.390001891175e+07 6.601393149537e-01 3.398606850463e-01 4.330359840040e-14 -3.441232693668e-11 1.577571788303e-16 -2.712039273202e-15 5.102512027179e+06 2.247678507662e+06  5.179666760420e-02
4.400000000000e-01 8.400002003344e+07 1.000000000000e+05 -8.390002003344e+07 6.601393113017e-01 3.398606886983e-01 -6.164992495641e-14 -3.152892066222e-11 1.537884570622e-16 -2.661475180493e-15 5.196126649344e+06 2.287750497611e+06  5.186937323764e-02
4.500000000000e-01 8.400002107796e+07 1.000000000000e+05 -8.390002107796e+07 6.601393079471e-01 3.398606920529e-01 -1.657233645141e-13 -2.874505176239e-11 1.500049505729e-16 -2.613511757713e-15 5.284318673759e+06 2.326196516388e+06  5.193791001903e-02
4.600000000000e-01 8.400002204264e+07 1.000000000000e+05 -8.390002204264e+07 6.601393048965e-01 3.398606951035e-01 -2.685193019551e-13 -2.607342673001e-11 1.464186430114e-16 -2.568341421746e-15 5.376102943121e+06 2.366113298642e+06  5.200786855007e-02
4.700000000000e-01 8.400002292535e+07 1.000000000000e+05 -8.390002292535e+07 6.601393021542e-01 3.398606978458e-01 -3.696601303443e-13 -2.352557234260e-11 1.430769048791e-16 -2.526153060832e-15 5.467442207351e+06 2.405839408436e+06  5.207631567290e-02
4.800000000000e-01 8.400002372449e+07 1.000000000000e+05 -8.390002372449e+07 6.601392997230e-01 3.398607002770e-01 -4.687946970965e-13 -2.111181357643e-11 1.399074364251e-16 -2.487033264309e-15 5.557808925983e+06 2.445135201294e+06  5.214290394531e-02
4.900000000000e-01 8.400002443891e+07 1.000000000000e+05 -8.390002443891e+07 6.601392976041e-01 3.398607023959e-01 -5.655845287347e-13 -1.884136511692e-11 1.369503444094e-16 -2.451100599701e-15 5.652517147397e+06 2.486312947448e+06  5.221153033346e-02
5.000000000000e-01 8.400002506803e+07 1.000000000000e+05 -8.390002506803e+07 6.601392957967e-01 3.398607042033e-01 -6.597180681236e-13 -1.672219451475e-11 1.342474479080e-16 -2.418475018103e-15 5.744678229439e+06 2.526376435585e+06  5.227720269562e-02
5.100000000000e-01 8.400002561165e+07 1.000000000000e+05 -8.390002561165e+07 6.601392942987e-01 3.398607057013e-01 -7.509080313292e-13 -1.476122846874e-11 1.317810048204e-16 -2.389203920975e-15 5.839990207397e+06 2.567803860958e+06  5.234401232764e-02
5.200000000000e-01 8.400002607002e+07 1.000000000000e+05 -8.390002607002e+07 6.601392931067e-01 3.398607068933e-01 -8.388893807964e-13 -1.296431947139e-11 1.295180710109e-16 -2.363371231149e-15 5.930595645016e+06 2.607179407779e+06  5.240650693995e-02
5.300000000000e-01 8.400002644377e+07 1.000000000000e+05 -8.390002644377e+07 6.601392922160e-01 3.398607077840e-01 -9.234143799606e-13 -1.133625910998e-11 1.275227330819e-16 -2.340955004007e-15 6.024479217447e+06 2.647974425287e+06  5.247025580097e-02
5.400000000000e-01 8.400002673388e+07 1.000000000000e+05 -8.390002673388e+07 6.601392916206e-01 3.398607083794e-01 -1.004255905821e-12 -9.880845576258e-12 1.258076783101e-16 -2.322041447998e-15 6.116079113170e+06 2.687771149862e+06  5.253149275986e-02
5.500000000000e-01 8.400002694164e+07 1.000000000000e+05 -8.390002694164e+07 6.601392913137e-01 3.398607086863e-01 -1.081205057700e-12 -8.600908274337e-12 1.243210307690e-16 -2.306606233726e-15 6.211910920810e+06 2.729401399877e+06  5.259457801046e-02
5.600000000000e-01 8.400002706868e+07 1.000000000000e+05 -8.390002706868e+07 6.601392912874e-01 3.398607087126e-01 -1.154075041733e-12 -7.498404382648e-12 1.230791803113e-16 -2.294602611715e-15 6.305005581773e+06 2.769836560680e+06  5.265492552341e-02
5.700000000000e-01 8.400002711693e+07 1.000000000000e+05 -8.390002711693e+07 6.601392915328e-01 3.398607084672e-01 -1.222698942610e-12 -6.574318777892e-12 1.221068212629e-16 -2.286030054778e-15 6.397950235957e+06 2.810201665292e+06  5.271428538909e-02
5.800000000000e-01 8.400002708861e+07 1.000000000000e+05 -8.390002708861e+07 6.601392920403e-01 3.398607079597e-01 -1.286931243557e-12 -5.828789681909e-12 1.213670122520e-16 -2.280849779442e-15 6.491544363722e+06 2.850844110137e+06  5.277318764842e-02
5.900000000000e-01 8.400002698615e+07 1.000000000000e+05 -8.390002698615e+07 6.601392927993e-01 3.398607072007e-01 -1.346643565487e-12 -5.261165521972e-12 1.208603724456e-16 -2.278999525699e-15 6.586114388982e+06 2.891904735578e+06  5.283183939241e-02
6.000000000000e-01 8.400002681222e+07 1.000000000000e+05 -8.390002681222e+07 6.601392937989e-01 3.398607062011e-01 -1.401727458142e-12 -4.870048113750e-12 1.205923638158e-16 -2.280463889182e-15 6.676308778601e+06 2.931060955521e+06  5.288698954299e-02
6.100000000000e-01 8.400002656964e+07 1.000000000000e+05 -8.390002656964e+07 6.601392950275e-01 3.398607049725e-01 -1.452084515440e-12 -4.653328655962e-12 1.205717435863e-16 -2.285135461691e-15 6.770816261154e+06 2.972085355497e+06  5.294397814091e-02
6.200000000000e-01 8.400002626145e+07 1.000000000000e+05 -8.390002626145e+07 6.601392964731e-01 3.398607035269e-01 -1.497639412781e-12 -4.608206705415e-12 1.207942979207e-16 -2.292902939967e-15 6.864638229885e+06 3.012807053129e+06  5.299976408863e-02
6.300000000000e-01 8.400002589082e+07 1.000000000000e+05 -8.390002589082e+07 6.601392981232e-01 3.398607018768e-01 -1.538333438777e-12 -4.731272599202e-12 1.212508578909e-16 -2.303742568272e-15 6.957509294887e+06 3.053111596827e+06  5.305423191310e-02
6.400000000000e-01 8.400002546106e+07 1.000000000000e+05 -8.390002546106e+07 6.601392999650e-01 3.398607000350e-01 -1.574122675960e-12 -5.018558528126e-12 1.219308433522e-16 -2.317493670520e-15 7.049998283109e+06 3.093246142388e+06  5.310775160517e-02
6.500000000000e-01 8.400002497558e+07 1.000000000000e+05 -8.390002497558e+07 6.601393019853e-01 3.398606980147e-01 -1.604979254168e-12 -5.465541576580e-12 1.228203633541e-16 -2.334107929190e-15 7.143937935073e+06 3.134005867680e+06  5.316139097893e-02
6.600000000000e-01 8.400002443791e+07 1.000000000000e+05 -8.390002443791e+07 6.601393041709e-01 3.398606958291e-01 -1.630889866090e-12 -6.067208197709e-12 1.239183087453e-16 -2.353432577250e-15 7.231844388782e+06 3.172143418680e+06  5.321094261314e-02
6.700000000000e-01 8.400002385164e+07 1.000000000000e+05 -8.390002385164e+07 6.601393065084e-01 3.398606934916e-01 -1.651854051711e-12 -6.818121781963e-12 1.252455224706e-16 -2.375401940410e-15 7.323742687192e+06 3.212009581492e+06  5.326210101409e-02
6.800000000000e-01 8.400002322033e+07 1.000000000000e+05 -8.390002322033e+07 6.601393089844e-01 3.398606910156e-01 -1.667883182030e-12 -7.712540914060e-12 1.267581815229e-16 -2.399871236620e-15 7.415716328094e+06 3.251904190006e+06  5.331265683622e-02
6.900000000000e-01 8.400002254769e+07 1.000000000000e+05 -8.390002254769e+07 6.601393115853e-01 3.398606884147e-01 -1.679005914009e-12 -8.744227614976e-12 1.284697676562e-16 -2.426692973150e-15 7.505752396708e+06 3.290954795377e+06  5.336153855087e-02
7.000000000000e-01 8.400002183747e+07 1.000000000000e+05 -8.390002183747e+07 6.601393142976e-01 3.398606857024e-01 -1.685262086790e-12 -9.906618939225e-12 1.303884319603e-16 -2.455716798541e-15 7.596543959185e+06 3.330329313487e+06  5.341023537093e-02
7.100000000000e-01 8.400002109339e+07 1.000000000000e+05 -8.390002109339e+07 6.601393171076e-01 3.398606828924e-01 -1.686704786959e-12 -1.119287658161e-11 1.324669015659e-16 -2.486870067584e-15 7.684589734618e+06 3.368509686257e+06  5.345690165878e-02
7.200000000000e-01 8.400002031920e+07 1.000000000000e+05 -8.390002031920e+07 6.601393200019e-01 3.398606799981e-01 -1.683395868499e-12 -1.259591721248e-11 1.347233062034e-16 -2.519948058236e-15 7.770797653339e+06 3.405889739897e+06  5.350207387007e-02
7.300000000000e-01 8.400001951862e+07 1.000000000000e+05 -8.390001951862e+07 6.601393229674e-01 3.398606770326e-01 -1.675408978070e-12 -1.410845948894e-11 1.371299122494e-16 -2.554880609546e-15 7.858071960132e+06 3.443729333452e+06  5.354729375375e-02
7.400000000000e-01 8.400001869534e+07 1.000000000000e+05 -8.390001869534e+07 6.601393259908e-01 3.398606740092e-01 -1.662828251317e-12 -1.572306594884e-11 1.397010202817e-16 -2.591487860486e-15 7.942664327422e+06 3.480402391826e+06  5.359064199746e-02
7.500000000000e-01 8.400001785298e+07 1.000000000000e+05 -8.390001785298e+07 6.601393290594e-01 3.398606709406e-01 -1.645743966166e-12 -1.743216813716e-11 1.424305558955e-16 -2.629650073832e-15 8.026136577025e+06 3.516587553191e+06  5.363296287587e-02
7.600000000000e-01 8.400001699517e+07 1.000000000000e+05 -8.390001699517e+07 6.601393321605e-01 3.398606678395e-01 -1.624259372608e-12 -1.922805559825e-11 1.452608967582e-16 -2.669213274927e-15 8.108987316512e+06 3.552500462138e+06  5.367453198284e-02
7.700000000000e-01 8.400001612544e+07 1.000000000000e+05 -8.390001612544e+07 6.601393352820e-01 3.398606647180e-01 -1.598485492637e-12 -2.110294929651e-11 1.482188173021e-16 -2.710041627056e-15 8.190619629287e+06 3.587882615297e+06  5.371507297524e-02
7.800000000000e-01 8.400001524729e+07 1.000000000000e+05 -8.390001524729e+07 6.601393384116e-01 3.398606615884e-01 -1.568539292096e-12 -2.304902029224e-11 1.513326133925e-16 -2.751970088756e-15 8.270698150270e+06 3.622588821793e+06  5.375444829514e-02
7.900000000000e-01 8.400001436409e+07 1.000000000000e+05 -8.390001436409e+07 6.601393415379e-01 3.398606584621e-01 -1.534546830406e-12 -2.505848805172e-11 1.545487013907e-16 -2.794873388355e-15 8.350395728701e+06 3.657127543133e+06  5.379325663126e-02
8.000000000000e-01 8.400001347914e+07 1.000000000000e+05 -8.390001347914e+07 6.601393446495e-01 3.398606553505e-01 -1.496638913830e-12 -2.712353798923e-11 1.578814105141e-16 -2.838632958498e-15 8.428763331925e+06 3.691087372657e+06  5.383105461927e-02
8.100000000000e-01 8.400001259570e+07 1.000000000000e+05 -8.390001259570e+07 6.601393477355e-01 3.398606522645e-01 -1.454954790385e-12 -2.923634587052e-11 1.612972008941e-16 -2.883100462505e-15 8.505709484645e+06 3.724429432209e+06  5.386782423208e-02
8.200000000000e-01 8.400001171690e+07 1.000000000000e+05 -8.390001171690e+07 6.601393507853e-01 3.398606492147e-01 -1.409638612018e-12 -3.138915053420e-11 1.647831370151e-16 -2.928183824527e-15 8.582529965235e+06 3.757714978236e+06  5.390420101900e-02
8.300000000000e-01 8.400001084577e+07 1.000000000000e+05 -8.390001084577e+07 6.601393537887e-01 3.398606462113e-01 -1.360837659781e-12 -3.357431129150e-11 1.683491217666e-16 -2.973709608633e-15 8.658629270808e+06 3.790685913798e+06  5.393991409855e-02
8.400000000000e-01 8.400000998524e+07 1.000000000000e+05 -8.390000998524e+07 6.601393567362e-01 3.398606432638e-01 -1.308704097950e-12 -3.578425779487e-11 1.719800227007e-16 -3.019518127435e-15 8.733680680466e+06 3.823200417677e+06  5.397482638836e-02
8.500000000000e-01 8.400000913812e+07 1.000000000000e+05 -8.390000913812e+07 6.601393596182e-01 3.398606403818e-01 -1.253395753300e-12 -3.801152345202e-11 1.756584488913e-16 -3.065560032395e-15 8.808294430952e+06 3.855523676974e+06  5.400923699993e-02
8.600000000000e-01 8.400000830715e+07 1.000000000000e+05 -8.390000830715e+07 6.601393624260e-01 3.398606375740e-01 -1.195077057356e-12 -4.024878940316e-11 1.794001554656e-16 -3.111651768836e-15 8.881743760737e+06 3.887340578797e+06  5.404282474047e-02
8.700000000000e-01 8.400000749491e+07 1.000000000000e+05 -8.390000749491e+07 6.601393651511e-01 3.398606348489e-01 -1.133913105557e-12 -4.248889899839e-11 1.831881587103e-16 -3.157677923439e-15 8.954543674693e+06 3.918874497996e+06  5.407584056519e-02
8.800000000000e-01 8.400000670386e+07 1.000000000000e+05 -8.390000670386e+07 6.601393677856e-01 3.398606322144e-01 -1.070074537357e-12 -4.472486070446e-11 1.869898814104e-16 -3.203521995252e-15 9.025849564711e+06 3.949759475800e+06  5.410791745708e-02
8.900000000000e-01 8.400000593635e+07 1.000000000000e+05 -8.390000593635e+07 6.601393703219e-01 3.398606296781e-01 -1.003729064946e-12 -4.694985906211e-11 1.908517297140e-16 -3.249037944085e-15 9.097647513694e+06 3.980855196993e+06  5.413995816220e-02
9.000000000000e-01 8.400000519458e+07 1.000000000000e+05 -8.390000519458e+07 6.601393727531e-01 3.398606272469e-01 -9.350509430648e-13 -4.915729134468e-11 1.946994811960e-16 -3.294146439086e-15 9.168462967035e+06 4.011525376078e+06  5.417131341036e-02
9.100000000000e-01 8.400000448061e+07 1.000000000000e+05 -8.390000448061e+07 6.601393750728e-01 3.398606249272e-01 -8.642105688043e-13 -5.134082463486e-11 1.985594259940e-16 -3.338783149250e-15 9.239011044454e+06 4.042077201760e+06  5.420230764601e-02
9.200000000000e-01 8.400000379636e+07 1.000000000000e+05 -8.390000379636e+07 6.601393772749e-01 3.398606227251e-01 -7.913795453936e-13 -5.349429216049e-11 2.024547735520e-16 -3.382773635239e-15 9.309286343707e+06 4.072509496846e+06  5.423294608185e-02
9.300000000000e-01 8.400000314370e+07 1.000000000000e+05 -8.390000314370e+07 6.601393793539e-01 3.398606206461e-01 -7.167339089218e-13 -5.561172193221e-11 2.063333211017e-16 -3.426104775751e-15 9.379167627664e+06 4.102769600863e+06  5.426318253020e-02
9.400000000000e-01 8.400000252434e+07 1.000000000000e+05 -8.390000252434e+07 6.601393813045e-01 3.398606186955e-01 -6.404477963609e-13 -5.768733445610e-11 2.101991435415e-16 -3.468585924409e-15 9.448632415575e+06 4.132847878978e+06  5.429301470611e-02
9.500000000000e-01 8.400000193987e+07 1.000000000000e+05 -8.390000193987e+07 6.601393831219e-01 3.398606168781e-01 -5.626962248637e-13 -5.971563882758e-11 2.140477716635e-16 -3.510243323972e-15 9.517628278175e+06 4.162721673345e+06  5.432242761406e-02
9.600000000000e-01 8.400000139176e+07 1.000000000000e+05 -8.390000139176e+07 6.601393848019e-01 3.398606151981e-01 -4.836555687879e-13 -6.169139908335e-11 2.178437604481e-16 -3.550926152103e-15 9.585686872399e+06 4.192188332551e+06  5.435123132479e-02
9.700000000000e-01 8.400000088132e+07 1.000000000000e+05 -8.390000088132e+07 6.601393863406e-01 3.398606136594e-01 -4.034997137175e-13 -6.360963539566e-11 2.216237741715e-16 -3.590497674869e-15 9.653611603316e+06 4.221595753251e+06  5.437977385175e-02
9.800000000000e-01 8.400000040976e+07 1.000000000000e+05 -8.390000040976e+07 6.601393877348e-01 3.398606122652e-01 -3.224031231627e-13 -6.546563583548e-11 2.253542415437e-16 -3.628956038525e-15 9.720878520928e+06 4.250716790731e+06  5.440784103525e-02
9.900000000000e-01 8.399999997812e+07 1.000000000000e+05 -8.389999997812e+07 6.601393889814e-01 3.398606110186e-01 -2.405378340374e-13 -6.725495399633e-11 2.290681806596e-16 -3.666200054738e-15 9.787557060299e+06 4.279582032727e+06  5.443547051877e-02
1.000000000000e+00 8.399999958735e+07 1.000000000000e+05 -8.389999958735e+07 6.601393900782e-01 3.398606099218e-01 -1.580741055502e-13 -6.897341879299e-11 2.327218922769e-16 -3.702226292941e-15 9.852877847602e+06 4.307858130709e+06  5.446235395962e-02
1.050000000000e+00 8.399999870126e+07 1.000000000000e+05 -8.389999870126e+07 6.601393917512e-01 3.398606082488e-01 2.498265872435e-13 -7.544010257496e-11 2.490578830087e-16 -3.845133357078e-15 1.036372597303e+07 4.528535333401e+06  5.462662126563e-02
1.100000000000e+00 8.399999887125e+07 1.000000000000e+05 -8.389999887125e+07 6.601393897405e-01 3.398606102595e-01 6.360738914931e-13 -7.957816753474e-11 2.630040708839e-16 -3.948284481345e-15 1.031928632456e+07 4.548468482947e+06  5.464450389519e-02
1.150000000000e+00 8.400000003473e+07 1.000000000000e+05 -8.390000003473e+07 6.601393843388e-01 3.398606156612e-01 9.860603450489e-13 -8.132618789234e-11 2.741958370725e-16 -4.010987305607e-15 1.076848206722e+07 4.740043218251e+06  5.486251945627e-02
1.200000000000e+00 8.400000208969e+07 1.000000000000e+05 -8.390000208969e+07 6.601393759622e-01 3.398606240378e-01 1.287993257655e-12 -8.074416779358e-11 2.826068198054e-16 -4.034532145196e-15 1.093551669771e+07 4.811061936621e+06  5.492364285924e-02
1.250000000000e+00 8.400000490553e+07 1.000000000000e+05 -8.390000490553e+07 6.601393651123e-01 3.398606348877e-01 1.532942150871e-12 -7.799201877272e-11 2.881887750755e-16 -4.021820642372e-15 1.119209098392e+07 4.922513045029e+06  5.504777097640e-02
1.300000000000e+00 8.400000833150e+07 1.000000000000e+05 -8.390000833150e+07 6.601393523468e-01 3.398606476532e-01 1.714818002642e-12 -7.331077075583e-11 2.908709653655e-16 -3.977164437402e-15 1.147490074327e+07 5.042413636201e+06  5.516224426258e-02
1.350000000000e+00 8.400001220702e+07 1.000000000000e+05 -8.390001220702e+07 6.601393382445e-01 3.398606617555e-01 1.830236253467e-12 -6.699868992421e-11 2.907175851066e-16 -3.905443266532e-15 1.170802103347e+07 5.146015203021e+06  5.526584119143e-02
1.400000000000e+00 8.400001636827e+07 1.000000000000e+05 -8.390001636827e+07 6.601393233835e-01 3.398606766165e-01 1.878347072375e-12 -5.939369288436e-11 2.880915074579e-16 -3.812172544496e-15 1.194037530665e+07 5.244783359396e+06  5.536476614036e-02