 TITLE = "Profiles along polylines"
 VARIABLES = "DIST" "DISPLACEMENT_X1" "DISPLACEMENT_Y1" "STRESS_XX" "STRESS_XY" "STRESS_YY" "STRESS_ZZ" "STRAIN_XX" "STRAIN_XY" "STRAIN_YY"  p_(1st_Invariant)  q_(2nd_Invariant)   Effective_Strain
 ZONE T="TIME=0.000000000000e+00"
0.000000000000e+00 0.000000000000e+00 0.000000000000e+00 -1.000000000000e+05 0.000000000000e+00 -1.000000000000e+05 -1.000000000000e+05 0.000000000000e+00 0.000000000000e+00 0.000000000000e+00 1.000000000000e+05 0.000000000000e+00  0.000000000000e+00
5.000000000000e-03 0.000000000000e+00 0.000000000000e+00 -1.000000000000e+05 0.000000000000e+00 -1.000000000000e+05 -1.000000000000e+05 0.000000000000e+00 0.000000000000e+00 0.000000000000e+00 1.000000000000e+05 0.000000000000e+00  0.000000000000e+00
1.000000000000e-02 0.000000000000e+00 0.000000000000e+00 -1.000000000000e+05 0.000000000000e+00 -1.000000000000e+05 -1.000000000000e+05 0.000000000000e+00 0.000000000000e+00 0.000000000000e+00 1.000000000000e+05 0.000000000000e+00  0.000000000000e+00
1.500000000000e-02 0.000000000000e+00 0.000000000000e+00 -1.000000000000e+05 0.000000000000e+00 -1.000000000000e+05 -1.000000000000e+05 0.000000000000e+00 0.000000000000e+00 0.000000000000e+00 1.000000000000e+05 0.000000000000e+00  0.000000000000e+00
2.000000000000e-02 0.000000000000e+00 0.000000000000e+00 -1.000000000000e+05 0.000000000000e+00 -1.000000000000e+05 -1.000000000000e+05 0.000000000000e+00 0.000000000000e+00 0.000000000000e+00 1.000000000000e+05 0.000000000000e+00  0.000000000000e+00
2.500000000000e-02 0.000000000000e+00 0.000000000000e+00 -1.000000000000e+05 0.000000000000e+00 -1.000000000000e+05 -1.000000000000e+05 0.000000000000e+00 0.000000000000e+00 0.000000000000e+00 1.000000000000e+05 0.000000000000e+00  0.000000000000e+00
3.000000000000e-02 0.000000000000e+00 0.000000000000e+00 -1.000000000000e+05 0.000000000000e+00 -1.000000000000e+05 -1.000000000000e+05 0.000000000000e+00 0.000000000000e+00 0.000000000000e+00 1.000000000000e+05 0.000000000000e+00  0.000000000000e+00
3.500000000000e-02 0.000000000000e+00 0.000000000000e+00 -1.000000000000e+05 0.000000000000e+00 -1.000000000000e+05 -1.000000000000e+05 0.000000000000e+00 0.000000000000e+00 0.000000000000e+00 1.000000000000e+05 0.000000000000e+00  0.000000000000e+00
4.000000000000e-02 0.000000000000e+00 0.000000000000e+00 -1.000000000000e+05 0.000000000000e+00 -1.000000000000e+05 -1.000000000000e+05 0.000000000000e+00 0.000000000000e+00 0.000000000000e+00 1.000000000000e+05 0.000000000000e+00  0.000000000000e+00
4.500000000000e-02 0.000000000000e+00 0.000000000000e+00 -1.000000000000e+05 0.000000000000e+00 -1.000000000000e+05 -1.000000000000e+05 0.000000000000e+00 0.000000000000e+00 0.000000000000e+00 1.000000000000e+05 0.000000000000e+00  0.000000000000e+00
5.000000000000e-02 0.000000000000e+00 0.000000000000e+00 -1.000000000000e+05 0.000000000000e+00 -1.000000000000e+05 -1.000000000000e+05 0.000000000000e+00 0.000000000000e+00 0.000000000000e+00 1.000000000000e+05 0.000000000000e+00  0.000000000000e+00
 TITLE = "Profiles along polylines"
 VARIABLES = "DIST" "DISPLACEMENT_X1" "DISPLACEMENT_Y1" "STRESS_XX" "STRESS_XY" "STRESS_YY" "STRESS_ZZ" "STRAIN_XX" "STRAIN_XY" "STRAIN_YY"  p_(1st_Invariant)  q_(2nd_Invariant)   Effective_Strain
 ZONE T="TIME=1.000000000000e-02"
0.000000000000e+00 0.000000000000e+00 0.000000000000e+00 -9.703054469685e+05 1.362064056708e+02 -1.341004220005e+06 -9.445238598281e+05 -5.681910281736e-04 5.696478881075e-05 -4.400352583982e-02 1.085277842267e+06 3.842388956661e+05  4.372231070919e-02
5.000000000000e-03 0.000000000000e+00 2.230275299208e-04 -9.682467803165e+05 -3.170737254889e+03 -1.339483215348e+06 -9.430920117975e+05 -8.199258904223e-04 2.552232036437e-04 -4.525499499741e-02 1.083607335821e+06 3.844707796277e+05  4.485283185333e-02
1.000000000000e-02 0.000000000000e+00 4.466036305492e-04 -9.732654200054e+05 -4.518360350990e+03 -1.369258847679e+06 -9.570096482235e+05 -5.525439166652e-04 -5.488954723325e-04 -4.385498122237e-02 1.099844638636e+06 4.044421718928e+05  4.359170492677e-02
1.500000000000e-02 0.000000000000e+00 6.640019745247e-04 -9.566231257799e+05 1.527062881654e+04 -1.337233291186e+06 -9.375428489826e+05 -5.555874917843e-04 1.113557584659e-03 -4.179397568530e-02 1.077133088649e+06 3.913947861100e+05  4.156374504788e-02
2.000000000000e-02 0.000000000000e+00 8.905610085714e-04 -9.020081081505e+05 -5.342217666268e+04 -1.346479575047e+06 -9.193945348683e+05 8.247664984523e-04 -4.018857185477e-03 -4.678622027127e-02 1.055960739355e+06 4.457478984923e+05  4.771448410441e-02
2.500000000000e-02 0.000000000000e+00 1.095854608787e-03 -8.790785316161e+05 7.512650613443e+04 -1.702077467292e+06 -1.052461664275e+06 7.240649679637e-03 3.878182819323e-03 -4.950089446693e-02 1.211205887728e+06 7.626446098572e+05  5.391015769234e-02
3.000000000000e-02 0.000000000000e+00 1.309039012672e-03 -1.143664891122e+06 4.637049715054e+04 -1.681422286594e+06 -1.150043401721e+06 -5.379604530328e-03 7.114445253625e-03 -3.082337604864e-02 1.325043526479e+06 5.405962259888e+05  3.106523903510e-02
3.500000000000e-02 0.000000000000e+00 1.635941762633e-03 -1.225702597750e+06 -4.077686851429e+04 -2.176793733824e+06 -1.382417332502e+06 1.625845848806e-02 -4.676505648784e-02 -9.083897404072e-02 1.594971221359e+06 8.860429566953e+05  1.286618431807e-01
4.000000000000e-02 0.000000000000e+00 9.398113890460e-04 -2.446065611133e+06 3.224593083318e+06 8.328453159317e+06 2.374830284456e+06 -2.128541933849e-01 2.816708718692e-01 6.018185410180e-01 -2.752405944214e+06 1.088955739745e+07  8.795496030616e-01
4.500000000000e-02 0.000000000000e+00 1.459323220417e-04 -1.823367691417e+07 4.222430885378e+06 -2.084058122063e+07 -1.494238231369e+07 -1.681498537539e+00 7.247953738011e-01 -1.379678094588e+00 1.800554681616e+07 8.927229582765e+06  1.996749177979e+00
5.000000000000e-02 0.000000000000e+00 0.000000000000e+00 -3.627110926270e+07 -8.786230666931e+06 6.211755129931e+07 6.272683378020e+06 -8.402570616376e-01 -1.593863604852e-01 2.360532981090e+00 -1.070637513821e+07 8.681053849788e+07  2.887527389785e+00
 TITLE = "Profiles along polylines"
 VARIABLES = "DIST" "DISPLACEMENT_X1" "DISPLACEMENT_Y1" "STRESS_XX" "STRESS_XY" "STRESS_YY" "STRESS_ZZ" "STRAIN_XX" "STRAIN_XY" "STRAIN_YY"  p_(1st_Invariant)  q_(2nd_Invariant)   Effective_Strain
 ZONE T="TIME=1.000000000000e-01"
0.000000000000e+00 0.000000000000e+00 0.000000000000e+00 -1.406007856332e+06 -7.234072244551e+02 -1.950970732439e+06 -1.362791271054e+06 -7.458836707619e-04 4.290556255019e-05 -4.568328190133e-02 1.573256619942e+06 5.678073741506e+05  4.531500520127e-02
5.000000000000e-03 0.000000000000e+00 2.313446674615e-04 -1.412644048725e+06 -1.329549757164e+04 -1.964351063712e+06 -1.370798279255e+06 -9.962078471198e-04 7.721229168295e-05 -4.687832518420e-02 1.582597797231e+06 5.742374196615e+05  4.638843748129e-02
1.000000000000e-02 0.000000000000e+00 4.630905240671e-04 -1.417382043643e+06 -1.081958376392e+04 -2.007587660241e+06 -1.389987373994e+06 -6.552144341026e-04 -7.109034807349e-04 -4.548787361599e-02 1.604985692626e+06 6.046592559940e+05  4.518061301007e-02
1.500000000000e-02 0.000000000000e+00 6.891699825165e-04 -1.394824077244e+06 1.208498370490e+04 -1.995540797577e+06 -1.376138820002e+06 -5.434594200416e-04 1.010030682660e-03 -4.359118232817e-02 1.588834564941e+06 6.106327897098e+05  4.335731740066e-02
2.000000000000e-02 0.000000000000e+00 9.235812586482e-04 -1.345955913964e+06 -4.682684934847e+04 -2.001677967165e+06 -1.359089399362e+06 7.771424909198e-04 -3.876586635015e-03 -4.847402615721e-02 1.568907760164e+06 6.543013410818e+05  4.932636373776e-02
2.500000000000e-02 0.000000000000e+00 1.136882629622e-03 -1.375544274600e+06 1.154844461648e+05 -2.370168765216e+06 -1.518060032918e+06 6.929723681041e-03 4.535585176803e-03 -5.103961324612e-02 1.754591024245e+06 9.528110657930e+05  5.539375601888e-02
3.000000000000e-02 0.000000000000e+00 1.359681039692e-03 -1.542156099169e+06 -2.341828965463e+04 -2.267745095523e+06 -1.544353789699e+06 -5.395128139030e-03 6.087186778304e-03 -3.210356694223e-02 1.784751661464e+06 7.256272116440e+05  3.158647003543e-02
3.500000000000e-02 0.000000000000e+00 1.684134836401e-03 -1.790386783580e+06 3.332446827480e+04 -2.152533541585e+06 -1.607096195885e+06 1.359340921317e-02 -4.659337148609e-02 -8.964377222208e-02 1.850005507017e+06 4.842059133625e+05  1.263019316986e-01
4.000000000000e-02 0.000000000000e+00 1.065968298930e-03 -3.768842896157e+06 2.892511991835e+06 6.100970712990e+06 1.108153894476e+06 -2.151442172120e-01 2.687621633732e-01 5.826254708417e-01 -1.146760570437e+06 9.907731624742e+06  8.531044928427e-01
4.500000000000e-02 0.000000000000e+00 2.297705845553e-04 -1.592376280783e+05 5.741768278980e+06 -5.092225758498e+06 -1.358633625095e+06 -1.692529247452e+00 8.345920781173e-01 -1.269242695777e+00 2.203365670557e+06 1.089770734348e+07  2.101674023277e+00
5.000000000000e-02 0.000000000000e+00 0.000000000000e+00 -6.461640553553e+07 -2.921343771695e+06 6.793836383840e+07 -6.155582675714e+06 -6.347750676877e-01 -1.543790748572e-01 2.174545363932e+00 9.445414576135e+05 1.151728116785e+08  2.565820103436e+00
 TITLE = "Profiles along polylines"
 VARIABLES = "DIST" "DISPLACEMENT_X1" "DISPLACEMENT_Y1" "STRESS_XX" "STRESS_XY" "STRESS_YY" "STRESS_ZZ" "STRAIN_XX" "STRAIN_XY" "STRAIN_YY"  p_(1st_Invariant)  q_(2nd_Invariant)   Effective_Strain
 ZONE T="TIME=1.000000000000e+00"
0.000000000000e+00 0.000000000000e+00 0.000000000000e+00 -8.364300161890e+06 -1.296546335497e+03 -1.219601455747e+07 -8.244125561641e+06 -1.012433487089e-03 3.325904629194e-05 -5.360974892765e-02 9.601480093668e+06 3.893193667509e+06  5.311080130345e-02
5.000000000000e-03 0.000000000000e+00 2.709970427506e-04 -8.366706113381e+06 -3.981322056433e+04 -1.227076906747e+07 -8.274990252334e+06 -1.147278557646e-03 -8.588588395638e-05 -5.468421597753e-02 9.637488477728e+06 3.951321186852e+06  5.411990230856e-02
1.000000000000e-02 0.000000000000e+00 5.412704955837e-04 -8.406606627407e+06 -1.449371620880e+04 -1.234372291649e+07 -8.320131322099e+06 -8.315024685145e-04 -7.224120379945e-04 -5.317854838198e-02 9.690153622000e+06 3.981137549593e+06  5.278254396650e-02
1.500000000000e-02 0.000000000000e+00 8.064973450223e-04 -8.293060898265e+06 2.616141499295e+03 -1.235641575404e+07 -8.279781724763e+06 -5.479519025421e-04 9.360714925870e-04 -5.170859232540e-02 9.643086125689e+06 4.070013212153e+06  5.146235167126e-02
2.000000000000e-02 0.000000000000e+00 1.080740203711e-03 -8.276134871340e+06 -1.757143398494e+04 -1.235712727325e+07 -8.273349400471e+06 7.261578003880e-04 -3.800262399744e-03 -5.650666494660e-02 9.635537181688e+06 4.082499295120e+06  5.725285343967e-02
2.500000000000e-02 0.000000000000e+00 1.332538705682e-03 -8.326096641285e+06 2.917614968861e+05 -1.286619901318e+07 -8.496771636166e+06 6.922597828489e-03 5.444942552492e-03 -5.829246587767e-02 9.896355763543e+06 4.485772159311e+06  6.275676405533e-02
3.000000000000e-02 0.000000000000e+00 1.595627088735e-03 -8.498735443783e+06 -3.760618700953e+05 -1.283526207212e+07 -8.553477999650e+06 -5.397703794273e-03 4.483118876844e-03 -3.974856415443e-02 9.962491838517e+06 4.358363796757e+06  3.814220297293e-02
3.500000000000e-02 0.000000000000e+00 1.955898541358e-03 -7.984159953643e+06 -1.442787887059e+06 -1.200773758942e+07 -8.032384101699e+06 1.320792251483e-02 -5.384445302081e-02 -9.546079042780e-02 9.341427214921e+06 4.716182737883e+06  1.387289652984e-01
4.000000000000e-02 0.000000000000e+00 1.428246736427e-03 -1.269898113383e+07 3.067391047543e+06 -1.255636608451e+07 -9.584933362922e+06 -2.083398893451e-01 2.381143848542e-01 5.393075934566e-01 1.161342686042e+07 6.123739544674e+06  7.853106742044e-01
4.500000000000e-02 0.000000000000e+00 6.004710301993e-04 1.707914704840e+07 9.265056051150e+06 1.430953310434e+07 -1.897528262066e+07 -1.635411068006e+00 8.030558821884e-01 -1.175012282235e+00 -4.137799177360e+06 3.827870948578e+07  2.017000590754e+00
5.000000000000e-02 0.000000000000e+00 0.000000000000e+00 -6.533557752946e+07 -3.995461270758e+06 6.367865242880e+07 -2.658112818144e+05 -5.496221030462e-01 -1.508486360629e-01 2.202257860236e+00 6.409121274928e+05 1.119451265466e+08  2.535882424074e+00
 TITLE = "Profiles along polylines"
 VARIABLES = "DIST" "DISPLACEMENT_X1" "DISPLACEMENT_Y1" "STRESS_XX" "STRESS_XY" "STRESS_YY" "STRESS_ZZ" "STRAIN_XX" "STRAIN_XY" "STRAIN_YY"  p_(1st_Invariant)  q_(2nd_Invariant)   Effective_Strain
 ZONE T="TIME=5.000000000000e+00"
0.000000000000e+00 0.000000000000e+00 0.000000000000e+00 -1.922366448851e+07 -3.984306787126e+03 -2.828991494056e+07 -1.902543080376e+07 -1.073319337911e-03 2.948309572204e-05 -5.706361100659e-02 2.217967007761e+07 9.166977566849e+06  5.653461635217e-02
5.000000000000e-03 0.000000000000e+00 2.883189803174e-04 -1.923522349522e+07 -6.840860500579e+04 -2.838535726800e+07 -1.906823282890e+07 -1.205801271782e-03 -1.241589598170e-04 -5.813988458022e-02 2.222960453071e+07 9.235521646861e+06  5.754686121138e-02
1.000000000000e-02 0.000000000000e+00 5.757030873735e-04 -1.927530848547e+07 -1.833233700872e+04 -2.847811684104e+07 -1.912136402298e+07 -8.829669134998e-04 -7.357081790860e-04 -5.661154720214e-02 2.229159644983e+07 9.280792538159e+06  5.618971955494e-02
1.500000000000e-02 0.000000000000e+00 8.582709040257e-04 -1.907959588365e+07 -2.512575486516e+03 -2.854231915733e+07 -1.906877169839e+07 -5.491880027439e-04 9.258243618512e-04 -5.522292047017e-02 2.223022891312e+07 9.468141006881e+06  5.497377774508e-02
2.000000000000e-02 0.000000000000e+00 1.149888489817e-03 -1.911782039319e+07 3.461926501572e+04 -2.862805469185e+07 -1.911851951367e+07 7.303245622200e-04 -3.751154156730e-03 -5.996567271162e-02 2.228813153290e+07 9.510073794934e+06  6.068297252045e-02
2.500000000000e-02 0.000000000000e+00 1.418531155009e-03 -1.918414357411e+07 4.621673231735e+05 -2.922362268037e+07 -1.938096759627e+07 6.938836810862e-03 5.678094666578e-03 -6.164085858697e-02 2.259624461692e+07 9.974701282067e+06  6.612247000356e-02
3.000000000000e-02 0.000000000000e+00 1.699560664092e-03 -1.917915081498e+07 -9.534128200377e+05 -2.944385678642e+07 -1.946732330533e+07 -5.231278517492e-03 3.731139149933e-03 -4.334780901049e-02 2.269677696891e+07 1.025749551294e+07  4.148974038179e-02
3.500000000000e-02 0.000000000000e+00 2.077971925761e-03 -1.789672528333e+07 -2.255532061045e+06 -2.718436940241e+07 -1.818654206930e+07 1.348050234352e-02 -5.504910801505e-02 -9.905529257806e-02 2.108921225168e+07 9.945596338055e+06  1.428992754168e-01
4.000000000000e-02 0.000000000000e+00 1.557957952292e-03 -1.542294166319e+07 2.981674922386e+06 -1.611373885333e+07 -1.304430069425e+07 -2.076348331445e-01 2.388534177541e-01 5.401602018939e-01 1.486032707026e+07 5.869365224882e+06  7.862532712523e-01
4.500000000000e-02 0.000000000000e+00 7.881798131108e-04 1.740805112321e+07 9.011530423448e+06 1.378090358000e+07 -1.984185591357e+07 -1.629557983677e+00 7.827353242805e-01 -1.138425742134e+00 -3.782366263213e+06 3.884873107932e+07  1.983523480887e+00
5.000000000000e-02 0.000000000000e+00 0.000000000000e+00 -8.827888647007e+07 -4.001775638547e+06 4.409832019088e+07 -2.522736608772e+07 -5.349007808257e-01 -1.478449104800e-01 2.182875676060e+00 2.313597745564e+07 1.148942015366e+08  2.506842898687e+00
 TITLE = "Profiles along polylines"
 VARIABLES = "DIST" "DISPLACEMENT_X1" "DISPLACEMENT_Y1" "STRESS_XX" "STRESS_XY" "STRESS_YY" "STRESS_ZZ" "STRAIN_XX" "STRAIN_XY" "STRAIN_YY"  p_(1st_Invariant)  q_(2nd_Invariant)   Effective_Strain
 ZONE T="TIME=1.000000000000e+01"
0.000000000000e+00 0.000000000000e+00 0.000000000000e+00 -2.600585344156e+07 -5.231763193399e+03 -3.841823574883e+07 -2.578963597884e+07 -1.079829854214e-03 2.858028266420e-05 -5.827488107507e-02 3.007124172307e+07 1.252189444357e+07  5.774256048176e-02
5.000000000000e-03 0.000000000000e+00 2.943824410087e-04 -2.602760689068e+07 -8.323029180603e+04 -3.852398669757e+07 -2.584063886979e+07 -1.212998931154e-03 -1.348221911877e-04 -5.934937792474e-02 3.013074415268e+07 1.259173024505e+07  5.875273462183e-02
1.000000000000e-02 0.000000000000e+00 5.877740991201e-04 -2.606834670233e+07 -7.531263812158e+03 -3.862905294792e+07 -2.589890504885e+07 -8.885317518965e-04 -7.280192255150e-04 -5.782058092809e-02 3.019876823303e+07 1.264628518012e+07  5.739532804546e-02
1.500000000000e-02 0.000000000000e+00 8.764178514751e-04 -2.584401957585e+07 -5.222168316384e+03 -3.872876252911e+07 -2.584877161797e+07 -5.435483055316e-04 9.240730835631e-04 -5.644673285095e-02 3.014051790764e+07 1.288237076494e+07  5.619972688105e-02
2.000000000000e-02 0.000000000000e+00 1.174097809792e-03 -2.582868969020e+07 6.667307258157e+04 -3.878439201535e+07 -2.586773611341e+07 7.436195047695e-04 -3.727044845793e-03 -6.118724700198e-02 3.016027260632e+07 1.293673874749e+07  6.189995788214e-02
2.500000000000e-02 0.000000000000e+00 1.448609108213e-03 -2.546132184130e+07 4.882638182029e+05 -3.868061494715e+07 -2.570722440253e+07 6.956727449233e-03 5.695809705777e-03 -6.276482625646e-02 2.994972039700e+07 1.312534665920e+07  6.724421169204e-02
3.000000000000e-02 0.000000000000e+00 1.734552519457e-03 -2.392875381323e+07 -1.036280672054e+06 -3.600482693590e+07 -2.416279073662e+07 -5.251639708026e-03 3.661649604011e-03 -4.406003844557e-02 2.803212382858e+07 1.209469723635e+07  4.216280699239e-02
3.500000000000e-02 0.000000000000e+00 2.114585493823e-03 -2.016763906091e+07 -2.000995668784e+06 -2.875145200034e+07 -2.033061764659e+07 1.342040617406e-02 -5.479895708284e-02 -9.885876462824e-02 2.308323623594e+07 9.182667363317e+06  1.424382831720e-01
4.000000000000e-02 0.000000000000e+00 1.591045744005e-03 -1.764946229296e+07 2.831228207579e+06 -1.600764348110e+07 -1.538417811361e+07 -2.075008654129e-01 2.384703157583e-01 5.416645331296e-01 1.634709462922e+07 5.306171381941e+06  7.870560396052e-01
4.500000000000e-02 0.000000000000e+00 8.075771686985e-04 1.343799653817e+07 8.715132142695e+06 1.031278304368e+07 -2.369611504287e+07 -1.630324118904e+00 7.811446166161e-01 -1.133760472197e+00 -1.822151299622e+04 3.873651714435e+07  1.981295847247e+00
5.000000000000e-02 0.000000000000e+00 0.000000000000e+00 -1.045726428363e+08 -4.093814583908e+06 3.324840186134e+07 -4.109934099273e+07 -5.349987917821e-01 -1.479373318808e-01 2.184659504978e+00 3.747452732255e+07 1.196905242345e+08  2.508666462089e+00
 ZONE T="TIME=1.800000000000e+01"
0.000000000000e+00 0.000000000000e+00 0.000000000000e+00 -3.283816929086e+07 -6.571410812099e+03 -4.864098892675e+07 -3.261180648720e+07 -1.082717720529e-03 2.784618312809e-05 -5.921132596473e-02 3.803032156827e+07 1.591721233986e+07  5.867747927881e-02
5.000000000000e-03 0.000000000000e+00 2.990660380498e-04 -3.285561838603e+07 -9.801795814955e+04 -4.873787214626e+07 -3.265803089817e+07 -1.216033432637e-03 -1.429143433374e-04 -6.028314565928e-02 3.808384047682e+07 1.598286527823e+07  5.968493395212e-02
1.000000000000e-02 0.000000000000e+00 5.970814185385e-04 -3.282983138469e+07 7.158573978455e+03 -4.877890525770e+07 -3.266721123480e+07 -8.869259145440e-04 -7.200578421256e-04 -5.874927046227e-02 3.809198262573e+07 1.603100736820e+07  5.832420266820e-02
1.500000000000e-02 0.000000000000e+00 8.902590278690e-04 -3.255642819775e+07 -3.853817457501e+01 -4.875509106466e+07 -3.255947416032e+07 -5.438992997829e-04 9.265080859681e-04 -5.736159260621e-02 3.795699780758e+07 1.619714010056e+07  5.711413532932e-02
2.000000000000e-02 0.000000000000e+00 1.192313806466e-03 -3.173074753056e+07 6.812265588531e+04 -4.758623877627e+07 -3.181006047358e+07 7.553012301543e-04 -3.725568767790e-03 -6.199059048249e-02 3.704234892680e+07 1.581642404593e+07  6.270458472469e-02
2.500000000000e-02 0.000000000000e+00 1.470062096109e-03 -2.964686625752e+07 5.089135983426e+05 -4.454964036557e+07 -2.991621877575e+07 6.963568749949e-03 5.703779382628e-03 -6.326144232528e-02 3.470424179962e+07 1.479621932494e+07  6.773939825094e-02
3.000000000000e-02 0.000000000000e+00 1.757802380226e-03 -2.686071706825e+07 -9.759560841910e+05 -3.906691627633e+07 -2.703654000292e+07 -5.270622003594e-03 3.699673602624e-03 -4.414117887660e-02 3.098805778250e+07 1.223656626185e+07  4.224493359644e-02
3.500000000000e-02 0.000000000000e+00 2.136968555071e-03 -2.300733309284e+07 -1.763771124775e+06 -3.032946912940e+07 -2.320676696485e+07 1.342958801669e-02 -5.460923222896e-02 -9.836177872893e-02 2.551452306236e+07 7.843840501176e+06  1.418550536563e-01
4.000000000000e-02 0.000000000000e+00 1.609037889778e-03 -2.242183938654e+07 2.637602760663e+06 -1.873306123457e+07 -2.036380313805e+07 -2.073559934190e-01 2.381562364464e-01 5.430016632572e-01 2.050623458639e+07 5.578691896343e+06  7.877798820069e-01
4.500000000000e-02 0.000000000000e+00 8.169157137917e-04 4.368124971224e+06 8.438244520373e+06 3.649917737419e+06 -3.297249798894e+07 -1.630140011474e+00 7.805593601402e-01 -1.130656660310e+00 8.318151760099e+06 3.976973159220e+07  1.980007834179e+00
5.000000000000e-02 0.000000000000e+00 0.000000000000e+00 -1.147501276185e+08 -4.032241103896e+06 2.262247001051e+07 -5.158046082591e+07 -5.349003870376e-01 -1.479213805996e-01 2.184307659492e+00 4.790270614463e+07 1.193005996143e+08  2.508255886539e+00
