 TITLE = "Profiles along polylines"
 VARIABLES = "DIST" "DISPLACEMENT_X1" "DISPLACEMENT_Y1" "STRESS_XX" "STRESS_XY" "STRESS_YY" "STRESS_ZZ" "STRAIN_XX" "STRAIN_XY" "STRAIN_YY"  p_(1st_Invariant)  q_(2nd_Invariant)   Effective_Strain
 ZONE T="TIME=0.000000000000e+00"
0.000000000000e+00 0.000000000000e+00 0.000000000000e+00 -1.000000000000e+05 0.000000000000e+00 -1.000000000000e+05 -1.000000000000e+05 0.000000000000e+00 0.000000000000e+00 0.000000000000e+00 1.000000000000e+05 0.000000000000e+00  0.000000000000e+00
5.000000000000e-03 0.000000000000e+00 0.000000000000e+00 -1.000000000000e+05 0.000000000000e+00 -1.000000000000e+05 -1.000000000000e+05 0.000000000000e+00 0.000000000000e+00 0.000000000000e+00 1.000000000000e+05 0.000000000000e+00  0.000000000000e+00
1.000000000000e-02 0.000000000000e+00 0.000000000000e+00 -1.000000000000e+05 0.000000000000e+00 -1.000000000000e+05 -1.000000000000e+05 0.000000000000e+00 0.000000000000e+00 0.000000000000e+00 1.000000000000e+05 0.000000000000e+00  0.000000000000e+00
1.500000000000e-02 0.000000000000e+00 0.000000000000e+00 -1.000000000000e+05 0.000000000000e+00 -1.000000000000e+05 -1.000000000000e+05 0.000000000000e+00 0.000000000000e+00 0.000000000000e+00 1.000000000000e+05 0.000000000000e+00  0.000000000000e+00
2.000000000000e-02 0.000000000000e+00 0.000000000000e+00 -1.000000000000e+05 0.000000000000e+00 -1.000000000000e+05 -1.000000000000e+05 0.000000000000e+00 0.000000000000e+00 0.000000000000e+00 1.000000000000e+05 0.000000000000e+00  0.000000000000e+00
2.500000000000e-02 0.000000000000e+00 0.000000000000e+00 -1.000000000000e+05 0.000000000000e+00 -1.000000000000e+05 -1.000000000000e+05 0.000000000000e+00 0.000000000000e+00 0.000000000000e+00 1.000000000000e+05 0.000000000000e+00  0.000000000000e+00
3.000000000000e-02 0.000000000000e+00 0.000000000000e+00 -1.000000000000e+05 0.000000000000e+00 -1.000000000000e+05 -1.000000000000e+05 0.000000000000e+00 0.000000000000e+00 0.000000000000e+00 1.000000000000e+05 0.000000000000e+00  0.000000000000e+00
3.500000000000e-02 0.000000000000e+00 0.000000000000e+00 -1.000000000000e+05 0.000000000000e+00 -1.000000000000e+05 -1.000000000000e+05 0.000000000000e+00 0.000000000000e+00 0.000000000000e+00 1.000000000000e+05 0.000000000000e+00  0.000000000000e+00
4.000000000000e-02 0.000000000000e+00 0.000000000000e+00 -1.000000000000e+05 0.000000000000e+00 -1.000000000000e+05 -1.000000000000e+05 0.000000000000e+00 0.000000000000e+00 0.000000000000e+00 1.000000000000e+05 0.000000000000e+00  0.000000000000e+00
4.500000000000e-02 0.000000000000e+00 0.000000000000e+00 -1.000000000000e+05 0.000000000000e+00 -1.000000000000e+05 -1.000000000000e+05 0.000000000000e+00 0.000000000000e+00 0.000000000000e+00 1.000000000000e+05 0.000000000000e+00  0.000000000000e+00
5.000000000000e-02 0.000000000000e+00 0.000000000000e+00 -1.000000000000e+05 0.000000000000e+00 -1.000000000000e+05 -1.000000000000e+05 0.000000000000e+00 0.000000000000e+00 0.000000000000e+00 1.000000000000e+05 0.000000000000e+00  0.000000000000e+00
 TITLE = "Profiles along polylines"
 VARIABLES = "DIST" "DISPLACEMENT_X1" "DISPLACEMENT_Y1" "STRESS_XX" "STRESS_XY" "STRESS_YY" "STRESS_ZZ" "STRAIN_XX" "STRAIN_XY" "STRAIN_YY"  p_(1st_Invariant)  q_(2nd_Invariant)   Effective_Strain
 ZONE T="TIME=1.000000000000e-02"
0.000000000000e+00 0.000000000000e+00 0.000000000000e+00 -2.951141090420e+06 -5.678261264936e+02 -4.401603568206e+06 -2.961097800386e+06 3.600948149073e-05 -3.623522403820e-06 -1.018589421741e-01 3.437947486337e+06 1.445510175893e+06  1.018769518811e-01
5.000000000000e-03 0.000000000000e+00 5.093150020787e-04 -2.956158977994e+06 -5.545497856611e+03 -4.414996487421e+06 -2.968462283842e+06 4.549382733653e-05 -3.285927993688e-05 -1.018522973522e-01 3.446539249752e+06 1.452756684316e+06  1.018750677822e-01
1.000000000000e-02 0.000000000000e+00 1.018358238965e-03 -2.964829555216e+06 2.219854360795e+03 -4.436434690760e+06 -2.980505442973e+06 7.671322049479e-05 1.069428499233e-05 -1.017923260219e-01 3.460589896316e+06 1.463835193848e+06  1.018307059886e-01
1.500000000000e-02 0.000000000000e+00 1.527352415566e-03 -2.961684127705e+06 1.656519727640e+03 -4.408058185643e+06 -2.967895148976e+06 3.983223224933e-05 4.805741138402e-05 -1.017638746899e-01 3.445879154108e+06 1.443281422452e+06  1.017838306871e-01
2.000000000000e-02 0.000000000000e+00 2.037721193257e-03 -2.930523225163e+06 -1.347204188137e+03 -4.434734858986e+06 -2.966112948090e+06 2.836525526114e-04 -2.525358143833e-04 -1.025040424289e-01 3.443790344080e+06 1.486738119950e+06  1.026470945977e-01
2.500000000000e-02 0.000000000000e+00 2.548425261811e-03 -3.057825352556e+06 -9.750418915818e+04 -4.957733514142e+06 -3.226164981846e+06 1.266743587915e-03 -1.761903879828e-03 -1.005019235863e-01 3.747241282848e+06 1.829393511073e+06  1.011872737402e-01
3.000000000000e-02 0.000000000000e+00 3.045404600041e-03 -2.894940066921e+06 2.290720413986e+05 -4.337120438976e+06 -2.912960624853e+06 -6.631783938820e-03 9.830327753815e-03 -9.842875677841e-02 3.381673710250e+06 1.487159060611e+06  9.679539504581e-02
3.500000000000e-02 0.000000000000e+00 3.658855771096e-03 -3.014096728854e+06 3.309597294619e+05 -4.695321089999e+06 -3.103763323139e+06 2.746677130608e-02 -3.289984368140e-02 -1.411124542772e-01 3.604393713997e+06 1.735629227549e+06  1.667040819266e-01
4.000000000000e-02 0.000000000000e+00 3.945256543003e-03 2.118690347268e+05 1.414632904589e+06 1.605663342277e+06 7.056504761447e+05 6.470088179937e-02 4.730279103472e-02 8.438794825421e-02 -8.410609510496e+05 2.738943534588e+06  1.120723755879e-01
4.500000000000e-02 0.000000000000e+00 4.906708785310e-03 -6.646430785156e+06 5.173156874462e+06 -7.504805532905e+06 -4.540459690549e+06 -2.296760343925e-01 1.336720492936e-01 -1.726754395274e-01 6.230565336203e+06 9.341535741482e+06  3.106656213514e-01
5.000000000000e-02 0.000000000000e+00 0.000000000000e+00 1.510942562192e+07 3.112161515639e+06 7.702005906938e+07 2.806892953049e+07 -3.035481229807e-01 4.337753370669e-02 1.773638111901e+00 -4.006613807393e+07 5.681197784953e+07  1.944726964373e+00
 TITLE = "Profiles along polylines"
 VARIABLES = "DIST" "DISPLACEMENT_X1" "DISPLACEMENT_Y1" "STRESS_XX" "STRESS_XY" "STRESS_YY" "STRESS_ZZ" "STRAIN_XX" "STRAIN_XY" "STRAIN_YY"  p_(1st_Invariant)  q_(2nd_Invariant)   Effective_Strain
 ZONE T="TIME=1.000000000000e-01"
0.000000000000e+00 0.000000000000e+00 0.000000000000e+00 -4.700041419250e+06 -5.202638998598e+02 -7.091454059084e+06 -4.736597739541e+06 9.536819714808e-05 -3.991656040726e-06 -1.040505669566e-01 5.509364405958e+06 2.373345812165e+06  1.040982840486e-01
5.000000000000e-03 0.000000000000e+00 5.202228999531e-04 -4.706111161565e+06 -4.935261544298e+03 -7.085173104137e+06 -4.736514348716e+06 8.660447954715e-05 -3.326304032158e-05 -1.040511166120e-01 5.509266204806e+06 2.364022437567e+06  1.040944618154e-01
1.000000000000e-02 0.000000000000e+00 1.040390172574e-03 -4.700885706954e+06 1.215314589259e+04 -7.106984917539e+06 -4.743146943885e+06 1.417847415426e-04 4.705845363360e-05 -1.041068585640e-01 5.517005856126e+06 2.385342279710e+06  1.041778551829e-01
1.500000000000e-02 0.000000000000e+00 1.560605734085e-03 -4.716643856530e+06 3.692918322589e+03 -7.060039239398e+06 -4.730652454154e+06 5.785700895985e-05 5.438089976672e-05 -1.039347283500e-01 5.502445183360e+06 2.336431336718e+06  1.039637115968e-01
2.000000000000e-02 0.000000000000e+00 2.082399388917e-03 -4.652042636779e+06 -5.569386442077e+03 -7.109636666167e+06 -4.724773641435e+06 3.701586689871e-04 -2.520070553832e-04 -1.048398634912e-01 5.495484314794e+06 2.422066882587e+06  1.050263390836e-01
2.500000000000e-02 0.000000000000e+00 2.603619367625e-03 -4.857197070318e+06 -9.730880074976e+04 -7.868936212165e+06 -5.109853497586e+06 1.452701761892e-03 -1.761342145280e-03 -1.025023268528e-01 5.945328926690e+06 2.898599607645e+06  1.032814099532e-01
3.000000000000e-02 0.000000000000e+00 3.111306284939e-03 -4.582979314584e+06 3.446345102972e+05 -7.051423876482e+06 -4.674902473475e+06 -6.447528950670e-03 1.033209670160e-02 -1.006054971736e-01 5.436435221514e+06 2.496213139475e+06  9.916973581820e-02
3.500000000000e-02 0.000000000000e+00 3.732717811059e-03 -5.040640079360e+06 1.135604188721e+06 -6.266440056025e+06 -4.545756350503e+06 2.584373249509e-02 -2.886737206533e-02 -1.409443347627e-01 5.284278828629e+06 2.494577032583e+06  1.633269947227e-01
4.000000000000e-02 0.000000000000e+00 4.030557121615e-03 -1.745678570254e+06 2.467582152893e+06 6.585523174296e+05 -4.316000675117e+05 6.145659831234e-02 5.731175278802e-02 7.948841132008e-02 5.062421067787e+05 4.755487923585e+06  1.227360772888e-01
4.500000000000e-02 0.000000000000e+00 4.970585392098e-03 -7.037530757769e+06 -6.030504571327e+06 -2.185213330523e+06 -4.004370813339e+06 -2.991753744137e-01 1.548180861936e-01 -1.648430236640e-01 4.409038300544e+06 1.127511174932e+07  3.731863786636e-01
5.000000000000e-02 0.000000000000e+00 0.000000000000e+00 -2.246473562169e+07 8.530679958024e+06 3.148545924407e+07 -1.501980022835e+07 6.187998130092e-01 -5.103002936109e-02 1.781982021060e+00 1.999692201989e+06 5.275142060144e+07  1.569552542042e+00
 TITLE = "Profiles along polylines"
 VARIABLES = "DIST" "DISPLACEMENT_X1" "DISPLACEMENT_Y1" "STRESS_XX" "STRESS_XY" "STRESS_YY" "STRESS_ZZ" "STRAIN_XX" "STRAIN_XY" "STRAIN_YY"  p_(1st_Invariant)  q_(2nd_Invariant)   Effective_Strain
 ZONE T="TIME=1.000000000000e+00"
0.000000000000e+00 0.000000000000e+00 0.000000000000e+00 -9.556868808466e+06 -8.068869735669e+02 -1.441028972630e+07 -9.606862834784e+06 1.120250284125e-04 -4.714672114846e-06 -1.069543485710e-01 1.119134045652e+07 4.828618219369e+06  1.070104053748e-01
5.000000000000e-03 0.000000000000e+00 5.347241588402e-04 -9.569752144361e+06 -7.927372677213e+03 -1.439871997420e+07 -9.607389266985e+06 9.582328242048e-05 -4.038309056188e-05 -1.069479128232e-01 1.119195379518e+07 4.810279298538e+06  1.069958795085e-01
1.000000000000e-02 0.000000000000e+00 1.069371305971e-03 -9.561996787564e+06 1.285075787257e+04 -1.442859820019e+07 -9.616237188732e+06 1.570137423762e-04 4.884978527254e-05 -1.070073613375e-01 1.120227739216e+07 4.839760360129e+06  1.070859879671e-01
1.500000000000e-02 0.000000000000e+00 1.604069760787e-03 -9.586651125345e+06 6.712866731469e+03 -1.436126594803e+07 -9.599147475433e+06 5.639374674697e-05 6.172625505078e-05 -1.068225222902e-01 1.118235484960e+07 4.768393103883e+06  1.068507838126e-01
2.000000000000e-02 0.000000000000e+00 2.140317582917e-03 -9.512354779652e+06 8.429438835410e+03 -1.442257079651e+07 -9.594059996928e+06 3.847001724716e-04 -2.244111836125e-04 -1.077765764106e-01 1.117632852436e+07 4.869899380329e+06  1.079701401577e-01
2.500000000000e-02 0.000000000000e+00 2.676027553592e-03 -9.744910435862e+06 -6.985190797347e+04 -1.533431688316e+07 -1.005129579535e+07 1.529558054683e-03 -1.703201364707e-03 -1.052754934659e-01 1.171017437146e+07 5.444029939772e+06  1.060895694024e-01
3.000000000000e-02 0.000000000000e+00 3.197650100564e-03 -9.554220623322e+06 6.223072307876e+05 -1.413899298010e+07 -9.496760995701e+06 -6.624932757140e-03 1.098639224675e-02 -1.033693423728e-01 1.106332486637e+07 4.738003519745e+06  1.020117550974e-01
3.500000000000e-02 0.000000000000e+00 3.829507314484e-03 -9.845422471733e+06 2.069637965329e+06 -1.113843766105e+07 -8.435847825518e+06 2.444756162720e-02 -2.611888756945e-02 -1.418910591906e-01 9.806569319435e+06 4.281541114330e+06  1.620068986965e-01
4.000000000000e-02 0.000000000000e+00 4.153778367323e-03 -7.503530312307e+06 1.703974290986e+05 -8.385100700562e+06 -6.248708656709e+06 6.121283069859e-02 5.123945711585e-02 7.053732983271e-02 7.379113223193e+06 1.882833822314e+06  1.108204936357e-01
4.500000000000e-02 0.000000000000e+00 5.075218761537e-03 -1.239700055474e+07 -6.432816474118e+06 4.375084746163e+06 -9.307686514900e+06 -2.825524785882e-01 1.732512667509e-01 -1.322825732316e-01 5.776534107828e+06 1.905717322556e+07  3.873058451520e-01
5.000000000000e-02 0.000000000000e+00 0.000000000000e+00 -2.123664597129e+07 8.638031560200e+06 2.379012637256e+07 -1.797503328466e+07 6.495076913534e-01 -4.443812218457e-02 1.772298368329e+00 5.140517627798e+06 4.598951207409e+07  1.554896963151e+00
 TITLE = "Profiles along polylines"
 VARIABLES = "DIST" "DISPLACEMENT_X1" "DISPLACEMENT_Y1" "STRESS_XX" "STRESS_XY" "STRESS_YY" "STRESS_ZZ" "STRAIN_XX" "STRAIN_XY" "STRAIN_YY"  p_(1st_Invariant)  q_(2nd_Invariant)   Effective_Strain
 ZONE T="TIME=5.000000000000e+00"
0.000000000000e+00 0.000000000000e+00 0.000000000000e+00 -1.915998417815e+07 -1.215404584692e+03 -2.886028681881e+07 -1.922810718297e+07 1.226982160383e-04 -5.195966101437e-06 -1.097445968922e-01 2.241612605998e+07 9.666421402582e+06  1.098059977830e-01
5.000000000000e-03 0.000000000000e+00 5.486611590145e-04 -1.918376510234e+07 -1.352607922079e+04 -2.883822606442e+07 -1.922879717578e+07 1.002468319233e-04 -4.686770517928e-05 -1.097318347046e-01 2.241692944752e+07 9.632052368283e+06  1.097820224608e-01
1.000000000000e-02 0.000000000000e+00 1.097224186545e-03 -1.917184858187e+07 1.301123503441e+04 -2.887876564982e+07 -1.924023959896e+07 1.654145671175e-04 4.907580650150e-05 -1.097939418015e-01 2.243028461022e+07 9.672929144828e+06  1.098767753484e-01
1.500000000000e-02 0.000000000000e+00 1.645844710463e-03 -1.920610196697e+07 1.178531174638e+04 -2.878749146355e+07 -1.921743092494e+07 5.573236158491e-05 6.756468458131e-05 -1.096024418230e-01 2.240367478515e+07 9.575751800897e+06  1.096303810882e-01
2.000000000000e-02 0.000000000000e+00 2.196008274002e-03 -1.911969787018e+07 4.657690495866e+04 -2.886931113347e+07 -1.921582621875e+07 3.934704766494e-04 -1.806826855091e-04 -1.105676029693e-01 2.240161174080e+07 9.702241671139e+06  1.107653044573e-01
2.500000000000e-02 0.000000000000e+00 2.745626316820e-03 -1.938662855409e+07 2.408565777405e+04 -2.997495486697e+07 -1.976221628897e+07 1.570692579402e-03 -1.592907347242e-03 -1.080249831170e-01 2.304126657001e+07 1.040570108716e+07  1.088538017408e-01
3.000000000000e-02 0.000000000000e+00 3.281015752657e-03 -1.912524371409e+07 9.595615902215e+05 -2.839983160842e+07 -1.902846217309e+07 -6.649190935742e-03 1.141032643528e-02 -1.061242878754e-01 2.218451249853e+07 9.470334287725e+06  1.048404607594e-01
3.500000000000e-02 0.000000000000e+00 3.926183185270e-03 -1.808834799286e+07 2.000002728807e+06 -2.375061394954e+07 -1.688166160919e+07 2.460141803012e-02 -2.624450234518e-02 -1.448049077701e-01 1.957354118386e+07 7.235327205388e+06  1.649315581152e-01
4.000000000000e-02 0.000000000000e+00 4.263319183933e-03 -1.127591425264e+07 -3.001888997478e+06 -1.172953323076e+07 -1.011684124813e+07 6.133296968945e-02 4.471469365790e-02 6.866396217985e-02 1.104076291051e+07 5.395276691562e+06  1.013080433568e-01
4.500000000000e-02 0.000000000000e+00 5.117017523453e-03 -8.976907372126e+06 -5.085382284996e+06 8.642152106830e+06 -6.302434423145e+06 -2.820377566156e-01 1.807257090769e-01 -1.157691040960e-01 2.212396562814e+06 1.865598304750e+07  3.978465394839e-01
5.000000000000e-02 0.000000000000e+00 0.000000000000e+00 -4.489233391177e+07 9.632351188680e+06 8.356526482078e+06 -4.418188600510e+07 6.543113768949e-01 -4.323930068442e-02 1.780261230687e+00 2.690589781160e+07 5.546586244113e+07  1.561479158269e+00
 TITLE = "Profiles along polylines"
 VARIABLES = "DIST" "DISPLACEMENT_X1" "DISPLACEMENT_Y1" "STRESS_XX" "STRESS_XY" "STRESS_YY" "STRESS_ZZ" "STRAIN_XX" "STRAIN_XY" "STRAIN_YY"  p_(1st_Invariant)  q_(2nd_Invariant)   Effective_Strain
 ZONE T="TIME=1.000000000000e+01"
0.000000000000e+00 0.000000000000e+00 0.000000000000e+00 -2.587240420774e+07 -1.463764210551e+03 -3.895481409812e+07 -2.595088736816e+07 1.264094560603e-04 -5.374569106640e-06 -1.109486351392e-01 3.025936855800e+07 1.304334564826e+07  1.110118942361e-01
5.000000000000e-03 0.000000000000e+00 5.546759687182e-04 -2.590316976249e+07 -1.734125378092e+04 -3.892597388098e+07 -2.595165907216e+07 1.014887802736e-04 -4.959277935260e-05 -1.109333802202e-01 3.026026757188e+07 1.299866199643e+07  1.109841926530e-01
1.000000000000e-02 0.000000000000e+00 1.109245244641e-03 -2.588913041915e+07 1.285623597943e+04 -3.897318661915e+07 -2.596487212367e+07 1.680506473827e-04 4.897740979409e-05 -1.109965688437e-01 3.027572972066e+07 1.304636924897e+07  1.110807218994e-01
1.500000000000e-02 0.000000000000e+00 1.663876687153e-03 -2.593225886966e+07 1.469994809030e+04 -3.887532499623e+07 -2.594267945423e+07 5.539345399194e-05 6.969461872051e-05 -1.108036656810e-01 3.025008777337e+07 1.293788403471e+07  1.108314385296e-01
2.000000000000e-02 0.000000000000e+00 2.220041088054e-03 -2.582050724423e+07 6.624182182784e+04 -3.892879920763e+07 -2.592226317250e+07 3.955042639130e-04 -1.664247260328e-04 -1.117663603125e-01 3.022385654145e+07 1.305821542121e+07  1.119650074119e-01
2.500000000000e-02 0.000000000000e+00 2.775493620470e-03 -2.578874948108e+07 4.407907123221e+04 -3.956861418052e+07 -2.619226042438e+07 1.580952456979e-03 -1.577947727521e-03 -1.091379565229e-01 3.051654136199e+07 1.358281984370e+07  1.099709263499e-01
3.000000000000e-02 0.000000000000e+00 3.315764746696e-03 -2.414000860126e+07 9.386416618561e+05 -3.551999682662e+07 -2.405736840864e+07 -6.644438801533e-03 1.139575333933e-02 -1.069177193622e-01 2.790579127884e+07 1.153666114341e+07  1.056159487010e-01
3.500000000000e-02 0.000000000000e+00 3.963252052008e-03 -2.079576199457e+07 1.723329247623e+06 -2.642392848962e+07 -1.962858531822e+07 2.461793014090e-02 -2.650863882223e-02 -1.447856791070e-01 2.228275860080e+07 6.965430011184e+06  1.650496376524e-01
4.000000000000e-02 0.000000000000e+00 4.294963876539e-03 -1.444902795766e+07 -2.725393460280e+06 -1.148522936384e+07 -1.295469388891e+07 6.105819599141e-02 4.510735886558e-02 7.092287654211e-02 1.296298373680e+07 5.373224333874e+06  1.026243455036e-01
4.500000000000e-02 0.000000000000e+00 5.136262882397e-03 -1.357984615389e+07 -5.533469884717e+06 6.528624896666e+06 -1.045608867741e+07 -2.830136354597e-01 1.798489566807e-01 -1.116531140685e-01 5.835769978209e+06 2.105118402545e+07  3.974930485831e-01
5.000000000000e-02 0.000000000000e+00 0.000000000000e+00 -6.020623816638e+07 9.846750113967e+06 -1.611963369308e+06 -5.877152952863e+07 6.541149951111e-01 -4.318002660909e-02 1.781554873130e+00 4.019657702144e+07 6.035028731594e+07  1.562707899695e+00
 ZONE T="TIME=1.800000000000e+01"
0.000000000000e+00 0.000000000000e+00 0.000000000000e+00 -3.267198143029e+07 -1.666487636256e+03 -4.917859888459e+07 -3.276037360550e+07 1.291225375420e-04 -5.488333282976e-06 -1.118839352529e-01 3.820365130679e+07 1.646259959632e+07  1.119485527745e-01
5.000000000000e-03 0.000000000000e+00 5.593459764461e-04 -3.270239699686e+07 -2.184984186456e+04 -4.912968252137e+07 -3.275346301866e+07 1.022067748960e-04 -5.204937743727e-05 -1.118654320521e-01 3.819518084563e+07 1.640185579648e+07  1.119166067520e-01
1.000000000000e-02 0.000000000000e+00 1.118559031624e-03 -3.263298245550e+07 1.079898091367e+04 -4.909914272256e+07 -3.271655760509e+07 1.701980883318e-04 4.786288321929e-05 -1.119216471331e-01 3.814956092771e+07 1.642454281838e+07  1.120068738397e-01
1.500000000000e-02 0.000000000000e+00 1.677735356469e-03 -3.248226599729e+07 1.703819708333e+04 -4.866701912286e+07 -3.249455180370e+07 5.589408882579e-05 7.093200565565e-05 -1.116966416592e-01 3.788127897462e+07 1.617864063614e+07  1.117246667400e-01
2.000000000000e-02 0.000000000000e+00 2.238119880854e-03 -3.175059278549e+07 7.846028520483e+04 -4.768423745280e+07 -3.185709858078e+07 3.968229168771e-04 -1.595706326440e-04 -1.125567925620e-01 3.709730960636e+07 1.588124108565e+07  1.127560664593e-01
2.500000000000e-02 0.000000000000e+00 2.796990385328e-03 -3.044115337530e+07 3.637451234198e+04 -4.611257140094e+07 -3.085021103467e+07 1.582681972360e-03 -1.582430908058e-03 -1.096843919250e-01 3.580131193697e+07 1.547107387487e+07  1.105182269432e-01
3.000000000000e-02 0.000000000000e+00 3.339104973867e-03 -2.723933955256e+07 8.122628763463e+05 -3.908150373891e+07 -2.720169380351e+07 -6.629100504115e-03 1.131215536896e-02 -1.070647862436e-01 3.117417903166e+07 1.194417807557e+07  1.057400812166e-01
3.500000000000e-02 0.000000000000e+00 3.986009587286e-03 -2.372306818132e+07 1.455602806517e+06 -2.830395610703e+07 -2.265072653856e+07 2.465765612763e-02 -2.673537850325e-02 -1.442758597203e-01 2.489258360897e+07 5.779538585502e+06  1.646978130740e-01
4.000000000000e-02 0.000000000000e+00 4.311756645795e-03 -1.989241331340e+07 -2.587940554313e+06 -1.431044765055e+07 -1.831360837994e+07 6.099977030526e-02 4.527833345755e-02 7.266184289084e-02 1.750548978130e+07 6.703017207963e+06  1.035313580775e-01
4.500000000000e-02 0.000000000000e+00 5.143356390729e-03 -2.239395209643e+07 -5.782758475951e+06 8.596561945965e+05 -1.892643619012e+07 -2.834087954463e-01 1.794674213194e-01 -1.091547989051e-01 1.348691069732e+07 2.392577261570e+07  3.973984792756e-01
5.000000000000e-02 0.000000000000e+00 0.000000000000e+00 -7.003279382882e+07 1.010683972742e+07 -1.189415552864e+07 -6.841927082958e+07 6.540756417185e-01 -4.309904601724e-02 1.781125790076e+00 5.011540672901e+07 5.996116507918e+07  1.562307784766e+00
