 TITLE = "Time curves in points"
 VARIABLES = "TIME"  "DISPLACEMENT_X1"  "DISPLACEMENT_Y1"  "STRESS_XX"  "STRESS_XY"  "STRESS_YY"  "STRESS_ZZ"  "STRAIN_XX"  "STRAIN_XY"  "STRAIN_YY"  p_(1st_Invariant)  q_(2nd_Invariant)   Effective_Strain
 ZONE T="POINT=POINT5"
0.000000000000e+00 0.000000000000e+00 0.000000000000e+00 -1.000000000000e+05 0.000000000000e+00 -1.000000000000e+05 -1.000000000000e+05 0.000000000000e+00 0.000000000000e+00 0.000000000000e+00 1.000000000000e+05 0.000000000000e+00  0.000000000000e+00
1.000000000000e-03 -8.409120033783e-07 -8.372192449678e-05 -2.901860775418e+04 4.532525193820e+03 1.558685985372e+04 -2.537747293259e+04 -3.738231750161e-04 9.306785064644e-04 4.205671499394e-03 1.293640694435e+04 4.361332864923e+04  4.690211236945e-03
2.000000000000e-03 3.093187125288e-06 5.598343905279e-04 -1.310276798812e+05 1.776304324819e+03 -1.396450878346e+05 -1.282738875011e+05 4.834096187130e-05 -2.031735480462e-03 -2.539891524368e-02 1.329822184056e+05 1.072564290992e+04  2.566551942949e-02
3.000000000000e-03 2.081362483948e-06 8.058882200465e-04 -2.687282169356e+05 1.744408558351e+03 -3.317486501141e+05 -2.601955774855e+05 -7.141629453834e-04 -2.873187830629e-03 -3.565459286954e-02 2.868908148451e+05 6.775869281465e+04  3.565196288110e-02
4.000000000000e-03 5.328064382875e-07 9.200349917380e-04 -6.750077334722e+05 6.091391387586e+03 -8.713751873403e+05 -6.385580648058e+05 -1.465704143660e-03 -3.497562538132e-03 -4.006202409869e-02 7.283136618727e+05 2.171580048306e+05  3.981323674257e-02
5.000000000000e-03 5.504551029622e-07 9.387702115496e-04 -8.356876845792e+05 -2.919175613601e+04 -1.115818863993e+06 -8.006074981923e+05 -1.469082499960e-03 -4.419588100947e-03 -4.118679795046e-02 9.173713489214e+05 3.034594322511e+05  4.118982886164e-02
6.000000000000e-03 1.052299126987e-06 9.437963748804e-04 -8.632274778988e+05 -4.213631967825e+04 -1.169924048677e+06 -8.332654949754e+05 -1.397422089512e-03 -4.733219983626e-03 -4.145783693174e-02 9.554723405170e+05 3.308718070070e+05  4.159304086843e-02
7.000000000000e-03 1.160986528499e-06 9.461436983472e-04 -8.855758736674e+05 -4.728986711888e+04 -1.206236161315e+06 -8.567296990890e+05 -1.383414416491e-03 -4.841193345483e-03 -4.159274055170e-02 9.828472446905e+05 3.458524816975e+05  4.176890427308e-02
8.000000000000e-03 1.118030652300e-06 9.493880421777e-04 -9.171454889403e+05 -4.694838254243e+04 -1.251494760443e+06 -8.874610192760e+05 -1.392548043097e-03 -4.836301502537e-03 -4.174228180145e-02 1.018700422886e+06 3.594551929949e+05  4.190940925231e-02
9.000000000000e-03 1.108079193898e-06 9.497870189622e-04 -9.190257407501e+05 -4.785414563824e+04 -1.255138321728e+06 -8.896705325524e+05 -1.389802426328e-03 -4.852307558489e-03 -4.175370583940e-02 1.021278198343e+06 3.613448600668e+05  4.192742260562e-02
1.000000000000e-02 1.110260658854e-06 9.504843313205e-04 -9.267400150982e+05 -4.805166163998e+04 -1.266517124578e+06 -8.973077447506e+05 -1.390455880818e-03 -4.856063022053e-03 -4.178804703743e-02 1.030188294809e+06 3.650233430450e+05  4.196205251451e-02
2.000000000000e-02 1.275016868273e-06 9.978381463708e-04 -1.546804042143e+06 -7.196571507026e+04 -2.183629583995e+06 -1.512177578734e+06 -1.429598757721e-03 -5.225994675304e-03 -4.405420466637e-02 1.747537068291e+06 6.665838067969e+05  4.429187201022e-02
3.000000000000e-02 1.173186621463e-06 9.492185371211e-04 -9.745708911448e+05 -5.352983887028e+04 -1.340775485090e+06 -9.461414214940e+05 -1.378959097711e-03 -4.905339693636e-03 -4.175506088921e-02 1.087162599243e+06 3.923281441713e+05  4.195229659382e-02
4.000000000000e-02 1.021509651628e-06 9.313766076844e-04 -8.047007318478e+05 -3.918589218554e+04 -1.087796122947e+06 -7.770005848473e+05 -1.370371110111e-03 -4.574027942138e-03 -4.077597307941e-02 8.898324798806e+05 3.055465349060e+05  4.088330804746e-02
5.000000000000e-02 1.120683397217e-06 9.487232868766e-04 -9.366616947558e+05 -4.583254897610e+04 -1.285984214012e+06 -9.090587290157e+05 -1.371192717497e-03 -4.731679296884e-03 -4.153783448597e-02 1.043901545928e+06 3.724679198873e+05  4.168311233594e-02
6.000000000000e-02 1.271262996720e-06 9.346486624221e-04 -8.176647490942e+05 -4.848642731978e+04 -1.112768104675e+06 -7.921715621820e+05 -1.344166319899e-03 -4.787134893018e-03 -4.090141718697e-02 9.075348053171e+05 3.198621874479e+05  4.109141497967e-02
7.000000000000e-02 1.146862882739e-06 9.346826644710e-04 -8.230908886724e+05 -4.466965648531e+04 -1.121033779043e+06 -7.976462144415e+05 -1.342946141172e-03 -4.707276846453e-03 -4.092995287397e-02 9.139236273855e+05 3.209121247093e+05  4.109225219260e-02
8.000000000000e-02 1.163811742410e-06 9.475355665416e-04 -9.355077157486e+05 -4.793784589600e+04 -1.287298059848e+06 -9.091164739956e+05 -1.353311830317e-03 -4.781583558071e-03 -4.154801947592e-02 1.043974083197e+06 3.750083186645e+05  4.171849197858e-02
9.000000000000e-02 1.095481514933e-06 9.468023987233e-04 -9.255336197516e+05 -4.412647174908e+04 -1.274510441695e+06 -9.000093545466e+05 -1.346770871296e-03 -4.708879215546e-03 -4.150900859647e-02 1.033351138664e+06 3.703851020875e+05  4.165848164741e-02
1.000000000000e-01 1.036171963002e-06 9.594628972585e-04 -1.041769823681e+06 -4.492285567908e+04 -1.444590542841e+06 -1.014533596326e+06 -1.363973194705e-03 -4.726164461206e-03 -4.210516509856e-02 1.166964654283e+06 4.243016019797e+05  4.224079693665e-02
1.100000000000e-01 1.000935726233e-06 9.572790039123e-04 -1.019561747002e+06 -4.255489386074e+04 -1.410555035727e+06 -9.920333549817e+05 -1.365776034565e-03 -4.686714740690e-03 -4.200445095459e-02 1.140716712570e+06 4.121040374695e+05  4.212797712798e-02
1.200000000000e-01 9.682303160102e-07 9.659003176801e-04 -1.109967458348e+06 -4.263181234473e+04 -1.543581619201e+06 -1.081403294683e+06 -1.375982586885e-03 -4.691159718924e-03 -4.241397505587e-02 1.244984124077e+06 4.546156531265e+05  4.252644654244e-02
1.300000000000e-01 9.340659321971e-07 9.658253298349e-04 -1.107970400618e+06 -4.220951414164e+04 -1.539105854449e+06 -1.078810722017e+06 -1.380374597881e-03 -4.683366618738e-03 -4.240192750163e-02 1.241962325695e+06 4.523767975107e+05  4.251000017544e-02
1.400000000000e-01 9.077931881268e-07 9.720140248103e-04 -1.175209520369e+06 -4.246866375035e+04 -1.637754129141e+06 -1.145162873935e+06 -1.388260704751e-03 -4.687882888198e-03 -4.269340793654e-02 1.319375507815e+06 4.838997753538e+05  4.279384893125e-02
1.500000000000e-01 9.060529396158e-07 9.760523088533e-04 -1.218033093942e+06 -4.280669415914e+04 -1.702863259306e+06 -1.188333142998e+06 -1.385261335174e-03 -4.695022776291e-03 -4.288973619867e-02 1.369743165415e+06 5.058053456172e+05  4.299028545539e-02
1.600000000000e-01 8.895918691897e-07 9.799564915350e-04 -1.266579841928e+06 -4.327512516682e+04 -1.772711372651e+06 -1.235688216323e+06 -1.395274092555e-03 -4.704126174180e-03 -4.309145064441e-02 1.424993143634e+06 5.276143042539e+05  4.318659436591e-02
1.700000000000e-01 8.336841379920e-07 9.831275267231e-04 -1.314380920434e+06 -4.205905204580e+04 -1.840444707445e+06 -1.281898794386e+06 -1.407875814085e-03 -4.686253576311e-03 -4.324586150086e-02 1.478908140755e+06 5.478984927277e+05  4.332649035564e-02
1.800000000000e-01 8.149105466937e-07 9.861323718773e-04 -1.357590214297e+06 -4.081557840826e+04 -1.904156063674e+06 -1.324663812440e+06 -1.411929237557e-03 -4.667316937839e-03 -4.339030150642e-02 1.528803363471e+06 5.681659588226e+05  4.346031886516e-02
1.900000000000e-01 7.731204789118e-07 9.896563529292e-04 -1.399231760300e+06 -4.037566109533e+04 -1.964421815828e+06 -1.365423927633e+06 -1.418761819981e-03 -4.661824532745e-03 -4.354805911227e-02 1.576359167920e+06 5.870103928092e+05  4.361031802070e-02
2.000000000000e-01 7.392778403162e-07 9.936665902569e-04 -1.453347368768e+06 -4.032392206633e+04 -2.042072415153e+06 -1.418127643219e+06 -1.429337102684e-03 -4.662539888670e-03 -4.373917685584e-02 1.637849142380e+06 6.111058827556e+05  4.379336026042e-02
2.100000000000e-01 7.029133873027e-07 9.977640824652e-04 -1.518652312102e+06 -4.030811170271e+04 -2.136095999662e+06 -1.481856512724e+06 -1.439841996554e-03 -4.663139617920e-03 -4.394923196228e-02 1.712201608163e+06 6.404562466101e+05  4.399503151996e-02
2.200000000000e-01 6.870175536195e-07 1.002169469038e-03 -1.588777250459e+06 -3.932511392016e+04 -2.236692972935e+06 -1.550142545878e+06 -1.451680985734e-03 -4.651902427642e-03 -4.415454526908e-02 1.791870923090e+06 6.715346976257e+05  4.418770779744e-02
2.300000000000e-01 6.699497200851e-07 1.007009293455e-03 -1.668848486945e+06 -3.872017490439e+04 -2.355056970441e+06 -1.629513712890e+06 -1.455753514701e-03 -4.647564170957e-03 -4.437712455128e-02 1.884473056758e+06 7.098724665450e+05  4.440321840663e-02
2.400000000000e-01 6.158798277562e-07 1.011361346218e-03 -1.740269720345e+06 -3.823108368127e+04 -2.459317615739e+06 -1.699784076794e+06 -1.463705408869e-03 -4.642619730280e-03 -4.458042789510e-02 1.966457137626e+06 7.430780088738e+05  4.459782646356e-02
2.500000000000e-01 5.839149474970e-07 1.016166058175e-03 -1.828226420541e+06 -3.744719093759e+04 -2.588150034777e+06 -1.786497224211e+06 -1.469809908860e-03 -4.633596538184e-03 -4.479930450395e-02 2.067624559843e+06 7.843105911068e+05  4.480739017363e-02
2.600000000000e-01 5.942785296435e-07 1.020528584810e-03 -1.900092493555e+06 -3.605719623897e+04 -2.697636898577e+06 -1.859036175847e+06 -1.465586244719e-03 -4.618498661606e-03 -4.500914923263e-02 2.152255189326e+06 8.212230512384e+05  4.501109038166e-02
2.700000000000e-01 5.787272033080e-07 1.024999906456e-03 -1.977998839816e+06 -3.583770168879e+04 -2.811843372049e+06 -1.935879137644e+06 -1.471448937396e-03 -4.616207421902e-03 -4.521599417776e-02 2.241907116503e+06 8.579306960284e+05  4.521113112674e-02
2.800000000000e-01 5.735512099759e-07 1.029320668786e-03 -2.051913474280e+06 -3.734454255455e+04 -2.921020799405e+06 -2.009113942706e+06 -1.474846428174e-03 -4.632822226661e-03 -4.541999418912e-02 2.327349405464e+06 8.936221648251e+05  4.541533500130e-02
2.900000000000e-01 5.547269305018e-07 1.033465281871e-03 -2.146152981660e+06 -3.920347976026e+04 -3.055821847776e+06 -2.100728368192e+06 -1.486560401383e-03 -4.650588339738e-03 -4.561536628003e-02 2.434234399210e+06 9.356777952869e+05  4.560751496408e-02
3.000000000000e-01 5.382199557334e-07 1.036895384172e-03 -2.214172838250e+06 -3.928556396745e+04 -3.156902319261e+06 -2.168366945774e+06 -1.488487809451e-03 -4.651678616416e-03 -4.578227487028e-02 2.513147367762e+06 9.688393499454e+05  4.577117293750e-02
3.100000000000e-01 5.339860215012e-07 1.040490665567e-03 -2.293392773805e+06 -3.974473215045e+04 -3.271272195597e+06 -2.245801455249e+06 -1.496705710809e-03 -4.656625734085e-03 -4.595614994363e-02 2.603488808217e+06 1.004883376038e+06  4.593993364428e-02
3.200000000000e-01 5.394788825082e-07 1.043889580958e-03 -2.369067423878e+06 -4.136020991745e+04 -3.383745489785e+06 -2.321059281623e+06 -1.498075049388e-03 -4.673252711085e-03 -4.612630628267e-02 2.691290731762e+06 1.041979447484e+06  4.611179419930e-02
3.300000000000e-01 5.036255236828e-07 1.046987540647e-03 -2.460297244741e+06 -4.007204440292e+04 -3.511540636917e+06 -2.408668513305e+06 -1.510765622210e-03 -4.663389332603e-03 -4.627200503060e-02 2.793502131654e+06 1.080217507958e+06  4.624625723286e-02
3.400000000000e-01 5.169257273660e-07 1.050001055666e-03 -2.543973953087e+06 -3.989292430802e+04 -3.636389890243e+06 -2.492077852318e+06 -1.511092650893e-03 -4.661512840856e-03 -4.641422227300e-02 2.890813898549e+06 1.121397453543e+06  4.638551870929e-02
3.500000000000e-01 5.091389355931e-07 1.052886870925e-03 -2.623069631131e+06 -4.460380500183e+04 -3.755363311812e+06 -2.571305096281e+06 -1.510770456765e-03 -4.694200291887e-03 -4.654469325518e-02 2.983246013074e+06 1.161615125734e+06  4.652396263479e-02
3.600000000000e-01 4.991986321932e-07 1.055862388911e-03 -2.694223310078e+06 -4.514273075717e+04 -3.866011354731e+06 -2.644025596527e+06 -1.505504381103e-03 -4.697222858788e-03 -4.667693279747e-02 3.068086753779e+06 1.200225691720e+06  4.665749650113e-02
3.700000000000e-01 4.727693776441e-07 1.058732076931e-03 -2.773404130828e+06 -4.645487336833e+04 -3.981925270359e+06 -2.722063581285e+06 -1.509329130030e-03 -4.705298905213e-03 -4.679896491434e-02 3.159130994157e+06 1.237610399899e+06  4.677826059013e-02
3.800000000000e-01 4.595517673302e-07 1.061134096363e-03 -2.855424036178e+06 -4.653067125418e+04 -4.104442029038e+06 -2.803878477638e+06 -1.511381137228e-03 -4.705597779386e-03 -4.691604250301e-02 3.254581514285e+06 1.278115617331e+06  4.689263531513e-02
3.900000000000e-01 4.692026133727e-07 1.063684904369e-03 -2.925786504124e+06 -4.539013774973e+04 -4.210123395958e+06 -2.874296536076e+06 -1.510501769718e-03 -4.698997125890e-03 -4.702834253761e-02 3.336735478719e+06 1.313195997510e+06  4.700161640591e-02
4.000000000000e-01 4.671733612863e-07 1.066309363554e-03 -2.986212516447e+06 -4.506355985847e+04 -4.301740978144e+06 -2.935114791510e+06 -1.509386309723e-03 -4.696961606246e-03 -4.714664246233e-02 3.407689428700e+06 1.344075442746e+06  4.711800070899e-02
4.100000000000e-01 4.708464835345e-07 1.068802097143e-03 -3.064027529482e+06 -4.087446781600e+04 -4.420991857317e+06 -3.013941828825e+06 -1.506683420882e-03 -4.671657242009e-03 -4.728300505788e-02 3.499653738541e+06 1.384498985160e+06  4.724600815503e-02
4.200000000000e-01 4.853513864908e-07 1.071165433951e-03 -3.140202614075e+06 -4.008855768429e+04 -4.532441128974e+06 -3.088992720733e+06 -1.510109002376e-03 -4.666738903173e-03 -4.739692852014e-02 3.587212154594e+06 1.420235261768e+06  4.735514850437e-02
4.300000000000e-01 4.826666178231e-07 1.073386483034e-03 -3.207448847277e+06 -4.012796991415e+04 -4.632101905580e+06 -3.155756616076e+06 -1.511780894549e-03 -4.667449287753e-03 -4.750778290164e-02 3.665102456311e+06 1.452853289386e+06  4.746376310124e-02
4.400000000000e-01 4.856499277073e-07 1.075446644052e-03 -3.280246092335e+06 -4.102432219055e+04 -4.736337759716e+06 -3.226571255251e+06 -1.517692713726e-03 -4.673428971286e-03 -4.761118853172e-02 3.747718369101e+06 1.485358003988e+06  4.756461211551e-02
4.500000000000e-01 4.729099343309e-07 1.077492757262e-03 -3.356125262176e+06 -4.109463028981e+04 -4.846654554794e+06 -3.301051432678e+06 -1.521661815595e-03 -4.674137506378e-03 -4.771430563786e-02 3.834610416549e+06 1.520482213276e+06  4.766453675976e-02
4.600000000000e-01 4.753282190643e-07 1.079530417880e-03 -3.426583379397e+06 -4.288753158345e+04 -4.948799747282e+06 -3.370094823782e+06 -1.525622553757e-03 -4.685043624027e-03 -4.780810340401e-02 3.915159316820e+06 1.553009804420e+06  4.775828782250e-02
4.700000000000e-01 4.705067321118e-07 1.081497742317e-03 -3.495908325180e+06 -4.377649323978e+04 -5.048396815505e+06 -3.437665888015e+06 -1.530618737096e-03 -4.690918723207e-03 -4.789771936706e-02 3.993990342900e+06 1.584229324153e+06  4.784595409186e-02
4.800000000000e-01 4.672148913696e-07 1.083421294609e-03 -3.563314944988e+06 -4.529966217287e+04 -5.145151605257e+06 -3.503332776258e+06 -1.535530564015e-03 -4.700256858331e-03 -4.798613231329e-02 4.070599775501e+06 1.614572157562e+06  4.793349371044e-02
4.900000000000e-01 4.637556762225e-07 1.085227602794e-03 -3.642814432123e+06 -4.732539370373e+04 -5.259163445880e+06 -3.580740222678e+06 -1.540520832417e-03 -4.710943706498e-03 -4.807339470490e-02 4.160906033561e+06 1.650299975045e+06  4.802026018961e-02
5.000000000000e-01 4.602404956628e-07 1.086775366732e-03 -3.710773274741e+06 -4.761187172853e+04 -5.358195067297e+06 -3.647539689211e+06 -1.543186422607e-03 -4.712676959544e-03 -4.814512415156e-02 4.238836010416e+06 1.681954252272e+06  4.809018064401e-02
5.100000000000e-01 4.581074156330e-07 1.088371220456e-03 -3.779113324076e+06 -4.798772869572e+04 -5.459565277980e+06 -3.715427274712e+06 -1.544162257302e-03 -4.714484101506e-03 -4.821826911853e-02 4.318035292256e+06 1.715198091962e+06  4.816231061327e-02
5.200000000000e-01 4.559589320737e-07 1.089919325057e-03 -3.846927535037e+06 -4.836068280991e+04 -5.559974674566e+06 -3.782720388644e+06 -1.545278484670e-03 -4.716274479779e-03 -4.828930377910e-02 4.396540866082e+06 1.748044391681e+06  4.823229268655e-02
5.300000000000e-01 4.541357152406e-07 1.091389896723e-03 -3.912409072615e+06 -4.874826027946e+04 -5.656980097096e+06 -3.847719020881e+06 -1.546293146051e-03 -4.718083842424e-03 -4.835676294424e-02 4.472369396864e+06 1.779802919067e+06  4.829880701700e-02
5.400000000000e-01 4.522856969022e-07 1.092949410023e-03 -3.983057846102e+06 -4.918533261749e+04 -5.761666745539e+06 -3.917857204099e+06 -1.547346984545e-03 -4.720078180508e-03 -4.842831152432e-02 4.554193931913e+06 1.814090618966e+06  4.836938755115e-02
5.500000000000e-01 4.499382934016e-07 1.094462256960e-03 -4.052822046358e+06 -4.951139991739e+04 -5.865007622184e+06 -3.987103405117e+06 -1.548398840173e-03 -4.721580505467e-03 -4.849766818498e-02 4.634977691220e+06 1.847913420840e+06  4.843766708450e-02
5.600000000000e-01 4.479450812146e-07 1.095905232107e-03 -4.120476768175e+06 -4.986622218405e+04 -5.965257871422e+06 -4.054269706468e+06 -1.549373114931e-03 -4.723166210972e-03 -4.856382198967e-02 4.713334782021e+06 1.880744041756e+06  4.850285332137e-02
5.700000000000e-01 4.462922382870e-07 1.097332569325e-03 -4.188481497307e+06 -5.027879010070e+04 -6.066072078651e+06 -4.121801723873e+06 -1.550299539250e-03 -4.724952976095e-03 -4.862927274731e-02 4.792118433277e+06 1.913785193826e+06  4.856742940838e-02
5.800000000000e-01 4.446850138308e-07 1.098789970367e-03 -4.259061208372e+06 -5.071979707434e+04 -6.170730631655e+06 -4.191901590906e+06 -1.551224017513e-03 -4.726824787860e-03 -4.869610631730e-02 4.873897810311e+06 1.948100325642e+06  4.863339505387e-02
5.900000000000e-01 4.432650845215e-07 1.100191623395e-03 -4.328042336586e+06 -5.117040782688e+04 -6.273043485704e+06 -4.260423851833e+06 -1.552093119560e-03 -4.728697147689e-03 -4.876037851691e-02 4.953836558041e+06 1.981659655947e+06  4.869686425535e-02
6.000000000000e-01 4.420658619507e-07 1.101567131781e-03 -4.396801650568e+06 -5.165280147052e+04 -6.375060404039e+06 -4.328739106408e+06 -1.552920117189e-03 -4.730657063203e-03 -4.882345715748e-02 5.033533720338e+06 2.015140085719e+06  4.875920374286e-02
6.100000000000e-01 4.407389678625e-07 1.102987894837e-03 -4.468967090236e+06 -5.213938622379e+04 -6.482141634142e+06 -4.400442618110e+06 -1.553766735607e-03 -4.732607051363e-03 -4.888860829055e-02 5.117183780829e+06 2.050286471988e+06  4.882357449891e-02
6.200000000000e-01 4.395223754954e-07 1.104336798471e-03 -4.538562688672e+06 -5.261288502281e+04 -6.585425602294e+06 -4.469599358840e+06 -1.554558080154e-03 -4.734471587498e-03 -4.895045396768e-02 5.197862549935e+06 2.084194462440e+06  4.888469018376e-02
6.300000000000e-01 4.386024653073e-07 1.105667546240e-03 -4.608258578180e+06 -5.314070991077e+04 -6.688901480140e+06 -4.538873037161e+06 -1.555306763296e-03 -4.736500700969e-03 -4.901148074203e-02 5.278677698494e+06 2.118189693429e+06  4.894506770705e-02
6.400000000000e-01 4.374815369456e-07 1.107044330416e-03 -4.681495622930e+06 -5.365818035626e+04 -6.797635549883e+06 -4.611666500459e+06 -1.556081505977e-03 -4.738467615602e-03 -4.907461138099e-02 5.363599224424e+06 2.153910418720e+06  4.900748925111e-02
6.500000000000e-01 4.364961033532e-07 1.108350658565e-03 -4.752043731984e+06 -5.416903117873e+04 -6.902397239382e+06 -4.681795471930e+06 -1.556801965765e-03 -4.740374680324e-03 -4.913450511983e-02 5.445412147765e+06 2.188336461569e+06  4.906672994916e-02
6.600000000000e-01 4.355796801887e-07 1.109644003096e-03 -4.822925692090e+06 -5.469344390021e+04 -7.007674433629e+06 -4.752264207701e+06 -1.557501313279e-03 -4.742298411540e-03 -4.919380357012e-02 5.527621444473e+06 2.222942153216e+06  4.912539963240e-02
6.700000000000e-01 4.346545341463e-07 1.110943978818e-03 -4.895230902117e+06 -5.522330148247e+04 -7.115080280258e+06 -4.824153715151e+06 -1.558194340935e-03 -4.744213781941e-03 -4.925340568794e-02 5.611488299175e+06 2.258254351597e+06  4.918437004453e-02
6.800000000000e-01 4.337759347505e-07 1.112218831764e-03 -4.967181345226e+06 -5.575328691918e+04 -7.221975157109e+06 -4.895696927130e+06 -1.558863039359e-03 -4.746099474941e-03 -4.931185310570e-02 5.694951143155e+06 2.293406432953e+06  4.924220614639e-02
6.900000000000e-01 4.329128565136e-07 1.113493729464e-03 -5.040183240166e+06 -5.629338861959e+04 -7.330448873890e+06 -4.968292243971e+06 -1.559520682423e-03 -4.747990912848e-03 -4.937030261673e-02 5.779641452675e+06 2.329085937255e+06  4.930005203165e-02
7.000000000000e-01 4.322941121652e-07 1.114747242801e-03 -5.112984987131e+06 -5.687998394676e+04 -7.438665337854e+06 -5.040704577948e+06 -1.560140652665e-03 -4.750003506489e-03 -4.942778368625e-02 5.864118300978e+06 2.364703084192e+06  4.935699691255e-02
7.100000000000e-01 4.319266720689e-07 1.116003228708e-03 -5.186962678284e+06 -5.753124388713e+04 -7.548674589402e+06 -5.114304371599e+06 -1.560732706177e-03 -4.752193211705e-03 -4.948539462648e-02 5.949980546428e+06 2.400935213839e+06  4.941413476943e-02
7.200000000000e-01 4.313869092268e-07 1.117232423420e-03 -5.260404018660e+06 -5.813186124667e+04 -7.657876606235e+06 -5.187366687749e+06 -1.561318555654e-03 -4.754191465938e-03 -4.954176126961e-02 6.035215770882e+06 2.436893965375e+06  4.946999457915e-02
7.300000000000e-01 4.309422697468e-07 1.118441132686e-03 -5.333623366049e+06 -5.874857396319e+04 -7.766771355569e+06 -5.260217246006e+06 -1.561880227689e-03 -4.756210005397e-03 -4.959719159542e-02 6.120203989208e+06 2.472763582632e+06  4.952494938859e-02
7.400000000000e-01 4.307953042593e-07 1.119615751014e-03 -5.405727678546e+06 -5.942146730585e+04 -7.874055583910e+06 -5.331977517940e+06 -1.562396015961e-03 -4.758369192084e-03 -4.965107419461e-02 6.203920260132e+06 2.508129591223e+06  4.957844129845e-02
7.500000000000e-01 4.305792117307e-07 1.120804963499e-03 -5.479722928385e+06 -6.009294678300e+04 -7.984157649907e+06 -5.405621226363e+06 -1.562916012823e-03 -4.760496890392e-03 -4.970562332981e-02 6.289833934885e+06 2.544425416246e+06  4.963257976742e-02
7.600000000000e-01 4.305978824351e-07 1.121945447378e-03 -5.551614173950e+06 -6.079857067462e+04 -8.091169487065e+06 -5.477187158836e+06 -1.563389918632e-03 -4.762693191655e-03 -4.975794787153e-02 6.373323606617e+06 2.579725080161e+06  4.968456731887e-02
7.700000000000e-01 4.305759978034e-07 1.123115118273e-03 -5.626326793086e+06 -6.151962665777e+04 -8.202387941108e+06 -5.551564195942e+06 -1.563872317464e-03 -4.764908693655e-03 -4.981161141551e-02 6.460092976712e+06 2.616415009034e+06  4.973787684281e-02
7.800000000000e-01 4.304661169803e-07 1.124262727182e-03 -5.700608522584e+06 -6.221077683986e+04 -8.312964900627e+06 -5.625512179795e+06 -1.564345905819e-03 -4.767007152081e-03 -4.986425489580e-02 6.546361867669e+06 2.652891678700e+06  4.979015186759e-02
7.900000000000e-01 4.306717403213e-07 1.125353734194e-03 -5.772106571894e+06 -6.295330912380e+04 -8.419450508858e+06 -5.696710042363e+06 -1.564765242661e-03 -4.769220207035e-03 -4.991431876575e-02 6.629422374372e+06 2.688048448216e+06  4.983994282850e-02
8.000000000000e-01 4.306841167569e-07 1.126461024992e-03 -5.845602712227e+06 -6.366279442948e+04 -8.528895484999e+06 -5.769890771621e+06 -1.565200896874e-03 -4.771314507342e-03 -4.996511832382e-02 6.714796322949e+06 2.724171169289e+06  4.989041773058e-02
8.100000000000e-01 4.307303941317e-07 1.127551551023e-03 -5.918894204704e+06 -6.437669354275e+04 -8.638051506602e+06 -5.842873935953e+06 -1.565621176749e-03 -4.773393677886e-03 -5.001515020521e-02 6.799939882420e+06 2.760206452171e+06  4.994013919696e-02
8.200000000000e-01 4.309186975897e-07 1.128637425556e-03 -5.992772454011e+06 -6.513240171608e+04 -8.748112257271e+06 -5.916453563622e+06 -1.566022530826e-03 -4.775561471559e-03 -5.006497830686e-02 6.885779424968e+06 2.796557378304e+06  4.998969451303e-02
8.300000000000e-01 4.310993438061e-07 1.129694973297e-03 -6.065606328838e+06 -6.587395105294e+04 -8.856626860645e+06 -5.988996844586e+06 -1.566408205617e-03 -4.777662312686e-03 -5.011350500738e-02 6.970410011356e+06 2.832402054407e+06  5.003795544242e-02
8.400000000000e-01 4.313238812564e-07 1.130731223972e-03 -6.137825612380e+06 -6.661977153903e+04 -8.964242562551e+06 -6.060934583790e+06 -1.566777112776e-03 -4.779747969107e-03 -5.016105713059e-02 7.054334252907e+06 2.867958454178e+06  5.008525949478e-02
8.500000000000e-01 4.315575012438e-07 1.131746261586e-03 -6.209396338768e+06 -6.736038540643e+04 -9.070903310216e+06 -6.132230767659e+06 -1.567132465516e-03 -4.781793926573e-03 -5.020763614954e-02 7.137510138881e+06 2.903204911345e+06  5.013159956286e-02
8.600000000000e-01 4.318073257525e-07 1.132736807392e-03 -6.280040273220e+06 -6.809559313372e+04 -9.176195276728e+06 -6.202608565689e+06 -1.567472797728e-03 -4.783800507183e-03 -5.025309212602e-02 7.219614705212e+06 2.938005229791e+06  5.017682857820e-02
8.700000000000e-01 4.321275476490e-07 1.133701548295e-03 -6.349607708447e+06 -6.883937587055e+04 -9.279903516873e+06 -6.271922111379e+06 -1.567793444545e-03 -4.785804931494e-03 -5.029736885172e-02 7.300477778900e+06 2.972293211537e+06  5.022090392510e-02
8.800000000000e-01 4.325281529252e-07 1.134631642251e-03 -6.417396112014e+06 -6.958897415428e+04 -9.380982343929e+06 -6.339472111902e+06 -1.568090811775e-03 -4.787799837254e-03 -5.034006107567e-02 7.379283522615e+06 3.005724184557e+06  5.026342559460e-02
8.900000000000e-01 4.328524978927e-07 1.135545264406e-03 -6.484693341058e+06 -7.031151717796e+04 -9.481325779728e+06 -6.406531314201e+06 -1.568384753053e-03 -4.789704198602e-03 -5.038199276912e-02 7.457516811662e+06 3.038909223459e+06  5.030517344930e-02
9.000000000000e-01 4.332156529731e-07 1.136432532738e-03 -6.550719029432e+06 -7.103276095198e+04 -9.579789202322e+06 -6.472329718812e+06 -1.568662250513e-03 -4.791583800210e-03 -5.042271849780e-02 7.534279316856e+06 3.071480860817e+06  5.034573321377e-02
9.100000000000e-01 4.335542112303e-07 1.137300368131e-03 -6.615949412273e+06 -7.173879857153e+04 -9.677071514168e+06 -6.537337376640e+06 -1.568931423996e-03 -4.793405529153e-03 -5.046255161679e-02 7.610119434361e+06 3.103663767271e+06  5.038540054643e-02
9.200000000000e-01 4.338620355603e-07 1.138142490278e-03 -6.679868499400e+06 -7.242301543809e+04 -9.772402392697e+06 -6.601039759055e+06 -1.569190747974e-03 -4.795154054635e-03 -5.050120348640e-02 7.684436883717e+06 3.135202654099e+06  5.042388718781e-02
9.300000000000e-01 4.341550618133e-07 1.138950381934e-03 -6.741768608107e+06 -7.308420497095e+04 -9.864729153520e+06 -6.662732716155e+06 -1.569436215745e-03 -4.796827556553e-03 -5.053828453389e-02 7.756410159261e+06 3.165750956047e+06  5.046081037257e-02
9.400000000000e-01 4.344033787382e-07 1.139714244542e-03 -6.800823535167e+06 -7.370639977829e+04 -9.952814404977e+06 -6.721590807438e+06 -1.569667375099e-03 -4.798388690949e-03 -5.057334292723e-02 7.825076249194e+06 3.194896399416e+06  5.049571413644e-02
9.500000000000e-01 4.346794565324e-07 1.140453898138e-03 -6.858496386114e+06 -7.432345704653e+04 -1.003885102331e+07 -6.779076423387e+06 -1.569885149112e-03 -4.799922415309e-03 -5.060729413045e-02 7.892141277604e+06 3.223370708492e+06  5.052952488074e-02
9.600000000000e-01 4.348866516860e-07 1.141170339721e-03 -6.914830701083e+06 -7.490667292223e+04 -1.012288695004e+07 -6.835226154878e+06 -1.570098210729e-03 -4.801361585169e-03 -5.064017690246e-02 7.957647935334e+06 3.251179889071e+06  5.056225759569e-02
9.700000000000e-01 4.349708716491e-07 1.141867758546e-03 -6.970124212032e+06 -7.544186169782e+04 -1.020535609452e+07 -6.890332657052e+06 -1.570312710101e-03 -4.802674989572e-03 -5.067217967690e-02 8.021937654536e+06 3.278461625802e+06  5.059408630054e-02
9.800000000000e-01 4.350667620557e-07 1.142533446550e-03 -7.023312406928e+06 -7.596100167559e+04 -1.028469442510e+07 -6.943344511375e+06 -1.570513261094e-03 -4.803938393080e-03 -5.070272901009e-02 8.083783781135e+06 3.304712334031e+06  5.062447436708e-02
9.900000000000e-01 4.350575914015e-07 1.143181233192e-03 -7.075469759176e+06 -7.643701544690e+04 -1.036248277661e+07 -6.995323840430e+06 -1.570714526244e-03 -4.805091324650e-03 -5.073245134569e-02 8.144425458739e+06 3.330442384321e+06  5.065401537193e-02
1.000000000000e+00 4.349755899023e-07 1.143820900391e-03 -7.127360768008e+06 -7.688628937559e+04 -1.043986578967e+07 -7.047034299816e+06 -1.570917359387e-03 -4.806173881913e-03 -5.076179742278e-02 8.204753619164e+06 3.356033103794e+06  5.068316478207e-02
1.050000000000e+00 4.350191715737e-07 1.148221692196e-03 -7.425483175030e+06 -7.931994403955e+04 -1.088458803133e+07 -7.344172556356e+06 -1.572271150795e-03 -4.813900769490e-03 -5.096379375948e-02 8.551414587571e+06 3.503163533160e+06  5.088391032657e-02
1.100000000000e+00 3.932822968185e-07 1.146987877368e-03 -7.326436058922e+06 -7.712584699920e+04 -1.072394954182e+07 -7.240292763515e+06 -1.577446878262e-03 -4.809253347892e-03 -5.090257020587e-02 8.430226121420e+06 3.443985587987e+06  5.081978596022e-02
1.150000000000e+00 4.091962316450e-07 1.153170814831e-03 -7.742369595277e+06 -8.482698565018e+04 -1.134330816250e+07 -7.654402846240e+06 -1.579855238885e-03 -4.830938334088e-03 -5.118609291086e-02 8.913360201338e+06 3.648677352900e+06  5.110439637228e-02
1.200000000000e+00 4.061438075397e-07 1.154593380077e-03 -7.877146673058e+06 -8.686366869648e+04 -1.153777226418e+07 -7.786086533888e+06 -1.583081537863e-03 -4.835401493188e-03 -5.125114930698e-02 9.067001823709e+06 3.710046446330e+06  5.116830099760e-02
1.250000000000e+00 4.158146820766e-07 1.158080968012e-03 -8.207541322587e+06 -9.311593362649e+04 -1.203305814957e+07 -8.116342863608e+06 -1.583023545703e-03 -4.848372535790e-03 -5.141204088600e-02 9.452314111923e+06 3.875279231640e+06  5.133066908869e-02
1.300000000000e+00 4.457432315054e-07 1.160297069836e-03 -8.396709915030e+06 -9.618422351582e+04 -1.231061341626e+07 -8.303015413620e+06 -1.584548523660e-03 -4.854330093747e-03 -5.151618771113e-02 9.670112914969e+06 3.965083193097e+06  5.143434701741e-02