 TITLE = "Time curves in points"
 VARIABLES = "TIME"  "DISPLACEMENT_X1"  "DISPLACEMENT_Y1"  "STRESS_XX"  "STRESS_XY"  "STRESS_YY"  "STRESS_ZZ"  "STRAIN_XX"  "STRAIN_XY"  "STRAIN_YY"  p_(1st_Invariant)  q_(2nd_Invariant)   Effective_Strain
 ZONE T="POINT=POINT6"
0.000000000000e+00 0.000000000000e+00 0.000000000000e+00 -1.000000000000e+05 0.000000000000e+00 -1.000000000000e+05 -1.000000000000e+05 0.000000000000e+00 0.000000000000e+00 0.000000000000e+00 1.000000000000e+05 0.000000000000e+00  0.000000000000e+00
1.000000000000e-03 -4.199070397457e-09 0.000000000000e+00 -2.687055548970e+04 -4.438294012905e-01 9.690355130686e+03 -2.687205779322e+04 1.542364952885e-07 -9.113297039832e-08 3.753741060188e-03 1.468408605074e+04 3.656166180337e+04  3.753663947636e-03
2.000000000000e-03 2.562659434988e-08 0.000000000000e+00 -1.316605480894e+05 -1.792591389190e+00 -1.474939354171e+05 -1.316617711306e+05 -8.603296188135e-08 -1.513604043935e-06 -2.541470348351e-02 1.369387515457e+05 1.583277614699e+04  2.541466060236e-02
3.000000000000e-03 1.641732023862e-08 0.000000000000e+00 -2.702490798116e+05 1.567449561112e+01 -3.571890316395e+05 -2.709752225413e+05 1.179200196313e-04 -7.791831002834e-06 -3.709796722468e-02 2.994711113308e+05 8.657916856970e+04  3.715707002033e-02
4.000000000000e-03 2.344694966798e-08 0.000000000000e+00 -7.294393741739e+05 6.620540783759e+02 -1.046078768452e+06 -7.302072361618e+05 1.220552430421e-04 -1.058604922607e-05 -4.287867078943e-02 8.352417929292e+05 3.162582413360e+05  4.293983242781e-02
5.000000000000e-03 -1.536390741455e-07 0.000000000000e+00 -8.721944481991e+05 2.398599183536e+03 -1.312698155024e+06 -8.939570225938e+05 3.755731632850e-04 2.399492688978e-05 -4.403733842396e-02 1.026283208606e+06 4.300556830390e+05  4.422634057247e-02
6.000000000000e-03 -1.474659728061e-07 0.000000000000e+00 -9.091576037165e+05 1.791883396536e+03 -1.365801100637e+06 -9.299834656787e+05 3.650400860390e-04 1.213206161987e-05 -4.422439986359e-02 1.068314056677e+06 4.466056850418e+05  4.440805014692e-02
7.000000000000e-03 -1.379455064070e-07 0.000000000000e+00 -9.331976446054e+05 2.209044464952e+03 -1.402227403878e+06 -9.541700060906e+05 3.676348683805e-04 1.867133525305e-05 -4.433725035739e-02 1.096531684858e+06 4.589190920012e+05  4.452221793337e-02
8.000000000000e-03 -1.653275075867e-07 0.000000000000e+00 -9.713103480124e+05 1.882595187552e+03 -1.460418048993e+06 -9.926913482896e+05 3.706092248113e-04 1.406941157002e-05 -4.448408952260e-02 1.141473248432e+06 4.787864982799e+05  4.467055383171e-02
9.000000000000e-03 -1.704615073637e-07 0.000000000000e+00 -9.648681146735e+05 1.761405895113e+03 -1.455468259149e+06 -9.881345420571e+05 3.866081964222e-04 1.208470228882e-05 -4.448073263547e-02 1.136156971960e+06 4.794002747386e+05  4.467529625672e-02
1.000000000000e-02 -1.706461619514e-07 0.000000000000e+00 -9.735287987162e+05 1.782446025395e+03 -1.468137992888e+06 -9.966667121992e+05 3.855149841827e-04 1.242836796890e-05 -4.451459252989e-02 1.146111167935e+06 4.834655361025e+05  4.470860180920e-02
2.000000000000e-02 -2.164774665094e-07 0.000000000000e+00 -1.550744613490e+06 2.392046863669e+03 -2.345328551206e+06 -1.578429291910e+06 4.187451025028e-04 2.126253312480e-05 -4.666545051208e-02 1.824834152202e+06 7.811206311231e+05  4.687624029399e-02
3.000000000000e-02 -1.673801458789e-07 0.000000000000e+00 -9.340260938660e+05 1.508933327788e+03 -1.407789049828e+06 -9.567261102439e+05 3.791324594209e-04 9.591717025059e-06 -4.444911953858e-02 1.099513751313e+06 4.628380202244e+05  4.463989638417e-02
4.000000000000e-02 3.819070659865e-08 0.000000000000e+00 -8.159151465501e+05 1.751067114564e+03 -1.205221332420e+06 -8.284546637418e+05 2.733622062858e-04 1.300356722868e-05 -4.369750411125e-02 9.498637142373e+05 3.832023394313e+05  4.383483028209e-02
5.000000000000e-02 5.828487429858e-08 0.000000000000e+00 -9.698621552431e+05 1.332536504051e+03 -1.429548125925e+06 -9.797642015296e+05 2.432106393718e-04 2.644377626554e-06 -4.455676450574e-02 1.126391494232e+06 4.548216544579e+05  4.467886653438e-02
6.000000000000e-02 1.016475270880e-07 0.000000000000e+00 -8.564297336331e+05 1.711592121336e+03 -1.255249359406e+06 -8.646717414449e+05 2.244777472475e-04 1.032560326879e-05 -4.395812157072e-02 9.921169448280e+05 3.947742883802e+05  4.407079284790e-02
7.000000000000e-02 1.764302439182e-07 0.000000000000e+00 -8.674455101607e+05 2.306975318623e+03 -1.271179117221e+06 -8.754499708709e+05 2.218735087969e-04 2.102319918263e-05 -4.400585022023e-02 1.004691532751e+06 3.998114473988e+05  4.411722044485e-02
8.000000000000e-02 1.761892590198e-07 0.000000000000e+00 -9.725352948495e+05 2.379238541490e+03 -1.428684262235e+06 -9.804879543653e+05 2.208877394486e-04 2.263291580830e-05 -4.458084965133e-02 1.127235837150e+06 4.522438613646e+05  4.469172011544e-02
9.000000000000e-02 1.790109431182e-07 0.000000000000e+00 -9.693343092361e+05 2.440969082875e+03 -1.423680439676e+06 -9.772060441157e+05 2.201664313219e-04 2.382224154320e-05 -4.456680395653e-02 1.123406931009e+06 4.504816901539e+05  4.467731308883e-02
1.000000000000e-01 1.787796362160e-07 0.000000000000e+00 -1.089113432247e+06 2.685936332773e+03 -1.603268072255e+06 -1.096952755563e+06 2.193543456532e-04 2.834230092610e-05 -4.513986007819e-02 1.263111420022e+06 5.103013493375e+05  4.524996263574e-02
1.100000000000e-01 1.845020025424e-07 0.000000000000e+00 -1.067001897670e+06 2.756294452581e+03 -1.571234094162e+06 -1.075294559668e+06 2.232870393695e-04 3.024361563385e-05 -4.504718527928e-02 1.237843517167e+06 5.001602148571e+05  4.515927319332e-02
1.200000000000e-01 1.923690184818e-07 0.000000000000e+00 -1.159705199696e+06 2.976658363589e+03 -1.711305335628e+06 -1.168404383742e+06 2.256934693454e-04 3.375052779579e-05 -4.543430405252e-02 1.346471639689e+06 5.473266813764e+05  4.554760767902e-02
1.300000000000e-01 2.162039909496e-07 0.000000000000e+00 -1.152851365107e+06 3.113622801160e+03 -1.705062283334e+06 -1.163165635563e+06 2.363717364166e-04 3.601998209937e-05 -4.542758847332e-02 1.340359761335e+06 5.471532815995e+05  4.554627708590e-02
1.400000000000e-01 2.136662293344e-07 0.000000000000e+00 -1.218869835899e+06 3.227811008198e+03 -1.803669287568e+06 -1.229015829434e+06 2.348190028117e-04 3.794751184797e-05 -4.570838638636e-02 1.417184984300e+06 5.798199933544e+05  4.582629423990e-02
1.500000000000e-01 2.158047841919e-07 0.000000000000e+00 -1.269707005446e+06 3.283993667132e+03 -1.879644851161e+06 -1.279740925682e+06 2.341408691564e-04 3.914867206486e-05 -4.589378465969e-02 1.476364260763e+06 6.050100340833e+05  4.601135186910e-02
1.600000000000e-01 1.848163686842e-07 0.000000000000e+00 -1.326431727069e+06 2.986693169549e+03 -1.961525222449e+06 -1.335182964156e+06 2.215288654456e-04 3.765763486672e-05 -4.605400373238e-02 1.541046637891e+06 6.307846219453e+05  4.616521288058e-02
1.700000000000e-01 1.552004827830e-07 0.000000000000e+00 -1.355914676410e+06 2.724834654674e+03 -2.006416663800e+06 -1.364932720523e+06 2.239986126887e-04 3.373172752066e-05 -4.617300105164e-02 1.575754686911e+06 6.460574117458e+05  4.628544375029e-02
1.800000000000e-01 1.560350389019e-07 0.000000000000e+00 -1.395950381272e+06 3.065896164125e+03 -2.064665879104e+06 -1.404246687272e+06 2.193407430024e-04 3.894133028957e-05 -4.632446275545e-02 1.621620982549e+06 6.646273967384e+05  4.643457064843e-02
1.900000000000e-01 1.457998742913e-07 0.000000000000e+00 -1.446393907990e+06 3.157694190101e+03 -2.137179574363e+06 -1.453429573854e+06 2.103316553022e-04 4.013274319820e-05 -4.649115086694e-02 1.679001018736e+06 6.873166034844e+05  4.659672457338e-02
2.000000000000e-01 1.421704748604e-07 0.000000000000e+00 -1.511692163296e+06 3.306103262395e+03 -2.234197683084e+06 -1.518356114838e+06 2.085988304884e-04 4.184948602421e-05 -4.668053247359e-02 1.754748653739e+06 7.192194960908e+05  4.678523681792e-02
2.100000000000e-01 1.371717355844e-07 0.000000000000e+00 -1.571374035136e+06 4.270104739992e+03 -2.320967372616e+06 -1.576936734343e+06 2.015529957120e-04 5.213617348028e-05 -4.684498755801e-02 1.823092714032e+06 7.468641471760e+05  4.694617540374e-02
2.200000000000e-01 1.353669637061e-07 0.000000000000e+00 -1.627877666634e+06 3.914478230585e+03 -2.403749342591e+06 -1.632650969674e+06 1.966962058918e-04 4.753593547978e-05 -4.702787168800e-02 1.888092659633e+06 7.735257854556e+05  4.712659957845e-02
2.300000000000e-01 1.161801459353e-07 0.000000000000e+00 -1.707495904880e+06 4.278790219343e+03 -2.519589313853e+06 -1.710834246927e+06 1.888748656325e-04 5.105974329678e-05 -4.724849069084e-02 1.979306488553e+06 8.104632798531e+05  4.734329329378e-02
2.400000000000e-01 1.337200671738e-07 0.000000000000e+00 -1.778821302406e+06 4.604550796135e+03 -2.622655079633e+06 -1.780590705215e+06 1.795739059038e-04 5.464585149454e-05 -4.744604992593e-02 2.060689029085e+06 8.429881957566e+05  4.753618549457e-02
2.500000000000e-01 1.361643365684e-07 0.000000000000e+00 -1.870200341346e+06 4.772890967569e+03 -2.758307846717e+06 -1.871403419083e+06 1.768340791737e-04 5.659312569631e-05 -4.766793074364e-02 2.166637202382e+06 8.875450791870e+05  4.775669392512e-02
2.600000000000e-01 1.166842223121e-07 0.000000000000e+00 -1.942553727031e+06 4.173824102179e+03 -2.867391830847e+06 -1.943978358350e+06 1.784059703258e-04 5.076391569472e-05 -4.786077274782e-02 2.251307972076e+06 9.241548879602e+05  4.795030526740e-02
2.700000000000e-01 1.092005823650e-07 0.000000000000e+00 -2.020007011344e+06 4.356862807310e+03 -2.984201618338e+06 -2.021683577857e+06 1.796951732172e-04 5.281670022206e-05 -4.806494173295e-02 2.341964069180e+06 9.633869738602e+05  4.815512767078e-02
2.800000000000e-01 1.047251000112e-07 0.000000000000e+00 -2.110611195670e+06 4.596615442915e+03 -3.119798975782e+06 -2.112164184405e+06 1.786871539424e-04 5.501228933819e-05 -4.826211168405e-02 2.447524785286e+06 1.008443611051e+06  4.835179677880e-02
2.900000000000e-01 1.222545284427e-07 0.000000000000e+00 -2.198379119684e+06 5.429712947628e+03 -3.252426854548e+06 -2.200322492842e+06 1.811710843142e-04 6.035669566439e-05 -4.843958787841e-02 2.550376155691e+06 1.053119386083e+06  4.853053964509e-02
3.000000000000e-01 1.095806153043e-07 0.000000000000e+00 -2.254654670557e+06 4.916795065729e+03 -3.328915825980e+06 -2.253428289587e+06 1.667298952421e-04 5.554805103140e-05 -4.856518676595e-02 2.612332928708e+06 1.074908606404e+06  4.864886113497e-02
3.100000000000e-01 1.177886026773e-07 0.000000000000e+00 -2.360273899981e+06 5.350716968666e+03 -3.479205429867e+06 -2.355791809002e+06 1.550386661121e-04 5.750648288247e-05 -4.873116244921e-02 2.731757046283e+06 1.121217597590e+06  4.880896809040e-02
3.200000000000e-01 1.123806136666e-07 0.000000000000e+00 -2.428985387495e+06 5.016209269302e+03 -3.588750264790e+06 -2.427094325988e+06 1.662211933538e-04 5.715179699843e-05 -4.886819948855e-02 2.814943326091e+06 1.160744080538e+06  4.895162183378e-02
3.300000000000e-01 8.794398531213e-08 0.000000000000e+00 -2.493809856299e+06 5.580603472034e+03 -3.681159158081e+06 -2.489987657231e+06 1.573441889677e-04 5.955828603652e-05 -4.899011934483e-02 2.888318890537e+06 1.189304287577e+06  4.906908907630e-02
3.400000000000e-01 4.802531092142e-08 0.000000000000e+00 -2.570406070816e+06 5.353622968160e+03 -3.790028535852e+06 -2.564173881914e+06 1.478302081134e-04 5.774639078036e-05 -4.913295901874e-02 2.974869496194e+06 1.222785630774e+06  4.920714231899e-02
3.500000000000e-01 3.868692638792e-08 0.000000000000e+00 -2.649935462088e+06 5.363121960536e+03 -3.899971426776e+06 -2.639962782815e+06 1.335874650305e-04 5.693504452204e-05 -4.926815647603e-02 3.063289890560e+06 1.255086397159e+06  4.933518441321e-02
3.600000000000e-01 5.776799207987e-08 0.000000000000e+00 -2.731522960435e+06 5.394850184594e+03 -4.012568015249e+06 -2.717636405416e+06 1.190155607494e-04 5.714412304986e-05 -4.939813670350e-02 3.153909127033e+06 1.288078369018e+06  4.945785092150e-02
3.700000000000e-01 3.935102095297e-08 0.000000000000e+00 -2.838462844883e+06 5.384256865127e+03 -4.164792251021e+06 -2.821302037703e+06 1.097803740086e-04 5.732210276755e-05 -4.952278902679e-02 3.274852377869e+06 1.335025108660e+06  4.957786978576e-02
3.800000000000e-01 2.290981592679e-08 0.000000000000e+00 -2.894415034400e+06 5.659688876634e+03 -4.249946741943e+06 -2.877744697054e+06 1.120071741158e-04 5.921755684737e-05 -4.961416718459e-02 3.340702157799e+06 1.363978510603e+06  4.967037138826e-02
3.900000000000e-01 5.114921615425e-09 0.000000000000e+00 -2.975874647325e+06 6.450933480750e+03 -4.369352351223e+06 -2.958090773249e+06 1.081763870508e-04 6.357496327427e-05 -4.973208732122e-02 3.434439257266e+06 1.402498717675e+06  4.978638543127e-02
4.000000000000e-01 1.605939727462e-08 0.000000000000e+00 -3.050828618882e+06 5.496190522247e+03 -4.484219666950e+06 -3.034019276099e+06 1.107160219599e-04 5.753583715941e-05 -4.984797583978e-02 3.523022520644e+06 1.441900633361e+06  4.990352546731e-02
4.100000000000e-01 2.654070716732e-08 0.000000000000e+00 -3.112268870579e+06 6.195329806576e+03 -4.577995037100e+06 -3.096105514621e+06 1.122983765850e-04 6.152613369966e-05 -4.995719716150e-02 3.595456474100e+06 1.473913379206e+06  5.001355443970e-02
4.200000000000e-01 2.468175050747e-08 0.000000000000e+00 -3.240654037330e+06 7.128373442349e+03 -4.759231949630e+06 -3.219954334011e+06 1.013388316348e-04 6.600208305295e-05 -5.005933436335e-02 3.739946773657e+06 1.529082701105e+06  5.011021103270e-02
4.300000000000e-01 1.584102711538e-08 0.000000000000e+00 -3.283800098373e+06 5.850112856464e+03 -4.825672019152e+06 -3.263788775160e+06 1.027060116858e-04 6.015721106529e-05 -5.010539010919e-02 3.791086964228e+06 1.552007423296e+06  5.015693020881e-02
4.400000000000e-01 1.978822169082e-08 0.000000000000e+00 -3.357606156130e+06 6.250420261174e+03 -4.937196747703e+06 -3.337921079120e+06 1.034890025463e-04 6.201700615521e-05 -5.018827884847e-02 3.877574660984e+06 1.589561419053e+06  5.024021812244e-02
4.500000000000e-01 2.066912301325e-08 0.000000000000e+00 -3.430408220466e+06 6.208062614886e+03 -5.049245447506e+06 -3.411861374996e+06 1.062205190353e-04 6.171542852291e-05 -5.027070346798e-02 3.963838347656e+06 1.628225382784e+06  5.032401133218e-02
4.600000000000e-01 2.230377830399e-08 0.000000000000e+00 -3.502175654913e+06 6.281264497429e+03 -5.158748827931e+06 -3.484369692033e+06 1.079197612028e-04 6.212267020994e-05 -5.034807685629e-02 4.048431391625e+06 1.665583073027e+06  5.040223824307e-02
4.700000000000e-01 2.482240640373e-08 0.000000000000e+00 -3.570503597848e+06 6.326217913504e+03 -5.262914574411e+06 -3.553367159844e+06 1.094130701428e-04 6.224840804571e-05 -5.042180083324e-02 4.128928444034e+06 1.701079225072e+06  5.047671145302e-02
4.800000000000e-01 2.446086695327e-08 0.000000000000e+00 -3.640210804160e+06 6.569877385875e+03 -5.366250348015e+06 -3.622584344608e+06 1.082481177316e-04 6.307683190526e-05 -5.049240470019e-02 4.209681832261e+06 1.734957248781e+06  5.054673376086e-02
4.900000000000e-01 1.642573274830e-08 0.000000000000e+00 -3.704683162180e+06 6.576495576863e+03 -5.458595667868e+06 -3.685311408893e+06 1.043620612092e-04 6.310484595203e-05 -5.055738049529e-02 4.282863412980e+06 1.763714958168e+06  5.060976025519e-02
5.000000000000e-01 1.615460908485e-08 0.000000000000e+00 -3.771143352990e+06 6.683988240392e+03 -5.557821656063e+06 -3.751585874578e+06 1.039432948128e-04 6.357363248432e-05 -5.062859045184e-02 4.360183627877e+06 1.796574185240e+06  5.068076166231e-02
5.100000000000e-01 1.502795340123e-08 0.000000000000e+00 -3.839837977641e+06 6.782226573877e+03 -5.659916269662e+06 -3.819901564929e+06 1.031181462552e-04 6.399480399389e-05 -5.070026918852e-02 4.439885270744e+06 1.830165642073e+06  5.075202787001e-02
5.200000000000e-01 1.403337263280e-08 0.000000000000e+00 -3.907796524292e+06 6.880063043902e+03 -5.760971315689e+06 -3.887506998028e+06 1.023622215588e-04 6.440680374556e-05 -5.076999351596e-02 4.518758279336e+06 1.863440505288e+06  5.082137437800e-02
5.300000000000e-01 1.308225884354e-08 0.000000000000e+00 -3.973454512181e+06 6.973942595691e+03 -5.858601873556e+06 -3.952822413340e+06 1.016415679766e-04 6.479542142138e-05 -5.083620460108e-02 4.594959599692e+06 1.895586113031e+06  5.088722527449e-02
5.400000000000e-01 1.208100715112e-08 0.000000000000e+00 -4.044285887797e+06 7.074702070739e+03 -5.963927837152e+06 -4.023285347017e+06 1.008798098053e-04 6.520543486215e-05 -5.090641866223e-02 4.677166357322e+06 1.930266797545e+06  5.095705861633e-02
5.500000000000e-01 1.111109436535e-08 0.000000000000e+00 -4.114214392124e+06 7.173612500013e+03 -6.067913987291e+06 -4.092851207776e+06 1.001431610975e-04 6.560095487929e-05 -5.097453956862e-02 4.758326529064e+06 1.964507602572e+06  5.102481136534e-02
5.600000000000e-01 1.019036242604e-08 0.000000000000e+00 -4.182042589117e+06 7.269042452277e+03 -6.168779192748e+06 -4.160328568698e+06 9.944249872815e-05 6.597620401908e-05 -5.103951430331e-02 4.837050116855e+06 1.997721799201e+06  5.108943593879e-02
5.700000000000e-01 9.284420366952e-09 0.000000000000e+00 -4.250234825381e+06 7.364492544084e+03 -6.270187859463e+06 -4.228168930791e+06 9.875124026421e-05 6.634547294890e-05 -5.110378252012e-02 4.916197205212e+06 2.031115935041e+06  5.115335870442e-02
5.800000000000e-01 8.363616314869e-09 0.000000000000e+00 -4.321010306691e+06 7.463053478691e+03 -6.375440331276e+06 -4.298580113883e+06 9.804730864237e-05 6.672059453636e-05 -5.116940374115e-02 4.998343583950e+06 2.065776898053e+06  5.121862815163e-02
5.900000000000e-01 7.482540560776e-09 0.000000000000e+00 -4.390191792891e+06 7.558868425204e+03 -6.478324767087e+06 -4.367406485452e+06 9.737229642062e-05 6.707939065519e-05 -5.123251435533e-02 5.078641015143e+06 2.099659174587e+06  5.128140145356e-02
6.000000000000e-01 6.621845752606e-09 0.000000000000e+00 -4.459160132839e+06 7.653918851266e+03 -6.580894319527e+06 -4.436021646068e+06 9.671157451911e-05 6.742975960502e-05 -5.129444677819e-02 5.158692032811e+06 2.133438729929e+06  5.134300371461e-02
6.100000000000e-01 5.735732118002e-09 0.000000000000e+00 -4.531536565761e+06 7.753193399436e+03 -6.688534567197e+06 -4.508028322837e+06 9.603083097902e-05 6.778994715110e-05 -5.135841824132e-02 5.242699818598e+06 2.168889251371e+06  5.140663502101e-02
6.200000000000e-01 4.898310214922e-09 0.000000000000e+00 -4.601342273622e+06 7.848428791613e+03 -6.792354049151e+06 -4.577478404135e+06 9.538643441517e-05 6.813008241319e-05 -5.141915471530e-02 5.323724908969e+06 2.203082589767e+06  5.146704950899e-02
6.300000000000e-01 4.076466853607e-09 0.000000000000e+00 -4.671260480086e+06 7.943361601060e+03 -6.896342806134e+06 -4.647041195693e+06 9.475224082455e-05 6.846402394647e-05 -5.147907113389e-02 5.404881493971e+06 2.237332591293e+06  5.152664904793e-02
6.400000000000e-01 3.228576672081e-09 0.000000000000e+00 -4.744717668566e+06 8.042642667145e+03 -7.005597243002e+06 -4.720125852782e+06 9.409773053235e-05 6.880794372055e-05 -5.154106233627e-02 5.490146921450e+06 2.273317926251e+06  5.158831322818e-02
6.500000000000e-01 2.428043942268e-09 0.000000000000e+00 -4.815485782149e+06 8.137794279683e+03 -7.110854598289e+06 -4.790536048014e+06 9.347850865521e-05 6.913256954655e-05 -5.159988119465e-02 5.572292142817e+06 2.307987869148e+06  5.164682270393e-02
6.600000000000e-01 1.639131928707e-09 0.000000000000e+00 -4.886589091929e+06 8.232947599156e+03 -7.216612443620e+06 -4.861280518435e+06 9.286687554441e-05 6.945245097984e-05 -5.165811350447e-02 5.654827351328e+06 2.342823564598e+06  5.170474943004e-02
6.700000000000e-01 8.486598532403e-10 0.000000000000e+00 -4.959117428304e+06 8.329575117740e+03 -7.324491990408e+06 -4.933443680726e+06 9.225362577398e-05 6.977254410707e-05 -5.171664607548e-02 5.739017699813e+06 2.378359126638e+06  5.176297561738e-02
6.800000000000e-01 7.652423641002e-11 0.000000000000e+00 -5.031291051593e+06 8.425275805272e+03 -7.431846134634e+06 -5.005254797367e+06 9.165377761965e-05 7.008496638006e-05 -5.177404778937e-02 5.822797327865e+06 2.413722645934e+06  5.182007765028e-02
6.900000000000e-01 -6.918854849797e-10 0.000000000000e+00 -5.104516552644e+06 8.521931053825e+03 -7.540766956810e+06 -5.078113336854e+06 9.105536311757e-05 7.039597548450e-05 -5.183145022412e-02 5.907798948769e+06 2.449603208005e+06  5.187718112731e-02
7.000000000000e-01 -1.444026930076e-09 0.000000000000e+00 -5.177552060583e+06 8.617868573798e+03 -7.649407313470e+06 -5.150783693406e+06 9.046846793589e-05 7.070027765479e-05 -5.188788846869e-02 5.992581022486e+06 2.485392377211e+06  5.193332617544e-02
7.100000000000e-01 -2.193316685431e-09 0.000000000000e+00 -5.251776243396e+06 8.714933327886e+03 -7.759817905160e+06 -5.224637614387e+06 8.988184974402e-05 7.100380633365e-05 -5.194443509859e-02 6.078743920981e+06 2.521765679978e+06  5.198957975393e-02
7.200000000000e-01 -2.925045529652e-09 0.000000000000e+00 -5.325452485208e+06 8.810852118559e+03 -7.869415575130e+06 -5.297947190700e+06 8.930914832411e-05 7.129954695705e-05 -5.199977858305e-02 6.164271750346e+06 2.557872180439e+06  5.204463714567e-02
7.300000000000e-01 -3.641277910170e-09 0.000000000000e+00 -5.398908418060e+06 8.906068624329e+03 -7.978687528726e+06 -5.371038357247e+06 8.874731722812e-05 7.158908899782e-05 -5.205419880068e-02 6.249544768011e+06 2.593872308921e+06  5.209877670688e-02
7.400000000000e-01 -4.333412337909e-09 0.000000000000e+00 -5.471260316477e+06 8.999426011378e+03 -8.086319135823e+06 -5.443031771741e+06 8.820265309820e-05 7.186916399707e-05 -5.210708111956e-02 6.333537074680e+06 2.629332948345e+06  5.215138695028e-02
7.500000000000e-01 -5.031952657376e-09 0.000000000000e+00 -5.545500183608e+06 9.094835375567e+03 -8.196761190883e+06 -5.516904553173e+06 8.765241586983e-05 7.215158414086e-05 -5.216062136751e-02 6.419721975888e+06 2.665720402972e+06  5.220465234460e-02
7.600000000000e-01 -5.698153255389e-09 0.000000000000e+00 -5.617642307313e+06 9.187123879907e+03 -8.304084635611e+06 -5.588690793320e+06 8.712604736616e-05 7.242117583590e-05 -5.221196541839e-02 6.503472578748e+06 2.701081330843e+06  5.225573346965e-02
7.700000000000e-01 -6.379087215292e-09 0.000000000000e+00 -5.692605255409e+06 9.282651137437e+03 -8.415606275079e+06 -5.663284641287e+06 8.658729778272e-05 7.269659976023e-05 -5.226462346725e-02 6.590498723925e+06 2.737826294074e+06  5.230812241360e-02
7.800000000000e-01 -7.045245416348e-09 0.000000000000e+00 -5.767129610104e+06 9.377209182342e+03 -8.526477546262e+06 -5.737442904700e+06 8.605998807982e-05 7.296566470043e-05 -5.231629004744e-02 6.677016687022e+06 2.774357957924e+06  5.235952560816e-02
7.900000000000e-01 -7.674701354573e-09 0.000000000000e+00 -5.838879580668e+06 9.467858401842e+03 -8.633223188937e+06 -5.808841163126e+06 8.555984965120e-05 7.322034906231e-05 -5.236540498932e-02 6.760314644244e+06 2.809531115452e+06  5.240839074060e-02
8.000000000000e-01 -8.312517834646e-09 0.000000000000e+00 -5.912616732098e+06 9.560683706556e+03 -8.742926916945e+06 -5.882217528051e+06 8.505322086083e-05 7.347791607864e-05 -5.241525542003e-02 6.845920392365e+06 2.845679751992e+06  5.245798812484e-02
8.100000000000e-01 -8.938210337405e-09 0.000000000000e+00 -5.986147890007e+06 9.652876660168e+03 -8.852326118800e+06 -5.955389685077e+06 8.455540510353e-05 7.373055669888e-05 -5.246435097382e-02 6.931287897961e+06 2.881728949397e+06  5.250683503846e-02
8.200000000000e-01 -9.558283040616e-09 0.000000000000e+00 -6.060271484032e+06 9.745430939547e+03 -8.962608493713e+06 -6.029152085697e+06 8.406074934989e-05 7.398107686163e-05 -5.251323522971e-02 7.017344021148e+06 2.918069984853e+06  5.255547223652e-02
8.300000000000e-01 -1.016015205051e-08 0.000000000000e+00 -6.133345172503e+06 9.836325762438e+03 -9.071330653066e+06 -6.101870437748e+06 8.358005347661e-05 7.422412856594e-05 -5.256084474716e-02 7.102182087772e+06 2.953897749848e+06  5.260284167266e-02
8.400000000000e-01 -1.074779970140e-08 0.000000000000e+00 -6.205802266008e+06 9.926113891736e+03 -9.179137112407e+06 -6.173975871641e+06 8.311000150982e-05 7.446138458685e-05 -5.260749526875e-02 7.186305083352e+06 2.989424549777e+06  5.264925743283e-02
8.500000000000e-01 -1.132149019061e-08 0.000000000000e+00 -6.277606722424e+06 1.001476663538e+04 -9.285974193310e+06 -6.245432499109e+06 8.265049956587e-05 7.469292843786e-05 -5.265319089520e-02 7.269671138281e+06 3.024632670922e+06  5.269472357062e-02
8.600000000000e-01 -1.187942148768e-08 0.000000000000e+00 -6.348480109385e+06 1.010195194364e+04 -9.391427560851e+06 -6.315963213193e+06 8.220297884357e-05 7.491806157756e-05 -5.269778383999e-02 7.351956961143e+06 3.059385542167e+06  5.273909301395e-02
8.700000000000e-01 -1.242075656028e-08 0.000000000000e+00 -6.418275935840e+06 1.018750609049e+04 -9.495279150340e+06 -6.385422191553e+06 8.176796349480e-05 7.513654410150e-05 -5.274121442572e-02 7.432992425911e+06 3.093611252756e+06  5.278230634688e-02
8.800000000000e-01 -1.294058074122e-08 0.000000000000e+00 -6.486291069268e+06 1.027058523536e+04 -9.596482650729e+06 -6.453109656723e+06 8.134937113167e-05 7.534643579695e-05 -5.278308438460e-02 7.511961125574e+06 3.126964931727e+06  5.282396725776e-02
8.900000000000e-01 -1.345009873555e-08 0.000000000000e+00 -6.553805379755e+06 1.035279045355e+04 -9.696942312734e+06 -6.520299256983e+06 8.093891350039e-05 7.555195687313e-05 -5.282421376196e-02 7.590348983157e+06 3.160074099210e+06  5.286489165259e-02
9.000000000000e-01 -1.394322137126e-08 0.000000000000e+00 -6.620045005666e+06 1.043317746679e+04 -9.795506652955e+06 -6.586220854283e+06 8.054102647006e-05 7.575088765163e-05 -5.286415649282e-02 7.667257504301e+06 3.192559254841e+06  5.290463568131e-02
9.100000000000e-01 -1.442435254523e-08 0.000000000000e+00 -6.685482670029e+06 1.051234605448e+04 -9.892878944062e+06 -6.651344846867e+06 8.015251419399e-05 7.594486056127e-05 -5.290322480687e-02 7.743235486986e+06 3.224652121505e+06  5.294350997747e-02
9.200000000000e-01 -1.489009427190e-08 0.000000000000e+00 -6.749601292211e+06 1.058968560087e+04 -9.988289721159e+06 -6.715156616491e+06 7.977615204028e-05 7.613252045730e-05 -5.294113607816e-02 7.817682543287e+06 3.256099072895e+06  5.298123330089e-02
9.300000000000e-01 -1.533572764039e-08 0.000000000000e+00 -6.811692664714e+06 1.066434796134e+04 -1.008068507681e+07 -6.776951317148e+06 7.941569990144e-05 7.631199400263e-05 -5.297750656074e-02 7.889776352890e+06 3.286552713419e+06  5.301742378285e-02
9.400000000000e-01 -1.575606548086e-08 0.000000000000e+00 -6.870927085145e+06 1.073537929775e+04 -1.016883017265e+07 -6.835903132507e+06 7.907541823950e-05 7.648122045207e-05 -5.301189528326e-02 7.958553463433e+06 3.315605947405e+06  5.305164257935e-02
9.500000000000e-01 -1.616213456979e-08 0.000000000000e+00 -6.928775557551e+06 1.080456879568e+04 -1.025491381026e+07 -6.893475984790e+06 7.874639222951e-05 7.664465733418e-05 -5.304519410264e-02 8.025721784200e+06 3.343980145178e+06  5.308477709525e-02
9.600000000000e-01 -1.655489030199e-08 0.000000000000e+00 -6.985275032585e+06 1.087197256092e+04 -1.033899095919e+07 -6.949706642051e+06 7.842815174139e-05 7.680256404032e-05 -5.307744886141e-02 8.091324211274e+06 3.371693417842e+06  5.311687293813e-02
9.700000000000e-01 -1.693694638366e-08 0.000000000000e+00 -7.040719816682e+06 1.093796051744e+04 -1.042149949301e+07 -7.004887976274e+06 7.811878143995e-05 7.695591665836e-05 -5.310884866325e-02 8.155702428656e+06 3.398890056391e+06  5.314811825513e-02
9.800000000000e-01 -1.730082593686e-08 0.000000000000e+00 -7.094053218365e+06 1.100128108970e+04 -1.050086686312e+07 -7.057968291401e+06 7.782389291095e-05 7.710193471263e-05 -5.313881993198e-02 8.217629457628e+06 3.425051684009e+06  5.317794227194e-02
9.900000000000e-01 -1.765483040517e-08 0.000000000000e+00 -7.146342761173e+06 1.106321407473e+04 -1.057868158673e+07 -7.110010003719e+06 7.753729278205e-05 7.724369093305e-05 -5.316798644766e-02 8.278344783875e+06 3.450701870763e+06  5.320696567580e-02
1.000000000000e+00 -1.800387075698e-08 0.000000000000e+00 -7.198357025363e+06 1.112471090661e+04 -1.065608741197e+07 -7.161778044559e+06 7.725464175299e-05 7.738342269570e-05 -5.319678839442e-02 8.338740827296e+06 3.476217625423e+06  5.323562648427e-02
1.050000000000e+00 -2.040134729764e-08 0.000000000000e+00 -7.486616940951e+06 1.146493636717e+04 -1.108507714070e+07 -7.448677908333e+06 7.531087597409e-05 7.834301321876e-05 -5.339492797044e-02 8.673457329996e+06 3.617633427061e+06  5.343279551341e-02
1.100000000000e+00 -3.110241180869e-08 0.000000000000e+00 -7.396926039235e+06 1.242029073041e+04 -1.094937037371e+07 -7.358518831210e+06 7.481431213836e-05 8.040050429977e-05 -5.334564916978e-02 8.568271748053e+06 3.571867595896e+06  5.338327728135e-02
1.150000000000e+00 -3.344458301835e-08 0.000000000000e+00 -7.817777374211e+06 1.284540196603e+04 -1.157573453374e+07 -7.777405008710e+06 7.211429173098e-05 8.155731595386e-05 -5.362341576571e-02 9.056972305554e+06 3.778370624196e+06  5.365969519378e-02
1.200000000000e+00 -3.537643138435e-08 0.000000000000e+00 -7.946108809566e+06 1.305449117336e+04 -1.176575844140e+07 -7.904747105259e+06 7.108184603167e-05 8.199643426124e-05 -5.368750868764e-02 9.205538118743e+06 3.840564096383e+06  5.372327260310e-02
1.250000000000e+00 -3.717261346433e-08 0.000000000000e+00 -8.260824116930e+06 1.335140035054e+04 -1.223333658721e+07 -8.217664429261e+06 6.956243528912e-05 8.274602856475e-05 -5.384434096901e-02 9.570608377801e+06 3.994334145054e+06  5.387934648379e-02
1.300000000000e+00 -5.181688809943e-08 0.000000000000e+00 -8.506461418950e+06 1.330211040965e+04 -1.258323524562e+07 -8.455878752004e+06 6.501241734945e-05 7.785763153613e-05 -5.394798434050e-02 9.848525138857e+06 4.102363754120e+06  5.398068835540e-02
1.350000000000e+00 -3.859829388019e-08 0.000000000000e+00 -8.667553867940e+06 1.262079936329e+04 -1.283290842701e+07 -8.620184944036e+06 6.573596780503e-05 7.798379651047e-05 -5.403842483751e-02 1.004021574633e+07 4.189296914110e+06  5.407149149700e-02