 TITLE = "Time curves in points"
 VARIABLES = "TIME"  "PRESSURE1"  "PRESSURE2"  "PRESSURE_W"  "SATURATION1" SATURATION2  "VELOCITY_X1"  "VELOCITY_Y1"  "VELOCITY_X2"  "VELOCITY_Y2"  p_(1st_Invariant)  q_(2nd_Invariant)   Effective_Strain
 ZONE T="POINT=POINT5"
0.000000000000e+00 8.400000000000e+07 1.000000000000e+05 -8.390000000000e+07 6.601393844892e-01 3.398606155108e-01 0.000000000000e+00 0.000000000000e+00 0.000000000000e+00 0.000000000000e+00 1.000000000000e+05 0.000000000000e+00  0.000000000000e+00
1.000000000000e-03 8.398925712626e+07 9.999997491542e+04 -8.388925715135e+07 6.601661737227e-01 3.398338262773e-01 7.276330171289e-09 -3.333900984150e-08 -5.145035322752e-15 2.146675097624e-15 1.373479988632e+05 1.588699775902e+04  2.796610684325e-02
2.000000000000e-03 8.398926450630e+07 9.999995293195e+04 -8.388926455337e+07 6.601661937129e-01 3.398338062871e-01 7.105617901619e-09 -3.322924828413e-08 -1.023907485226e-14 6.180114519652e-15 3.022836167693e+05 8.621358254962e+04  7.410870393101e-02
3.000000000000e-03 8.398927351811e+07 9.999992957351e+04 -8.388927358853e+07 6.601662086117e-01 3.398337913883e-01 6.936778676441e-09 -3.311741734235e-08 -1.526980285825e-14 1.025623883146e-14 8.809307560917e+05 3.325530355968e+05  9.393654932976e-02
4.000000000000e-03 8.398928413994e+07 9.999990441682e+04 -8.388928423553e+07 6.601662184860e-01 3.398337815140e-01 6.769798178796e-09 -3.300354240029e-08 -2.024640389105e-14 1.440554781445e-14 2.875112788443e+06 1.134617527475e+06  9.973858102205e-02
5.000000000000e-03 8.398929635026e+07 9.999987772760e+04 -8.388929647254e+07 6.601662234022e-01 3.398337765978e-01 6.604662344568e-09 -3.288765051757e-08 -2.517274183913e-14 1.860587161868e-14 3.018300398287e+06 1.118377878735e+06  9.967119987042e-02
6.000000000000e-03 8.398931012772e+07 9.999984983729e+04 -8.388931027788e+07 6.601662234261e-01 3.398337765739e-01 6.441357430863e-09 -3.276976805380e-08 -3.004381712864e-14 2.284806982659e-14 3.360889659474e+06 1.266988555905e+06  1.001670283242e-01
7.000000000000e-03 8.398932545112e+07 9.999982037631e+04 -8.388932563074e+07 6.601662186229e-01 3.398337813771e-01 6.279869251867e-09 -3.264992043058e-08 -3.486336743339e-14 2.714287332042e-14 3.309521785991e+06 1.242416150782e+06  1.001073766288e-01
8.000000000000e-03 8.398934229914e+07 9.999978939396e+04 -8.388934250974e+07 6.601662090583e-01 3.398337909417e-01 6.120183257577e-09 -3.252813347049e-08 -3.963350972918e-14 3.149543953161e-14 3.345296593601e+06 1.255641439924e+06  1.001442974917e-01
9.000000000000e-03 8.398936065056e+07 9.999975701092e+04 -8.388936089355e+07 6.601661947979e-01 3.398338052021e-01 5.962286430396e-09 -3.240443337231e-08 -4.434690549724e-14 3.589342867233e-14 3.369543436326e+06 1.265924181548e+06  1.001729831820e-01
1.000000000000e-02 8.398938048473e+07 9.999972324857e+04 -8.388938076148e+07 6.601661759052e-01 3.398338240948e-01 5.806165335791e-09 -3.227884518625e-08 -4.900426290004e-14 4.034317210588e-14 3.394463576681e+06 1.276285248334e+06  1.002016423987e-01
2.000000000000e-02 8.398970795511e+07 9.999926467584e+04 -8.388970869043e+07 6.601655827066e-01 3.398344172934e-01 4.409736034868e-09 -3.085793263299e-08 -9.074883622496e-14 8.915192888298e-14 5.625975639313e+06 2.200553954066e+06  1.025368967955e-01
3.000000000000e-02 8.399014688730e+07 9.999870207915e+04 -8.389014818522e+07 6.601646396045e-01 3.398353603955e-01 3.166077419362e-09 -2.929408429333e-08 -1.279357031385e-13 1.416851447302e-13 4.004176241006e+06 1.509958220813e+06  1.010471369001e-01
4.000000000000e-02 8.399068110682e+07 9.999805396288e+04 -8.389068305286e+07 6.601633963219e-01 3.398366036781e-01 2.063895421220e-09 -2.760783082896e-08 -1.608900444870e-13 1.972981185792e-13 4.824368771657e+06 1.810067566580e+06  1.018197995756e-01
5.000000000000e-02 8.399129566877e+07 9.999733570114e+04 -8.389129833306e+07 6.601618987922e-01 3.398381012078e-01 1.092551063255e-09 -2.581834755763e-08 -1.899839870554e-13 2.555082545117e-13 4.410145289389e+06 1.636018707040e+06  1.014516803856e-01
6.000000000000e-02 8.399197698743e+07 9.999655880090e+04 -8.389198042862e+07 6.601601887310e-01 3.398398112690e-01 2.420895747436e-10 -2.394329738064e-08 -2.155130192543e-13 3.157570154731e-13 5.130892804723e+06 1.920336306798e+06  1.020942979102e-01
7.000000000000e-02 8.399271253145e+07 9.999573725832e+04 -8.389271679420e+07 6.601582848884e-01 3.398417151116e-01 -4.969088411203e-10 -2.199914674431e-08 -2.377371388815e-13 3.776206885171e-13 5.131453010306e+06 1.922996466264e+06  1.021005307883e-01
8.000000000000e-02 8.399349096691e+07 9.999488159202e+04 -8.389349608531e+07 6.601562303203e-01 3.398437696797e-01 -1.133238673850e-09 -2.000101849995e-08 -2.569019601117e-13 4.405620012272e-13 5.344036571405e+06 2.011715404033e+06  1.022954762420e-01
9.000000000000e-02 8.399430197087e+07 9.999400378901e+04 -8.389430796708e+07 6.601540695424e-01 3.398459304576e-01 -1.675143637609e-09 -1.796289239810e-08 -2.733087012600e-13 5.042809090590e-13 5.518813415269e+06 2.084648026652e+06  1.024655635902e-01
1.000000000000e-01 8.399513607672e+07 9.999311335471e+04 -8.389514296336e+07 6.601518315389e-01 3.398481684611e-01 -2.130383756469e-09 -1.589773955376e-08 -2.871488078211e-13 5.683932046379e-13 5.637186548999e+06 2.123219565783e+06  1.025291994871e-01
1.100000000000e-01 8.399598481073e+07 9.999221605069e+04 -8.389599259468e+07 6.601495422271e-01 3.398504577729e-01 -2.506201008685e-09 -1.381734751590e-08 -2.986902340101e-13 6.325709696440e-13 5.745131194005e+06 2.168742581484e+06  1.026244527005e-01
1.200000000000e-01 8.399684044005e+07 9.999132145567e+04 -8.389684911859e+07 6.601472252224e-01 3.398527747776e-01 -2.809389715684e-09 -1.173269455217e-08 -3.080543977661e-13 6.964698786344e-13 5.947755341489e+06 2.246482437884e+06  1.027240094488e-01
1.300000000000e-01 8.399769601884e+07 9.999043689380e+04 -8.389770558195e+07 6.601449017119e-01 3.398550982881e-01 -3.046306296108e-09 -9.653822199357e-09 -3.155132003208e-13 7.598243110004e-13 5.990174799792e+06 2.275389383612e+06  1.027698215805e-01
1.400000000000e-01 8.399854533652e+07 9.998956693149e+04 -8.389855576959e+07 6.601425906380e-01 3.398574093620e-01 -3.222922042214e-09 -7.589822007026e-09 -3.211975412361e-13 8.224111483726e-13 6.113246085364e+06 2.324921269993e+06  1.028462467973e-01
1.500000000000e-01 8.399938276101e+07 9.998871739463e+04 -8.389939404362e+07 6.601403091472e-01 3.398596908528e-01 -3.344831983607e-09 -5.549143914188e-09 -3.252967102813e-13 8.840045081985e-13 6.209191509320e+06 2.364740014984e+06  1.029066405399e-01
1.600000000000e-01 8.400020336524e+07 9.998789353254e+04 -8.390021547171e+07 6.601380722133e-01 3.398619277867e-01 -3.417222367850e-09 -3.539370116887e-09 -3.279281866066e-13 9.443271994646e-13 6.310159887388e+06 2.406353495132e+06  1.029687337005e-01
1.700000000000e-01 8.400100279949e+07 9.998709991455e+04 -8.390101569957e+07 6.601358930436e-01 3.398641069564e-01 -3.444951509732e-09 -1.567335157547e-09 -3.292734218600e-13 1.003218617701e-12 6.406467539682e+06 2.446058137171e+06  1.030270510957e-01
1.800000000000e-01 8.400177715329e+07 9.998633928045e+04 -8.390179081401e+07 6.601337835082e-01 3.398662164918e-01 -3.432592789032e-09 3.606927650067e-10 -3.294879753079e-13 1.060560114983e-12 6.503961971819e+06 2.486306568087e+06  1.030852860515e-01
1.900000000000e-01 8.400252309834e+07 9.998561555333e+04 -8.390253748279e+07 6.601317536789e-01 3.398682463211e-01 -3.384362289106e-09 2.239166140529e-09 -3.286460967880e-13 1.116153873967e-12 6.597442731518e+06 2.524841593762e+06  1.031402132402e-01
2.000000000000e-01 8.400323775921e+07 9.998493032803e+04 -8.390325282889e+07 6.601298122379e-01 3.398701877621e-01 -3.304186300626e-09 4.063121344786e-09 -3.268795034284e-13 1.169892685666e-12 6.695659511897e+06 2.565382016834e+06  1.031971714067e-01
2.100000000000e-01 8.400391862002e+07 9.998428669384e+04 -8.390393433333e+07 6.601279667828e-01 3.398720332172e-01 -3.195769198986e-09 5.828102361870e-09 -3.243217270667e-13 1.221621416062e-12 6.795736339116e+06 2.606650100076e+06  1.032542893231e-01
2.200000000000e-01 8.400456362240e+07 9.998368639814e+04 -8.390457993600e+07 6.601262235031e-01 3.398737764969e-01 -3.062512122273e-09 7.530246707594e-09 -3.210543157662e-13 1.271247900082e-12 6.887473821777e+06 2.644478365873e+06  1.033059034029e-01
2.300000000000e-01 8.400517104539e+07 9.998313078506e+04 -8.390518791461e+07 6.601245875584e-01 3.398754124416e-01 -2.907575533764e-09 9.166143549261e-09 -3.171834866601e-13 1.318709220395e-12 6.991102110783e+06 2.687217843464e+06  1.033633995227e-01
2.400000000000e-01 8.400573944962e+07 9.998262089517e+04 -8.390575682873e+07 6.601230632470e-01 3.398769367530e-01 -2.733909456324e-09 1.073275850660e-08 -3.127866581854e-13 1.363924281618e-12 7.082398097271e+06 2.724904465381e+06  1.034133942606e-01
2.500000000000e-01 8.400626774315e+07 9.998215729614e+04 -8.390628558586e+07 6.601216538188e-01 3.398783461812e-01 -2.544251946170e-09 1.222757767452e-08 -3.079366574493e-13 1.406835073995e-12 7.178378131412e+06 2.764480911643e+06  1.034651953446e-01
2.600000000000e-01 8.400675512444e+07 9.998174191878e+04 -8.390677338252e+07 6.601203616302e-01 3.398796383698e-01 -2.341116737414e-09 1.364846880780e-08 -3.027279009379e-13 1.447325347986e-12 7.270778327200e+06 2.802659013518e+06  1.035145270239e-01
2.700000000000e-01 8.400720103599e+07 9.998137353260e+04 -8.390721966246e+07 6.601191882982e-01 3.398808117018e-01 -2.126829694675e-09 1.499366210124e-08 -2.972157293106e-13 1.485416926083e-12 7.368815450067e+06 2.843180332027e+06  1.035662069741e-01
2.800000000000e-01 8.400760510297e+07 9.998105259859e+04 -8.390762405038e+07 6.601181348925e-01 3.398818651075e-01 -1.903566105214e-09 1.626167054095e-08 -2.914792202349e-13 1.521081343796e-12 7.459637457040e+06 2.880778196429e+06  1.036135548682e-01
2.900000000000e-01 8.400796724454e+07 9.998077944184e+04 -8.390798646509e+07 6.601172015922e-01 3.398827984078e-01 -1.673305240101e-09 1.745145356919e-08 -2.855566647036e-13 1.554263024687e-12 7.556717325284e+06 2.920980236887e+06  1.036635498161e-01
3.000000000000e-01 8.400828755816e+07 9.998055264753e+04 -8.390830700551e+07 6.601163880345e-01 3.398836119655e-01 -1.437866689084e-09 1.856223755586e-08 -2.795209216645e-13 1.584983106307e-12 7.644330150615e+06 2.957283521458e+06  1.037081494763e-01
3.100000000000e-01 8.400856628084e+07 9.998037227079e+04 -8.390858590857e+07 6.601156934365e-01 3.398843065635e-01 -1.198926981084e-09 1.959346847971e-08 -2.733979627277e-13 1.613232931564e-12 7.734714705704e+06 2.994740589650e+06  1.037536329991e-01
3.200000000000e-01 8.400880381633e+07 9.998023778877e+04 -8.390882357854e+07 6.601151165166e-01 3.398848834834e-01 -9.580294312678e-10 2.054487175446e-08 -2.672242417008e-13 1.638998163263e-12 7.820899833033e+06 3.030474728642e+06  1.037965335512e-01
3.300000000000e-01 8.400900074504e+07 9.998014823592e+04 -8.390902059680e+07 6.601146554620e-01 3.398853445380e-01 -7.165739279022e-10 2.141646299329e-08 -2.610892533779e-13 1.662289690088e-12 7.907657345858e+06 3.066462579774e+06  1.038392655686e-01
3.400000000000e-01 8.400915778718e+07 9.998010212542e+04 -8.390917768506e+07 6.601143080455e-01 3.398856919545e-01 -4.758399408857e-10 2.220851201919e-08 -2.549807017021e-13 1.683148053275e-12 7.982288045185e+06 3.097406409995e+06  1.038756286588e-01
3.500000000000e-01 8.400927572919e+07 9.998009894841e+04 -8.390929563024e+07 6.601140718398e-01 3.398859281602e-01 -2.369930152283e-10 2.292139705830e-08 -2.489592833888e-13 1.701563579785e-12 8.050895274976e+06 3.125875572476e+06  1.039087885417e-01
3.600000000000e-01 8.400935545899e+07 9.998013685179e+04 -8.390937532213e+07 6.601139441155e-01 3.398860558845e-01 -1.095381647116e-12 2.355568773584e-08 -2.430572103218e-13 1.717610681434e-12 8.110861925341e+06 3.150729775717e+06  1.039375003083e-01
3.700000000000e-01 8.400939798458e+07 9.998021502629e+04 -8.390941776956e+07 6.601139217846e-01 3.398860782154e-01 2.309097822585e-10 2.411216395828e-08 -2.372835245857e-13 1.731284224724e-12 8.164340624436e+06 3.172890476911e+06  1.039629206641e-01
3.800000000000e-01 8.400940440953e+07 9.998033198369e+04 -8.390942407754e+07 6.601140014825e-01 3.398859985175e-01 4.581678145212e-10 2.459181038782e-08 -2.316795408371e-13 1.742635452210e-12 8.213115364187e+06 3.193109705169e+06  1.039859704773e-01
3.900000000000e-01 8.400937590029e+07 9.998048684109e+04 -8.390939541345e+07 6.601141796616e-01 3.398858203384e-01 6.799106531473e-10 2.499574847831e-08 -2.262725801250e-13 1.751672979326e-12 8.258141590774e+06 3.211763759855e+06  1.040071125338e-01
4.000000000000e-01 8.400931363512e+07 9.998067724224e+04 -8.390933295788e+07 6.601144527434e-01 3.398855472566e-01 8.954424546472e-10 2.532515441488e-08 -2.210689684605e-13 1.758488944685e-12 8.299869382140e+06 3.229043940044e+06  1.040265933831e-01
4.100000000000e-01 8.400921888667e+07 9.998090164348e+04 -8.390923798503e+07 6.601148168679e-01 3.398851831321e-01 1.104165146093e-09 2.558138191642e-08 -2.161020485708e-13 1.763128833659e-12 8.339321104410e+06 3.245375209991e+06  1.040449133849e-01
4.200000000000e-01 8.400909297281e+07 9.998115944644e+04 -8.390911181336e+07 6.601152680475e-01 3.398847319525e-01 1.305554944344e-09 2.576590101732e-08 -2.113677354949e-13 1.765599742025e-12 8.377967954190e+06 3.261371898298e+06  1.040627738669e-01
4.300000000000e-01 8.400893728116e+07 9.998144859244e+04 -8.390895583257e+07 6.601158020977e-01 3.398841979023e-01 1.499151053568e-09 2.588036032516e-08 -2.068726818212e-13 1.765958102932e-12 8.416578110786e+06 3.277355166050e+06  1.040805374186e-01
4.400000000000e-01 8.400875318870e+07 9.998176657430e+04 -8.390877142212e+07 6.601164148740e-01 3.398835851260e-01 1.684543597952e-09 2.592644077018e-08 -2.026425532217e-13 1.764349536195e-12 8.454389581150e+06 3.293008664704e+06  1.040978557041e-01
4.500000000000e-01 8.400854207302e+07 9.998211216565e+04 -8.390855996086e+07 6.601171022309e-01 3.398828977691e-01 1.861387521015e-09 2.590584620178e-08 -1.986756364495e-13 1.760772698180e-12 8.492633589447e+06 3.308844101563e+06  1.041152969269e-01
4.600000000000e-01 8.400830534957e+07 9.998248425008e+04 -8.390832286532e+07 6.601178599153e-01 3.398821400847e-01 2.029403329941e-09 2.582038455881e-08 -1.949806613303e-13 1.755291165531e-12 8.530770144485e+06 3.324637185288e+06  1.041326136146e-01
4.700000000000e-01 8.400804444747e+07 9.998288107449e+04 -8.390806156639e+07 6.601186836422e-01 3.398813163578e-01 2.188359166322e-09 2.567193827085e-08 -1.915886754959e-13 1.747960377926e-12 8.568900058572e+06 3.340429817709e+06  1.041498527384e-01
4.800000000000e-01 8.400776079391e+07 9.998330044168e+04 -8.390777749347e+07 6.601195691391e-01 3.398804308609e-01 2.338073065557e-09 2.546243094521e-08 -1.884737964934e-13 1.738850515411e-12 8.607013952658e+06 3.356218232818e+06  1.041670109277e-01
4.900000000000e-01 8.400745583253e+07 9.998374115773e+04 -8.390747209137e+07 6.601205121009e-01 3.398794878991e-01 2.478394779785e-09 2.519388811071e-08 -1.856377805181e-13 1.728031016638e-12 8.644926309081e+06 3.371925312514e+06  1.041840056247e-01
5.000000000000e-01 8.400713096474e+07 9.998420139978e+04 -8.390714676334e+07 6.601215083494e-01 3.398784916506e-01 2.609213252347e-09 2.486829348675e-08 -1.831150279735e-13 1.715583156017e-12 8.682567016728e+06 3.387520650494e+06  1.042008056738e-01
5.100000000000e-01 8.400678760551e+07 9.998467954187e+04 -8.390680292597e+07 6.601225536709e-01 3.398774463291e-01 2.730468894638e-09 2.448769090184e-08 -1.808716219678e-13 1.701536539149e-12 8.721023194491e+06 3.403457092178e+06  1.042178982620e-01
5.200000000000e-01 8.400642716036e+07 9.998517356918e+04 -8.390644198679e+07 6.601236438862e-01 3.398763561138e-01 2.842137635106e-09 2.405415440550e-08 -1.789373913234e-13 1.686013667162e-12 8.759611808905e+06 3.419451322025e+06  1.042349773716e-01
5.300000000000e-01 8.400605101662e+07 9.998568286218e+04 -8.390606533375e+07 6.601247748793e-01 3.398752251207e-01 2.944223703143e-09 2.356977513618e-08 -1.772941680223e-13 1.669019069739e-12 8.797751736294e+06 3.435261212975e+06  1.042517858310e-01
5.400000000000e-01 8.400566054822e+07 9.998620501602e+04 -8.390567434320e+07 6.601259425834e-01 3.398740574166e-01 3.036759224860e-09 2.303667763290e-08 -1.759394372729e-13 1.650663711417e-12 8.836668306503e+06 3.451396459102e+06  1.042688653936e-01
5.500000000000e-01 8.400525711033e+07 9.998673894706e+04 -8.390527037138e+07 6.601271430033e-01 3.398728569967e-01 3.119789440690e-09 2.245702298664e-08 -1.748705913096e-13 1.631007916974e-12 8.875543792861e+06 3.467517303587e+06  1.042858548382e-01
5.600000000000e-01 8.400484205344e+07 9.998728234087e+04 -8.390485477110e+07 6.601283721577e-01 3.398716278423e-01 3.193398395527e-09 2.183299145121e-08 -1.741046986011e-13 1.610131845595e-12 8.913936221088e+06 3.483439431903e+06  1.043025619053e-01
5.700000000000e-01 8.400441667673e+07 9.998783458886e+04 -8.390442884214e+07 6.601296262237e-01 3.398703737763e-01 3.257696068462e-09 2.116671285351e-08 -1.736160181961e-13 1.588107432697e-12 8.953141637444e+06 3.499702458704e+06  1.043195527486e-01
5.800000000000e-01 8.400398225193e+07 9.998839381850e+04 -8.390399385811e+07 6.601309014670e-01 3.398690985330e-01 3.312810022763e-09 2.046031470790e-08 -1.733969375459e-13 1.564979324619e-12 8.991811539743e+06 3.515745349696e+06  1.043362408421e-01
5.900000000000e-01 8.400354002602e+07 9.998895901993e+04 -8.390355106700e+07 6.601321942332e-01 3.398678057668e-01 3.358891114345e-09 1.971592235853e-08 -1.734487624838e-13 1.540819996588e-12 9.031195242651e+06 3.532088092366e+06  1.043531674024e-01
6.000000000000e-01 8.400309121853e+07 9.998952850667e+04 -8.390310169002e+07 6.601335009545e-01 3.398664990455e-01 3.396103866516e-09 1.893565414086e-08 -1.737687727183e-13 1.515694681410e-12 9.069931212057e+06 3.548164013619e+06  1.043697457103e-01
6.100000000000e-01 8.400263701933e+07 9.999010014309e+04 -8.390264691918e+07 6.601348181687e-01 3.398651818313e-01 3.424615410622e-09 1.812165115397e-08 -1.743449951299e-13 1.489732661972e-12 9.109254376235e+06 3.564487374245e+06  1.043865071018e-01
6.200000000000e-01 8.400217857508e+07 9.999067461152e+04 -8.390218790047e+07 6.601361425418e-01 3.398638574582e-01 3.444610321213e-09 1.727599641434e-08 -1.751893683279e-13 1.462896238068e-12 9.147971567118e+06 3.580561344065e+06  1.044029418411e-01
6.300000000000e-01 8.400171700114e+07 9.999124903026e+04 -8.390172575211e+07 6.601374708374e-01 3.398625291626e-01 3.456292102007e-09 1.640075933675e-08 -1.762761143631e-13 1.435318919035e-12 9.186805013516e+06 3.596686626277e+06  1.044193594064e-01
6.400000000000e-01 8.400125338569e+07 9.999182290564e+04 -8.390126156278e+07 6.601387999079e-01 3.398612000921e-01 3.459874276727e-09 1.549800151389e-08 -1.775830272497e-13 1.407044539271e-12 9.226264960625e+06 3.613075847428e+06  1.044359749274e-01
6.500000000000e-01 8.400078877280e+07 9.999239480022e+04 -8.390079637800e+07 6.601401267416e-01 3.398598732584e-01 3.455578208768e-09 1.456974424015e-08 -1.791260041608e-13 1.378151072731e-12 9.265150718153e+06 3.629228963858e+06  1.044522817035e-01
6.600000000000e-01 8.400032417032e+07 9.999296378175e+04 -8.390033120654e+07 6.601414484400e-01 3.398585515600e-01 3.443633146663e-09 1.361797945662e-08 -1.809082020129e-13 1.348656233344e-12 9.304713755129e+06 3.645667343173e+06  1.044688065577e-01
6.700000000000e-01 8.399986055655e+07 9.999352870064e+04 -8.389986702785e+07 6.601427621971e-01 3.398572378029e-01 3.424283029681e-09 1.264468283033e-08 -1.828975544317e-13 1.318692870630e-12 9.343594213759e+06 3.661825314006e+06  1.044849813503e-01
6.800000000000e-01 8.399939890776e+07 9.999408837355e+04 -8.389940481939e+07 6.601440652259e-01 3.398559347741e-01 3.397766161567e-09 1.165187982858e-08 -1.850921769815e-13 1.288247299232e-12 9.382281028091e+06 3.677904696860e+06  1.045010106949e-01
6.900000000000e-01 8.399894011999e+07 9.999464182329e+04 -8.389894547817e+07 6.601453549745e-01 3.398546450255e-01 3.364327777241e-09 1.064147167698e-08 -1.874877984918e-13 1.257434120813e-12 9.421538535886e+06 3.694225026761e+06  1.045172129893e-01
7.000000000000e-01 8.399848505075e+07 9.999518828615e+04 -8.389848986246e+07 6.601466290115e-01 3.398533709885e-01 3.324219466036e-09 9.615321238783e-09 -1.900637541134e-13 1.226285310199e-12 9.460192634561e+06 3.710296940989e+06  1.045331028245e-01
7.100000000000e-01 8.399803452159e+07 9.999572631307e+04 -8.389803879528e+07 6.601478850169e-01 3.398521149831e-01 3.277695102950e-09 8.575260426210e-09 -1.928302875147e-13 1.194875536158e-12 9.498888656040e+06 3.726389450552e+06  1.045489482157e-01
7.200000000000e-01 8.399758931807e+07 9.999625575316e+04 -8.389759306231e+07 6.601491207822e-01 3.398508792178e-01 3.225011855908e-09 7.523086148142e-09 -1.957671586707e-13 1.163267806141e-12 9.538137347503e+06 3.742715439081e+06  1.045649578635e-01
7.300000000000e-01 8.399715019066e+07 9.999677579203e+04 -8.389715341487e+07 6.601503342072e-01 3.398496657928e-01 3.166429582995e-09 6.460559011831e-09 -1.988789339719e-13 1.131488559393e-12 9.576760694157e+06 3.758783822117e+06  1.045806507126e-01
7.400000000000e-01 8.399671786009e+07 9.999728486112e+04 -8.389672057523e+07 6.601515232813e-01 3.398484767187e-01 3.102211887548e-09 5.389409038826e-09 -2.021201862435e-13 1.099594354581e-12 9.615378969181e+06 3.774853005279e+06  1.045962812560e-01
7.500000000000e-01 8.399629301419e+07 9.999778253866e+04 -8.389629523165e+07 6.601526861010e-01 3.398473138990e-01 3.032615682815e-09 4.311347222116e-09 -2.055222190296e-13 1.067639141569e-12 9.654480227082e+06 3.791126671111e+06  1.046120470295e-01
7.600000000000e-01 8.399587629358e+07 9.999826879403e+04 -8.389587802478e+07 6.601538209032e-01 3.398461790968e-01 2.957899136085e-09 3.228017164675e-09 -2.090948628186e-13 1.035676281486e-12 9.692814796578e+06 3.807083728531e+06  1.046274442098e-01
7.700000000000e-01 8.399546830523e+07 9.999874205002e+04 -8.389546956318e+07 6.601549260249e-01 3.398450739751e-01 2.878322793079e-09 2.141019269902e-09 -2.127730012858e-13 1.003778455171e-12 9.731146975894e+06 3.823042775632e+06  1.046427826257e-01
7.800000000000e-01 8.399506962085e+07 9.999920207778e+04 -8.389507041877e+07 6.601559999128e-01 3.398440000872e-01 2.794142312686e-09 1.051914849749e-09 -2.165775800012e-13 9.719718019757e-13 9.769445104032e+06 3.838990582846e+06  1.046580500950e-01
7.900000000000e-01 8.399468079981e+07 9.999964789798e+04 -8.389468115191e+07 6.601570410538e-01 3.398429589462e-01 2.705613864842e-09 -3.773189410649e-11 -2.205036437402e-13 9.403240192933e-13 9.807680729188e+06 3.854915157381e+06  1.046732357899e-01
8.000000000000e-01 8.399430235568e+07 1.000000798217e+05 -8.389430227586e+07 6.601580480731e-01 3.398419519269e-01 2.612990531603e-09 -1.126423407424e-09 -2.245440517054e-13 9.088287138562e-13 9.846429566673e+06 3.871056703021e+06  1.046885682445e-01
8.100000000000e-01 8.399393475501e+07 1.000004967574e+05 -8.389393425825e+07 6.601590197364e-01 3.398409802636e-01 2.516522161215e-09 -2.212727612284e-09 -2.286762912247e-13 8.775659100078e-13 9.884530650818e+06 3.886930922978e+06  1.047035880519e-01
8.200000000000e-01 8.399357843246e+07 1.000008983402e+05 -8.389357753412e+07 6.601599549061e-01 3.398400450939e-01 2.416454608387e-09 -3.295255489849e-09 -2.329074800357e-13 8.465665221458e-13 9.922630814064e+06 3.902807464054e+06  1.047185523494e-01
8.300000000000e-01 8.399323380570e+07 1.000012844736e+05 -8.389323252122e+07 6.601608524986e-01 3.398391475014e-01 2.313031259956e-09 -4.372627981377e-09 -2.372116758876e-13 8.158903657798e-13 9.960638037085e+06 3.918648012296e+06  1.047334256449e-01
8.400000000000e-01 8.399290125086e+07 1.000016539772e+05 -8.389289959688e+07 6.601617115562e-01 3.398382884438e-01 2.206486943444e-09 -5.443522898113e-09 -2.415909931870e-13 7.855797876038e-13 9.998544073467e+06 3.934449075264e+06  1.047482055123e-01
8.500000000000e-01 8.399258110684e+07 1.000020068573e+05 -8.389257909998e+07 6.601625312300e-01 3.398374687700e-01 2.097060092627e-09 -6.506683692841e-09 -2.460437686721e-13 7.556547690209e-13 1.003637883663e+07 3.950223146859e+06  1.047629044254e-01
8.600000000000e-01 8.399227368706e+07 1.000023427918e+05 -8.389227134427e+07 6.601633107423e-01 3.398366892577e-01 1.984988250202e-09 -7.560900239390e-09 -2.505506654797e-13 7.261569793553e-13 1.007410299577e+07 3.965953825906e+06  1.047775078999e-01
8.700000000000e-01 8.399197927905e+07 1.000026625016e+05 -8.389197661654e+07 6.601640493969e-01 3.398359506031e-01 1.870505641535e-09 -8.604994132827e-09 -2.551179056768e-13 6.970764639900e-13 1.011229760636e+07 3.981883394940e+06  1.047922404948e-01
8.800000000000e-01 8.399169814038e+07 1.000029643243e+05 -8.389169517606e+07 6.601647465856e-01 3.398352534144e-01 1.753835026175e-09 -9.637827617579e-09 -2.597384218268e-13 6.685157359315e-13 1.014982588001e+07 3.997537498132e+06  1.048066642091e-01
8.900000000000e-01 8.399143049900e+07 1.000032484450e+05 -8.389142725056e+07 6.601654017906e-01 3.398345982094e-01 1.635196782235e-09 -1.065830819738e-08 -2.643884504093e-13 6.404812315759e-13 1.018728698456e+07 4.013166053835e+06  1.048210113404e-01
9.000000000000e-01 8.399117656038e+07 1.000035153473e+05 -8.389117304504e+07 6.601660145611e-01 3.398339854389e-01 1.514803866950e-09 -1.166537644974e-08 -2.690658642351e-13 6.129800677878e-13 1.022465540498e+07 4.028758381395e+06  1.048352727822e-01
9.100000000000e-01 8.399093652481e+07 1.000037640501e+05 -8.389093276076e+07 6.601665844638e-01 3.398334155362e-01 1.392866080501e-09 -1.265797009479e-08 -2.737632479968e-13 5.860669044484e-13 1.026193249143e+07 4.044314970849e+06  1.048494497173e-01
9.200000000000e-01 8.399071055209e+07 1.000039940631e+05 -8.389070655803e+07 6.601671111860e-01 3.398328888140e-01 1.269585159078e-09 -1.363509252109e-08 -2.784819302277e-13 5.597974588549e-13 1.029911047298e+07 4.059832808903e+06  1.048635401918e-01
9.300000000000e-01 8.399049876475e+07 1.000042062246e+05 -8.389049455853e+07 6.601675945235e-01 3.398324054765e-01 1.145158492622e-09 -1.459581802549e-08 -2.832253103073e-13 5.341433173386e-13 1.033621895721e+07 4.075324013749e+06  1.048775558944e-01
9.400000000000e-01 8.399030124675e+07 1.000043998423e+05 -8.389029684691e+07 6.601680343870e-01 3.398319656130e-01 1.019775370586e-09 -1.553928162791e-08 -2.879727817147e-13 5.091824235678e-13 1.037325302916e+07 4.090786492763e+06  1.048914955682e-01
9.500000000000e-01 8.399011806953e+07 1.000045751406e+05 -8.389011349439e+07 6.601684307219e-01 3.398315692781e-01 8.936241304772e-10 -1.646464863057e-08 -2.927183311485e-13 4.848942441850e-13 1.041022732920e+07 4.106226346745e+06  1.049053653252e-01
9.600000000000e-01 8.398994928526e+07 1.000047320932e+05 -8.388994455317e+07 6.601687835261e-01 3.398312164739e-01 7.669030736487e-10 -1.737113160478e-08 -2.974546748192e-13 4.613250148754e-13 1.044709117662e+07 4.121622382319e+06  1.049191468045e-01
9.700000000000e-01 8.398979492440e+07 1.000048704559e+05 -8.388979005394e+07 6.601690928633e-01 3.398309071367e-01 6.397888593109e-10 -1.825797044723e-08 -3.021578782570e-13 4.385183611627e-13 1.048392828558e+07 4.137009601958e+06  1.049328719606e-01
9.800000000000e-01 8.398965499714e+07 1.000049908905e+05 -8.388965000625e+07 6.601693588568e-01 3.398306411432e-01 5.124507619055e-10 -1.912444447840e-08 -3.068649782191e-13 4.164269336614e-13 1.052071343269e+07 4.152377354820e+06  1.049465317498e-01
9.900000000000e-01 8.398952949413e+07 1.000050922940e+05 -8.388952440184e+07 6.601695816854e-01 3.398304183146e-01 3.850538669420e-10 -1.996986752014e-08 -3.115326623394e-13 3.951447093018e-13 1.055744701551e+07 4.167725698377e+06  1.049601267465e-01
1.000000000000e+00 8.398941838910e+07 1.000051755511e+05 -8.388941321355e+07 6.601697615784e-01 3.398302384216e-01 2.577626991394e-10 -2.079359032476e-08 -3.161880947703e-13 3.746587392666e-13 1.059411625529e+07 4.183049280739e+06  1.049736527417e-01
1.050000000000e+00 8.398921067451e+07 1.000051550157e+05 -8.388920551949e+07 6.601696396724e-01 3.398303603276e-01 -3.592380128269e-10 -2.430729707308e-08 -3.383108400809e-13 2.935435356165e-13 1.077547653824e+07 4.258875636937e+06  1.050399358028e-01
1.100000000000e+00 8.398932931180e+07 1.000047210597e+05 -8.388932459074e+07 6.601685723370e-01 3.398314276630e-01 -9.426985396692e-10 -2.717668437770e-08 -3.587932625717e-13 2.349763923387e-13 1.095349711169e+07 4.333331854216e+06  1.051039408192e-01
1.150000000000e+00 8.398974729786e+07 1.000039078887e+05 -8.388974338997e+07 6.601666631615e-01 3.398333368385e-01 -1.481404706324e-09 -2.937895956516e-08 -3.773100175991e-13 1.992948127973e-13 1.113165110488e+07 4.407887137513e+06  1.051669986070e-01
1.200000000000e+00 8.399043328898e+07 1.000027524728e+05 -8.389043053651e+07 6.601640194932e-01 3.398359805068e-01 -1.966741476724e-09 -3.090663839065e-08 -3.934984036543e-13 1.865591639186e-13 1.130729368031e+07 4.481419524774e+06  1.052282083976e-01
1.250000000000e+00 8.399135255960e+07 1.000012964251e+05 -8.389135126318e+07 6.601607549948e-01 3.398392450052e-01 -2.392510971071e-09 -3.176644928983e-08 -4.072266480672e-13 1.963379516502e-13 1.148283934705e+07 4.554944085661e+06  1.052884686596e-01
1.300000000000e+00 8.399246933994e+07 9.999958195397e+04 -8.389246975798e+07 6.601569827788e-01 3.398430172212e-01 -2.754507965549e-09 -3.197527106799e-08 -4.183968482605e-13 2.278608710537e-13 1.165701523112e+07 4.627918550752e+06  1.053473730595e-01
1.350000000000e+00 8.399374672040e+07 9.999765787171e+04 -8.389374906253e+07 6.601528135391e-01 3.398471864609e-01 -3.050347653084e-09 -3.156047871827e-08 -4.268824939390e-13 2.798992121212e-13 1.183061670108e+07 4.700675304505e+06  1.054052315573e-01
1.400000000000e+00 8.399514827998e+07 9.999556802063e+04 -8.389515271196e+07 6.601483618001e-01 3.398516381999e-01 -3.279291186007e-09 -3.055660632360e-08 -4.326851038535e-13 3.512135399591e-13 1.200359031399e+07 4.773189203277e+06  1.054620578067e-01