VARIABLES  = "X","Y","Z", "DISPLACEMENT_X1", "DISPLACEMENT_Y1", "STRESS_XX", "STRESS_XY", "STRESS_YY", "STRESS_ZZ", "STRAIN_XX", "STRAIN_XY", "STRAIN_YY"
ZONE T="0.000000000000e+00s", N=32, E=38, F=FEPOINT, ET=QUADRILATERAL
STRANDID=1, SOLUTIONTIME=0.000000000000e+00
1.000000000000e-02 0.000000000000e+00 5.000000000000e-02 0.000000000000e+00 0.000000000000e+00 -1.000000000000e+05 0.000000000000e+00 -1.000000000000e+05 -1.000000000000e+05 0.000000000000e+00 0.000000000000e+00 0.000000000000e+00 
1.000000000000e-02 0.000000000000e+00 4.500000000000e-02 0.000000000000e+00 0.000000000000e+00 -1.000000000000e+05 0.000000000000e+00 -1.000000000000e+05 -1.000000000000e+05 0.000000000000e+00 0.000000000000e+00 0.000000000000e+00 
5.000000000000e-03 0.000000000000e+00 5.000000000000e-02 0.000000000000e+00 0.000000000000e+00 -1.000000000000e+05 0.000000000000e+00 -1.000000000000e+05 -1.000000000000e+05 0.000000000000e+00 0.000000000000e+00 0.000000000000e+00 
5.000000000000e-03 0.000000000000e+00 4.300000000000e-02 0.000000000000e+00 0.000000000000e+00 -1.000000000000e+05 0.000000000000e+00 -1.000000000000e+05 -1.000000000000e+05 0.000000000000e+00 0.000000000000e+00 0.000000000000e+00 
1.000000000000e-02 0.000000000000e+00 4.000000000000e-02 0.000000000000e+00 0.000000000000e+00 -1.000000000000e+05 0.000000000000e+00 -1.000000000000e+05 -1.000000000000e+05 0.000000000000e+00 0.000000000000e+00 0.000000000000e+00 
0.000000000000e+00 0.000000000000e+00 5.000000000000e-02 0.000000000000e+00 0.000000000000e+00 -1.000000000000e+05 0.000000000000e+00 -1.000000000000e+05 -1.000000000000e+05 0.000000000000e+00 0.000000000000e+00 0.000000000000e+00 
0.000000000000e+00 0.000000000000e+00 4.500000000000e-02 0.000000000000e+00 0.000000000000e+00 -1.000000000000e+05 0.000000000000e+00 -1.000000000000e+05 -1.000000000000e+05 0.000000000000e+00 0.000000000000e+00 0.000000000000e+00 
6.000000000000e-03 0.000000000000e+00 3.800000000000e-02 0.000000000000e+00 0.000000000000e+00 -1.000000000000e+05 0.000000000000e+00 -1.000000000000e+05 -1.000000000000e+05 0.000000000000e+00 0.000000000000e+00 0.000000000000e+00 
0.000000000000e+00 0.000000000000e+00 4.000000000000e-02 0.000000000000e+00 0.000000000000e+00 -1.000000000000e+05 0.000000000000e+00 -1.000000000000e+05 -1.000000000000e+05 0.000000000000e+00 0.000000000000e+00 0.000000000000e+00 
1.000000000000e-02 0.000000000000e+00 3.500000000000e-02 0.000000000000e+00 0.000000000000e+00 -1.000000000000e+05 0.000000000000e+00 -1.000000000000e+05 -1.000000000000e+05 0.000000000000e+00 0.000000000000e+00 0.000000000000e+00 
0.000000000000e+00 0.000000000000e+00 3.500000000000e-02 0.000000000000e+00 0.000000000000e+00 -1.000000000000e+05 0.000000000000e+00 -1.000000000000e+05 -1.000000000000e+05 0.000000000000e+00 0.000000000000e+00 0.000000000000e+00 
4.000000000000e-03 0.000000000000e+00 3.300000000000e-02 0.000000000000e+00 0.000000000000e+00 -1.000000000000e+05 0.000000000000e+00 -1.000000000000e+05 -1.000000000000e+05 0.000000000000e+00 0.000000000000e+00 0.000000000000e+00 
1.000000000000e-02 0.000000000000e+00 3.000000000000e-02 0.000000000000e+00 0.000000000000e+00 -1.000000000000e+05 0.000000000000e+00 -1.000000000000e+05 -1.000000000000e+05 0.000000000000e+00 0.000000000000e+00 0.000000000000e+00 
0.000000000000e+00 0.000000000000e+00 3.000000000000e-02 0.000000000000e+00 0.000000000000e+00 -1.000000000000e+05 0.000000000000e+00 -1.000000000000e+05 -1.000000000000e+05 0.000000000000e+00 0.000000000000e+00 0.000000000000e+00 
4.000000000000e-03 0.000000000000e+00 2.800000000000e-02 0.000000000000e+00 0.000000000000e+00 -1.000000000000e+05 0.000000000000e+00 -1.000000000000e+05 -1.000000000000e+05 0.000000000000e+00 0.000000000000e+00 0.000000000000e+00 
1.000000000000e-02 0.000000000000e+00 2.500000000000e-02 0.000000000000e+00 0.000000000000e+00 -1.000000000000e+05 0.000000000000e+00 -1.000000000000e+05 -1.000000000000e+05 0.000000000000e+00 0.000000000000e+00 0.000000000000e+00 
0.000000000000e+00 0.000000000000e+00 2.500000000000e-02 0.000000000000e+00 0.000000000000e+00 -1.000000000000e+05 0.000000000000e+00 -1.000000000000e+05 -1.000000000000e+05 0.000000000000e+00 0.000000000000e+00 0.000000000000e+00 
4.000000000000e-03 0.000000000000e+00 2.300000000000e-02 0.000000000000e+00 0.000000000000e+00 -1.000000000000e+05 0.000000000000e+00 -1.000000000000e+05 -1.000000000000e+05 0.000000000000e+00 0.000000000000e+00 0.000000000000e+00 
1.000000000000e-02 0.000000000000e+00 2.000000000000e-02 0.000000000000e+00 0.000000000000e+00 -1.000000000000e+05 0.000000000000e+00 -1.000000000000e+05 -1.000000000000e+05 0.000000000000e+00 0.000000000000e+00 0.000000000000e+00 
0.000000000000e+00 0.000000000000e+00 2.000000000000e-02 0.000000000000e+00 0.000000000000e+00 -1.000000000000e+05 0.000000000000e+00 -1.000000000000e+05 -1.000000000000e+05 0.000000000000e+00 0.000000000000e+00 0.000000000000e+00 
4.000000000000e-03 0.000000000000e+00 1.800000000000e-02 0.000000000000e+00 0.000000000000e+00 -1.000000000000e+05 0.000000000000e+00 -1.000000000000e+05 -1.000000000000e+05 0.000000000000e+00 0.000000000000e+00 0.000000000000e+00 
1.000000000000e-02 0.000000000000e+00 1.500000000000e-02 0.000000000000e+00 0.000000000000e+00 -1.000000000000e+05 0.000000000000e+00 -1.000000000000e+05 -1.000000000000e+05 0.000000000000e+00 0.000000000000e+00 0.000000000000e+00 
0.000000000000e+00 0.000000000000e+00 1.500000000000e-02 0.000000000000e+00 0.000000000000e+00 -1.000000000000e+05 0.000000000000e+00 -1.000000000000e+05 -1.000000000000e+05 0.000000000000e+00 0.000000000000e+00 0.000000000000e+00 
4.000000000000e-03 0.000000000000e+00 1.300000000000e-02 0.000000000000e+00 0.000000000000e+00 -1.000000000000e+05 0.000000000000e+00 -1.000000000000e+05 -1.000000000000e+05 0.000000000000e+00 0.000000000000e+00 0.000000000000e+00 
1.000000000000e-02 0.000000000000e+00 1.000000000000e-02 0.000000000000e+00 0.000000000000e+00 -1.000000000000e+05 0.000000000000e+00 -1.000000000000e+05 -1.000000000000e+05 0.000000000000e+00 0.000000000000e+00 0.000000000000e+00 
0.000000000000e+00 0.000000000000e+00 1.000000000000e-02 0.000000000000e+00 0.000000000000e+00 -1.000000000000e+05 0.000000000000e+00 -1.000000000000e+05 -1.000000000000e+05 0.000000000000e+00 0.000000000000e+00 0.000000000000e+00 
5.000000000000e-03 0.000000000000e+00 7.000000000000e-03 0.000000000000e+00 0.000000000000e+00 -1.000000000000e+05 0.000000000000e+00 -1.000000000000e+05 -1.000000000000e+05 0.000000000000e+00 0.000000000000e+00 0.000000000000e+00 
1.000000000000e-02 0.000000000000e+00 5.000000000000e-03 0.000000000000e+00 0.000000000000e+00 -1.000000000000e+05 0.000000000000e+00 -1.000000000000e+05 -1.000000000000e+05 0.000000000000e+00 0.000000000000e+00 0.000000000000e+00 
0.000000000000e+00 0.000000000000e+00 5.000000000000e-03 0.000000000000e+00 0.000000000000e+00 -1.000000000000e+05 0.000000000000e+00 -1.000000000000e+05 -1.000000000000e+05 0.000000000000e+00 0.000000000000e+00 0.000000000000e+00 
1.000000000000e-02 0.000000000000e+00 0.000000000000e+00 0.000000000000e+00 0.000000000000e+00 -1.000000000000e+05 0.000000000000e+00 -1.000000000000e+05 -1.000000000000e+05 0.000000000000e+00 0.000000000000e+00 0.000000000000e+00 
5.000000000000e-03 0.000000000000e+00 0.000000000000e+00 0.000000000000e+00 0.000000000000e+00 -1.000000000000e+05 0.000000000000e+00 -1.000000000000e+05 -1.000000000000e+05 0.000000000000e+00 0.000000000000e+00 0.000000000000e+00 
0.000000000000e+00 0.000000000000e+00 0.000000000000e+00 0.000000000000e+00 0.000000000000e+00 -1.000000000000e+05 0.000000000000e+00 -1.000000000000e+05 -1.000000000000e+05 0.000000000000e+00 0.000000000000e+00 0.000000000000e+00 
14  17  15  14
15  17  18  15
18  17  20  18
14  15  12  14
30  28  31  30
12  15  13  12
18  20  21  18
21  20  23  21
18  21  19  18
21  23  24  21
24  23  26  24
21  24  22  21
5  2  4  5
4  2  3  4
5  4  8  5
8  4  9  8
5  8  10  5
24  26  27  24
27  26  29  27
24  27  25  24
10  8  12  10
27  29  31  27
19  16  18  19
6  7  3  6
25  22  24  25
1  3  2  1
13  10  12  13
9  11  8  9
32  31  29  32
15  18  16  15
14  12  11  14
11  12  8  11
28  25  27  28
7  9  4  7
16  13  15  16
22  19  21  22
7  4  3  7
28  27  31  28
VARIABLES  = "X","Y","Z", "DISPLACEMENT_X1", "DISPLACEMENT_Y1", "STRESS_XX", "STRESS_XY", "STRESS_YY", "STRESS_ZZ", "STRAIN_XX", "STRAIN_XY", "STRAIN_YY"
ZONE T="1.000000000000e-03s", N=32, E=38, F=FEPOINT, ET=QUADRILATERAL
STRANDID=1, SOLUTIONTIME=1.000000000000e-03
1.000000000000e-02 0.000000000000e+00 5.000000000000e-02 0.000000000000e+00 0.000000000000e+00 -1.321012129164e+05 -3.566682051843e-02 -1.481511447793e+05 -1.321009439256e+05 -4.740827260350e-07 -1.257164567337e-07 -2.828788380405e-02 
1.000000000000e-02 0.000000000000e+00 4.500000000000e-02 0.000000000000e+00 1.414437519009e-04 -1.321011416384e+05 -1.460502450894e-01 -1.481494048244e+05 -1.321002171609e+05 -1.629511697115e-06 -5.148969560516e-07 -2.828914379917e-02 
5.000000000000e-03 0.000000000000e+00 5.000000000000e-02 2.071092707862e-09 0.000000000000e+00 -1.321012457896e+05 -2.766814661769e-02 -1.481519457130e+05 -1.321012753341e+05 5.207320195998e-08 -9.752192171482e-08 -2.828907981003e-02 
5.000000000000e-03 0.000000000000e+00 4.300000000000e-02 6.205204076681e-09 1.980277345518e-04 -1.321012303814e+05 -1.291623419517e+00 -1.481515732250e+05 -1.321011273286e+05 -1.815837696120e-07 -4.552960711292e-06 -2.828920940616e-02 
1.000000000000e-02 0.000000000000e+00 4.000000000000e-02 0.000000000000e+00 2.828982115857e-04 -1.321012391900e+05 9.121873050544e-01 -1.481517843075e+05 -1.321012074102e+05 -5.595867083152e-08 3.216051353362e-06 -2.829354731604e-02 
0.000000000000e+00 0.000000000000e+00 5.000000000000e-02 0.000000000000e+00 0.000000000000e+00 -1.321012819479e+05 1.847566543398e-02 -1.481528289345e+05 -1.321016454377e+05 6.406264567299e-07 6.511982788333e-08 -2.828893758190e-02 
0.000000000000e+00 0.000000000000e+00 4.500000000000e-02 0.000000000000e+00 1.414511353477e-04 -1.321012800986e+05 8.460688218661e-02 -1.481527824885e+05 -1.321016234025e+05 6.051130807153e-07 2.982378373912e-07 -2.829194223238e-02 
6.000000000000e-03 0.000000000000e+00 3.800000000000e-02 1.608696204811e-08 3.394899931955e-04 -1.321009550086e+05 -4.717710420998e+00 -1.481448381593e+05 -1.320982872609e+05 -4.703741203043e-06 -1.663749894774e-05 -2.829938341458e-02 
0.000000000000e+00 0.000000000000e+00 4.000000000000e-02 0.000000000000e+00 2.829222857796e-04 -1.321016242818e+05 -5.645013232212e-01 -1.481611811723e+05 -1.321051252038e+05 6.170939128542e-06 -1.989227002554e-06 -2.829888259843e-02 
1.000000000000e-02 0.000000000000e+00 3.500000000000e-02 0.000000000000e+00 4.243065722438e-04 -1.321004174555e+05 -3.115438437353e+00 -1.481317816329e+05 -1.320929689636e+05 -1.309873734223e-05 -1.097944477643e-05 -2.825288110004e-02 
0.000000000000e+00 0.000000000000e+00 3.500000000000e-02 0.000000000000e+00 4.244026091983e-04 -1.321012831363e+05 3.606174797240e+00 -1.481528853298e+05 -1.321017260534e+05 7.929659998519e-07 1.270930246305e-05 -2.827808500640e-02 
4.000000000000e-03 0.000000000000e+00 3.300000000000e-02 5.610889145989e-08 4.810353328039e-04 -1.321037887531e+05 -1.153074995491e+01 -1.482140269565e+05 -1.321272163825e+05 4.130521091000e-05 -4.064992120789e-05 -2.831143044626e-02 
1.000000000000e-02 0.000000000000e+00 3.000000000000e-02 0.000000000000e+00 5.658998430651e-04 -1.320980979948e+05 1.449484654914e+01 -1.480749221103e+05 -1.320687251796e+05 -5.165029872918e-05 5.185346657770e-05 -2.840083641552e-02 
0.000000000000e+00 0.000000000000e+00 3.000000000000e-02 0.000000000000e+00 5.661540772768e-04 -1.321027496891e+05 -7.624742808095e+00 -1.481884947194e+05 -1.321162161370e+05 2.403344486601e-05 -2.754680201190e-05 -2.844680938377e-02 
4.000000000000e-03 0.000000000000e+00 2.800000000000e-02 3.099957343243e-07 6.222092248712e-04 -1.320925001109e+05 -8.845067723885e+01 -1.479387388665e+05 -1.320127586252e+05 -1.402762156240e-04 -3.109404051162e-04 -2.803100810089e-02 
1.000000000000e-02 0.000000000000e+00 2.500000000000e-02 0.000000000000e+00 7.063869078147e-04 -1.321108457324e+05 5.903059415393e+01 -1.483865622936e+05 -1.322004662918e+05 1.684005948146e-04 2.291125335217e-04 -2.785420715745e-02 
0.000000000000e+00 0.000000000000e+00 2.500000000000e-02 0.000000000000e+00 7.084158090709e-04 -1.321424634230e+05 -1.562074741650e+02 -1.491585727925e+05 -1.325219899174e+05 6.608759955520e-04 -5.552357878255e-04 -2.847645297113e-02 
4.000000000000e-03 0.000000000000e+00 2.300000000000e-02 1.066827703998e-06 7.668767322766e-04 -1.320881151261e+05 -1.292725807878e+02 -1.488227824711e+05 -1.323603354655e+05 5.220086078494e-04 -4.810353813700e-04 -3.038645039555e-02 
1.000000000000e-02 0.000000000000e+00 2.000000000000e-02 0.000000000000e+00 8.454244829712e-04 -1.318583601916e+05 -5.338943928467e+02 -1.442120015394e+05 -1.304282699260e+05 -2.525996025485e-03 -2.064343272302e-03 -2.574023196729e-02 
0.000000000000e+00 0.000000000000e+00 2.000000000000e-02 0.000000000000e+00 8.461920790251e-04 -1.318632407858e+05 9.548782365535e+02 -1.433430044144e+05 -1.300804808243e+05 -3.068920483629e-03 3.395516868755e-03 -2.502067066201e-02 
4.000000000000e-03 0.000000000000e+00 1.800000000000e-02 8.062674678582e-07 9.002171606486e-04 -1.328834186105e+05 -3.689545776644e+02 -1.523762379705e+05 -1.341298978003e+05 1.658503684176e-03 -1.020434908497e-03 -2.106360377235e-02 
1.000000000000e-02 0.000000000000e+00 1.500000000000e-02 0.000000000000e+00 1.009016838859e-03 -2.143447202627e+05 1.290196276175e+03 -2.555171297580e+05 -2.059894606601e+05 6.822963245335e-03 1.753617987753e-02 -4.741536055407e-02 
0.000000000000e+00 0.000000000000e+00 1.500000000000e-02 0.000000000000e+00 1.025111814661e-03 -1.572206479358e+05 -1.503617232959e+04 -2.873239731013e+05 -1.976539087052e+05 1.723259291348e-02 -1.583483352299e-02 -6.018098974144e-02 
4.000000000000e-03 0.000000000000e+00 1.300000000000e-02 3.356505885000e-05 1.034729477844e-03 -2.025355825173e+05 -4.270699702206e+03 -1.963492105624e+05 -1.779580625021e+05 -2.902668541601e-02 -2.299916636396e-02 -2.081378692965e-02 
1.000000000000e-02 0.000000000000e+00 1.000000000000e-02 0.000000000000e+00 1.038171851827e-03 3.271353870488e+05 -3.740257339185e+04 4.483665688153e+05 2.769527503349e+05 2.170540495340e-02 -1.257590644298e-03 6.396806785619e-02 
0.000000000000e+00 0.000000000000e+00 1.000000000000e-02 0.000000000000e+00 1.116005328958e-03 2.462775052664e+05 2.304327365810e+03 1.439120398825e+05 1.324760787295e+05 4.825048351866e-02 -2.717820349982e-02 4.920045841765e-02 
5.000000000000e-03 0.000000000000e+00 7.000000000000e-03 5.395968150857e-05 1.348925693057e-03 1.953541675130e+04 7.397289250325e+03 -7.573016293521e+04 -4.233627140209e+04 9.719187431804e-02 -3.130705531152e-02 -9.041782692844e-02 
1.000000000000e-02 0.000000000000e+00 5.000000000000e-03 0.000000000000e+00 1.614912819683e-03 -7.303125646851e+04 7.697779816163e+02 5.435288815492e+02 -4.591820824844e+04 -1.318456428086e-01 5.639118070424e-02 4.249747529656e-02 
0.000000000000e+00 0.000000000000e+00 5.000000000000e-03 0.000000000000e+00 1.660102388163e-03 1.008305374888e+05 -1.400905875252e+05 4.690116792700e+05 2.309688845842e+05 -1.316046069306e-01 -8.611270122020e-02 7.108804526935e-02 
1.000000000000e-02 0.000000000000e+00 0.000000000000e+00 0.000000000000e+00 0.000000000000e+00 1.394292398274e+05 8.037293874646e+02 2.836843508881e+05 1.399934751003e+05 -2.612547522423e-03 2.566027708120e-03 3.442803515854e-01 
5.000000000000e-03 0.000000000000e+00 0.000000000000e+00 1.314368023869e-05 0.000000000000e+00 2.618459796997e+05 1.185457256153e+04 4.513425231240e+05 2.507916536310e+05 2.632039726517e-02 -3.453411999209e-03 4.344757421491e-01 
0.000000000000e+00 0.000000000000e+00 0.000000000000e+00 0.000000000000e+00 0.000000000000e+00 3.323158089559e+05 -1.156523632055e+02 5.993399957068e+05 3.276026044315e+05 1.022799110675e-02 -8.163043101033e-05 3.312368134142e-01 
14  17  15  14
15  17  18  15
18  17  20  18
14  15  12  14
30  28  31  30
12  15  13  12
18  20  21  18
21  20  23  21
18  21  19  18
21  23  24  21
24  23  26  24
21  24  22  21
5  2  4  5
4  2  3  4
5  4  8  5
8  4  9  8
5  8  10  5
24  26  27  24
27  26  29  27
24  27  25  24
10  8  12  10
27  29  31  27
19  16  18  19
6  7  3  6
25  22  24  25
1  3  2  1
13  10  12  13
9  11  8  9
32  31  29  32
15  18  16  15
14  12  11  14
11  12  8  11
28  25  27  28
7  9  4  7
16  13  15  16
22  19  21  22
7  4  3  7
28  27  31  28
VARIABLES  = "X","Y","Z", "DISPLACEMENT_X1", "DISPLACEMENT_Y1", "STRESS_XX", "STRESS_XY", "STRESS_YY", "STRESS_ZZ", "STRAIN_XX", "STRAIN_XY", "STRAIN_YY"
ZONE T="1.000000000000e-02s", N=32, E=38, F=FEPOINT, ET=QUADRILATERAL
STRANDID=1, SOLUTIONTIME=1.000000000000e-02
1.000000000000e-02 0.000000000000e+00 5.000000000000e-02 0.000000000000e+00 0.000000000000e+00 -2.959989211960e+06 -7.662218686407e+01 -4.376268566253e+06 -2.954503057890e+06 -2.289246855161e-05 -1.153349766034e-06 -1.018031834010e-01 
1.000000000000e-02 0.000000000000e+00 4.500000000000e-02 0.000000000000e+00 5.090146044014e-04 -2.959039132057e+06 2.479163172414e+01 -4.373496315204e+06 -2.953014288252e+06 -3.094956799295e-05 -1.352076825847e-06 -1.018012661864e-01 
5.000000000000e-03 0.000000000000e+00 5.000000000000e-02 9.742588077634e-08 0.000000000000e+00 -2.959753580687e+06 -8.604060036248e+02 -4.381752735356e+06 -2.956602565544e+06 -9.338308883466e-06 -7.332615885704e-06 -1.018175725551e-01 
5.000000000000e-03 0.000000000000e+00 4.300000000000e-02 1.288762380171e-07 7.127219722223e-04 -2.956390075861e+06 -5.311865880092e+03 -4.372127368155e+06 -2.951406746301e+06 -1.404154288353e-05 -7.269532220657e-05 -1.018191398806e-01 
1.000000000000e-02 0.000000000000e+00 4.000000000000e-02 0.000000000000e+00 1.018025731177e-03 -2.955580350564e+06 6.121023193140e+02 -4.373118787284e+06 -2.951479590707e+06 -3.578514981022e-05 2.231888635247e-06 -1.017957140609e-01 
0.000000000000e+00 0.000000000000e+00 5.000000000000e-02 0.000000000000e+00 0.000000000000e+00 -2.951141090420e+06 -5.678261264936e+02 -4.401603568206e+06 -2.961097800386e+06 3.600948149073e-05 -3.623522403820e-06 -1.018589421741e-01 
0.000000000000e+00 0.000000000000e+00 4.500000000000e-02 0.000000000000e+00 5.093150020787e-04 -2.956158977994e+06 -5.545497856611e+03 -4.414996487421e+06 -2.968462283842e+06 4.549382733653e-05 -3.285927993688e-05 -1.018522973522e-01 
6.000000000000e-03 0.000000000000e+00 3.800000000000e-02 1.987979589184e-07 1.221789239295e-03 -2.957879849453e+06 -2.011726317917e+03 -4.372036501740e+06 -2.951967831625e+06 -2.816652292698e-05 -1.323904373626e-04 -1.018106457436e-01 
0.000000000000e+00 0.000000000000e+00 4.000000000000e-02 0.000000000000e+00 1.018358238965e-03 -2.964829555216e+06 2.219854360795e+03 -4.436434690760e+06 -2.980505442973e+06 7.671322049479e-05 1.069428499233e-05 -1.017923260219e-01 
1.000000000000e-02 0.000000000000e+00 3.500000000000e-02 0.000000000000e+00 1.526777087205e-03 -2.947995740566e+06 3.630706220335e+03 -4.371854571136e+06 -2.947937724249e+06 -7.054837585570e-05 -5.928564056597e-05 -1.015935933373e-01 
0.000000000000e+00 0.000000000000e+00 3.500000000000e-02 0.000000000000e+00 1.527352415566e-03 -2.961684127705e+06 1.656519727640e+03 -4.408058185643e+06 -2.967895148976e+06 3.983223224933e-05 4.805741138402e-05 -1.017638746899e-01 
4.000000000000e-03 0.000000000000e+00 3.300000000000e-02 2.269470199700e-07 1.731232502574e-03 -2.975451489499e+06 3.347978046445e+03 -4.383075622982e+06 -2.963406253686e+06 2.564205891400e-06 -1.531859167589e-04 -1.016802299101e-01 
1.000000000000e-02 0.000000000000e+00 3.000000000000e-02 0.000000000000e+00 2.037864236971e-03 -2.913958024037e+06 3.888451472768e+04 -4.392185881585e+06 -2.942472311837e+06 1.250398580658e-04 5.492404561809e-04 -1.026662292312e-01 
0.000000000000e+00 0.000000000000e+00 3.000000000000e-02 0.000000000000e+00 2.037721193257e-03 -2.930523225163e+06 -1.347204188137e+03 -4.434734858986e+06 -2.966112948090e+06 2.836525526114e-04 -2.525358143833e-04 -1.025040424289e-01 
4.000000000000e-03 0.000000000000e+00 2.800000000000e-02 5.710203431368e-07 2.237506081825e-03 -2.995483676094e+06 -4.036546017136e+04 -4.206001190750e+06 -2.900594548677e+06 -8.557005269569e-04 -7.516658612847e-04 -1.005695996173e-01 
1.000000000000e-02 0.000000000000e+00 2.500000000000e-02 0.000000000000e+00 2.548488786455e-03 -2.963293432800e+06 1.102405216576e+05 -4.719701259380e+06 -3.093143838631e+06 1.390832614689e-03 1.650244400980e-03 -1.027940947467e-01 
0.000000000000e+00 0.000000000000e+00 2.500000000000e-02 0.000000000000e+00 2.548425261811e-03 -3.057825352556e+06 -9.750418915818e+04 -4.957733514142e+06 -3.226164981846e+06 1.266743587915e-03 -1.761903879828e-03 -1.005019235863e-01 
4.000000000000e-03 0.000000000000e+00 2.300000000000e-02 -1.362190465625e-06 2.767389889000e-03 -2.854114973664e+06 7.402689532738e+04 -3.963270413747e+06 -2.747012450936e+06 6.218680719029e-05 2.816037028434e-03 -1.099240226201e-01 
1.000000000000e-02 0.000000000000e+00 2.000000000000e-02 0.000000000000e+00 3.069106216360e-03 -2.899485811164e+06 -3.146903834834e+05 -4.891737333300e+06 -3.136583150932e+06 -1.024847070442e-03 -6.705652143440e-03 -1.030424125969e-01 
0.000000000000e+00 0.000000000000e+00 2.000000000000e-02 0.000000000000e+00 3.045404600041e-03 -2.894940066921e+06 2.290720413986e+05 -4.337120438976e+06 -2.912960624853e+06 -6.631783938820e-03 9.830327753815e-03 -9.842875677841e-02 
4.000000000000e-03 0.000000000000e+00 1.800000000000e-02 -5.646817257481e-06 3.236994688234e-03 -2.856506485431e+06 1.254342699488e+05 -4.048159349187e+06 -2.781459839758e+06 -1.486037982579e-03 5.010093225436e-03 -8.040813407639e-02 
1.000000000000e-02 0.000000000000e+00 1.500000000000e-02 0.000000000000e+00 3.678234535733e-03 -3.305125363593e+06 -6.103288100985e+03 -5.475782932618e+06 -3.530725411024e+06 2.164619444680e-02 3.954673906897e-02 -1.365375624967e-01 
0.000000000000e+00 0.000000000000e+00 1.500000000000e-02 0.000000000000e+00 3.658855771096e-03 -3.014096728854e+06 3.309597294619e+05 -4.695321089999e+06 -3.103763323139e+06 2.746677130608e-02 -3.289984368140e-02 -1.411124542772e-01 
4.000000000000e-03 0.000000000000e+00 1.300000000000e-02 4.278531824880e-05 3.738420116598e-03 -3.386137794425e+06 -3.508987276844e+04 -4.923059300471e+06 -3.343618993416e+06 -5.437905551284e-02 -2.199177666040e-02 -1.035361863473e-01 
1.000000000000e-02 0.000000000000e+00 1.000000000000e-02 0.000000000000e+00 3.983869659940e-03 -6.347834405206e+05 -1.377382442539e+05 -1.105900303045e+06 -7.274192637888e+05 3.983609842563e-02 -3.101111940837e-02 6.005593585065e-02 
0.000000000000e+00 0.000000000000e+00 1.000000000000e-02 0.000000000000e+00 3.945256543003e-03 2.118690347268e+05 1.414632904589e+06 1.605663342277e+06 7.056504761447e+05 6.470088179937e-02 4.730279103472e-02 8.438794825421e-02 
5.000000000000e-03 0.000000000000e+00 7.000000000000e-03 4.917979373242e-05 4.850130617994e-03 -1.239624839273e+06 -9.719672571154e+05 -7.911479333750e+06 -3.605813223634e+06 1.775843456253e-01 -3.388500752090e-02 -2.479437554123e-01 
1.000000000000e-02 0.000000000000e+00 5.000000000000e-03 0.000000000000e+00 5.719982988147e-03 -6.612192253350e+06 7.025419024914e+06 -1.310651463575e+07 -7.047438733528e+06 -1.874519437943e-01 3.713597805832e-01 -4.924913170023e-01 
0.000000000000e+00 0.000000000000e+00 5.000000000000e-03 0.000000000000e+00 4.906708785310e-03 -6.646430785156e+06 5.173156874462e+06 -7.504805532905e+06 -4.540459690549e+06 -2.296760343925e-01 1.336720492936e-01 -1.726754395274e-01 
1.000000000000e-02 0.000000000000e+00 0.000000000000e+00 0.000000000000e+00 0.000000000000e+00 8.280972583052e+06 -5.857868918129e+05 1.995886923834e+07 8.679467025985e+06 -3.330818609491e-02 4.722840303369e-02 2.535971212976e+00 
5.000000000000e-03 0.000000000000e+00 0.000000000000e+00 4.709231262059e-04 0.000000000000e+00 1.979829458016e+07 -3.087766354802e+06 4.600287727257e+07 2.275209356439e+07 1.744848781500e-01 -2.701350623899e-02 1.884038910505e+00 
0.000000000000e+00 0.000000000000e+00 0.000000000000e+00 0.000000000000e+00 0.000000000000e+00 1.510942562192e+07 3.112161515639e+06 7.702005906938e+07 2.806892953049e+07 -3.035481229807e-01 4.337753370669e-02 1.773638111901e+00 
14  17  15  14
15  17  18  15
18  17  20  18
14  15  12  14
30  28  31  30
12  15  13  12
18  20  21  18
21  20  23  21
18  21  19  18
21  23  24  21
24  23  26  24
21  24  22  21
5  2  4  5
4  2  3  4
5  4  8  5
8  4  9  8
5  8  10  5
24  26  27  24
27  26  29  27
24  27  25  24
10  8  12  10
27  29  31  27
19  16  18  19
6  7  3  6
25  22  24  25
1  3  2  1
13  10  12  13
9  11  8  9
32  31  29  32
15  18  16  15
14  12  11  14
11  12  8  11
28  25  27  28
7  9  4  7
16  13  15  16
22  19  21  22
7  4  3  7
28  27  31  28
VARIABLES  = "X","Y","Z", "DISPLACEMENT_X1", "DISPLACEMENT_Y1", "STRESS_XX", "STRESS_XY", "STRESS_YY", "STRESS_ZZ", "STRAIN_XX", "STRAIN_XY", "STRAIN_YY"
ZONE T="1.000000000000e-01s", N=32, E=38, F=FEPOINT, ET=QUADRILATERAL
STRANDID=1, SOLUTIONTIME=1.000000000000e-01
1.000000000000e-02 0.000000000000e+00 5.000000000000e-02 0.000000000000e+00 0.000000000000e+00 -4.696029785806e+06 -9.428822792962e+02 -6.924975060800e+06 -4.668401570278e+06 -7.450263205984e-05 -4.953806498752e-06 -1.040494521475e-01 
1.000000000000e-02 0.000000000000e+00 4.500000000000e-02 0.000000000000e+00 5.201756260520e-04 -4.693558096561e+06 -1.215305308552e+04 -6.899254002000e+06 -4.657125453431e+06 -1.018859681437e-04 -5.121571752384e-05 -1.040398626144e-01 
5.000000000000e-03 0.000000000000e+00 5.000000000000e-02 2.896914228340e-07 0.000000000000e+00 -4.704095921826e+06 3.672072507286e+03 -7.000452287834e+06 -4.701819734487e+06 -8.015132256678e-06 1.155457767286e-05 -1.040323819460e-01 
5.000000000000e-03 0.000000000000e+00 4.300000000000e-02 2.999026942613e-07 7.282120685190e-04 -4.700395883087e+06 8.328551904419e+03 -7.013034368101e+06 -4.705369906549e+06 4.843299266102e-06 -1.219193703615e-05 -1.040436541660e-01 
1.000000000000e-02 0.000000000000e+00 4.000000000000e-02 0.000000000000e+00 1.040418256062e-03 -4.698071491044e+06 2.048076126973e+04 -6.915599625732e+06 -4.665468917859e+06 -9.812425805030e-05 9.153256549271e-05 -1.040339811356e-01 
0.000000000000e+00 0.000000000000e+00 5.000000000000e-02 0.000000000000e+00 0.000000000000e+00 -4.700041419250e+06 -5.202638998598e+02 -7.091454059084e+06 -4.736597739541e+06 9.536819714808e-05 -3.991656040726e-06 -1.040505669566e-01 
0.000000000000e+00 0.000000000000e+00 4.500000000000e-02 0.000000000000e+00 5.202228999531e-04 -4.706111161565e+06 -4.935261544298e+03 -7.085173104137e+06 -4.736514348716e+06 8.660447954715e-05 -3.326304032158e-05 -1.040511166120e-01 
6.000000000000e-03 0.000000000000e+00 3.800000000000e-02 3.243887475930e-07 1.248438960367e-03 -4.708208152855e+06 1.852498323205e+03 -6.988107966130e+06 -4.698537867095e+06 -3.960537539895e-05 -1.135964284289e-04 -1.039919057404e-01 
0.000000000000e+00 0.000000000000e+00 4.000000000000e-02 0.000000000000e+00 1.040390172574e-03 -4.700885706954e+06 1.215314589259e+04 -7.106984917539e+06 -4.743146943885e+06 1.417847415426e-04 4.705845363360e-05 -1.041068585640e-01 
1.000000000000e-02 0.000000000000e+00 3.500000000000e-02 0.000000000000e+00 1.560227985646e-03 -4.696261685732e+06 1.165969348221e+04 -6.972340570414e+06 -4.687411835646e+06 -8.337595554856e-05 -6.768241151858e-06 -1.038415346943e-01 
0.000000000000e+00 0.000000000000e+00 3.500000000000e-02 0.000000000000e+00 1.560605734085e-03 -4.716643856530e+06 3.692918322589e+03 -7.060039239398e+06 -4.730652454154e+06 5.785700895985e-05 5.438089976672e-05 -1.039347283500e-01 
4.000000000000e-03 0.000000000000e+00 3.300000000000e-02 3.288728017711e-07 1.769096017207e-03 -4.733429947028e+06 -2.903839072076e+03 -6.989428465455e+06 -4.709105714080e+06 -3.045757312059e-05 -1.784752602239e-04 -1.038271339029e-01 
1.000000000000e-02 0.000000000000e+00 3.000000000000e-02 0.000000000000e+00 2.082591057442e-03 -4.656396269161e+06 7.247862323004e+04 -7.003719381494e+06 -4.684210890283e+06 1.316771926427e-04 6.989278163683e-04 -1.048825891306e-01 
0.000000000000e+00 0.000000000000e+00 3.000000000000e-02 0.000000000000e+00 2.082399388917e-03 -4.652042636779e+06 -5.569386442077e+03 -7.109636666167e+06 -4.724773641435e+06 3.701586689871e-04 -2.520070553832e-04 -1.048398634912e-01 
4.000000000000e-03 0.000000000000e+00 2.800000000000e-02 7.551965897747e-07 2.285980514226e-03 -4.712197144217e+06 -6.634987336663e+04 -6.738700512962e+06 -4.600315731954e+06 -9.044175590276e-04 -8.498618691214e-04 -1.028468376655e-01 
1.000000000000e-02 0.000000000000e+00 2.500000000000e-02 0.000000000000e+00 2.603052695771e-03 -4.753438074252e+06 1.706087637756e+04 -7.363414713121e+06 -4.866162540842e+06 1.362294256936e-03 1.224772937997e-03 -1.047171344534e-01 
0.000000000000e+00 0.000000000000e+00 2.500000000000e-02 0.000000000000e+00 2.603619367625e-03 -4.857197070318e+06 -9.730880074976e+04 -7.868936212165e+06 -5.109853497586e+06 1.452701761892e-03 -1.761342145280e-03 -1.025023268528e-01 
4.000000000000e-03 0.000000000000e+00 2.300000000000e-02 -1.224089936769e-06 2.827489822987e-03 -4.561095852460e+06 6.742733478483e+04 -6.471016963186e+06 -4.433742102639e+06 -3.633355615051e-06 2.824866715204e-03 -1.119355334288e-01 
1.000000000000e-02 0.000000000000e+00 2.000000000000e-02 0.000000000000e+00 3.134114445670e-03 -4.621263707242e+06 -3.825008996255e+05 -7.406143558322e+06 -4.831660718385e+06 -1.057255480912e-03 -7.024445532568e-03 -1.053362263413e-01 
0.000000000000e+00 0.000000000000e+00 2.000000000000e-02 0.000000000000e+00 3.111306284939e-03 -4.582979314584e+06 3.446345102972e+05 -7.051423876482e+06 -4.674902473475e+06 -6.447528950670e-03 1.033209670160e-02 -1.006054971736e-01 
4.000000000000e-03 0.000000000000e+00 1.800000000000e-02 -4.906051540777e-06 3.306062220843e-03 -4.626172388368e+06 1.125688837691e+04 -6.973926132870e+06 -4.654529910237e+06 -1.265172344045e-03 4.546397872463e-03 -8.275052387482e-02 