 TITLE = "Time curves in points"
 VARIABLES = "TIME"  "DISPLACEMENT_X1"  "DISPLACEMENT_Y1"  "STRESS_XX"  "STRESS_XY"  "STRESS_YY"  "STRESS_ZZ"  "STRAIN_XX"  "STRAIN_XY"  "STRAIN_YY"  p_(1st_Invariant)  q_(2nd_Invariant)   Effective_Strain
 ZONE T="POINT=POINT4"
0.000000000000e+00 0.000000000000e+00 0.000000000000e+00 -1.000000000000e+05 0.000000000000e+00 -1.000000000000e+05 -1.000000000000e+05 0.000000000000e+00 0.000000000000e+00 0.000000000000e+00 1.000000000000e+05 0.000000000000e+00  0.000000000000e+00
1.000000000000e-03 -6.568649070836e-05 0.000000000000e+00 2.485177151551e+05 -2.359418597712e+04 2.277252785940e+05 1.637981554409e+05 2.983767646379e-01 -3.776923244901e-02 2.494633776855e-01 -2.133470497300e+05 8.670790033925e+04  2.847913968363e-01
2.000000000000e-03 -2.914727539155e-04 0.000000000000e+00 3.647394918595e+05 -2.896850119601e+04 2.756720271396e+05 2.294943420975e+05 8.558907363667e-01 -1.317373566842e-01 9.450653033135e-01 -2.899686203655e+05 1.292123964077e+05  9.321421217798e-01
3.000000000000e-03 -5.625806702978e-04 0.000000000000e+00 4.343639724548e+05 -3.525900775068e+04 -4.169301679357e+05 -1.844547058719e+04 1.127631474763e+00 -1.518879703930e-01 1.277098340888e+00 3.372220227093e+02 7.402659471290e+05  1.237597065395e+00
4.000000000000e-03 -7.356295689247e-04 0.000000000000e+00 1.835411631818e+05 -3.188511935370e+05 -9.189021597283e+06 -3.576075998643e+06 1.249446069858e+00 -1.480447013950e-01 1.446639653546e+00 4.193852144248e+06 8.188247941329e+06  1.382799783015e+00
5.000000000000e-03 -7.703069607460e-04 0.000000000000e+00 6.867986565085e+06 -1.516089276772e+06 1.287483111463e+06 3.491265308905e+06 1.282331285064e+00 -1.489314700255e-01 1.522177060499e+00 -3.882244995151e+06 5.531368790022e+06  1.440834137009e+00
6.000000000000e-03 -7.559402900629e-04 0.000000000000e+00 6.750974058476e+06 -2.220302925955e+06 9.948792279655e+06 6.773347444147e+06 1.290726454708e+00 -1.485204306295e-01 1.550382808588e+00 -7.824371260759e+06 4.994420003637e+06  1.461066898887e+00
7.000000000000e-03 -7.569509413739e-04 0.000000000000e+00 1.157135117199e+07 -2.664428215755e+06 1.477472033711e+07 1.044187134749e+07 1.295674331489e+00 -1.519089357187e-01 1.561023100648e+00 -1.226264761886e+07 6.037629723259e+06  1.470447722947e+00
8.000000000000e-03 -7.577373529528e-04 0.000000000000e+00 1.530983720173e+07 -2.600642319330e+06 1.998268757963e+07 1.372318912232e+07 1.296136090886e+00 -1.518778263359e-01 1.563962231394e+00 -1.633857130123e+07 7.215065715492e+06  1.472426350222e+00
9.000000000000e-03 -7.573463267858e-04 0.000000000000e+00 1.379033840216e+07 -2.499635149731e+06 1.865274894806e+07 1.234155882339e+07 1.295996206877e+00 -1.516865579334e-01 1.564171429014e+00 -1.492821539120e+07 7.178515677531e+06  1.472448513276e+00
1.000000000000e-02 -7.573336611491e-04 0.000000000000e+00 1.306000451350e+07 -2.412388307965e+06 1.842428592637e+07 1.171783127122e+07 1.295865785932e+00 -1.515151231007e-01 1.564859904905e+00 -1.440070723703e+07 7.432065063653e+06  1.472778579479e+00
2.000000000000e-02 -7.235024038399e-04 0.000000000000e+00 2.040859046577e+07 -9.279030163828e+04 3.820130794077e+07 2.162289594355e+07 1.289965731932e+00 -1.123271009129e-01 1.605273183109e+00 -2.674426478336e+07 1.721846011595e+07  1.485940213523e+00
3.000000000000e-02 -6.704641082158e-04 0.000000000000e+00 7.011543494993e+06 -6.140175206293e+06 1.752937731254e+07 7.235654131617e+06 1.298695926156e+00 -4.313973546869e-01 1.572342415504e+00 -1.059219164638e+07 1.488029401760e+07  1.635600233420e+00
4.000000000000e-02 -7.702925204005e-04 0.000000000000e+00 8.746069618096e+06 7.617827502786e+05 1.637321156718e+07 6.929407353148e+06 1.313983257942e+00 -1.244292422428e-01 1.572553166658e+00 -1.068289617948e+07 8.778976930179e+06  1.476351868587e+00
5.000000000000e-02 -6.951565974425e-04 0.000000000000e+00 5.904468851293e+05 -3.316797047472e+06 1.059781224327e+07 9.052859229959e+05 1.238492119350e+00 -2.409040561166e-01 1.576277953472e+00 -4.031181683797e+06 1.140610379194e+07  1.496800382741e+00
6.000000000000e-02 -7.738141564243e-04 0.000000000000e+00 -2.316178831033e+06 -1.110038347686e+06 1.402539980560e+07 7.574066761667e+05 1.171292517762e+00 -1.587152001055e-01 1.606141318330e+00 -4.155542550246e+06 1.516454537219e+07  1.464898062057e+00
7.000000000000e-02 -7.486238073547e-04 0.000000000000e+00 -1.299305252576e+06 -2.996887050723e+06 1.551644865972e+07 1.386376416413e+06 1.176915736642e+00 -1.685522430571e-01 1.615057664846e+00 -5.201173274520e+06 1.648528736838e+07  1.475799683734e+00
8.000000000000e-02 -7.549919053637e-04 0.000000000000e+00 -2.463461452890e+06 -2.533106096849e+06 1.650947217041e+07 8.358036009878e+05 1.174233220835e+00 -1.630781226263e-01 1.621365960872e+00 -4.960604772835e+06 1.809725124958e+07  1.477691741818e+00
9.000000000000e-02 -7.526963759448e-04 0.000000000000e+00 -2.483655735876e+06 -2.634438367204e+06 1.740620065859e+07 7.398579197077e+05 1.173276851842e+00 -1.617207978186e-01 1.627735052181e+00 -5.220800947475e+06 1.904476307327e+07  1.481477965699e+00
1.000000000000e-01 -7.528186170381e-04 0.000000000000e+00 -3.307011244219e+06 -2.687970765261e+06 1.758968664536e+07 6.137672579327e+04 1.170823478026e+00 -1.609258410127e-01 1.633012349517e+00 -4.781350708978e+06 1.998262732789e+07  1.484344680513e+00
1.100000000000e-01 -7.520565054234e-04 0.000000000000e+00 -3.759984752321e+06 -2.712672833454e+06 1.782320322947e+07 -4.193957857633e+05 1.169194600359e+00 -1.604146435151e-01 1.637729401029e+00 -4.547940897130e+06 2.066322240528e+07  1.487127366951e+00
1.200000000000e-01 -7.511207519887e-04 0.000000000000e+00 -4.373467090821e+06 -2.714032756863e+06 1.792373590889e+07 -1.000280373498e+06 1.168023409351e+00 -1.593529972367e-01 1.642131835336e+00 -4.183329481522e+06 2.134078121025e+07  1.489633296381e+00
1.300000000000e-01 -7.485319287100e-04 0.000000000000e+00 -4.842842710143e+06 -2.748176891661e+06 1.797764128707e+07 -1.459617010478e+06 1.167160302027e+00 -1.587955886379e-01 1.646358216632e+00 -3.891727188817e+06 2.185569231911e+07  1.492260939529e+00
1.400000000000e-01 -7.457938833208e-04 0.000000000000e+00 -5.479787763890e+06 -2.765487821502e+06 1.803081429894e+07 -1.987815391636e+06 1.165521626366e+00 -1.583525267254e-01 1.650770296433e+00 -3.521070381139e+06 2.248972379154e+07  1.494891742106e+00
1.500000000000e-01 -7.440733658655e-04 0.000000000000e+00 -5.857801430125e+06 -2.810927496311e+06 1.809419073442e+07 -2.339580388719e+06 1.163847227449e+00 -1.586162280741e-01 1.655277063664e+00 -3.298936305191e+06 2.292403422825e+07  1.497821828040e+00
1.600000000000e-01 -7.432611622777e-04 0.000000000000e+00 -6.403038647860e+06 -2.835340092427e+06 1.814232832130e+07 -2.765752809873e+06 1.161971014652e+00 -1.580142419534e-01 1.659842268392e+00 -2.991178954522e+06 2.346367048379e+07  1.500489884020e+00
1.700000000000e-01 -7.409311750505e-04 0.000000000000e+00 -6.808449298975e+06 -2.875800091980e+06 1.815837455307e+07 -3.103580495342e+06 1.160304632942e+00 -1.577795332274e-01 1.664401186281e+00 -2.748781586252e+06 2.386168933255e+07  1.503332593247e+00
1.800000000000e-01 -7.404623596069e-04 0.000000000000e+00 -7.253195627903e+06 -2.894934497261e+06 1.817093886060e+07 -3.426115674945e+06 1.158138858612e+00 -1.574812241109e-01 1.668960203900e+00 -2.497209185916e+06 2.426674467793e+07  1.506063451604e+00
1.900000000000e-01 -7.391010768995e-04 0.000000000000e+00 -7.606844792008e+06 -2.906912387155e+06 1.814251381010e+07 -3.695170726388e+06 1.156170038015e+00 -1.568572237345e-01 1.673315371203e+00 -2.280166097235e+06 2.455520276938e+07  1.508604970788e+00
2.000000000000e-01 -7.376373655557e-04 0.000000000000e+00 -7.963942897076e+06 -2.924247322325e+06 1.812362073194e+07 -3.939526539544e+06 1.153767306371e+00 -1.567738143206e-01 1.677722474135e+00 -2.073383765108e+06 2.484800500093e+07  1.511279075558e+00
2.100000000000e-01 -7.366571233004e-04 0.000000000000e+00 -8.257264621813e+06 -2.928309259481e+06 1.809809114520e+07 -4.136463956890e+06 1.151219883826e+00 -1.570013583448e-01 1.681966410816e+00 -1.901454188833e+06 2.507400234335e+07  1.513919856378e+00
2.200000000000e-01 -7.345022098550e-04 0.000000000000e+00 -8.505100944103e+06 -2.935866640445e+06 1.810327231103e+07 -4.292219617165e+06 1.148606039561e+00 -1.568008730332e-01 1.686136269125e+00 -1.768650583254e+06 2.528861238431e+07  1.516378775665e+00
2.300000000000e-01 -7.316154107992e-04 0.000000000000e+00 -8.673867436132e+06 -2.944326736984e+06 1.813763726645e+07 -4.391237955719e+06 1.145907479603e+00 -1.568981840297e-01 1.690130936298e+00 -1.690843958199e+06 2.546332929983e+07  1.518803467432e+00
2.400000000000e-01 -7.281373958509e-04 0.000000000000e+00 -8.821990518268e+06 -2.940629518831e+06 1.816133925872e+07 -4.491739318752e+06 1.143376148434e+00 -1.572381164693e-01 1.693512481451e+00 -1.615869807235e+06 2.561149099666e+07  1.520902113578e+00
2.500000000000e-01 -7.219932869779e-04 0.000000000000e+00 -8.900371437514e+06 -2.961174163825e+06 1.820976528541e+07 -4.549452674965e+06 1.140875179401e+00 -1.583187097850e-01 1.696619933560e+00 -1.586647057643e+06 2.573405646175e+07  1.523048996079e+00
2.600000000000e-01 -7.174034412426e-04 0.000000000000e+00 -8.980102535783e+06 -2.965905769767e+06 1.825899671617e+07 -4.607190441359e+06 1.138070901377e+00 -1.583900991055e-01 1.699672402569e+00 -1.557234579676e+06 2.585278501030e+07  1.524797107770e+00
2.700000000000e-01 -7.122714904099e-04 0.000000000000e+00 -9.068911728306e+06 -2.968312899626e+06 1.827446092790e+07 -4.680505761167e+06 1.135498798891e+00 -1.590213607365e-01 1.702444546466e+00 -1.508347812809e+06 2.594912252529e+07  1.526569552263e+00
2.800000000000e-01 -7.059796068523e-04 0.000000000000e+00 -9.133059653610e+06 -2.980661938124e+06 1.831655787254e+07 -4.723202625517e+06 1.132974632053e+00 -1.598660976736e-01 1.705241495479e+00 -1.486765197803e+06 2.604865619071e+07  1.528448961017e+00
2.900000000000e-01 -7.010629529990e-04 0.000000000000e+00 -9.224365893039e+06 -2.979914796820e+06 1.830958910656e+07 -4.802606062893e+06 1.130497996385e+00 -1.602950919791e-01 1.707751431105e+00 -1.427539050208e+06 2.612588330223e+07  1.530004787124e+00
3.000000000000e-01 -6.933891293647e-04 0.000000000000e+00 -9.293845978446e+06 -3.001261051285e+06 1.831590521755e+07 -4.860672932478e+06 1.128052380001e+00 -1.613414847596e-01 1.710237015056e+00 -1.387128768876e+06 2.620258161415e+07  1.531753605711e+00
3.100000000000e-01 -6.874459326528e-04 0.000000000000e+00 -9.403233002355e+06 -3.003003293922e+06 1.827228264544e+07 -4.939562531087e+06 1.125639093011e+00 -1.617730184772e-01 1.712482569700e+00 -1.309829037333e+06 2.625601311744e+07  1.533145172907e+00
3.200000000000e-01 -6.796876006004e-04 0.000000000000e+00 -9.499166326961e+06 -3.021221818741e+06 1.823722707276e+07 -4.991239123120e+06 1.123590628299e+00 -1.623660162034e-01 1.714663400077e+00 -1.248940540892e+06 2.630548665184e+07  1.534612302246e+00
3.300000000000e-01 -6.736363409178e-04 0.000000000000e+00 -9.621187155791e+06 -3.026534151913e+06 1.817936783865e+07 -5.065150905911e+06 1.121444127378e+00 -1.628159538628e-01 1.716682970428e+00 -1.164343258984e+06 2.635237588731e+07  1.535903779710e+00
3.400000000000e-01 -6.674498024884e-04 0.000000000000e+00 -9.762267967626e+06 -3.030661306729e+06 1.809882054950e+07 -5.153929432940e+06 1.119759271671e+00 -1.628816813156e-01 1.718499960017e+00 -1.060874382979e+06 2.639390902170e+07  1.537006181445e+00
3.500000000000e-01 -6.596087262095e-04 0.000000000000e+00 -9.899640802998e+06 -3.044089629728e+06 1.802108102630e+07 -5.222801286165e+06 1.118417165056e+00 -1.635157314126e-01 1.720174867774e+00 -9.662129790456e+05 2.643214416514e+07  1.538244978882e+00
3.600000000000e-01 -6.545783852113e-04 0.000000000000e+00 -1.005457336635e+07 -3.042715211547e+06 1.794014178901e+07 -5.298049230679e+06 1.117010812784e+00 -1.628504966670e-01 1.721616285577e+00 -8.625063973253e+05 2.647537360928e+07  1.538886817469e+00
3.700000000000e-01 -6.495391780066e-04 0.000000000000e+00 -1.021475325515e+07 -3.041766710816e+06 1.785275940623e+07 -5.375686221977e+06 1.115733231038e+00 -1.623346200333e-01 1.722961548865e+00 -7.541066430364e+05 2.651675499933e+07  1.539528912501e+00
3.800000000000e-01 -6.455390423198e-04 0.000000000000e+00 -1.036717804356e+07 -3.043281698150e+06 1.777166012163e+07 -5.438682778911e+06 1.114465775468e+00 -1.616140992444e-01 1.724265771079e+00 -6.552664330526e+05 2.655535423776e+07  1.540080704232e+00
3.900000000000e-01 -6.423169886581e-04 0.000000000000e+00 -1.055464088970e+07 -3.044294682789e+06 1.766197201322e+07 -5.514981177052e+06 1.113137987319e+00 -1.606990791184e-01 1.725410615381e+00 -5.307833154882e+05 2.659278994023e+07  1.540444887968e+00
4.000000000000e-01 -6.396891086740e-04 0.000000000000e+00 -1.072746578761e+07 -3.049164203971e+06 1.758241788557e+07 -5.571888753435e+06 1.111866849671e+00 -1.596781431726e-01 1.726560235746e+00 -4.276877815100e+05 2.664522300652e+07  1.540793424568e+00
4.100000000000e-01 -6.380965567610e-04 0.000000000000e+00 -1.087302729467e+07 -3.052962244531e+06 1.751254141231e+07 -5.617448432974e+06 1.110695959816e+00 -1.584485754648e-01 1.727501571923e+00 -3.406885615532e+05 2.668596560959e+07  1.540939983529e+00
4.200000000000e-01 -6.377856815398e-04 0.000000000000e+00 -1.100391614193e+07 -3.056680190252e+06 1.745562411342e+07 -5.646919528091e+06 1.109442536809e+00 -1.567007935900e-01 1.728343608028e+00 -2.682628144690e+05 2.672480242853e+07  1.540844531112e+00
4.300000000000e-01 -6.384851710120e-04 0.000000000000e+00 -1.112156088183e+07 -3.058652666186e+06 1.740647436966e+07 -5.667599558484e+06 1.108049630218e+00 -1.548913225322e-01 1.729186022543e+00 -2.057713097797e+05 2.675947975823e+07  1.540716818923e+00
4.400000000000e-01 -6.397741645500e-04 0.000000000000e+00 -1.123185726824e+07 -3.061457889467e+06 1.736588724900e+07 -5.678115792507e+06 1.106560299931e+00 -1.530952893993e-01 1.729891458471e+00 -1.519713960864e+05 2.679492730428e+07  1.540482212572e+00
4.500000000000e-01 -6.410691046484e-04 0.000000000000e+00 -1.132944438498e+07 -3.065751359635e+06 1.733141826215e+07 -5.680122596418e+06 1.105156802157e+00 -1.514995182312e-01 1.730504659285e+00 -1.072837602506e+05 2.682614289669e+07  1.540258176366e+00
4.600000000000e-01 -6.429195339378e-04 0.000000000000e+00 -1.143349007237e+07 -3.067675719503e+06 1.730343147088e+07 -5.682558956490e+06 1.103535246452e+00 -1.498035597784e-01 1.731176314782e+00 -6.246081400470e+04 2.686729824833e+07  1.540022958078e+00
4.700000000000e-01 -6.445720241613e-04 0.000000000000e+00 -1.154867739083e+07 -3.069714166470e+06 1.726480239488e+07 -5.683113785345e+06 1.101953192870e+00 -1.482220447696e-01 1.731856224082e+00 -1.100373956978e+04 2.690508484626e+07  1.539841436030e+00
4.800000000000e-01 -6.454291676112e-04 0.000000000000e+00 -1.165006720329e+07 -3.076610462489e+06 1.723510551501e+07 -5.685180346057e+06 1.100598578772e+00 -1.470264885306e-01 1.732525768807e+00 3.338067811290e+04 2.694499743706e+07  1.539804447756e+00
4.900000000000e-01 -6.465603732160e-04 0.000000000000e+00 -1.177937689904e+07 -3.082014069666e+06 1.719253385835e+07 -5.694863466709e+06 1.099116517560e+00 -1.456713599547e-01 1.733254111933e+00 9.390216913539e+04 2.699276511689e+07  1.539752950147e+00
5.000000000000e-01 -6.470093230412e-04 0.000000000000e+00 -1.188765488734e+07 -3.091760861850e+06 1.715742593796e+07 -5.702657530605e+06 1.097852173583e+00 -1.446827401746e-01 1.733932025436e+00 1.442954933300e+05 2.703523848611e+07  1.539804502791e+00
5.100000000000e-01 -6.476295409357e-04 0.000000000000e+00 -1.204565768773e+07 -3.090556320651e+06 1.711645415698e+07 -5.741865576508e+06 1.096477588397e+00 -1.435753963905e-01 1.734670061304e+00 2.236897024184e+05 2.711068584055e+07  1.539856539196e+00
5.200000000000e-01 -6.479656066552e-04 0.000000000000e+00 -1.216218321407e+07 -3.096017880513e+06 1.708242400057e+07 -5.749320807798e+06 1.095288979158e+00 -1.426973993753e-01 1.735323887817e+00 2.763600071022e+05 2.715853812960e+07  1.539939432985e+00
5.300000000000e-01 -6.481027202953e-04 0.000000000000e+00 -1.233701563433e+07 -3.119623787394e+06 1.702058609497e+07 -5.799006702830e+06 1.094084984086e+00 -1.419453640584e-01 1.735989268303e+00 3.718120807314e+05 2.723729493719e+07  1.540066998612e+00
5.400000000000e-01 -6.483119073135e-04 0.000000000000e+00 -1.244616255562e+07 -3.115478628105e+06 1.699826778137e+07 -5.818995559399e+06 1.092923426280e+00 -1.410802940672e-01 1.736686531209e+00 4.222967778830e+05 2.729247670257e+07  1.540197155384e+00
5.500000000000e-01 -6.485072143422e-04 0.000000000000e+00 -1.258384222143e+07 -3.118451826150e+06 1.694927724508e+07 -5.860319976228e+06 1.091676982143e+00 -1.402544147120e-01 1.737401999560e+00 4.982949841909e+05 2.734992754063e+07  1.540342972298e+00
5.600000000000e-01 -6.483743333543e-04 0.000000000000e+00 -1.272050287564e+07 -3.127474250352e+06 1.689629868849e+07 -5.904781347393e+06 1.090539867596e+00 -1.396125686900e-01 1.738068186412e+00 5.763285115121e+05 2.740606517509e+07  1.540519581687e+00
5.700000000000e-01 -6.480991981026e-04 0.000000000000e+00 -1.285357233099e+07 -3.132987447298e+06 1.684228164219e+07 -5.947259223306e+06 1.089446056385e+00 -1.390370037028e-01 1.738731952462e+00 6.528499707015e+05 2.745721889474e+07  1.540720840633e+00
5.800000000000e-01 -6.478391941273e-04 0.000000000000e+00 -1.299131679516e+07 -3.136471706075e+06 1.678639869880e+07 -5.991018228290e+06 1.088349428999e+00 -1.384855012860e-01 1.739383824979e+00 7.319787748852e+05 2.750956170601e+07  1.540921114034e+00
5.900000000000e-01 -6.477174006753e-04 0.000000000000e+00 -1.316990468563e+07 -3.139722028652e+06 1.673260963992e+07 -6.059130042382e+06 1.087223631429e+00 -1.379244473432e-01 1.740024839067e+00 8.321416960324e+05 2.759831519555e+07  1.541108367547e+00
6.000000000000e-01 -6.474657996665e-04 0.000000000000e+00 -1.329660095390e+07 -3.143464302689e+06 1.668121595444e+07 -6.096950673925e+06 1.086253070090e+00 -1.374333656905e-01 1.740616686591e+00 9.041118911265e+05 2.764631578192e+07  1.541300020202e+00
6.100000000000e-01 -6.472028762412e-04 0.000000000000e+00 -1.344366166810e+07 -3.143079503820e+06 1.662551478089e+07 -6.144978733723e+06 1.085185945212e+00 -1.369701966816e-01 1.741233562900e+00 9.877085403105e+05 2.770555190211e+07  1.541506785844e+00
6.200000000000e-01 -6.468583973179e-04 0.000000000000e+00 -1.358858306171e+07 -3.148551227692e+06 1.655948404191e+07 -6.201531170762e+06 1.084160084633e+00 -1.365551885004e-01 1.741829417772e+00 1.076876730189e+06 2.775804881684e+07  1.541717496579e+00
6.300000000000e-01 -6.463393931600e-04 0.000000000000e+00 -1.373164094140e+07 -3.153907242110e+06 1.649370785484e+07 -6.259900088365e+06 1.083179808864e+00 -1.362026752018e-01 1.742420535465e+00 1.165944391644e+06 2.781014276314e+07  1.541948956474e+00
6.400000000000e-01 -6.457628468865e-04 0.000000000000e+00 -1.387152725496e+07 -3.152111994653e+06 1.642843079732e+07 -6.315216201449e+06 1.082228300019e+00 -1.358504818575e-01 1.743016681989e+00 1.252770886365e+06 2.785743737023e+07  1.542189782959e+00
6.500000000000e-01 -6.453306821960e-04 0.000000000000e+00 -1.407806960488e+07 -3.156217191853e+06 1.635898174592e+07 -6.407225525599e+06 1.081221530759e+00 -1.355157530985e-01 1.743593270428e+00 1.375437794854e+06 2.795824010129e+07  1.542413843428e+00
6.600000000000e-01 -6.447721196156e-04 0.000000000000e+00 -1.419833896628e+07 -3.150376938194e+06 1.631126387119e+07 -6.454634002615e+06 1.080387965770e+00 -1.351823366927e-01 1.744139347815e+00 1.447236365903e+06 2.800567966485e+07  1.542639248701e+00
6.700000000000e-01 -6.442391053959e-04 0.000000000000e+00 -1.435029989330e+07 -3.148757492709e+06 1.624420043063e+07 -6.522430826399e+06 1.079449481140e+00 -1.349064862064e-01 1.744695173674e+00 1.542843429690e+06 2.806337938916e+07  1.542874399122e+00
6.800000000000e-01 -6.436105708584e-04 0.000000000000e+00 -1.450431293650e+07 -3.147750776003e+06 1.617213547145e+07 -6.597411204121e+06 1.078534153407e+00 -1.346468949821e-01 1.745261497741e+00 1.643196223056e+06 2.811997375025e+07  1.543126321015e+00
6.900000000000e-01 -6.428419527973e-04 0.000000000000e+00 -1.465195772541e+07 -3.143461302396e+06 1.610290698208e+07 -6.668679250434e+06 1.077688478447e+00 -1.344228882452e-01 1.745805914481e+00 1.739243331256e+06 2.817292735666e+07  1.543380823591e+00
7.000000000000e-01 -6.421877851390e-04 0.000000000000e+00 -1.481226527727e+07 -3.142227773822e+06 1.602980148026e+07 -6.751454127049e+06 1.076805539603e+00 -1.342144983938e-01 1.746341941091e+00 1.844639308020e+06 2.823505744298e+07  1.543628926867e+00
7.100000000000e-01 -6.413104074311e-04 0.000000000000e+00 -1.497222464383e+07 -3.138221866577e+06 1.596280242178e+07 -6.834332809555e+06 1.076024136327e+00 -1.340225035448e-01 1.746879948017e+00 1.947918343869e+06 2.830195379047e+07  1.543897212181e+00
7.200000000000e-01 -6.404783990765e-04 0.000000000000e+00 -1.512418531659e+07 -3.131461756694e+06 1.589935046745e+07 -6.911763579008e+06 1.075270094541e+00 -1.338425431936e-01 1.747389151244e+00 2.045532809383e+06 2.836447499763e+07  1.544150511883e+00
7.300000000000e-01 -6.397844171164e-04 0.000000000000e+00 -1.530010171032e+07 -3.128310489723e+06 1.583006029424e+07 -7.005001207903e+06 1.074471029796e+00 -1.336838323648e-01 1.747883227839e+00 2.158347541328e+06 2.844339705189e+07  1.544392431139e+00
7.400000000000e-01 -6.389131557136e-04 0.000000000000e+00 -1.545545063665e+07 -3.122459709318e+06 1.576773345790e+07 -7.089413273866e+06 1.073758135325e+00 -1.335247299086e-01 1.748386285187e+00 2.259043484207e+06 2.851162474056e+07  1.544653261573e+00
7.500000000000e-01 -6.380223336621e-04 0.000000000000e+00 -1.561026144761e+07 -3.116112490143e+06 1.570493042686e+07 -7.174792511752e+06 1.073071150247e+00 -1.333857756515e-01 1.748873019073e+00 2.360041177502e+06 2.857919735015e+07  1.544910561670e+00
7.600000000000e-01 -6.371602809274e-04 0.000000000000e+00 -1.577192642910e+07 -3.109795479841e+06 1.564084837191e+07 -7.264947312732e+06 1.072392820547e+00 -1.332554125624e-01 1.749351022343e+00 2.465341789974e+06 2.865162785856e+07  1.545165007010e+00
7.700000000000e-01 -6.362987538853e-04 0.000000000000e+00 -1.593469386830e+07 -3.103316684948e+06 1.557680478290e+07 -7.357301458105e+06 1.071735343079e+00 -1.331336282211e-01 1.749819714876e+00 2.571730181166e+06 2.872544937472e+07  1.545417657662e+00
7.800000000000e-01 -6.354210654053e-04 0.000000000000e+00 -1.609516925883e+07 -3.096438377750e+06 1.551484179963e+07 -7.449337768995e+06 1.071107228757e+00 -1.330174525036e-01 1.750280883345e+00 2.676555076067e+06 2.879951673458e+07  1.545670174263e+00
7.900000000000e-01 -6.345703065797e-04 0.000000000000e+00 -1.625610692481e+07 -3.088078237702e+06 1.545499179725e+07 -7.541961656838e+06 1.070486986415e+00 -1.328945291959e-01 1.750735873139e+00 2.781025594799e+06 2.887565879157e+07  1.545917651237e+00
8.000000000000e-01 -6.337626183115e-04 0.000000000000e+00 -1.641903844973e+07 -3.078957191262e+06 1.539932853761e+07 -7.635092473980e+06 1.069878028413e+00 -1.327685609768e-01 1.751188002345e+00 2.884934128699e+06 2.895712865858e+07  1.546164066411e+00
8.100000000000e-01 -6.330031126870e-04 0.000000000000e+00 -1.658356757726e+07 -3.068983741883e+06 1.534800721395e+07 -7.728430376772e+06 1.069278378399e+00 -1.326394936621e-01 1.751634416671e+00 2.987996913359e+06 2.904369865059e+07  1.546406892577e+00
8.200000000000e-01 -6.322615424167e-04 0.000000000000e+00 -1.674863397747e+07 -3.057483228858e+06 1.529840237922e+07 -7.822447237595e+06 1.068693248016e+00 -1.324968444277e-01 1.752072403461e+00 3.090892945284e+06 2.913204642772e+07  1.546641929815e+00
8.300000000000e-01 -6.315571610053e-04 0.000000000000e+00 -1.691460977197e+07 -3.044900653332e+06 1.525223408185e+07 -7.916544784660e+06 1.068119648096e+00 -1.323463093066e-01 1.752502785592e+00 3.192973491593e+06 2.922406415208e+07  1.546870897743e+00
8.400000000000e-01 -6.308984518282e-04 0.000000000000e+00 -1.708164859875e+07 -3.031402019105e+06 1.521003456360e+07 -8.010583454043e+06 1.067557109609e+00 -1.321895982687e-01 1.752925219241e+00 3.294065829730e+06 2.932038978805e+07  1.547093887191e+00
8.500000000000e-01 -6.302605178439e-04 0.000000000000e+00 -1.724753077952e+07 -3.016321793795e+06 1.517058250762e+07 -8.103521205283e+06 1.067009531640e+00 -1.320220957614e-01 1.753337143943e+00 3.393489825730e+06 2.941785229085e+07  1.547308158539e+00
8.600000000000e-01 -6.296857788671e-04 0.000000000000e+00 -1.741856186937e+07 -3.001778423512e+06 1.513215353909e+07 -8.199203283701e+06 1.066469998299e+00 -1.318618663206e-01 1.753734978058e+00 3.495203871326e+06 2.952085618464e+07  1.547514635419e+00
8.700000000000e-01 -6.291350301700e-04 0.000000000000e+00 -1.758809007821e+07 -2.985975017566e+06 1.509778937037e+07 -8.293656026948e+06 1.065945535212e+00 -1.316901551874e-01 1.754125652518e+00 3.594652244928e+06 2.962607988132e+07  1.547714822659e+00
8.800000000000e-01 -6.286334806102e-04 0.000000000000e+00 -1.775597439586e+07 -2.969357565333e+06 1.506649831827e+07 -8.387150818266e+06 1.065440768954e+00 -1.315107035851e-01 1.754501666168e+00 3.692208965285e+06 2.973269020979e+07  1.547904299327e+00
8.900000000000e-01 -6.281074499784e-04 0.000000000000e+00 -1.792313031951e+07 -2.952260383110e+06 1.503920891244e+07 -8.479583221673e+06 1.064945600127e+00 -1.313311370068e-01 1.754874474766e+00 3.787834876247e+06 2.984229398938e+07  1.548092796114e+00
9.000000000000e-01 -6.276030320536e-04 0.000000000000e+00 -1.808918723775e+07 -2.934371252226e+06 1.501646560275e+07 -8.570762338991e+06 1.064464974220e+00 -1.311538931756e-01 1.755238727265e+00 3.881161324665e+06 2.995500953430e+07  1.548277286389e+00
9.100000000000e-01 -6.270925679615e-04 0.000000000000e+00 -1.825458384057e+07 -2.918089954203e+06 1.499585027636e+07 -8.661534177406e+06 1.063998190196e+00 -1.309831774537e-01 1.755592712580e+00 3.973422580541e+06 3.006976308422e+07  1.548457371266e+00
9.200000000000e-01 -6.265766896021e-04 0.000000000000e+00 -1.841802725907e+07 -2.900836457722e+06 1.497960326497e+07 -8.750553432294e+06 1.063543562431e+00 -1.308094558910e-01 1.755942891830e+00 4.062992475465e+06 3.018667938524e+07  1.548635506246e+00
9.300000000000e-01 -6.260558884001e-04 0.000000000000e+00 -1.857980258341e+07 -2.883576306536e+06 1.496648354388e+07 -8.838394861978e+06 1.063102375238e+00 -1.306381542339e-01 1.756285258567e+00 4.150571300505e+06 3.030520291254e+07  1.548810034105e+00
9.400000000000e-01 -6.255331887190e-04 0.000000000000e+00 -1.873998459230e+07 -2.866264182684e+06 1.495592004467e+07 -8.925282520839e+06 1.062674997825e+00 -1.304696504395e-01 1.756619368217e+00 4.236449022823e+06 3.042488310759e+07  1.548980716973e+00
9.500000000000e-01 -6.250093961087e-04 0.000000000000e+00 -1.889872808727e+07 -2.848887637885e+06 1.494741347381e+07 -9.011487075498e+06 1.062261306930e+00 -1.303039054535e-01 1.756945083089e+00 4.320933896318e+06 3.054541466055e+07  1.549147395297e+00
9.600000000000e-01 -6.244946575435e-04 0.000000000000e+00 -1.905559436893e+07 -2.831820401624e+06 1.494213416264e+07 -9.096241556728e+06 1.061860942705e+00 -1.301440100876e-01 1.757262934006e+00 4.403233921007e+06 3.066751540060e+07  1.549311200267e+00
9.700000000000e-01 -6.239704013738e-04 0.000000000000e+00 -1.921069766165e+07 -2.814355252992e+06 1.493746007735e+07 -9.180652426164e+06 1.061474572042e+00 -1.299846249897e-01 1.757571520623e+00 4.484630003488e+06 3.078884057630e+07  1.549469731137e+00
9.800000000000e-01 -6.234507066408e-04 0.000000000000e+00 -1.936421287971e+07 -2.796899593635e+06 1.493407956641e+07 -9.264482926739e+06 1.061101710510e+00 -1.298287463740e-01 1.757871356842e+00 4.564872080011e+06 3.091022258573e+07  1.549624068543e+00
9.900000000000e-01 -6.229367947260e-04 0.000000000000e+00 -1.951656074713e+07 -2.779308826211e+06 1.493145546674e+07 -9.348084918770e+06 1.060741478159e+00 -1.296756156655e-01 1.758162786865e+00 4.644396733052e+06 3.103149326397e+07  1.549774167779e+00
1.000000000000e+00 -6.224082115788e-04 0.000000000000e+00 -1.966592565597e+07 -2.761444310284e+06 1.492657964146e+07 -9.431908995777e+06 1.060402478686e+00 -1.295284078867e-01 1.758438326355e+00 4.723751670094e+06 3.114856286024e+07  1.549915878318e+00
1.050000000000e+00 -6.166008661871e-04 0.000000000000e+00 -2.115668036261e+07 -2.766424753041e+06 1.409958827757e+07 -1.041002557220e+07 1.057964027659e+00 -1.288144230075e-01 1.759832145716e+00 5.822372552412e+06 3.166334532360e+07  1.550560358953e+00
1.100000000000e+00 -6.195313742829e-04 0.000000000000e+00 -2.106512263831e+07 -2.214599874823e+06 1.404935283036e+07 -1.045884314787e+07 1.058046919774e+00 -1.250429898806e-01 1.758978604646e+00 5.824870985274e+06 3.142926930276e+07  1.548965580446e+00
1.150000000000e+00 -6.077658027110e-04 0.000000000000e+00 -2.167732817112e+07 -2.642143552001e+06 1.641261755372e+07 -9.856333678582e+06 1.054186583069e+00 -1.298614812253e-01 1.764643908579e+00 5.040348098662e+06 3.407728869977e+07  1.554221849224e+00
1.200000000000e+00 -6.080076581683e-04 0.000000000000e+00 -2.254708745757e+07 -2.317997669594e+06 1.477700789388e+07 -1.098540749662e+07 1.054507635530e+00 -1.280032270911e-01 1.763976041280e+00 6.251829020104e+06 3.333692594746e+07  1.553263049717e+00
1.250000000000e+00 -6.091130696239e-04 0.000000000000e+00 -2.293630545618e+07 -2.357479199411e+06 1.503941171578e+07 -1.117652385593e+07 1.053995381315e+00 -1.272970473980e-01 1.764376593993e+00 6.357805865443e+06 3.391953039891e+07  1.553351171862e+00
1.300000000000e+00 -6.080024860588e-04 0.000000000000e+00 -2.349994359895e+07 -2.326352644258e+06 1.514628481326e+07 -1.149603635462e+07 1.053097926165e+00 -1.270046267879e-01 1.765362810690e+00 6.616565046771e+06 3.449572101424e+07  1.553966443097e+00
1.350000000000e+00 -6.070981785041e-04 0.000000000000e+00 -2.400276485358e+07 -2.310478003203e+06 1.521527765437e+07 -1.179208832076e+07 1.052354622215e+00 -1.269534497605e-01 1.766237140081e+00 6.859858506659e+06 3.498987816554e+07  1.554569909275e+00