 TITLE = "Time curves in points"
 VARIABLES = "TIME"  "PRESSURE1"  "PRESSURE2"  "PRESSURE_W"  "SATURATION1" SATURATION2  "VELOCITY_X1"  "VELOCITY_Y1"  "VELOCITY_X2"  "VELOCITY_Y2"  p_(1st_Invariant)  q_(2nd_Invariant)   Effective_Strain
 ZONE T="POINT=POINT5"
0.000000000000e+00 8.400000000000e+07 1.000000000000e+05 -8.390000000000e+07 6.601393844892e-01 3.398606155108e-01 0.000000000000e+00 0.000000000000e+00 0.000000000000e+00 0.000000000000e+00 1.000000000000e+05 0.000000000000e+00  0.000000000000e+00
1.000000000000e-03 8.398925712626e+07 9.999997491542e+04 -8.388925715135e+07 6.601661737227e-01 3.398338262773e-01 7.276330171289e-09 -3.333900984150e-08 -5.145035322752e-15 2.146675097624e-15 1.293640694435e+04 4.361332864923e+04  4.690211236945e-03
2.000000000000e-03 8.398926450630e+07 9.999995293195e+04 -8.388926455337e+07 6.601661937129e-01 3.398338062871e-01 7.105617901619e-09 -3.322924828413e-08 -1.023907485226e-14 6.180114519652e-15 1.329822184056e+05 1.072564290992e+04  2.566551942949e-02
3.000000000000e-03 8.398927351811e+07 9.999992957351e+04 -8.388927358853e+07 6.601662086117e-01 3.398337913883e-01 6.936778676441e-09 -3.311741734235e-08 -1.526980285825e-14 1.025623883146e-14 2.868908148451e+05 6.775869281465e+04  3.565196288110e-02
4.000000000000e-03 8.398928413994e+07 9.999990441682e+04 -8.388928423553e+07 6.601662184860e-01 3.398337815140e-01 6.769798178796e-09 -3.300354240029e-08 -2.024640389105e-14 1.440554781445e-14 7.283136618727e+05 2.171580048306e+05  3.981323674257e-02
5.000000000000e-03 8.398929635026e+07 9.999987772760e+04 -8.388929647254e+07 6.601662234022e-01 3.398337765978e-01 6.604662344568e-09 -3.288765051757e-08 -2.517274183913e-14 1.860587161868e-14 9.173713489214e+05 3.034594322511e+05  4.118982886164e-02
6.000000000000e-03 8.398931012772e+07 9.999984983729e+04 -8.388931027788e+07 6.601662234261e-01 3.398337765739e-01 6.441357430863e-09 -3.276976805380e-08 -3.004381712864e-14 2.284806982659e-14 9.554723405170e+05 3.308718070070e+05  4.159304086843e-02
7.000000000000e-03 8.398932545112e+07 9.999982037631e+04 -8.388932563074e+07 6.601662186229e-01 3.398337813771e-01 6.279869251867e-09 -3.264992043058e-08 -3.486336743339e-14 2.714287332042e-14 9.828472446905e+05 3.458524816975e+05  4.176890427308e-02
8.000000000000e-03 8.398934229914e+07 9.999978939396e+04 -8.388934250974e+07 6.601662090583e-01 3.398337909417e-01 6.120183257577e-09 -3.252813347049e-08 -3.963350972918e-14 3.149543953161e-14 1.018700422886e+06 3.594551929949e+05  4.190940925231e-02
9.000000000000e-03 8.398936065056e+07 9.999975701092e+04 -8.388936089355e+07 6.601661947979e-01 3.398338052021e-01 5.962286430396e-09 -3.240443337231e-08 -4.434690549724e-14 3.589342867233e-14 1.021278198343e+06 3.613448600668e+05  4.192742260562e-02
1.000000000000e-02 8.398938048473e+07 9.999972324857e+04 -8.388938076148e+07 6.601661759052e-01 3.398338240948e-01 5.806165335791e-09 -3.227884518625e-08 -4.900426290004e-14 4.034317210588e-14 1.030188294809e+06 3.650233430450e+05  4.196205251451e-02
2.000000000000e-02 8.398970795511e+07 9.999926467584e+04 -8.388970869043e+07 6.601655827066e-01 3.398344172934e-01 4.409736034868e-09 -3.085793263299e-08 -9.074883622496e-14 8.915192888298e-14 1.747537068291e+06 6.665838067969e+05  4.429187201022e-02
3.000000000000e-02 8.399014688730e+07 9.999870207915e+04 -8.389014818522e+07 6.601646396045e-01 3.398353603955e-01 3.166077419362e-09 -2.929408429333e-08 -1.279357031385e-13 1.416851447302e-13 1.087162599243e+06 3.923281441713e+05  4.195229659382e-02
4.000000000000e-02 8.399068110682e+07 9.999805396288e+04 -8.389068305286e+07 6.601633963219e-01 3.398366036781e-01 2.063895421220e-09 -2.760783082896e-08 -1.608900444870e-13 1.972981185792e-13 8.898324798806e+05 3.055465349060e+05  4.088330804746e-02
5.000000000000e-02 8.399129566877e+07 9.999733570114e+04 -8.389129833306e+07 6.601618987922e-01 3.398381012078e-01 1.092551063255e-09 -2.581834755763e-08 -1.899839870554e-13 2.555082545117e-13 1.043901545928e+06 3.724679198873e+05  4.168311233594e-02
6.000000000000e-02 8.399197698743e+07 9.999655880090e+04 -8.389198042862e+07 6.601601887310e-01 3.398398112690e-01 2.420895747436e-10 -2.394329738064e-08 -2.155130192543e-13 3.157570154731e-13 9.075348053171e+05 3.198621874479e+05  4.109141497967e-02
7.000000000000e-02 8.399271253145e+07 9.999573725832e+04 -8.389271679420e+07 6.601582848884e-01 3.398417151116e-01 -4.969088411203e-10 -2.199914674431e-08 -2.377371388815e-13 3.776206885171e-13 9.139236273855e+05 3.209121247093e+05  4.109225219260e-02
8.000000000000e-02 8.399349096691e+07 9.999488159202e+04 -8.389349608531e+07 6.601562303203e-01 3.398437696797e-01 -1.133238673850e-09 -2.000101849995e-08 -2.569019601117e-13 4.405620012272e-13 1.043974083197e+06 3.750083186645e+05  4.171849197858e-02
9.000000000000e-02 8.399430197087e+07 9.999400378901e+04 -8.389430796708e+07 6.601540695424e-01 3.398459304576e-01 -1.675143637609e-09 -1.796289239810e-08 -2.733087012600e-13 5.042809090590e-13 1.033351138664e+06 3.703851020875e+05  4.165848164741e-02
1.000000000000e-01 8.399513607672e+07 9.999311335471e+04 -8.389514296336e+07 6.601518315389e-01 3.398481684611e-01 -2.130383756469e-09 -1.589773955376e-08 -2.871488078211e-13 5.683932046379e-13 1.166964654283e+06 4.243016019797e+05  4.224079693665e-02
1.100000000000e-01 8.399598481073e+07 9.999221605069e+04 -8.389599259468e+07 6.601495422271e-01 3.398504577729e-01 -2.506201008685e-09 -1.381734751590e-08 -2.986902340101e-13 6.325709696440e-13 1.140716712570e+06 4.121040374695e+05  4.212797712798e-02
1.200000000000e-01 8.399684044005e+07 9.999132145567e+04 -8.389684911859e+07 6.601472252224e-01 3.398527747776e-01 -2.809389715684e-09 -1.173269455217e-08 -3.080543977661e-13 6.964698786344e-13 1.244984124077e+06 4.546156531265e+05  4.252644654244e-02
1.300000000000e-01 8.399769601884e+07 9.999043689380e+04 -8.389770558195e+07 6.601449017119e-01 3.398550982881e-01 -3.046306296108e-09 -9.653822199357e-09 -3.155132003208e-13 7.598243110004e-13 1.241962325695e+06 4.523767975107e+05  4.251000017544e-02
1.400000000000e-01 8.399854533652e+07 9.998956693149e+04 -8.389855576959e+07 6.601425906380e-01 3.398574093620e-01 -3.222922042214e-09 -7.589822007026e-09 -3.211975412361e-13 8.224111483726e-13 1.319375507815e+06 4.838997753538e+05  4.279384893125e-02
1.500000000000e-01 8.399938276101e+07 9.998871739463e+04 -8.389939404362e+07 6.601403091472e-01 3.398596908528e-01 -3.344831983607e-09 -5.549143914188e-09 -3.252967102813e-13 8.840045081985e-13 1.369743165415e+06 5.058053456172e+05  4.299028545539e-02
1.600000000000e-01 8.400020336524e+07 9.998789353254e+04 -8.390021547171e+07 6.601380722133e-01 3.398619277867e-01 -3.417222367850e-09 -3.539370116887e-09 -3.279281866066e-13 9.443271994646e-13 1.424993143634e+06 5.276143042539e+05  4.318659436591e-02
1.700000000000e-01 8.400100279949e+07 9.998709991455e+04 -8.390101569957e+07 6.601358930436e-01 3.398641069564e-01 -3.444951509732e-09 -1.567335157547e-09 -3.292734218600e-13 1.003218617701e-12 1.478908140755e+06 5.478984927277e+05  4.332649035564e-02
1.800000000000e-01 8.400177715329e+07 9.998633928045e+04 -8.390179081401e+07 6.601337835082e-01 3.398662164918e-01 -3.432592789032e-09 3.606927650067e-10 -3.294879753079e-13 1.060560114983e-12 1.528803363471e+06 5.681659588226e+05  4.346031886516e-02
1.900000000000e-01 8.400252309834e+07 9.998561555333e+04 -8.390253748279e+07 6.601317536789e-01 3.398682463211e-01 -3.384362289106e-09 2.239166140529e-09 -3.286460967880e-13 1.116153873967e-12 1.576359167920e+06 5.870103928092e+05  4.361031802070e-02
2.000000000000e-01 8.400323775921e+07 9.998493032803e+04 -8.390325282889e+07 6.601298122379e-01 3.398701877621e-01 -3.304186300626e-09 4.063121344786e-09 -3.268795034284e-13 1.169892685666e-12 1.637849142380e+06 6.111058827556e+05  4.379336026042e-02
2.100000000000e-01 8.400391862002e+07 9.998428669384e+04 -8.390393433333e+07 6.601279667828e-01 3.398720332172e-01 -3.195769198986e-09 5.828102361870e-09 -3.243217270667e-13 1.221621416062e-12 1.712201608163e+06 6.404562466101e+05  4.399503151996e-02
2.200000000000e-01 8.400456362240e+07 9.998368639814e+04 -8.390457993600e+07 6.601262235031e-01 3.398737764969e-01 -3.062512122273e-09 7.530246707594e-09 -3.210543157662e-13 1.271247900082e-12 1.791870923090e+06 6.715346976257e+05  4.418770779744e-02
2.300000000000e-01 8.400517104539e+07 9.998313078506e+04 -8.390518791461e+07 6.601245875584e-01 3.398754124416e-01 -2.907575533764e-09 9.166143549261e-09 -3.171834866601e-13 1.318709220395e-12 1.884473056758e+06 7.098724665450e+05  4.440321840663e-02
2.400000000000e-01 8.400573944962e+07 9.998262089517e+04 -8.390575682873e+07 6.601230632470e-01 3.398769367530e-01 -2.733909456324e-09 1.073275850660e-08 -3.127866581854e-13 1.363924281618e-12 1.966457137626e+06 7.430780088738e+05  4.459782646356e-02
2.500000000000e-01 8.400626774315e+07 9.998215729614e+04 -8.390628558586e+07 6.601216538188e-01 3.398783461812e-01 -2.544251946170e-09 1.222757767452e-08 -3.079366574493e-13 1.406835073995e-12 2.067624559843e+06 7.843105911068e+05  4.480739017363e-02
2.600000000000e-01 8.400675512444e+07 9.998174191878e+04 -8.390677338252e+07 6.601203616302e-01 3.398796383698e-01 -2.341116737414e-09 1.364846880780e-08 -3.027279009379e-13 1.447325347986e-12 2.152255189326e+06 8.212230512384e+05  4.501109038166e-02
2.700000000000e-01 8.400720103599e+07 9.998137353260e+04 -8.390721966246e+07 6.601191882982e-01 3.398808117018e-01 -2.126829694675e-09 1.499366210124e-08 -2.972157293106e-13 1.485416926083e-12 2.241907116503e+06 8.579306960284e+05  4.521113112674e-02
2.800000000000e-01 8.400760510297e+07 9.998105259859e+04 -8.390762405038e+07 6.601181348925e-01 3.398818651075e-01 -1.903566105214e-09 1.626167054095e-08 -2.914792202349e-13 1.521081343796e-12 2.327349405464e+06 8.936221648251e+05  4.541533500130e-02
2.900000000000e-01 8.400796724454e+07 9.998077944184e+04 -8.390798646509e+07 6.601172015922e-01 3.398827984078e-01 -1.673305240101e-09 1.745145356919e-08 -2.855566647036e-13 1.554263024687e-12 2.434234399210e+06 9.356777952869e+05  4.560751496408e-02
3.000000000000e-01 8.400828755816e+07 9.998055264753e+04 -8.390830700551e+07 6.601163880345e-01 3.398836119655e-01 -1.437866689084e-09 1.856223755586e-08 -2.795209216645e-13 1.584983106307e-12 2.513147367762e+06 9.688393499454e+05  4.577117293750e-02
3.100000000000e-01 8.400856628084e+07 9.998037227079e+04 -8.390858590857e+07 6.601156934365e-01 3.398843065635e-01 -1.198926981084e-09 1.959346847971e-08 -2.733979627277e-13 1.613232931564e-12 2.603488808217e+06 1.004883376038e+06  4.593993364428e-02
3.200000000000e-01 8.400880381633e+07 9.998023778877e+04 -8.390882357854e+07 6.601151165166e-01 3.398848834834e-01 -9.580294312678e-10 2.054487175446e-08 -2.672242417008e-13 1.638998163263e-12 2.691290731762e+06 1.041979447484e+06  4.611179419930e-02
3.300000000000e-01 8.400900074504e+07 9.998014823592e+04 -8.390902059680e+07 6.601146554620e-01 3.398853445380e-01 -7.165739279022e-10 2.141646299329e-08 -2.610892533779e-13 1.662289690088e-12 2.793502131654e+06 1.080217507958e+06  4.624625723286e-02
3.400000000000e-01 8.400915778718e+07 9.998010212542e+04 -8.390917768506e+07 6.601143080455e-01 3.398856919545e-01 -4.758399408857e-10 2.220851201919e-08 -2.549807017021e-13 1.683148053275e-12 2.890813898549e+06 1.121397453543e+06  4.638551870929e-02
3.500000000000e-01 8.400927572919e+07 9.998009894841e+04 -8.390929563024e+07 6.601140718398e-01 3.398859281602e-01 -2.369930152283e-10 2.292139705830e-08 -2.489592833888e-13 1.701563579785e-12 2.983246013074e+06 1.161615125734e+06  4.652396263479e-02
3.600000000000e-01 8.400935545899e+07 9.998013685179e+04 -8.390937532213e+07 6.601139441155e-01 3.398860558845e-01 -1.095381647116e-12 2.355568773584e-08 -2.430572103218e-13 1.717610681434e-12 3.068086753779e+06 1.200225691720e+06  4.665749650113e-02
3.700000000000e-01 8.400939798458e+07 9.998021502629e+04 -8.390941776956e+07 6.601139217846e-01 3.398860782154e-01 2.309097822585e-10 2.411216395828e-08 -2.372835245857e-13 1.731284224724e-12 3.159130994157e+06 1.237610399899e+06  4.677826059013e-02
3.800000000000e-01 8.400940440953e+07 9.998033198369e+04 -8.390942407754e+07 6.601140014825e-01 3.398859985175e-01 4.581678145212e-10 2.459181038782e-08 -2.316795408371e-13 1.742635452210e-12 3.254581514285e+06 1.278115617331e+06  4.689263531513e-02
3.900000000000e-01 8.400937590029e+07 9.998048684109e+04 -8.390939541345e+07 6.601141796616e-01 3.398858203384e-01 6.799106531473e-10 2.499574847831e-08 -2.262725801250e-13 1.751672979326e-12 3.336735478719e+06 1.313195997510e+06  4.700161640591e-02
4.000000000000e-01 8.400931363512e+07 9.998067724224e+04 -8.390933295788e+07 6.601144527434e-01 3.398855472566e-01 8.954424546472e-10 2.532515441488e-08 -2.210689684605e-13 1.758488944685e-12 3.407689428700e+06 1.344075442746e+06  4.711800070899e-02
4.100000000000e-01 8.400921888667e+07 9.998090164348e+04 -8.390923798503e+07 6.601148168679e-01 3.398851831321e-01 1.104165146093e-09 2.558138191642e-08 -2.161020485708e-13 1.763128833659e-12 3.499653738541e+06 1.384498985160e+06  4.724600815503e-02
4.200000000000e-01 8.400909297281e+07 9.998115944644e+04 -8.390911181336e+07 6.601152680475e-01 3.398847319525e-01 1.305554944344e-09 2.576590101732e-08 -2.113677354949e-13 1.765599742025e-12 3.587212154594e+06 1.420235261768e+06  4.735514850437e-02
4.300000000000e-01 8.400893728116e+07 9.998144859244e+04 -8.390895583257e+07 6.601158020977e-01 3.398841979023e-01 1.499151053568e-09 2.588036032516e-08 -2.068726818212e-13 1.765958102932e-12 3.665102456311e+06 1.452853289386e+06  4.746376310124e-02
4.400000000000e-01 8.400875318870e+07 9.998176657430e+04 -8.390877142212e+07 6.601164148740e-01 3.398835851260e-01 1.684543597952e-09 2.592644077018e-08 -2.026425532217e-13 1.764349536195e-12 3.747718369101e+06 1.485358003988e+06  4.756461211551e-02
4.500000000000e-01 8.400854207302e+07 9.998211216565e+04 -8.390855996086e+07 6.601171022309e-01 3.398828977691e-01 1.861387521015e-09 2.590584620178e-08 -1.986756364495e-13 1.760772698180e-12 3.834610416549e+06 1.520482213276e+06  4.766453675976e-02
4.600000000000e-01 8.400830534957e+07 9.998248425008e+04 -8.390832286532e+07 6.601178599153e-01 3.398821400847e-01 2.029403329941e-09 2.582038455881e-08 -1.949806613303e-13 1.755291165531e-12 3.915159316820e+06 1.553009804420e+06  4.775828782250e-02
4.700000000000e-01 8.400804444747e+07 9.998288107449e+04 -8.390806156639e+07 6.601186836422e-01 3.398813163578e-01 2.188359166322e-09 2.567193827085e-08 -1.915886754959e-13 1.747960377926e-12 3.993990342900e+06 1.584229324153e+06  4.784595409186e-02
4.800000000000e-01 8.400776079391e+07 9.998330044168e+04 -8.390777749347e+07 6.601195691391e-01 3.398804308609e-01 2.338073065557e-09 2.546243094521e-08 -1.884737964934e-13 1.738850515411e-12 4.070599775501e+06 1.614572157562e+06  4.793349371044e-02
4.900000000000e-01 8.400745583253e+07 9.998374115773e+04 -8.390747209137e+07 6.601205121009e-01 3.398794878991e-01 2.478394779785e-09 2.519388811071e-08 -1.856377805181e-13 1.728031016638e-12 4.160906033561e+06 1.650299975045e+06  4.802026018961e-02
5.000000000000e-01 8.400713096474e+07 9.998420139978e+04 -8.390714676334e+07 6.601215083494e-01 3.398784916506e-01 2.609213252347e-09 2.486829348675e-08 -1.831150279735e-13 1.715583156017e-12 4.238836010416e+06 1.681954252272e+06  4.809018064401e-02
5.100000000000e-01 8.400678760551e+07 9.998467954187e+04 -8.390680292597e+07 6.601225536709e-01 3.398774463291e-01 2.730468894638e-09 2.448769090184e-08 -1.808716219678e-13 1.701536539149e-12 4.318035292256e+06 1.715198091962e+06  4.816231061327e-02
5.200000000000e-01 8.400642716036e+07 9.998517356918e+04 -8.390644198679e+07 6.601236438862e-01 3.398763561138e-01 2.842137635106e-09 2.405415440550e-08 -1.789373913234e-13 1.686013667162e-12 4.396540866082e+06 1.748044391681e+06  4.823229268655e-02
5.300000000000e-01 8.400605101662e+07 9.998568286218e+04 -8.390606533375e+07 6.601247748793e-01 3.398752251207e-01 2.944223703143e-09 2.356977513618e-08 -1.772941680223e-13 1.669019069739e-12 4.472369396864e+06 1.779802919067e+06  4.829880701700e-02
5.400000000000e-01 8.400566054822e+07 9.998620501602e+04 -8.390567434320e+07 6.601259425834e-01 3.398740574166e-01 3.036759224860e-09 2.303667763290e-08 -1.759394372729e-13 1.650663711417e-12 4.554193931913e+06 1.814090618966e+06  4.836938755115e-02
5.500000000000e-01 8.400525711033e+07 9.998673894706e+04 -8.390527037138e+07 6.601271430033e-01 3.398728569967e-01 3.119789440690e-09 2.245702298664e-08 -1.748705913096e-13 1.631007916974e-12 4.634977691220e+06 1.847913420840e+06  4.843766708450e-02
5.600000000000e-01 8.400484205344e+07 9.998728234087e+04 -8.390485477110e+07 6.601283721577e-01 3.398716278423e-01 3.193398395527e-09 2.183299145121e-08 -1.741046986011e-13 1.610131845595e-12 4.713334782021e+06 1.880744041756e+06  4.850285332137e-02
5.700000000000e-01 8.400441667673e+07 9.998783458886e+04 -8.390442884214e+07 6.601296262237e-01 3.398703737763e-01 3.257696068462e-09 2.116671285351e-08 -1.736160181961e-13 1.588107432697e-12 4.792118433277e+06 1.913785193826e+06  4.856742940838e-02
5.800000000000e-01 8.400398225193e+07 9.998839381850e+04 -8.390399385811e+07 6.601309014670e-01 3.398690985330e-01 3.312810022763e-09 2.046031470790e-08 -1.733969375459e-13 1.564979324619e-12 4.873897810311e+06 1.948100325642e+06  4.863339505387e-02
5.900000000000e-01 8.400354002602e+07 9.998895901993e+04 -8.390355106700e+07 6.601321942332e-01 3.398678057668e-01 3.358891114345e-09 1.971592235853e-08 -1.734487624838e-13 1.540819996588e-12 4.953836558041e+06 1.981659655947e+06  4.869686425535e-02
6.000000000000e-01 8.400309121853e+07 9.998952850667e+04 -8.390310169002e+07 6.601335009545e-01 3.398664990455e-01 3.396103866516e-09 1.893565414086e-08 -1.737687727183e-13 1.515694681410e-12 5.033533720338e+06 2.015140085719e+06  4.875920374286e-02
6.100000000000e-01 8.400263701933e+07 9.999010014309e+04 -8.390264691918e+07 6.601348181687e-01 3.398651818313e-01 3.424615410622e-09 1.812165115397e-08 -1.743449951299e-13 1.489732661972e-12 5.117183780829e+06 2.050286471988e+06  4.882357449891e-02
6.200000000000e-01 8.400217857508e+07 9.999067461152e+04 -8.390218790047e+07 6.601361425418e-01 3.398638574582e-01 3.444610321213e-09 1.727599641434e-08 -1.751893683279e-13 1.462896238068e-12 5.197862549935e+06 2.084194462440e+06  4.888469018376e-02
6.300000000000e-01 8.400171700114e+07 9.999124903026e+04 -8.390172575211e+07 6.601374708374e-01 3.398625291626e-01 3.456292102007e-09 1.640075933675e-08 -1.762761143631e-13 1.435318919035e-12 5.278677698494e+06 2.118189693429e+06  4.894506770705e-02
6.400000000000e-01 8.400125338569e+07 9.999182290564e+04 -8.390126156278e+07 6.601387999079e-01 3.398612000921e-01 3.459874276727e-09 1.549800151389e-08 -1.775830272497e-13 1.407044539271e-12 5.363599224424e+06 2.153910418720e+06  4.900748925111e-02
6.500000000000e-01 8.400078877280e+07 9.999239480022e+04 -8.390079637800e+07 6.601401267416e-01 3.398598732584e-01 3.455578208768e-09 1.456974424015e-08 -1.791260041608e-13 1.378151072731e-12 5.445412147765e+06 2.188336461569e+06  4.906672994916e-02
6.600000000000e-01 8.400032417032e+07 9.999296378175e+04 -8.390033120654e+07 6.601414484400e-01 3.398585515600e-01 3.443633146663e-09 1.361797945662e-08 -1.809082020129e-13 1.348656233344e-12 5.527621444473e+06 2.222942153216e+06  4.912539963240e-02
6.700000000000e-01 8.399986055655e+07 9.999352870064e+04 -8.389986702785e+07 6.601427621971e-01 3.398572378029e-01 3.424283029681e-09 1.264468283033e-08 -1.828975544317e-13 1.318692870630e-12 5.611488299175e+06 2.258254351597e+06  4.918437004453e-02
6.800000000000e-01 8.399939890776e+07 9.999408837355e+04 -8.389940481939e+07 6.601440652259e-01 3.398559347741e-01 3.397766161567e-09 1.165187982858e-08 -1.850921769815e-13 1.288247299232e-12 5.694951143155e+06 2.293406432953e+06  4.924220614639e-02
6.900000000000e-01 8.399894011999e+07 9.999464182329e+04 -8.389894547817e+07 6.601453549745e-01 3.398546450255e-01 3.364327777241e-09 1.064147167698e-08 -1.874877984918e-13 1.257434120813e-12 5.779641452675e+06 2.329085937255e+06  4.930005203165e-02
7.000000000000e-01 8.399848505075e+07 9.999518828615e+04 -8.389848986246e+07 6.601466290115e-01 3.398533709885e-01 3.324219466036e-09 9.615321238783e-09 -1.900637541134e-13 1.226285310199e-12 5.864118300978e+06 2.364703084192e+06  4.935699691255e-02
7.100000000000e-01 8.399803452159e+07 9.999572631307e+04 -8.389803879528e+07 6.601478850169e-01 3.398521149831e-01 3.277695102950e-09 8.575260426210e-09 -1.928302875147e-13 1.194875536158e-12 5.949980546428e+06 2.400935213839e+06  4.941413476943e-02
7.200000000000e-01 8.399758931807e+07 9.999625575316e+04 -8.389759306231e+07 6.601491207822e-01 3.398508792178e-01 3.225011855908e-09 7.523086148142e-09 -1.957671586707e-13 1.163267806141e-12 6.035215770882e+06 2.436893965375e+06  4.946999457915e-02
7.300000000000e-01 8.399715019066e+07 9.999677579203e+04 -8.389715341487e+07 6.601503342072e-01 3.398496657928e-01 3.166429582995e-09 6.460559011831e-09 -1.988789339719e-13 1.131488559393e-12 6.120203989208e+06 2.472763582632e+06  4.952494938859e-02
7.400000000000e-01 8.399671786009e+07 9.999728486112e+04 -8.389672057523e+07 6.601515232813e-01 3.398484767187e-01 3.102211887548e-09 5.389409038826e-09 -2.021201862435e-13 1.099594354581e-12 6.203920260132e+06 2.508129591223e+06  4.957844129845e-02
7.500000000000e-01 8.399629301419e+07 9.999778253866e+04 -8.389629523165e+07 6.601526861010e-01 3.398473138990e-01 3.032615682815e-09 4.311347222116e-09 -2.055222190296e-13 1.067639141569e-12 6.289833934885e+06 2.544425416246e+06  4.963257976742e-02
7.600000000000e-01 8.399587629358e+07 9.999826879403e+04 -8.389587802478e+07 6.601538209032e-01 3.398461790968e-01 2.957899136085e-09 3.228017164675e-09 -2.090948628186e-13 1.035676281486e-12 6.373323606617e+06 2.579725080161e+06  4.968456731887e-02
7.700000000000e-01 8.399546830523e+07 9.999874205002e+04 -8.389546956318e+07 6.601549260249e-01 3.398450739751e-01 2.878322793079e-09 2.141019269902e-09 -2.127730012858e-13 1.003778455171e-12 6.460092976712e+06 2.616415009034e+06  4.973787684281e-02
7.800000000000e-01 8.399506962085e+07 9.999920207778e+04 -8.389507041877e+07 6.601559999128e-01 3.398440000872e-01 2.794142312686e-09 1.051914849749e-09 -2.165775800012e-13 9.719718019757e-13 6.546361867669e+06 2.652891678700e+06  4.979015186759e-02
7.900000000000e-01 8.399468079981e+07 9.999964789798e+04 -8.389468115191e+07 6.601570410538e-01 3.398429589462e-01 2.705613864842e-09 -3.773189410649e-11 -2.205036437402e-13 9.403240192933e-13 6.629422374372e+06 2.688048448216e+06  4.983994282850e-02
8.000000000000e-01 8.399430235568e+07 1.000000798217e+05 -8.389430227586e+07 6.601580480731e-01 3.398419519269e-01 2.612990531603e-09 -1.126423407424e-09 -2.245440517054e-13 9.088287138562e-13 6.714796322949e+06 2.724171169289e+06  4.989041773058e-02
8.100000000000e-01 8.399393475501e+07 1.000004967574e+05 -8.389393425825e+07 6.601590197364e-01 3.398409802636e-01 2.516522161215e-09 -2.212727612284e-09 -2.286762912247e-13 8.775659100078e-13 6.799939882420e+06 2.760206452171e+06  4.994013919696e-02
8.200000000000e-01 8.399357843246e+07 1.000008983402e+05 -8.389357753412e+07 6.601599549061e-01 3.398400450939e-01 2.416454608387e-09 -3.295255489849e-09 -2.329074800357e-13 8.465665221458e-13 6.885779424968e+06 2.796557378304e+06  4.998969451303e-02
8.300000000000e-01 8.399323380570e+07 1.000012844736e+05 -8.389323252122e+07 6.601608524986e-01 3.398391475014e-01 2.313031259956e-09 -4.372627981377e-09 -2.372116758876e-13 8.158903657798e-13 6.970410011356e+06 2.832402054407e+06  5.003795544242e-02
8.400000000000e-01 8.399290125086e+07 1.000016539772e+05 -8.389289959688e+07 6.601617115562e-01 3.398382884438e-01 2.206486943444e-09 -5.443522898113e-09 -2.415909931870e-13 7.855797876038e-13 7.054334252907e+06 2.867958454178e+06  5.008525949478e-02
8.500000000000e-01 8.399258110684e+07 1.000020068573e+05 -8.389257909998e+07 6.601625312300e-01 3.398374687700e-01 2.097060092627e-09 -6.506683692841e-09 -2.460437686721e-13 7.556547690209e-13 7.137510138881e+06 2.903204911345e+06  5.013159956286e-02
8.600000000000e-01 8.399227368706e+07 1.000023427918e+05 -8.389227134427e+07 6.601633107423e-01 3.398366892577e-01 1.984988250202e-09 -7.560900239390e-09 -2.505506654797e-13 7.261569793553e-13 7.219614705212e+06 2.938005229791e+06  5.017682857820e-02
8.700000000000e-01 8.399197927905e+07 1.000026625016e+05 -8.389197661654e+07 6.601640493969e-01 3.398359506031e-01 1.870505641535e-09 -8.604994132827e-09 -2.551179056768e-13 6.970764639900e-13 7.300477778900e+06 2.972293211537e+06  5.022090392510e-02
8.800000000000e-01 8.399169814038e+07 1.000029643243e+05 -8.389169517606e+07 6.601647465856e-01 3.398352534144e-01 1.753835026175e-09 -9.637827617579e-09 -2.597384218268e-13 6.685157359315e-13 7.379283522615e+06 3.005724184557e+06  5.026342559460e-02
8.900000000000e-01 8.399143049900e+07 1.000032484450e+05 -8.389142725056e+07 6.601654017906e-01 3.398345982094e-01 1.635196782235e-09 -1.065830819738e-08 -2.643884504093e-13 6.404812315759e-13 7.457516811662e+06 3.038909223459e+06  5.030517344930e-02
9.000000000000e-01 8.399117656038e+07 1.000035153473e+05 -8.389117304504e+07 6.601660145611e-01 3.398339854389e-01 1.514803866950e-09 -1.166537644974e-08 -2.690658642351e-13 6.129800677878e-13 7.534279316856e+06 3.071480860817e+06  5.034573321377e-02
9.100000000000e-01 8.399093652481e+07 1.000037640501e+05 -8.389093276076e+07 6.601665844638e-01 3.398334155362e-01 1.392866080501e-09 -1.265797009479e-08 -2.737632479968e-13 5.860669044484e-13 7.610119434361e+06 3.103663767271e+06  5.038540054643e-02
9.200000000000e-01 8.399071055209e+07 1.000039940631e+05 -8.389070655803e+07 6.601671111860e-01 3.398328888140e-01 1.269585159078e-09 -1.363509252109e-08 -2.784819302277e-13 5.597974588549e-13 7.684436883717e+06 3.135202654099e+06  5.042388718781e-02
9.300000000000e-01 8.399049876475e+07 1.000042062246e+05 -8.389049455853e+07 6.601675945235e-01 3.398324054765e-01 1.145158492622e-09 -1.459581802549e-08 -2.832253103073e-13 5.341433173386e-13 7.756410159261e+06 3.165750956047e+06  5.046081037257e-02
9.400000000000e-01 8.399030124675e+07 1.000043998423e+05 -8.389029684691e+07 6.601680343870e-01 3.398319656130e-01 1.019775370586e-09 -1.553928162791e-08 -2.879727817147e-13 5.091824235678e-13 7.825076249194e+06 3.194896399416e+06  5.049571413644e-02
9.500000000000e-01 8.399011806953e+07 1.000045751406e+05 -8.389011349439e+07 6.601684307219e-01 3.398315692781e-01 8.936241304772e-10 -1.646464863057e-08 -2.927183311485e-13 4.848942441850e-13 7.892141277604e+06 3.223370708492e+06  5.052952488074e-02
9.600000000000e-01 8.398994928526e+07 1.000047320932e+05 -8.388994455317e+07 6.601687835261e-01 3.398312164739e-01 7.669030736487e-10 -1.737113160478e-08 -2.974546748192e-13 4.613250148754e-13 7.957647935334e+06 3.251179889071e+06  5.056225759569e-02
9.700000000000e-01 8.398979492440e+07 1.000048704559e+05 -8.388979005394e+07 6.601690928633e-01 3.398309071367e-01 6.397888593109e-10 -1.825797044723e-08 -3.021578782570e-13 4.385183611627e-13 8.021937654536e+06 3.278461625802e+06  5.059408630054e-02
9.800000000000e-01 8.398965499714e+07 1.000049908905e+05 -8.388965000625e+07 6.601693588568e-01 3.398306411432e-01 5.124507619055e-10 -1.912444447840e-08 -3.068649782191e-13 4.164269336614e-13 8.083783781135e+06 3.304712334031e+06  5.062447436708e-02
9.900000000000e-01 8.398952949413e+07 1.000050922940e+05 -8.388952440184e+07 6.601695816854e-01 3.398304183146e-01 3.850538669420e-10 -1.996986752014e-08 -3.115326623394e-13 3.951447093018e-13 8.144425458739e+06 3.330442384321e+06  5.065401537193e-02
1.000000000000e+00 8.398941838910e+07 1.000051755511e+05 -8.388941321355e+07 6.601697615784e-01 3.398302384216e-01 2.577626991394e-10 -2.079359032476e-08 -3.161880947703e-13 3.746587392666e-13 8.204753619164e+06 3.356033103794e+06  5.068316478207e-02
1.050000000000e+00 8.398921067451e+07 1.000051550157e+05 -8.388920551949e+07 6.601696396724e-01 3.398303603276e-01 -3.592380128269e-10 -2.430729707308e-08 -3.383108400809e-13 2.935435356165e-13 8.551414587571e+06 3.503163533160e+06  5.088391032657e-02
1.100000000000e+00 8.398932931180e+07 1.000047210597e+05 -8.388932459074e+07 6.601685723370e-01 3.398314276630e-01 -9.426985396692e-10 -2.717668437770e-08 -3.587932625717e-13 2.349763923387e-13 8.430226121420e+06 3.443985587987e+06  5.081978596022e-02
1.150000000000e+00 8.398974729786e+07 1.000039078887e+05 -8.388974338997e+07 6.601666631615e-01 3.398333368385e-01 -1.481404706324e-09 -2.937895956516e-08 -3.773100175991e-13 1.992948127973e-13 8.913360201338e+06 3.648677352900e+06  5.110439637228e-02
1.200000000000e+00 8.399043328898e+07 1.000027524728e+05 -8.389043053651e+07 6.601640194932e-01 3.398359805068e-01 -1.966741476724e-09 -3.090663839065e-08 -3.934984036543e-13 1.865591639186e-13 9.067001823709e+06 3.710046446330e+06  5.116830099760e-02
1.250000000000e+00 8.399135255960e+07 1.000012964251e+05 -8.389135126318e+07 6.601607549948e-01 3.398392450052e-01 -2.392510971071e-09 -3.176644928983e-08 -4.072266480672e-13 1.963379516502e-13 9.452314111923e+06 3.875279231640e+06  5.133066908869e-02
1.300000000000e+00 8.399246933994e+07 9.999958195397e+04 -8.389246975798e+07 6.601569827788e-01 3.398430172212e-01 -2.754507965549e-09 -3.197527106799e-08 -4.183968482605e-13 2.278608710537e-13 9.670112914969e+06 3.965083193097e+06  5.143434701741e-02
1.350000000000e+00 8.399374672040e+07 9.999765787171e+04 -8.389374906253e+07 6.601528135391e-01 3.398471864609e-01 -3.050347653084e-09 -3.156047871827e-08 -4.268824939390e-13 2.798992121212e-13 9.960056473900e+06 4.088746026633e+06  5.154482732996e-02
1.400000000000e+00 8.399514827998e+07 9.999556802063e+04 -8.389515271196e+07 6.601483618001e-01 3.398516381999e-01 -3.279291186007e-09 -3.055660632360e-08 -4.326851038535e-13 3.512135399591e-13 1.014193687572e+07 4.163568867389e+06  5.161582989082e-02