VARIABLES  = "X","Y","Z", "DISPLACEMENT_X1", "DISPLACEMENT_Y1", "STRESS_XX", "STRESS_XY", "STRESS_YY", "STRESS_ZZ", "STRAIN_XX", "STRAIN_XY", "STRAIN_YY"
ZONE T="0.000000000000e+00s", N=32, E=38, F=FEPOINT, ET=QUADRILATERAL
STRANDID=1, SOLUTIONTIME=0.000000000000e+00
1.000000000000e-02 0.000000000000e+00 5.000000000000e-02 0.000000000000e+00 0.000000000000e+00 -1.000000000000e+05 0.000000000000e+00 -1.000000000000e+05 -1.000000000000e+05 0.000000000000e+00 0.000000000000e+00 0.000000000000e+00 
1.000000000000e-02 0.000000000000e+00 4.500000000000e-02 0.000000000000e+00 0.000000000000e+00 -1.000000000000e+05 0.000000000000e+00 -1.000000000000e+05 -1.000000000000e+05 0.000000000000e+00 0.000000000000e+00 0.000000000000e+00 
5.000000000000e-03 0.000000000000e+00 5.000000000000e-02 0.000000000000e+00 0.000000000000e+00 -1.000000000000e+05 0.000000000000e+00 -1.000000000000e+05 -1.000000000000e+05 0.000000000000e+00 0.000000000000e+00 0.000000000000e+00 
5.000000000000e-03 0.000000000000e+00 4.300000000000e-02 0.000000000000e+00 0.000000000000e+00 -1.000000000000e+05 0.000000000000e+00 -1.000000000000e+05 -1.000000000000e+05 0.000000000000e+00 0.000000000000e+00 0.000000000000e+00 
1.000000000000e-02 0.000000000000e+00 4.000000000000e-02 0.000000000000e+00 0.000000000000e+00 -1.000000000000e+05 0.000000000000e+00 -1.000000000000e+05 -1.000000000000e+05 0.000000000000e+00 0.000000000000e+00 0.000000000000e+00 
0.000000000000e+00 0.000000000000e+00 5.000000000000e-02 0.000000000000e+00 0.000000000000e+00 -1.000000000000e+05 0.000000000000e+00 -1.000000000000e+05 -1.000000000000e+05 0.000000000000e+00 0.000000000000e+00 0.000000000000e+00 
0.000000000000e+00 0.000000000000e+00 4.500000000000e-02 0.000000000000e+00 0.000000000000e+00 -1.000000000000e+05 0.000000000000e+00 -1.000000000000e+05 -1.000000000000e+05 0.000000000000e+00 0.000000000000e+00 0.000000000000e+00 
6.000000000000e-03 0.000000000000e+00 3.800000000000e-02 0.000000000000e+00 0.000000000000e+00 -1.000000000000e+05 0.000000000000e+00 -1.000000000000e+05 -1.000000000000e+05 0.000000000000e+00 0.000000000000e+00 0.000000000000e+00 
0.000000000000e+00 0.000000000000e+00 4.000000000000e-02 0.000000000000e+00 0.000000000000e+00 -1.000000000000e+05 0.000000000000e+00 -1.000000000000e+05 -1.000000000000e+05 0.000000000000e+00 0.000000000000e+00 0.000000000000e+00 
1.000000000000e-02 0.000000000000e+00 3.500000000000e-02 0.000000000000e+00 0.000000000000e+00 -1.000000000000e+05 0.000000000000e+00 -1.000000000000e+05 -1.000000000000e+05 0.000000000000e+00 0.000000000000e+00 0.000000000000e+00 
0.000000000000e+00 0.000000000000e+00 3.500000000000e-02 0.000000000000e+00 0.000000000000e+00 -1.000000000000e+05 0.000000000000e+00 -1.000000000000e+05 -1.000000000000e+05 0.000000000000e+00 0.000000000000e+00 0.000000000000e+00 
4.000000000000e-03 0.000000000000e+00 3.300000000000e-02 0.000000000000e+00 0.000000000000e+00 -1.000000000000e+05 0.000000000000e+00 -1.000000000000e+05 -1.000000000000e+05 0.000000000000e+00 0.000000000000e+00 0.000000000000e+00 
1.000000000000e-02 0.000000000000e+00 3.000000000000e-02 0.000000000000e+00 0.000000000000e+00 -1.000000000000e+05 0.000000000000e+00 -1.000000000000e+05 -1.000000000000e+05 0.000000000000e+00 0.000000000000e+00 0.000000000000e+00 
0.000000000000e+00 0.000000000000e+00 3.000000000000e-02 0.000000000000e+00 0.000000000000e+00 -1.000000000000e+05 0.000000000000e+00 -1.000000000000e+05 -1.000000000000e+05 0.000000000000e+00 0.000000000000e+00 0.000000000000e+00 
4.000000000000e-03 0.000000000000e+00 2.800000000000e-02 0.000000000000e+00 0.000000000000e+00 -1.000000000000e+05 0.000000000000e+00 -1.000000000000e+05 -1.000000000000e+05 0.000000000000e+00 0.000000000000e+00 0.000000000000e+00 
1.000000000000e-02 0.000000000000e+00 2.500000000000e-02 0.000000000000e+00 0.000000000000e+00 -1.000000000000e+05 0.000000000000e+00 -1.000000000000e+05 -1.000000000000e+05 0.000000000000e+00 0.000000000000e+00 0.000000000000e+00 
0.000000000000e+00 0.000000000000e+00 2.500000000000e-02 0.000000000000e+00 0.000000000000e+00 -1.000000000000e+05 0.000000000000e+00 -1.000000000000e+05 -1.000000000000e+05 0.000000000000e+00 0.000000000000e+00 0.000000000000e+00 
4.000000000000e-03 0.000000000000e+00 2.300000000000e-02 0.000000000000e+00 0.000000000000e+00 -1.000000000000e+05 0.000000000000e+00 -1.000000000000e+05 -1.000000000000e+05 0.000000000000e+00 0.000000000000e+00 0.000000000000e+00 
1.000000000000e-02 0.000000000000e+00 2.000000000000e-02 0.000000000000e+00 0.000000000000e+00 -1.000000000000e+05 0.000000000000e+00 -1.000000000000e+05 -1.000000000000e+05 0.000000000000e+00 0.000000000000e+00 0.000000000000e+00 
0.000000000000e+00 0.000000000000e+00 2.000000000000e-02 0.000000000000e+00 0.000000000000e+00 -1.000000000000e+05 0.000000000000e+00 -1.000000000000e+05 -1.000000000000e+05 0.000000000000e+00 0.000000000000e+00 0.000000000000e+00 
4.000000000000e-03 0.000000000000e+00 1.800000000000e-02 0.000000000000e+00 0.000000000000e+00 -1.000000000000e+05 0.000000000000e+00 -1.000000000000e+05 -1.000000000000e+05 0.000000000000e+00 0.000000000000e+00 0.000000000000e+00 
1.000000000000e-02 0.000000000000e+00 1.500000000000e-02 0.000000000000e+00 0.000000000000e+00 -1.000000000000e+05 0.000000000000e+00 -1.000000000000e+05 -1.000000000000e+05 0.000000000000e+00 0.000000000000e+00 0.000000000000e+00 
0.000000000000e+00 0.000000000000e+00 1.500000000000e-02 0.000000000000e+00 0.000000000000e+00 -1.000000000000e+05 0.000000000000e+00 -1.000000000000e+05 -1.000000000000e+05 0.000000000000e+00 0.000000000000e+00 0.000000000000e+00 
4.000000000000e-03 0.000000000000e+00 1.300000000000e-02 0.000000000000e+00 0.000000000000e+00 -1.000000000000e+05 0.000000000000e+00 -1.000000000000e+05 -1.000000000000e+05 0.000000000000e+00 0.000000000000e+00 0.000000000000e+00 
1.000000000000e-02 0.000000000000e+00 1.000000000000e-02 0.000000000000e+00 0.000000000000e+00 -1.000000000000e+05 0.000000000000e+00 -1.000000000000e+05 -1.000000000000e+05 0.000000000000e+00 0.000000000000e+00 0.000000000000e+00 
0.000000000000e+00 0.000000000000e+00 1.000000000000e-02 0.000000000000e+00 0.000000000000e+00 -1.000000000000e+05 0.000000000000e+00 -1.000000000000e+05 -1.000000000000e+05 0.000000000000e+00 0.000000000000e+00 0.000000000000e+00 
5.000000000000e-03 0.000000000000e+00 7.000000000000e-03 0.000000000000e+00 0.000000000000e+00 -1.000000000000e+05 0.000000000000e+00 -1.000000000000e+05 -1.000000000000e+05 0.000000000000e+00 0.000000000000e+00 0.000000000000e+00 
1.000000000000e-02 0.000000000000e+00 5.000000000000e-03 0.000000000000e+00 0.000000000000e+00 -1.000000000000e+05 0.000000000000e+00 -1.000000000000e+05 -1.000000000000e+05 0.000000000000e+00 0.000000000000e+00 0.000000000000e+00 
0.000000000000e+00 0.000000000000e+00 5.000000000000e-03 0.000000000000e+00 0.000000000000e+00 -1.000000000000e+05 0.000000000000e+00 -1.000000000000e+05 -1.000000000000e+05 0.000000000000e+00 0.000000000000e+00 0.000000000000e+00 
1.000000000000e-02 0.000000000000e+00 0.000000000000e+00 0.000000000000e+00 0.000000000000e+00 -1.000000000000e+05 0.000000000000e+00 -1.000000000000e+05 -1.000000000000e+05 0.000000000000e+00 0.000000000000e+00 0.000000000000e+00 
5.000000000000e-03 0.000000000000e+00 0.000000000000e+00 0.000000000000e+00 0.000000000000e+00 -1.000000000000e+05 0.000000000000e+00 -1.000000000000e+05 -1.000000000000e+05 0.000000000000e+00 0.000000000000e+00 0.000000000000e+00 
0.000000000000e+00 0.000000000000e+00 0.000000000000e+00 0.000000000000e+00 0.000000000000e+00 -1.000000000000e+05 0.000000000000e+00 -1.000000000000e+05 -1.000000000000e+05 0.000000000000e+00 0.000000000000e+00 0.000000000000e+00 
14  17  15  14
15  17  18  15
18  17  20  18
14  15  12  14
30  28  31  30
12  15  13  12
18  20  21  18
21  20  23  21
18  21  19  18
21  23  24  21
24  23  26  24
21  24  22  21
5  2  4  5
4  2  3  4
5  4  8  5
8  4  9  8
5  8  10  5
24  26  27  24
27  26  29  27
24  27  25  24
10  8  12  10
27  29  31  27
19  16  18  19
6  7  3  6
25  22  24  25
1  3  2  1
13  10  12  13
9  11  8  9
32  31  29  32
15  18  16  15
14  12  11  14
11  12  8  11
28  25  27  28
7  9  4  7
16  13  15  16
22  19  21  22
7  4  3  7
28  27  31  28
VARIABLES  = "X","Y","Z", "DISPLACEMENT_X1", "DISPLACEMENT_Y1", "STRESS_XX", "STRESS_XY", "STRESS_YY", "STRESS_ZZ", "STRAIN_XX", "STRAIN_XY", "STRAIN_YY"
ZONE T="1.000000000000e-03s", N=32, E=38, F=FEPOINT, ET=QUADRILATERAL
STRANDID=1, SOLUTIONTIME=1.000000000000e-03
1.000000000000e-02 0.000000000000e+00 5.000000000000e-02 0.000000000000e+00 0.000000000000e+00 -1.321012129231e+05 -3.566984541738e-02 -1.481511449820e+05 -1.321009440095e+05 -4.738933749025e-07 -1.257120487291e-07 -2.828474319478e-02 
1.000000000000e-02 0.000000000000e+00 4.500000000000e-02 0.000000000000e+00 1.414294463054e-04 -1.321011416330e+05 -1.460479582988e-01 -1.481494047249e+05 -1.321002171189e+05 -1.629428439128e-06 -5.148427645909e-07 -2.828658083511e-02 
5.000000000000e-03 0.000000000000e+00 5.000000000000e-02 2.070718376913e-09 0.000000000000e+00 -1.321012457859e+05 -2.767500662958e-02 -1.481519456663e+05 -1.321012753139e+05 5.203840635738e-08 -9.752704443450e-08 -2.828591102109e-02 
5.000000000000e-03 0.000000000000e+00 4.300000000000e-02 6.204969508659e-09 1.980086458175e-04 -1.321012303768e+05 -1.291684971712e+00 -1.481515731426e+05 -1.321011272942e+05 -1.816212903291e-07 -4.552804651976e-06 -2.828692614911e-02 
1.000000000000e-02 0.000000000000e+00 4.000000000000e-02 0.000000000000e+00 2.828729565509e-04 -1.321012391959e+05 9.122669370331e-01 -1.481517844735e+05 -1.321012074788e+05 -5.583490665890e-08 3.216126687690e-06 -2.829168568149e-02 
0.000000000000e+00 0.000000000000e+00 5.000000000000e-02 0.000000000000e+00 0.000000000000e+00 -1.321012819471e+05 1.848116260024e-02 -1.481528289569e+05 -1.321016454465e+05 6.405727002284e-07 6.513144143079e-08 -2.828579666692e-02 
0.000000000000e+00 0.000000000000e+00 4.500000000000e-02 0.000000000000e+00 1.414368287286e-04 -1.321012800942e+05 8.464057710837e-02 -1.481527824120e+05 -1.321016233700e+05 6.050090044493e-07 2.983329256539e-07 -2.828943137159e-02 
6.000000000000e-03 0.000000000000e+00 3.800000000000e-02 1.608664191168e-08 3.394612973094e-04 -1.321009549922e+05 -4.717879411186e+00 -1.481448377796e+05 -1.320982871009e+05 -4.703728102139e-06 -1.663717198768e-05 -2.829780504419e-02 
0.000000000000e+00 0.000000000000e+00 4.000000000000e-02 0.000000000000e+00 2.828970287510e-04 -1.321016243013e+05 -5.644567835830e-01 -1.481611816728e+05 -1.321051254120e+05 6.170868543256e-06 -1.988928351988e-06 -2.829704310364e-02 
1.000000000000e-02 0.000000000000e+00 3.500000000000e-02 0.000000000000e+00 4.242737240673e-04 -1.321004174221e+05 -3.115515349800e+00 -1.481317808359e+05 -1.320929686346e+05 -1.309862820992e-05 -1.097920278091e-05 -2.825169057799e-02 
0.000000000000e+00 0.000000000000e+00 3.500000000000e-02 0.000000000000e+00 4.243697581159e-04 -1.321012831354e+05 3.606394633281e+00 -1.481528853244e+05 -1.321017260528e+05 7.929440309453e-07 1.270951039614e-05 -2.827689436596e-02 
4.000000000000e-03 0.000000000000e+00 3.300000000000e-02 5.610841509815e-08 4.810003844261e-04 -1.321037888216e+05 -1.153101555082e+01 -1.482140286404e+05 -1.321272170858e+05 4.130510109629e-05 -4.064937720185e-05 -2.831050443114e-02 
1.000000000000e-02 0.000000000000e+00 3.000000000000e-02 0.000000000000e+00 5.658627578742e-04 -1.320980979487e+05 1.449531167703e+01 -1.480749209905e+05 -1.320687247074e+05 -5.165017307638e-05 5.185363782150e-05 -2.840030222441e-02 
0.000000000000e+00 0.000000000000e+00 3.000000000000e-02 0.000000000000e+00 5.661169878434e-04 -1.321027497024e+05 -7.624958189903e+00 -1.481884950469e+05 -1.321162162686e+05 2.403319628292e-05 -2.754663220514e-05 -2.844628969716e-02 
4.000000000000e-03 0.000000000000e+00 2.800000000000e-02 3.099951580304e-07 6.221713813040e-04 -1.320925000821e+05 -8.845117724411e+01 -1.479387381702e+05 -1.320127583373e+05 -1.402760312722e-04 -3.109395488639e-04 -2.803079472708e-02 
1.000000000000e-02 0.000000000000e+00 2.500000000000e-02 0.000000000000e+00 7.063489410959e-04 -1.321108455651e+05 5.902939029967e+01 -1.483865582190e+05 -1.322004645837e+05 1.684004692131e-04 2.291127171308e-04 -2.785434388785e-02 
0.000000000000e+00 0.000000000000e+00 2.500000000000e-02 0.000000000000e+00 7.083778362562e-04 -1.321424631132e+05 -1.562055237011e+02 -1.491585652221e+05 -1.325219867537e+05 6.608749049031e-04 -5.552353054312e-04 -2.847664843691e-02 
4.000000000000e-03 0.000000000000e+00 2.300000000000e-02 1.066825843666e-06 7.668393527034e-04 -1.320881147434e+05 -1.292700776157e+02 -1.488227729723e+05 -1.323603316079e+05 5.220091874806e-04 -4.810330133087e-04 -3.038691347851e-02 
1.000000000000e-02 0.000000000000e+00 2.000000000000e-02 0.000000000000e+00 8.453889885056e-04 -1.318583650938e+05 -5.338764479813e+02 -1.442121205697e+05 -1.304283195113e+05 -2.525993411594e-03 -2.064342530149e-03 -2.574104141848e-02 
0.000000000000e+00 0.000000000000e+00 2.000000000000e-02 0.000000000000e+00 8.461565669371e-04 -1.318632472116e+05 9.548499259454e+02 -1.433431607076e+05 -1.300805460457e+05 -3.068918159438e-03 3.395520855794e-03 -2.502152418090e-02 
4.000000000000e-03 0.000000000000e+00 1.800000000000e-02 8.062722687333e-07 9.001835469901e-04 -1.328834113051e+05 -3.689404541524e+02 -1.523760613559e+05 -1.341298230298e+05 1.658491241313e-03 -1.020440210647e-03 -2.106471114555e-02 
1.000000000000e-02 0.000000000000e+00 1.500000000000e-02 0.000000000000e+00 1.008987265411e-03 -2.143676645514e+05 1.288275946038e+03 -2.555352275999e+05 -2.060078276557e+05 6.822988040229e-03 1.753623582755e-02 -4.741691310667e-02 
0.000000000000e+00 0.000000000000e+00 1.500000000000e-02 0.000000000000e+00 1.025082239183e-03 -1.572265844217e+05 -1.503090587167e+04 -2.872945290549e+05 -1.976442708462e+05 1.723264199766e-02 -1.583489131502e-02 -6.018258575399e-02 
4.000000000000e-03 0.000000000000e+00 1.300000000000e-02 3.356510415176e-05 1.034702792302e-03 -2.025514703994e+05 -4.270434848591e+03 -1.963660488841e+05 -1.779719218208e+05 -2.902671438071e-02 -2.299919020661e-02 -2.081558294485e-02 
1.000000000000e-02 0.000000000000e+00 1.000000000000e-02 0.000000000000e+00 1.038150615829e-03 3.272185045734e+05 -3.740899325486e+04 4.484581083840e+05 2.770257900957e+05 2.170540478511e-02 -1.257651087483e-03 6.396616697921e-02 
0.000000000000e+00 0.000000000000e+00 1.000000000000e-02 0.000000000000e+00 1.115984002594e-03 2.463424408190e+05 2.288670189642e+03 1.439868489441e+05 1.325296644750e+05 4.825046410790e-02 -2.717806687619e-02 4.919862815888e-02 
5.000000000000e-03 0.000000000000e+00 7.000000000000e-03 5.395964818200e-05 1.348912345075e-03 1.956167023407e+04 7.397871435427e+03 -7.571215120140e+04 -4.231851730852e+04 9.719208594840e-02 -3.130704766267e-02 -9.042078088297e-02 
1.000000000000e-02 0.000000000000e+00 5.000000000000e-03 0.000000000000e+00 1.614902802360e-03 -7.304302495753e+04 7.682278878556e+02 5.244307514622e+02 -4.593012630702e+04 -1.318458725323e-01 5.639089322673e-02 4.249437341192e-02 
0.000000000000e+00 0.000000000000e+00 5.000000000000e-03 0.000000000000e+00 1.660092383911e-03 1.008152685314e+05 -1.400879433467e+05 4.689854180425e+05 2.309520588903e+05 -1.316049133064e-01 -8.611241556557e-02 7.108500760725e-02 
1.000000000000e-02 0.000000000000e+00 0.000000000000e+00 0.000000000000e+00 0.000000000000e+00 1.394554945941e+05 8.037013155476e+02 2.837315719373e+05 1.400204113444e+05 -2.612625288647e-03 2.566050533053e-03 3.442800142985e-01 
5.000000000000e-03 0.000000000000e+00 0.000000000000e+00 1.314367788831e-05 0.000000000000e+00 2.618478012545e+05 1.185540559028e+04 4.513522379831e+05 2.507958003446e+05 2.632052650942e-02 -3.453407724323e-03 4.344754097054e-01 
0.000000000000e+00 0.000000000000e+00 0.000000000000e+00 0.000000000000e+00 0.000000000000e+00 3.323146776907e+05 -1.156631146370e+02 5.993384192512e+05 3.276015392714e+05 1.022791159891e-02 -8.165347625760e-05 3.312364769232e-01 
14  17  15  14
15  17  18  15
18  17  20  18
14  15  12  14
30  28  31  30
12  15  13  12
18  20  21  18
21  20  23  21
18  21  19  18
21  23  24  21
24  23  26  24
21  24  22  21
5  2  4  5
4  2  3  4
5  4  8  5
8  4  9  8
5  8  10  5
24  26  27  24
27  26  29  27
24  27  25  24
10  8  12  10
27  29  31  27
19  16  18  19
6  7  3  6
25  22  24  25
1  3  2  1
13  10  12  13
9  11  8  9
32  31  29  32
15  18  16  15
14  12  11  14
11  12  8  11
28  25  27  28
7  9  4  7
16  13  15  16
22  19  21  22
7  4  3  7
28  27  31  28
VARIABLES  = "X","Y","Z", "DISPLACEMENT_X1", "DISPLACEMENT_Y1", "STRESS_XX", "STRESS_XY", "STRESS_YY", "STRESS_ZZ", "STRAIN_XX", "STRAIN_XY", "STRAIN_YY"
ZONE T="1.000000000000e-02s", N=32, E=38, F=FEPOINT, ET=QUADRILATERAL
STRANDID=1, SOLUTIONTIME=1.000000000000e-02
1.000000000000e-02 0.000000000000e+00 5.000000000000e-02 0.000000000000e+00 0.000000000000e+00 -2.981849356539e+06 -2.128844014373e+00 -4.422596258440e+06 -2.981778191428e+06 -4.656182982087e-06 -5.383362871320e-07 -1.017538883715e-01 
1.000000000000e-02 0.000000000000e+00 4.500000000000e-02 0.000000000000e+00 5.087786287006e-04 -2.981783323032e+06 8.654776566871e+01 -4.422402563705e+06 -2.981674466506e+06 -9.582711279835e-06 -8.415355731727e-07 -1.017560503104e-01 
5.000000000000e-03 0.000000000000e+00 5.000000000000e-02 1.818242397537e-08 0.000000000000e+00 -2.981830358333e+06 -2.802346820875e+00 -4.422774546460e+06 -2.981842001875e+06 -4.649437912624e-08 -1.371556675619e-06 -1.017595266710e-01 
5.000000000000e-03 0.000000000000e+00 4.300000000000e-02 4.527497369403e-08 7.123323776303e-04 -2.982162098844e+06 -3.829154245045e+02 -4.422594859267e+06 -2.981902546766e+06 -6.576268219236e-07 -3.155796113782e-05 -1.017622601723e-01 
1.000000000000e-02 0.000000000000e+00 4.000000000000e-02 0.000000000000e+00 1.017565005235e-03 -2.982211260287e+06 1.096419970304e+03 -4.424348198606e+06 -2.982623715992e+06 -1.688674305828e-05 4.285700542246e-06 -1.017528505969e-01 
0.000000000000e+00 0.000000000000e+00 5.000000000000e-02 0.000000000000e+00 0.000000000000e+00 -2.981792962614e+06 1.191682651658e+00 -4.422917302978e+06 -2.981884042277e+06 5.085027399689e-06 -1.039478583054e-07 -1.017628983500e-01 
0.000000000000e+00 0.000000000000e+00 4.500000000000e-02 0.000000000000e+00 5.088380050826e-04 -2.981706406785e+06 -5.108434975865e+01 -4.423040667462e+06 -2.981898928007e+06 7.889132855665e-06 -1.055589619864e-06 -1.017747107987e-01 
6.000000000000e-03 0.000000000000e+00 3.800000000000e-02 1.025731428536e-07 1.221153111362e-03 -2.982299764316e+06 5.819715489169e+02 -4.416408425991e+06 -2.979484598917e+06 -1.398206435313e-05 -8.582838355025e-05 -1.017827464405e-01 
0.000000000000e+00 0.000000000000e+00 4.000000000000e-02 0.000000000000e+00 1.017762851643e-03 -2.980683617541e+06 -6.872450515752e+02 -4.424481074571e+06 -2.982065620621e+06 3.116731466322e-05 -8.632130715325e-06 -1.018008912981e-01 
1.000000000000e-02 0.000000000000e+00 3.500000000000e-02 0.000000000000e+00 1.526044473941e-03 -2.983727995239e+06 -4.751758635284e+03 -4.421199089974e+06 -2.981968409680e+06 -7.501068088064e-05 -1.553791754171e-04 -1.015378490671e-01 
0.000000000000e+00 0.000000000000e+00 3.500000000000e-02 0.000000000000e+00 1.526830632444e-03 -2.978582280607e+06 -1.963911226490e+03 -4.436591708083e+06 -2.986067856678e+06 3.730264669960e-05 3.557458766305e-05 -1.018028690455e-01 
4.000000000000e-03 0.000000000000e+00 3.300000000000e-02 1.473613776622e-07 1.730562486218e-03 -2.991749787300e+06 -1.429060710246e+03 -4.405284925252e+06 -2.978809302371e+06 -6.102415540197e-06 -1.301390961694e-04 -1.017671514508e-01 
1.000000000000e-02 0.000000000000e+00 3.000000000000e-02 0.000000000000e+00 2.037178127535e-03 -2.936441533761e+06 4.143266993252e+04 -4.447876387416e+06 -2.973741826566e+06 1.645591664740e-04 5.547491895501e-04 -1.025458120317e-01 
0.000000000000e+00 0.000000000000e+00 3.000000000000e-02 0.000000000000e+00 2.037437830582e-03 -2.961656270979e+06 -1.485048110680e+04 -4.479626033255e+06 -2.996522643500e+06 2.782794519289e-04 -3.318177740869e-04 -1.025444565600e-01 
4.000000000000e-03 0.000000000000e+00 2.800000000000e-02 3.111738556130e-07 2.237258776548e-03 -3.016792860146e+06 -3.297560707489e+04 -4.242771636011e+06 -2.923826233887e+06 -8.602905398868e-04 -7.932163432138e-04 -1.006195982480e-01 
1.000000000000e-02 0.000000000000e+00 2.500000000000e-02 0.000000000000e+00 2.548115120715e-03 -2.982073811415e+06 9.552755162738e+04 -4.724780751170e+06 -3.102687827987e+06 1.367828742058e-03 1.592065659525e-03 -1.029325828329e-01 
0.000000000000e+00 0.000000000000e+00 2.500000000000e-02 0.000000000000e+00 2.547956936363e-03 -3.100129983877e+06 -8.516170193106e+04 -4.930138782911e+06 -3.232049559992e+06 1.146702512853e-03 -1.657342937046e-03 -1.004276542783e-01 
4.000000000000e-03 0.000000000000e+00 2.300000000000e-02 -1.362765085158e-06 2.766744138439e-03 -2.906250901626e+06 7.073205306726e+04 -4.075227120060e+06 -2.812649672842e+06 1.500622196820e-04 2.820492753309e-03 -1.097271002799e-01 
1.000000000000e-02 0.000000000000e+00 2.000000000000e-02 0.000000000000e+00 3.068778053684e-03 -2.935192054093e+06 -2.688001546174e+05 -4.882173822634e+06 -3.147041133767e+06 -1.100047618340e-03 -6.432068035976e-03 -1.029604377623e-01 
0.000000000000e+00 0.000000000000e+00 2.000000000000e-02 0.000000000000e+00 3.045057872709e-03 -2.882281508202e+06 2.333792766844e+05 -4.291884175207e+06 -2.889800784744e+06 -6.707272762154e-03 9.944926067736e-03 -9.855223848118e-02 
4.000000000000e-03 0.000000000000e+00 1.800000000000e-02 -5.579978062544e-06 3.236349933001e-03 -2.857475657018e+06 6.309007263351e+04 -4.090094705616e+06 -2.798620718287e+06 -1.428747160812e-03 4.662856218073e-03 -8.044903183879e-02 
1.000000000000e-02 0.000000000000e+00 1.500000000000e-02 0.000000000000e+00 3.676888645079e-03 -3.349032112794e+06 2.342751240821e+04 -5.479222388195e+06 -3.549671631641e+06 2.154861754677e-02 3.956643757956e-02 -1.365534205836e-01 
0.000000000000e+00 0.000000000000e+00 1.500000000000e-02 0.000000000000e+00 3.658339836353e-03 -2.966380644715e+06 4.252357959009e+05 -4.684836041179e+06 -3.080478300174e+06 2.751757751284e-02 -3.214320629059e-02 -1.411285564902e-01 
4.000000000000e-03 0.000000000000e+00 1.300000000000e-02 4.296619107311e-05 3.738053544032e-03 -3.411799314410e+06 -1.806960878364e+05 -4.917907085386e+06 -3.351827537055e+06 -5.459982425454e-02 -2.273329028175e-02 -1.032547337568e-01 
1.000000000000e-02 0.000000000000e+00 1.000000000000e-02 0.000000000000e+00 3.984221255174e-03 -3.804944947460e+05 -1.480776386062e+05 -9.164917172053e+05 -5.501792358255e+05 4.042710740182e-02 -2.952683326905e-02 6.046322867323e-02 
0.000000000000e+00 0.000000000000e+00 1.000000000000e-02 0.000000000000e+00 3.942323160730e-03 -1.362682922113e+05 1.443401934875e+06 1.182473013352e+06 3.973558375407e+05 6.524308513415e-02 4.829138285765e-02 8.630108573162e-02 
5.000000000000e-03 0.000000000000e+00 7.000000000000e-03 4.917074206016e-05 4.846670669584e-03 -1.227037663198e+06 -8.030385187519e+05 -7.760667613104e+06 -3.535529733851e+06 1.774420898914e-01 -3.356188863742e-02 -2.486599620651e-01 
1.000000000000e-02 0.000000000000e+00 5.000000000000e-03 0.000000000000e+00 5.717445992474e-03 -6.857811665174e+06 6.889080621476e+06 -1.333298644744e+07 -7.211402863183e+06 -1.874802190083e-01 3.709013574743e-01 -4.928723820206e-01 
0.000000000000e+00 0.000000000000e+00 5.000000000000e-03 0.000000000000e+00 4.904258076246e-03 -6.744129348839e+06 4.812855429081e+06 -7.594733899297e+06 -4.616623735503e+06 -2.298306523220e-01 1.327267441323e-01 -1.738487205597e-01 
1.000000000000e-02 0.000000000000e+00 0.000000000000e+00 0.000000000000e+00 0.000000000000e+00 8.558649341079e+06 -5.965180862916e+05 1.999920517304e+07 8.637080480950e+06 -3.298726338907e-02 4.715374422885e-02 2.535340978935e+00 
5.000000000000e-03 0.000000000000e+00 0.000000000000e+00 4.706616194021e-04 0.000000000000e+00 1.960666215592e+07 -3.010830739664e+06 4.641348076910e+07 2.278079701012e+07 1.743218091585e-01 -2.716341198585e-02 1.884677437169e+00 
0.000000000000e+00 0.000000000000e+00 0.000000000000e+00 0.000000000000e+00 0.000000000000e+00 1.542718535217e+07 3.306237646547e+06 7.614851727406e+07 2.797949965608e+07 -3.034471695912e-01 4.343559938614e-02 1.773520513477e+00 
14  17  15  14
15  17  18  15
18  17  20  18
14  15  12  14
30  28  31  30
12  15  13  12
18  20  21  18
21  20  23  21
18  21  19  18
21  23  24  21
24  23  26  24
21  24  22  21
5  2  4  5
4  2  3  4
5  4  8  5
8  4  9  8
5  8  10  5
24  26  27  24
27  26  29  27
24  27  25  24
10  8  12  10
27  29  31  27
19  16  18  19
6  7  3  6
25  22  24  25
1  3  2  1
13  10  12  13
9  11  8  9
32  31  29  32
15  18  16  15
14  12  11  14
11  12  8  11
28  25  27  28
7  9  4  7
16  13  15  16
22  19  21  22
7  4  3  7
28  27  31  28
VARIABLES  = "X","Y","Z", "DISPLACEMENT_X1", "DISPLACEMENT_Y1", "STRESS_XX", "STRESS_XY", "STRESS_YY", "STRESS_ZZ", "STRAIN_XX", "STRAIN_XY", "STRAIN_YY"
ZONE T="1.000000000000e-01s", N=32, E=38, F=FEPOINT, ET=QUADRILATERAL
STRANDID=1, SOLUTIONTIME=1.000000000000e-01
1.000000000000e-02 0.000000000000e+00 5.000000000000e-02 0.000000000000e+00 0.000000000000e+00 -4.990912557878e+06 2.790772148265e+01 -7.434144280068e+06 -4.990022369380e+06 -6.336672082252e-06 -4.006244702670e-07 -1.040728449067e-01 
1.000000000000e-02 0.000000000000e+00 4.500000000000e-02 0.000000000000e+00 5.203736877843e-04 -4.989906247258e+06 6.804428334575e+02 -7.434833635713e+06 -4.989896567732e+06 -9.161829767125e-06 2.038190009587e-06 -1.040760573451e-01 
5.000000000000e-03 0.000000000000e+00 5.000000000000e-02 2.742092047638e-08 0.000000000000e+00 -4.992104397718e+06 1.139841838056e+02 -7.434839173893e+06 -4.990777879038e+06 -2.624679404460e-06 -8.667647800049e-07 -1.040759904450e-01 
5.000000000000e-03 0.000000000000e+00 4.300000000000e-02 4.686600778041e-08 7.285536063331e-04 -4.994123579312e+06 -2.487256666290e+02 -7.427167491810e+06 -4.988514231743e+06 -1.143450711523e-05 -3.042161137300e-05 -1.040735009577e-01 
1.000000000000e-02 0.000000000000e+00 4.000000000000e-02 0.000000000000e+00 1.040797476597e-03 -4.982969814179e+06 1.120716803939e+04 -7.455542410666e+06 -4.995405366682e+06 8.113200788527e-06 4.474393731650e-05 -1.040928245503e-01 
0.000000000000e+00 0.000000000000e+00 5.000000000000e-02 0.000000000000e+00 0.000000000000e+00 -4.989654494804e+06 -2.200906833956e+02 -7.441724181853e+06 -4.992551016667e+06 1.059351331716e-05 -1.017827084962e-06 -1.040852966172e-01 
0.000000000000e+00 0.000000000000e+00 4.500000000000e-02 0.000000000000e+00 5.204473633941e-04 -4.990624903423e+06 -3.144932103652e+03 -7.446354711742e+06 -4.994792489997e+06 1.568509280576e-05 -1.425332672928e-05 -1.040934529728e-01 
6.000000000000e-03 0.000000000000e+00 3.800000000000e-02 7.925707171460e-08 1.248901814023e-03 -4.999267213673e+06 7.335945553783e+03 -7.377410583103e+06 -4.970682647234e+06 -6.897035313092e-05 -5.388772442857e-05 -1.040666157839e-01 
0.000000000000e+00 0.000000000000e+00 4.000000000000e-02 0.000000000000e+00 1.041010455800e-03 -4.985083073486e+06 -1.178435755574e+04 -7.460672472230e+06 -4.998300910723e+06 5.502860248988e-05 -5.498159870952e-05 -1.041297032840e-01 
1.000000000000e-02 0.000000000000e+00 3.500000000000e-02 0.000000000000e+00 1.561026716003e-03 -4.986413602632e+06 2.905992844578e+04 -7.492831014960e+06 -5.011668357119e+06 -1.463118815219e-05 -2.630066906399e-06 -1.038228066334e-01 
0.000000000000e+00 0.000000000000e+00 3.500000000000e-02 0.000000000000e+00 1.561589230836e-03 -4.980452029605e+06 -2.173113448980e+04 -7.523600460029e+06 -5.021599797998e+06 1.130551912623e-04 -6.501451658695e-05 -1.040855442649e-01 
4.000000000000e-03 0.000000000000e+00 3.300000000000e-02 2.017379677885e-07 1.769751738201e-03 -5.004454922396e+06 -2.151943187354e+02 -7.285089896038e+06 -4.935779671211e+06 -1.300080732539e-04 -1.293818129219e-04 -1.041065476722e-01 
1.000000000000e-02 0.000000000000e+00 3.000000000000e-02 0.000000000000e+00 2.083707298105e-03 -4.925896428312e+06 6.205707389938e+04 -7.597294799536e+06 -5.029437256607e+06 3.096438132288e-04 6.415268937836e-04 -1.049683758075e-01 
0.000000000000e+00 0.000000000000e+00 3.000000000000e-02 0.000000000000e+00 2.083609919459e-03 -4.968342780970e+06 -1.480929731318e+04 -7.627246981344e+06 -5.058340183478e+06 4.068288953671e-04 -3.231935689550e-04 -1.048851040512e-01 
4.000000000000e-03 0.000000000000e+00 2.800000000000e-02 2.426555987944e-07 2.287903993951e-03 -5.016258166443e+06 -1.296843286530e+04 -7.049174632767e+06 -4.846126847787e+06 -1.039369529686e-03 -7.097662286565e-04 -1.030375623590e-01 
1.000000000000e-02 0.000000000000e+00 2.500000000000e-02 0.000000000000e+00 2.606401954138e-03 -5.011669206525e+06 4.245394856214e+04 -7.962461294278e+06 -5.209069799943e+06 1.517764856885e-03 1.331586239503e-03 -1.052618208582e-01 
0.000000000000e+00 0.000000000000e+00 2.500000000000e-02 0.000000000000e+00 2.605838570862e-03 -5.185727276631e+06 -1.077279337800e+05 -8.218367316209e+06 -5.381031894153e+06 1.299201510505e-03 -1.763866227262e-03 -1.026675563454e-01 
4.000000000000e-03 0.000000000000e+00 2.300000000000e-02 -1.696407570743e-06 2.830065465907e-03 -4.917634696103e+06 1.554270125992e+05 -6.890888701455e+06 -4.744310463116e+06 -2.570122668249e-05 3.186059343356e-03 -1.119729449160e-01 
1.000000000000e-02 0.000000000000e+00 2.000000000000e-02 0.000000000000e+00 3.139089255367e-03 -4.839702054163e+06 -3.418208803604e+05 -8.106143491804e+06 -5.199074665244e+06 -7.947663760817e-04 -6.770685120925e-03 -1.055918981998e-01 
0.000000000000e+00 0.000000000000e+00 2.000000000000e-02 0.000000000000e+00 3.113830089067e-03 -4.946405501547e+06 3.519642777595e+05 -7.228256490886e+06 -4.891008192255e+06 -6.828003457589e-03 1.051088125402e-02 -1.005779628973e-01 
4.000000000000e-03 0.000000000000e+00 1.800000000000e-02 -6.551753918603e-06 3.309531580970e-03 -4.959429023333e+06 2.433104969418e+05 -7.234640968201e+06 -4.892082159175e+06 -1.425497651496e-03 5.465548809098e-03 -8.295320697554e-02 