VARIABLES  = "X","Y","Z", "PRESSURE1", "SorbFr", "ConsTracer"
ZONE T="0.000000000000e+00s", N=101, E=100, F=FEPOINT, ET=QUADRILATERAL
STRANDID=1, SOLUTIONTIME=0.000000000000e+00
0.000000000000e+00 0.000000000000e+00 0.000000000000e+00 2.000000000000e+04 0.000000000000e+00 0.000000000000e+00 
1.000000000000e+00 0.000000000000e+00 0.000000000000e+00 2.000000000000e+04 0.000000000000e+00 0.000000000000e+00 
2.000000000000e+00 0.000000000000e+00 0.000000000000e+00 2.000000000000e+04 0.000000000000e+00 0.000000000000e+00 
3.000000000000e+00 0.000000000000e+00 0.000000000000e+00 2.000000000000e+04 0.000000000000e+00 0.000000000000e+00 
4.000000000000e+00 0.000000000000e+00 0.000000000000e+00 2.000000000000e+04 0.000000000000e+00 0.000000000000e+00 
5.000000000000e+00 0.000000000000e+00 0.000000000000e+00 2.000000000000e+04 0.000000000000e+00 0.000000000000e+00 
6.000000000000e+00 0.000000000000e+00 0.000000000000e+00 2.000000000000e+04 0.000000000000e+00 0.000000000000e+00 
7.000000000000e+00 0.000000000000e+00 0.000000000000e+00 2.000000000000e+04 0.000000000000e+00 0.000000000000e+00 
8.000000000000e+00 0.000000000000e+00 0.000000000000e+00 2.000000000000e+04 0.000000000000e+00 0.000000000000e+00 
9.000000000000e+00 0.000000000000e+00 0.000000000000e+00 2.000000000000e+04 0.000000000000e+00 0.000000000000e+00 
1.000000000000e+01 0.000000000000e+00 0.000000000000e+00 2.000000000000e+04 0.000000000000e+00 0.000000000000e+00 
1.100000000000e+01 0.000000000000e+00 0.000000000000e+00 2.000000000000e+04 0.000000000000e+00 0.000000000000e+00 
1.200000000000e+01 0.000000000000e+00 0.000000000000e+00 2.000000000000e+04 0.000000000000e+00 0.000000000000e+00 
1.300000000000e+01 0.000000000000e+00 0.000000000000e+00 2.000000000000e+04 0.000000000000e+00 0.000000000000e+00 
1.400000000000e+01 0.000000000000e+00 0.000000000000e+00 2.000000000000e+04 0.000000000000e+00 0.000000000000e+00 
1.500000000000e+01 0.000000000000e+00 0.000000000000e+00 2.000000000000e+04 0.000000000000e+00 0.000000000000e+00 
1.600000000000e+01 0.000000000000e+00 0.000000000000e+00 2.000000000000e+04 0.000000000000e+00 0.000000000000e+00 
1.700000000000e+01 0.000000000000e+00 0.000000000000e+00 2.000000000000e+04 0.000000000000e+00 0.000000000000e+00 
1.800000000000e+01 0.000000000000e+00 0.000000000000e+00 2.000000000000e+04 0.000000000000e+00 0.000000000000e+00 
1.900000000000e+01 0.000000000000e+00 0.000000000000e+00 2.000000000000e+04 0.000000000000e+00 0.000000000000e+00 
2.000000000000e+01 0.000000000000e+00 0.000000000000e+00 2.000000000000e+04 0.000000000000e+00 0.000000000000e+00 
2.100000000000e+01 0.000000000000e+00 0.000000000000e+00 2.000000000000e+04 0.000000000000e+00 0.000000000000e+00 
2.200000000000e+01 0.000000000000e+00 0.000000000000e+00 2.000000000000e+04 0.000000000000e+00 0.000000000000e+00 
2.300000000000e+01 0.000000000000e+00 0.000000000000e+00 2.000000000000e+04 0.000000000000e+00 0.000000000000e+00 
2.400000000000e+01 0.000000000000e+00 0.000000000000e+00 2.000000000000e+04 0.000000000000e+00 0.000000000000e+00 
2.500000000000e+01 0.000000000000e+00 0.000000000000e+00 2.000000000000e+04 0.000000000000e+00 0.000000000000e+00 
2.600000000000e+01 0.000000000000e+00 0.000000000000e+00 2.000000000000e+04 0.000000000000e+00 0.000000000000e+00 
2.700000000000e+01 0.000000000000e+00 0.000000000000e+00 2.000000000000e+04 0.000000000000e+00 0.000000000000e+00 
2.800000000000e+01 0.000000000000e+00 0.000000000000e+00 2.000000000000e+04 0.000000000000e+00 0.000000000000e+00 
2.900000000000e+01 0.000000000000e+00 0.000000000000e+00 2.000000000000e+04 0.000000000000e+00 0.000000000000e+00 
3.000000000000e+01 0.000000000000e+00 0.000000000000e+00 2.000000000000e+04 0.000000000000e+00 0.000000000000e+00 
3.100000000000e+01 0.000000000000e+00 0.000000000000e+00 2.000000000000e+04 0.000000000000e+00 0.000000000000e+00 
3.200000000000e+01 0.000000000000e+00 0.000000000000e+00 2.000000000000e+04 0.000000000000e+00 0.000000000000e+00 
3.300000000000e+01 0.000000000000e+00 0.000000000000e+00 2.000000000000e+04 0.000000000000e+00 0.000000000000e+00 
3.400000000000e+01 0.000000000000e+00 0.000000000000e+00 2.000000000000e+04 0.000000000000e+00 0.000000000000e+00 
3.500000000000e+01 0.000000000000e+00 0.000000000000e+00 2.000000000000e+04 0.000000000000e+00 0.000000000000e+00 
3.600000000000e+01 0.000000000000e+00 0.000000000000e+00 2.000000000000e+04 0.000000000000e+00 0.000000000000e+00 
3.700000000000e+01 0.000000000000e+00 0.000000000000e+00 2.000000000000e+04 0.000000000000e+00 0.000000000000e+00 
3.800000000000e+01 0.000000000000e+00 0.000000000000e+00 2.000000000000e+04 0.000000000000e+00 0.000000000000e+00 
3.900000000000e+01 0.000000000000e+00 0.000000000000e+00 2.000000000000e+04 0.000000000000e+00 0.000000000000e+00 
4.000000000000e+01 0.000000000000e+00 0.000000000000e+00 2.000000000000e+04 0.000000000000e+00 0.000000000000e+00 
4.100000000000e+01 0.000000000000e+00 0.000000000000e+00 2.000000000000e+04 0.000000000000e+00 0.000000000000e+00 
4.200000000000e+01 0.000000000000e+00 0.000000000000e+00 2.000000000000e+04 0.000000000000e+00 0.000000000000e+00 
4.300000000000e+01 0.000000000000e+00 0.000000000000e+00 2.000000000000e+04 0.000000000000e+00 0.000000000000e+00 
4.400000000000e+01 0.000000000000e+00 0.000000000000e+00 2.000000000000e+04 0.000000000000e+00 0.000000000000e+00 
4.500000000000e+01 0.000000000000e+00 0.000000000000e+00 2.000000000000e+04 0.000000000000e+00 0.000000000000e+00 
4.600000000000e+01 0.000000000000e+00 0.000000000000e+00 2.000000000000e+04 0.000000000000e+00 0.000000000000e+00 
4.700000000000e+01 0.000000000000e+00 0.000000000000e+00 2.000000000000e+04 0.000000000000e+00 0.000000000000e+00 
4.800000000000e+01 0.000000000000e+00 0.000000000000e+00 2.000000000000e+04 0.000000000000e+00 0.000000000000e+00 
4.900000000000e+01 0.000000000000e+00 0.000000000000e+00 2.000000000000e+04 0.000000000000e+00 0.000000000000e+00 
5.000000000000e+01 0.000000000000e+00 0.000000000000e+00 2.000000000000e+04 0.000000000000e+00 0.000000000000e+00 
5.100000000000e+01 0.000000000000e+00 0.000000000000e+00 2.000000000000e+04 0.000000000000e+00 0.000000000000e+00 
5.200000000000e+01 0.000000000000e+00 0.000000000000e+00 2.000000000000e+04 0.000000000000e+00 0.000000000000e+00 
5.300000000000e+01 0.000000000000e+00 0.000000000000e+00 2.000000000000e+04 0.000000000000e+00 0.000000000000e+00 
5.400000000000e+01 0.000000000000e+00 0.000000000000e+00 2.000000000000e+04 0.000000000000e+00 0.000000000000e+00 
5.500000000000e+01 0.000000000000e+00 0.000000000000e+00 2.000000000000e+04 0.000000000000e+00 0.000000000000e+00 
5.600000000000e+01 0.000000000000e+00 0.000000000000e+00 2.000000000000e+04 0.000000000000e+00 0.000000000000e+00 
5.700000000000e+01 0.000000000000e+00 0.000000000000e+00 2.000000000000e+04 0.000000000000e+00 0.000000000000e+00 
5.800000000000e+01 0.000000000000e+00 0.000000000000e+00 2.000000000000e+04 0.000000000000e+00 0.000000000000e+00 
5.900000000000e+01 0.000000000000e+00 0.000000000000e+00 2.000000000000e+04 0.000000000000e+00 0.000000000000e+00 
6.000000000000e+01 0.000000000000e+00 0.000000000000e+00 2.000000000000e+04 0.000000000000e+00 0.000000000000e+00 
6.100000000000e+01 0.000000000000e+00 0.000000000000e+00 2.000000000000e+04 0.000000000000e+00 0.000000000000e+00 
6.200000000000e+01 0.000000000000e+00 0.000000000000e+00 2.000000000000e+04 0.000000000000e+00 0.000000000000e+00 
6.300000000000e+01 0.000000000000e+00 0.000000000000e+00 2.000000000000e+04 0.000000000000e+00 0.000000000000e+00 
6.400000000000e+01 0.000000000000e+00 0.000000000000e+00 2.000000000000e+04 0.000000000000e+00 0.000000000000e+00 
6.500000000000e+01 0.000000000000e+00 0.000000000000e+00 2.000000000000e+04 0.000000000000e+00 0.000000000000e+00 
6.600000000000e+01 0.000000000000e+00 0.000000000000e+00 2.000000000000e+04 0.000000000000e+00 0.000000000000e+00 
6.700000000000e+01 0.000000000000e+00 0.000000000000e+00 2.000000000000e+04 0.000000000000e+00 0.000000000000e+00 
6.800000000000e+01 0.000000000000e+00 0.000000000000e+00 2.000000000000e+04 0.000000000000e+00 0.000000000000e+00 
6.900000000000e+01 0.000000000000e+00 0.000000000000e+00 2.000000000000e+04 0.000000000000e+00 0.000000000000e+00 
7.000000000000e+01 0.000000000000e+00 0.000000000000e+00 2.000000000000e+04 0.000000000000e+00 0.000000000000e+00 
7.100000000000e+01 0.000000000000e+00 0.000000000000e+00 2.000000000000e+04 0.000000000000e+00 0.000000000000e+00 
7.200000000000e+01 0.000000000000e+00 0.000000000000e+00 2.000000000000e+04 0.000000000000e+00 0.000000000000e+00 
7.300000000000e+01 0.000000000000e+00 0.000000000000e+00 2.000000000000e+04 0.000000000000e+00 0.000000000000e+00 
7.400000000000e+01 0.000000000000e+00 0.000000000000e+00 2.000000000000e+04 0.000000000000e+00 0.000000000000e+00 
7.500000000000e+01 0.000000000000e+00 0.000000000000e+00 2.000000000000e+04 0.000000000000e+00 0.000000000000e+00 
7.600000000000e+01 0.000000000000e+00 0.000000000000e+00 2.000000000000e+04 0.000000000000e+00 0.000000000000e+00 
7.700000000000e+01 0.000000000000e+00 0.000000000000e+00 2.000000000000e+04 0.000000000000e+00 0.000000000000e+00 
7.800000000000e+01 0.000000000000e+00 0.000000000000e+00 2.000000000000e+04 0.000000000000e+00 0.000000000000e+00 
7.900000000000e+01 0.000000000000e+00 0.000000000000e+00 2.000000000000e+04 0.000000000000e+00 0.000000000000e+00 
8.000000000000e+01 0.000000000000e+00 0.000000000000e+00 2.000000000000e+04 0.000000000000e+00 0.000000000000e+00 
8.100000000000e+01 0.000000000000e+00 0.000000000000e+00 2.000000000000e+04 0.000000000000e+00 0.000000000000e+00 
8.200000000000e+01 0.000000000000e+00 0.000000000000e+00 2.000000000000e+04 0.000000000000e+00 0.000000000000e+00 
8.300000000000e+01 0.000000000000e+00 0.000000000000e+00 2.000000000000e+04 0.000000000000e+00 0.000000000000e+00 
8.400000000000e+01 0.000000000000e+00 0.000000000000e+00 2.000000000000e+04 0.000000000000e+00 0.000000000000e+00 
8.500000000000e+01 0.000000000000e+00 0.000000000000e+00 2.000000000000e+04 0.000000000000e+00 0.000000000000e+00 
8.600000000000e+01 0.000000000000e+00 0.000000000000e+00 2.000000000000e+04 0.000000000000e+00 0.000000000000e+00 
8.700000000000e+01 0.000000000000e+00 0.000000000000e+00 2.000000000000e+04 0.000000000000e+00 0.000000000000e+00 
8.800000000000e+01 0.000000000000e+00 0.000000000000e+00 2.000000000000e+04 0.000000000000e+00 0.000000000000e+00 
8.900000000000e+01 0.000000000000e+00 0.000000000000e+00 2.000000000000e+04 0.000000000000e+00 0.000000000000e+00 
9.000000000000e+01 0.000000000000e+00 0.000000000000e+00 2.000000000000e+04 0.000000000000e+00 0.000000000000e+00 
9.100000000000e+01 0.000000000000e+00 0.000000000000e+00 2.000000000000e+04 0.000000000000e+00 0.000000000000e+00 
9.200000000000e+01 0.000000000000e+00 0.000000000000e+00 2.000000000000e+04 0.000000000000e+00 0.000000000000e+00 
9.300000000000e+01 0.000000000000e+00 0.000000000000e+00 2.000000000000e+04 0.000000000000e+00 0.000000000000e+00 
9.400000000000e+01 0.000000000000e+00 0.000000000000e+00 2.000000000000e+04 0.000000000000e+00 0.000000000000e+00 
9.500000000000e+01 0.000000000000e+00 0.000000000000e+00 2.000000000000e+04 0.000000000000e+00 0.000000000000e+00 
9.600000000000e+01 0.000000000000e+00 0.000000000000e+00 2.000000000000e+04 0.000000000000e+00 0.000000000000e+00 
9.700000000000e+01 0.000000000000e+00 0.000000000000e+00 2.000000000000e+04 0.000000000000e+00 0.000000000000e+00 
9.800000000000e+01 0.000000000000e+00 0.000000000000e+00 2.000000000000e+04 0.000000000000e+00 0.000000000000e+00 
9.900000000000e+01 0.000000000000e+00 0.000000000000e+00 2.000000000000e+04 0.000000000000e+00 0.000000000000e+00 
1.000000000000e+02 0.000000000000e+00 0.000000000000e+00 2.000000000000e+04 0.000000000000e+00 0.000000000000e+00 
1  2  2  1
2  3  3  2
3  4  4  3
4  5  5  4
5  6  6  5
6  7  7  6
7  8  8  7
8  9  9  8
9  10  10  9
10  11  11  10
11  12  12  11
12  13  13  12
13  14  14  13
14  15  15  14
15  16  16  15
16  17  17  16
17  18  18  17
18  19  19  18
19  20  20  19
20  21  21  20
21  22  22  21
22  23  23  22
23  24  24  23
24  25  25  24
25  26  26  25
26  27  27  26
27  28  28  27
28  29  29  28
29  30  30  29
30  31  31  30
31  32  32  31
32  33  33  32
33  34  34  33
34  35  35  34
35  36  36  35
36  37  37  36
37  38  38  37
38  39  39  38
39  40  40  39
40  41  41  40
41  42  42  41
42  43  43  42
43  44  44  43
44  45  45  44
45  46  46  45
46  47  47  46
47  48  48  47
48  49  49  48
49  50  50  49
50  51  51  50
51  52  52  51
52  53  53  52
53  54  54  53
54  55  55  54
55  56  56  55
56  57  57  56
57  58  58  57
58  59  59  58
59  60  60  59
60  61  61  60
61  62  62  61
62  63  63  62
63  64  64  63
64  65  65  64
65  66  66  65
66  67  67  66
67  68  68  67
68  69  69  68
69  70  70  69
70  71  71  70
71  72  72  71
72  73  73  72
73  74  74  73
74  75  75  74
75  76  76  75
76  77  77  76
77  78  78  77
78  79  79  78
79  80  80  79
80  81  81  80
81  82  82  81
82  83  83  82
83  84  84  83
84  85  85  84
85  86  86  85
86  87  87  86
87  88  88  87
88  89  89  88
89  90  90  89
90  91  91  90
91  92  92  91
92  93  93  92
93  94  94  93
94  95  95  94
95  96  96  95
96  97  97  96
97  98  98  97
98  99  99  98
99  100  100  99
100  101  101  100
VARIABLES  = "X","Y","Z", "PRESSURE1", "SorbFr", "ConsTracer"
ZONE T="8.640000000000e+04s", N=101, E=100, F=FEPOINT, ET=QUADRILATERAL
STRANDID=1, SOLUTIONTIME=8.640000000000e+04
0.000000000000e+00 0.000000000000e+00 0.000000000000e+00 1.400000000000e+05 1.000000000000e+00 1.000000000000e+00 
1.000000000000e+00 0.000000000000e+00 0.000000000000e+00 1.388000000000e+05 3.540790105201e-01 4.478735292646e-01 
2.000000000000e+00 0.000000000000e+00 0.000000000000e+00 1.376000000000e+05 1.253719456908e-01 2.005906982159e-01 
3.000000000000e+00 0.000000000000e+00 0.000000000000e+00 1.364000000000e+05 4.439157447718e-02 8.983926394758e-02 
4.000000000000e+00 0.000000000000e+00 0.000000000000e+00 1.352000000000e+05 1.571812476630e-02 4.023662821073e-02 
5.000000000000e+00 0.000000000000e+00 0.000000000000e+00 1.340000000000e+05 5.565458064484e-03 1.802092068245e-02 
6.000000000000e+00 0.000000000000e+00 0.000000000000e+00 1.328000000000e+05 1.970611884563e-03 8.071093346643e-03 
7.000000000000e+00 0.000000000000e+00 0.000000000000e+00 1.316000000000e+05 6.977523062050e-04 3.614829062184e-03 
8.000000000000e+00 0.000000000000e+00 0.000000000000e+00 1.304000000000e+05 2.470594461691e-04 1.618986249769e-03 
9.000000000000e+00 0.000000000000e+00 0.000000000000e+00 1.292000000000e+05 8.747856423912e-05 7.251010855146e-04 
1.000000000000e+01 0.000000000000e+00 0.000000000000e+00 1.280000000000e+05 3.097432346737e-05 3.247535822430e-04 
1.100000000000e+01 0.000000000000e+00 0.000000000000e+00 1.268000000000e+05 1.096735780469e-05 1.454485330204e-04 
1.200000000000e+01 0.000000000000e+00 0.000000000000e+00 1.256000000000e+05 3.883311199065e-06 6.514254781020e-05 
1.300000000000e+01 0.000000000000e+00 0.000000000000e+00 1.244000000000e+05 1.374998986471e-06 2.917562279302e-05 
1.400000000000e+01 0.000000000000e+00 0.000000000000e+00 1.232000000000e+05 4.868582794601e-07 1.306698914875e-05 
1.500000000000e+01 0.000000000000e+00 0.000000000000e+00 1.220000000000e+05 1.723862968933e-07 5.852358546839e-06 
1.600000000000e+01 0.000000000000e+00 0.000000000000e+00 1.208000000000e+05 6.103836706658e-08 2.621116476745e-06 
1.700000000000e+01 0.000000000000e+00 0.000000000000e+00 1.196000000000e+05 2.161240289298e-08 1.173928686857e-06 
1.800000000000e+01 0.000000000000e+00 0.000000000000e+00 1.184000000000e+05 7.652494227354e-09 5.257715837053e-07 
1.900000000000e+01 0.000000000000e+00 0.000000000000e+00 1.172000000000e+05 2.709585069804e-09 2.354791743272e-07 
2.000000000000e+01 0.000000000000e+00 0.000000000000e+00 1.160000000000e+05 9.594016602639e-10 1.054648880387e-07 
2.100000000000e+01 0.000000000000e+00 0.000000000000e+00 1.148000000000e+05 3.397009937809e-10 4.723493071750e-08 
2.200000000000e+01 0.000000000000e+00 0.000000000000e+00 1.136000000000e+05 1.202747224070e-10 2.115527355516e-08 
2.300000000000e+01 0.000000000000e+00 0.000000000000e+00 1.124000000000e+05 4.258384868512e-11 9.474885486222e-09 
2.400000000000e+01 0.000000000000e+00 0.000000000000e+00 1.112000000000e+05 1.507226448523e-11 4.243547858105e-09 
2.500000000000e+01 0.000000000000e+00 0.000000000000e+00 1.100000000000e+05 5.334498108284e-12 1.900570476099e-09 
2.600000000000e+01 0.000000000000e+00 0.000000000000e+00 1.088000000000e+05 1.884521802364e-12 8.512116443183e-10 
2.700000000000e+01 0.000000000000e+00 0.000000000000e+00 1.076000000000e+05 6.658529018169e-13 3.812322554495e-10 
2.800000000000e+01 0.000000000000e+00 0.000000000000e+00 1.064000000000e+05 2.332013408738e-13 1.707395227691e-10 
2.900000000000e+01 0.000000000000e+00 0.000000000000e+00 1.052000000000e+05 8.188493000983e-14 7.646651217431e-11 
3.000000000000e+01 0.000000000000e+00 0.000000000000e+00 1.040000000000e+05 2.780623920752e-14 3.424281669109e-11 
3.100000000000e+01 0.000000000000e+00 0.000000000000e+00 1.028000000000e+05 9.595625726109e-15 1.533341896785e-11 
3.200000000000e+01 0.000000000000e+00 0.000000000000e+00 1.016000000000e+05 2.983957019652e-15 6.863369641296e-12 
3.300000000000e+01 0.000000000000e+00 0.000000000000e+00 1.004000000000e+05 9.922196434308e-16 3.071459187657e-12 
3.400000000000e+01 0.000000000000e+00 0.000000000000e+00 9.919999999997e+04 2.493132024861e-16 1.372486033456e-12 
3.500000000000e+01 0.000000000000e+00 0.000000000000e+00 9.799999999997e+04 7.782844427878e-17 6.129970945120e-13 
3.600000000000e+01 0.000000000000e+00 0.000000000000e+00 9.679999999997e+04 1.166504341849e-17 2.724783228552e-13 
3.700000000000e+01 0.000000000000e+00 0.000000000000e+00 9.559999999997e+04 3.324521007455e-18 1.210417745906e-13 
3.800000000000e+01 0.000000000000e+00 0.000000000000e+00 9.439999999997e+04 0.000000000000e+00 5.306260181108e-14 
3.900000000000e+01 0.000000000000e+00 0.000000000000e+00 9.319999999997e+04 0.000000000000e+00 2.328189661266e-14 
4.000000000000e+01 0.000000000000e+00 0.000000000000e+00 9.199999999997e+04 0.000000000000e+00 9.895213395827e-15 
4.100000000000e+01 0.000000000000e+00 0.000000000000e+00 9.079999999997e+04 0.000000000000e+00 4.239386705649e-15 
4.200000000000e+01 0.000000000000e+00 0.000000000000e+00 8.959999999997e+04 0.000000000000e+00 1.696975359119e-15 
4.300000000000e+01 0.000000000000e+00 0.000000000000e+00 8.839999999997e+04 0.000000000000e+00 6.989419662857e-16 
4.400000000000e+01 0.000000000000e+00 0.000000000000e+00 8.719999999997e+04 0.000000000000e+00 2.520427231499e-16 
4.500000000000e+01 0.000000000000e+00 0.000000000000e+00 8.599999999997e+04 0.000000000000e+00 9.799858170291e-17 
4.600000000000e+01 0.000000000000e+00 0.000000000000e+00 8.479999999997e+04 0.000000000000e+00 2.974121626239e-17 
4.700000000000e+01 0.000000000000e+00 0.000000000000e+00 8.359999999997e+04 0.000000000000e+00 1.070533050716e-17 
4.800000000000e+01 0.000000000000e+00 0.000000000000e+00 8.239999999997e+04 0.000000000000e+00 2.428984690522e-18 
4.900000000000e+01 0.000000000000e+00 0.000000000000e+00 8.119999999997e+04 0.000000000000e+00 7.928719529120e-19 
5.000000000000e+01 0.000000000000e+00 0.000000000000e+00 7.999999999997e+04 0.000000000000e+00 1.012967089514e-19 
5.100000000000e+01 0.000000000000e+00 0.000000000000e+00 7.879999999997e+04 0.000000000000e+00 2.931070979277e-20 
5.200000000000e+01 0.000000000000e+00 0.000000000000e+00 7.759999999997e+04 0.000000000000e+00 0.000000000000e+00 
5.300000000000e+01 0.000000000000e+00 0.000000000000e+00 7.639999999997e+04 0.000000000000e+00 0.000000000000e+00 
5.400000000000e+01 0.000000000000e+00 0.000000000000e+00 7.519999999997e+04 0.000000000000e+00 0.000000000000e+00 
5.500000000000e+01 0.000000000000e+00 0.000000000000e+00 7.399999999997e+04 0.000000000000e+00 0.000000000000e+00 
5.600000000000e+01 0.000000000000e+00 0.000000000000e+00 7.279999999997e+04 0.000000000000e+00 0.000000000000e+00 
5.700000000000e+01 0.000000000000e+00 0.000000000000e+00 7.159999999997e+04 0.000000000000e+00 0.000000000000e+00 
5.800000000000e+01 0.000000000000e+00 0.000000000000e+00 7.039999999997e+04 0.000000000000e+00 0.000000000000e+00 
5.900000000000e+01 0.000000000000e+00 0.000000000000e+00 6.919999999997e+04 0.000000000000e+00 0.000000000000e+00 
6.000000000000e+01 0.000000000000e+00 0.000000000000e+00 6.799999999997e+04 0.000000000000e+00 0.000000000000e+00 
6.100000000000e+01 0.000000000000e+00 0.000000000000e+00 6.679999999997e+04 0.000000000000e+00 0.000000000000e+00 
6.200000000000e+01 0.000000000000e+00 0.000000000000e+00 6.559999999997e+04 0.000000000000e+00 0.000000000000e+00 
6.300000000000e+01 0.000000000000e+00 0.000000000000e+00 6.439999999997e+04 0.000000000000e+00 0.000000000000e+00 
6.400000000000e+01 0.000000000000e+00 0.000000000000e+00 6.319999999997e+04 0.000000000000e+00 0.000000000000e+00 
6.500000000000e+01 0.000000000000e+00 0.000000000000e+00 6.199999999997e+04 0.000000000000e+00 0.000000000000e+00 
6.600000000000e+01 0.000000000000e+00 0.000000000000e+00 6.079999999997e+04 0.000000000000e+00 0.000000000000e+00 
6.700000000000e+01 0.000000000000e+00 0.000000000000e+00 5.959999999997e+04 0.000000000000e+00 0.000000000000e+00 
6.800000000000e+01 0.000000000000e+00 0.000000000000e+00 5.839999999997e+04 0.000000000000e+00 0.000000000000e+00 
6.900000000000e+01 0.000000000000e+00 0.000000000000e+00 5.719999999997e+04 0.000000000000e+00 0.000000000000e+00 
7.000000000000e+01 0.000000000000e+00 0.000000000000e+00 5.599999999997e+04 0.000000000000e+00 0.000000000000e+00 
7.100000000000e+01 0.000000000000e+00 0.000000000000e+00 5.479999999997e+04 0.000000000000e+00 0.000000000000e+00 
7.200000000000e+01 0.000000000000e+00 0.000000000000e+00 5.359999999997e+04 0.000000000000e+00 0.000000000000e+00 
7.300000000000e+01 0.000000000000e+00 0.000000000000e+00 5.239999999997e+04 0.000000000000e+00 0.000000000000e+00 
7.400000000000e+01 0.000000000000e+00 0.000000000000e+00 5.119999999998e+04 0.000000000000e+00 0.000000000000e+00 
7.500000000000e+01 0.000000000000e+00 0.000000000000e+00 4.999999999998e+04 0.000000000000e+00 0.000000000000e+00 
7.600000000000e+01 0.000000000000e+00 0.000000000000e+00 4.879999999998e+04 0.000000000000e+00 0.000000000000e+00 
7.700000000000e+01 0.000000000000e+00 0.000000000000e+00 4.759999999998e+04 0.000000000000e+00 0.000000000000e+00 
7.800000000000e+01 0.000000000000e+00 0.000000000000e+00 4.639999999998e+04 0.000000000000e+00 0.000000000000e+00 
7.900000000000e+01 0.000000000000e+00 0.000000000000e+00 4.519999999998e+04 0.000000000000e+00 0.000000000000e+00 
8.000000000000e+01 0.000000000000e+00 0.000000000000e+00 4.399999999998e+04 0.000000000000e+00 0.000000000000e+00 
8.100000000000e+01 0.000000000000e+00 0.000000000000e+00 4.279999999998e+04 0.000000000000e+00 0.000000000000e+00 
8.200000000000e+01 0.000000000000e+00 0.000000000000e+00 4.159999999998e+04 0.000000000000e+00 0.000000000000e+00 
8.300000000000e+01 0.000000000000e+00 0.000000000000e+00 4.039999999998e+04 0.000000000000e+00 0.000000000000e+00 
8.400000000000e+01 0.000000000000e+00 0.000000000000e+00 3.919999999998e+04 0.000000000000e+00 0.000000000000e+00 
8.500000000000e+01 0.000000000000e+00 0.000000000000e+00 3.799999999998e+04 0.000000000000e+00 0.000000000000e+00 
8.600000000000e+01 0.000000000000e+00 0.000000000000e+00 3.679999999999e+04 0.000000000000e+00 0.000000000000e+00 
8.700000000000e+01 0.000000000000e+00 0.000000000000e+00 3.559999999999e+04 0.000000000000e+00 0.000000000000e+00 
8.800000000000e+01 0.000000000000e+00 0.000000000000e+00 3.439999999999e+04 0.000000000000e+00 0.000000000000e+00 
8.900000000000e+01 0.000000000000e+00 0.000000000000e+00 3.319999999999e+04 0.000000000000e+00 0.000000000000e+00 
9.000000000000e+01 0.000000000000e+00 0.000000000000e+00 3.199999999999e+04 0.000000000000e+00 0.000000000000e+00 
9.100000000000e+01 0.000000000000e+00 0.000000000000e+00 3.079999999999e+04 0.000000000000e+00 0.000000000000e+00 
9.200000000000e+01 0.000000000000e+00 0.000000000000e+00 2.959999999999e+04 0.000000000000e+00 0.000000000000e+00 
9.300000000000e+01 0.000000000000e+00 0.000000000000e+00 2.839999999999e+04 0.000000000000e+00 0.000000000000e+00 
9.400000000000e+01 0.000000000000e+00 0.000000000000e+00 2.719999999999e+04 0.000000000000e+00 0.000000000000e+00 
9.500000000000e+01 0.000000000000e+00 0.000000000000e+00 2.599999999999e+04 0.000000000000e+00 0.000000000000e+00 
9.600000000000e+01 0.000000000000e+00 0.000000000000e+00 2.480000000000e+04 0.000000000000e+00 0.000000000000e+00 
9.700000000000e+01 0.000000000000e+00 0.000000000000e+00 2.360000000000e+04 0.000000000000e+00 0.000000000000e+00 
9.800000000000e+01 0.000000000000e+00 0.000000000000e+00 2.240000000000e+04 0.000000000000e+00 0.000000000000e+00 
9.900000000000e+01 0.000000000000e+00 0.000000000000e+00 2.120000000000e+04 0.000000000000e+00 0.000000000000e+00 
1.000000000000e+02 0.000000000000e+00 0.000000000000e+00 2.000000000000e+04 0.000000000000e+00 0.000000000000e+00 
1  2  2  1
2  3  3  2
3  4  4  3
4  5  5  4
5  6  6  5
6  7  7  6
7  8  8  7
8  9  9  8
9  10  10  9
10  11  11  10
11  12  12  11
12  13  13  12
13  14  14  13
14  15  15  14
15  16  16  15
16  17  17  16
17  18  18  17
18  19  19  18
19  20  20  19
20  21  21  20
21  22  22  21
22  23  23  22
23  24  24  23
24  25  25  24
25  26  26  25
26  27  27  26
27  28  28  27
28  29  29  28
29  30  30  29
30  31  31  30
31  32  32  31
32  33  33  32
33  34  34  33
34  35  35  34
35  36  36  35
36  37  37  36
37  38  38  37
38  39  39  38
39  40  40  39
40  41  41  40
41  42  42  41
42  43  43  42
43  44  44  43
44  45  45  44
45  46  46  45
46  47  47  46
47  48  48  47
48  49  49  48
49  50  50  49
50  51  51  50
51  52  52  51
52  53  53  52
53  54  54  53
54  55  55  54
55  56  56  55
56  57  57  56
57  58  58  57
58  59  59  58
59  60  60  59
60  61  61  60
61  62  62  61
62  63  63  62
63  64  64  63
64  65  65  64
65  66  66  65
66  67  67  66
67  68  68  67
68  69  69  68
69  70  70  69
70  71  71  70
71  72  72  71
72  73  73  72
73  74  74  73
74  75  75  74
75  76  76  75
76  77  77  76
77  78  78  77
78  79  79  78
79  80  80  79
80  81  81  80
81  82  82  81
82  83  83  82
83  84  84  83
84  85  85  84
85  86  86  85
86  87  87  86
87  88  88  87
88  89  89  88
89  90  90  89
90  91  91  90
91  92  92  91
92  93  93  92
93  94  94  93
94  95  95  94
95  96  96  95
96  97  97  96
97  98  98  97
98  99  99  98
99  100  100  99
100  101  101  100
VARIABLES  = "X","Y","Z", "PRESSURE1", "SorbFr", "ConsTracer"
ZONE T="1.728000000000e+05s", N=101, E=100, F=FEPOINT, ET=QUADRILATERAL
STRANDID=1, SOLUTIONTIME=1.728000000000e+05
0.000000000000e+00 0.000000000000e+00 0.000000000000e+00 1.400000000000e+05 1.000000000000e+00 1.000000000000e+00 
1.000000000000e+00 0.000000000000e+00 0.000000000000e+00 1.388000000000e+05 7.934079633740e-01 8.699195393209e-01 
2.000000000000e+00 0.000000000000e+00 0.000000000000e+00 1.376000000000e+05 4.364862518029e-01 5.786371702878e-01 
3.000000000000e+00 0.000000000000e+00 0.000000000000e+00 1.364000000000e+05 2.096299514395e-01 3.438147754569e-01 
4.000000000000e+00 0.000000000000e+00 0.000000000000e+00 1.352000000000e+05 9.372795382403e-02 1.919018397926e-01 
5.000000000000e+00 0.000000000000e+00 0.000000000000e+00 1.340000000000e+05 4.009247857041e-02 1.029294626547e-01 
6.000000000000e+00 0.000000000000e+00 0.000000000000e+00 1.328000000000e+05 1.664095287027e-02 5.370503937605e-02 
7.000000000000e+00 0.000000000000e+00 0.000000000000e+00 1.316000000000e+05 6.757951975666e-03 2.745943826838e-02 
8.000000000000e+00 0.000000000000e+00 0.000000000000e+00 1.304000000000e+05 2.699389223103e-03 1.382397971161e-02 
9.000000000000e+00 0.000000000000e+00 0.000000000000e+00 1.292000000000e+05 1.064336537089e-03 6.874681268972e-03 
1.000000000000e+01 0.000000000000e+00 0.000000000000e+00 1.280000000000e+05 4.152907760200e-04 3.385013782532e-03 
1.100000000000e+01 0.000000000000e+00 0.000000000000e+00 1.268000000000e+05 1.606535514747e-04 1.653119023029e-03 
1.200000000000e+01 0.000000000000e+00 0.000000000000e+00 1.256000000000e+05 6.170228845368e-05 8.017742241681e-04 
1.300000000000e+01 0.000000000000e+00 0.000000000000e+00 1.244000000000e+05 2.355352215146e-05 3.865866038397e-04 
1.400000000000e+01 0.000000000000e+00 0.000000000000e+00 1.232000000000e+05 8.943879677398e-06 1.854553618187e-04 
1.500000000000e+01 0.000000000000e+00 0.000000000000e+00 1.220000000000e+05 3.380729230389e-06 8.857541805234e-05 
1.600000000000e+01 0.000000000000e+00 0.000000000000e+00 1.208000000000e+05 1.272778923149e-06 4.214054966310e-05 
1.700000000000e+01 0.000000000000e+00 0.000000000000e+00 1.196000000000e+05 4.774799976505e-07 1.997986845340e-05 
1.800000000000e+01 0.000000000000e+00 0.000000000000e+00 1.184000000000e+05 1.785605184718e-07 9.443906116359e-06 
1.900000000000e+01 0.000000000000e+00 0.000000000000e+00 1.172000000000e+05 6.658646046483e-08 4.451575360888e-06 
2.000000000000e+01 0.000000000000e+00 0.000000000000e+00 1.160000000000e+05 2.476725426662e-08 2.093125812615e-06 
2.100000000000e+01 0.000000000000e+00 0.000000000000e+00 1.148000000000e+05 9.191047316004e-09 9.819666789151e-07 
2.200000000000e+01 0.000000000000e+00 0.000000000000e+00 1.136000000000e+05 3.403592731843e-09 4.597321942286e-07 
2.300000000000e+01 0.000000000000e+00 0.000000000000e+00 1.124000000000e+05 1.257973279939e-09 2.148303770980e-07 
2.400000000000e+01 0.000000000000e+00 0.000000000000e+00 1.112000000000e+05 4.641268430233e-10 1.002156736577e-07 
2.500000000000e+01 0.000000000000e+00 0.000000000000e+00 1.100000000000e+05 1.709530844549e-10 4.667491676371e-08 
2.600000000000e+01 0.000000000000e+00 0.000000000000e+00 1.088000000000e+05 6.287191346011e-11 2.170658339537e-08 
2.700000000000e+01 0.000000000000e+00 0.000000000000e+00 1.076000000000e+05 2.308527516190e-11 1.008105039557e-08 