 TITLE = "Profiles along polylines"
 VARIABLES = "DIST" "PRESSURE1" "PRESSURE2" "PRESSURE_W" "SATURATION1" SATURATION2 "VELOCITY_X1" "VELOCITY_Y1" "VELOCITY_X2" "VELOCITY_Y2" 
 ZONE T="TIME=0.000000000000e+00"
0.000000000000e+00 5.000000000000e+04 0.000000000000e+00 -5.000000000000e+04 1.000000000000e-02 9.900000000000e-01 0.000000000000e+00 0.000000000000e+00 0.000000000000e+00 0.000000000000e+00 
8.965517241379e-02 5.000000000000e+04 0.000000000000e+00 -5.000000000000e+04 1.000000000000e-02 9.900000000000e-01 0.000000000000e+00 0.000000000000e+00 0.000000000000e+00 0.000000000000e+00 
1.793103448276e-01 5.000000000000e+04 0.000000000000e+00 -5.000000000000e+04 1.000000000000e-02 9.900000000000e-01 0.000000000000e+00 0.000000000000e+00 0.000000000000e+00 0.000000000000e+00 
2.689655172414e-01 5.000000000000e+04 0.000000000000e+00 -5.000000000000e+04 1.000000000000e-02 9.900000000000e-01 0.000000000000e+00 0.000000000000e+00 0.000000000000e+00 0.000000000000e+00 
3.586206896552e-01 5.000000000000e+04 0.000000000000e+00 -5.000000000000e+04 1.000000000000e-02 9.900000000000e-01 0.000000000000e+00 0.000000000000e+00 0.000000000000e+00 0.000000000000e+00 
4.482758620690e-01 5.000000000000e+04 0.000000000000e+00 -5.000000000000e+04 1.000000000000e-02 9.900000000000e-01 0.000000000000e+00 0.000000000000e+00 0.000000000000e+00 0.000000000000e+00 
5.379310344828e-01 5.000000000000e+04 0.000000000000e+00 -5.000000000000e+04 1.000000000000e-02 9.900000000000e-01 0.000000000000e+00 0.000000000000e+00 0.000000000000e+00 0.000000000000e+00 
6.275862068966e-01 5.000000000000e+04 0.000000000000e+00 -5.000000000000e+04 1.000000000000e-02 9.900000000000e-01 0.000000000000e+00 0.000000000000e+00 0.000000000000e+00 0.000000000000e+00 
7.172413793105e-01 5.000000000000e+04 0.000000000000e+00 -5.000000000000e+04 1.000000000000e-02 9.900000000000e-01 0.000000000000e+00 0.000000000000e+00 0.000000000000e+00 0.000000000000e+00 
8.068965517245e-01 5.000000000000e+04 0.000000000000e+00 -5.000000000000e+04 1.000000000000e-02 9.900000000000e-01 0.000000000000e+00 0.000000000000e+00 0.000000000000e+00 0.000000000000e+00 
8.965517241385e-01 5.000000000000e+04 0.000000000000e+00 -5.000000000000e+04 1.000000000000e-02 9.900000000000e-01 0.000000000000e+00 0.000000000000e+00 0.000000000000e+00 0.000000000000e+00 
9.862068965524e-01 5.000000000000e+04 0.000000000000e+00 -5.000000000000e+04 1.000000000000e-02 9.900000000000e-01 0.000000000000e+00 0.000000000000e+00 0.000000000000e+00 0.000000000000e+00 
1.075862068966e+00 5.000000000000e+04 0.000000000000e+00 -5.000000000000e+04 1.000000000000e-02 9.900000000000e-01 0.000000000000e+00 0.000000000000e+00 0.000000000000e+00 0.000000000000e+00 
1.165517241380e+00 5.000000000000e+04 0.000000000000e+00 -5.000000000000e+04 1.000000000000e-02 9.900000000000e-01 0.000000000000e+00 0.000000000000e+00 0.000000000000e+00 0.000000000000e+00 
1.255172413794e+00 5.000000000000e+04 0.000000000000e+00 -5.000000000000e+04 1.000000000000e-02 9.900000000000e-01 0.000000000000e+00 0.000000000000e+00 0.000000000000e+00 0.000000000000e+00 
1.344827586208e+00 5.000000000000e+04 0.000000000000e+00 -5.000000000000e+04 1.000000000000e-02 9.900000000000e-01 0.000000000000e+00 0.000000000000e+00 0.000000000000e+00 0.000000000000e+00 
1.434482758622e+00 5.000000000000e+04 0.000000000000e+00 -5.000000000000e+04 1.000000000000e-02 9.900000000000e-01 0.000000000000e+00 0.000000000000e+00 0.000000000000e+00 0.000000000000e+00 
1.524137931036e+00 5.000000000000e+04 0.000000000000e+00 -5.000000000000e+04 1.000000000000e-02 9.900000000000e-01 0.000000000000e+00 0.000000000000e+00 0.000000000000e+00 0.000000000000e+00 
1.613793103450e+00 5.000000000000e+04 0.000000000000e+00 -5.000000000000e+04 1.000000000000e-02 9.900000000000e-01 0.000000000000e+00 0.000000000000e+00 0.000000000000e+00 0.000000000000e+00 
1.703448275863e+00 5.000000000000e+04 0.000000000000e+00 -5.000000000000e+04 1.000000000000e-02 9.900000000000e-01 0.000000000000e+00 0.000000000000e+00 0.000000000000e+00 0.000000000000e+00 
1.793103448277e+00 5.000000000000e+04 0.000000000000e+00 -5.000000000000e+04 1.000000000000e-02 9.900000000000e-01 0.000000000000e+00 0.000000000000e+00 0.000000000000e+00 0.000000000000e+00 
1.882758620691e+00 5.000000000000e+04 0.000000000000e+00 -5.000000000000e+04 1.000000000000e-02 9.900000000000e-01 0.000000000000e+00 0.000000000000e+00 0.000000000000e+00 0.000000000000e+00 
1.972413793105e+00 5.000000000000e+04 0.000000000000e+00 -5.000000000000e+04 1.000000000000e-02 9.900000000000e-01 0.000000000000e+00 0.000000000000e+00 0.000000000000e+00 0.000000000000e+00 
2.062068965518e+00 5.000000000000e+04 0.000000000000e+00 -5.000000000000e+04 1.000000000000e-02 9.900000000000e-01 0.000000000000e+00 0.000000000000e+00 0.000000000000e+00 0.000000000000e+00 
2.151724137932e+00 5.000000000000e+04 0.000000000000e+00 -5.000000000000e+04 1.000000000000e-02 9.900000000000e-01 0.000000000000e+00 0.000000000000e+00 0.000000000000e+00 0.000000000000e+00 
2.241379310346e+00 5.000000000000e+04 0.000000000000e+00 -5.000000000000e+04 1.000000000000e-02 9.900000000000e-01 0.000000000000e+00 0.000000000000e+00 0.000000000000e+00 0.000000000000e+00 
2.331034482759e+00 5.000000000000e+04 0.000000000000e+00 -5.000000000000e+04 1.000000000000e-02 9.900000000000e-01 0.000000000000e+00 0.000000000000e+00 0.000000000000e+00 0.000000000000e+00 
2.420689655173e+00 5.000000000000e+04 0.000000000000e+00 -5.000000000000e+04 1.000000000000e-02 9.900000000000e-01 0.000000000000e+00 0.000000000000e+00 0.000000000000e+00 0.000000000000e+00 
2.510344827586e+00 5.000000000000e+04 0.000000000000e+00 -5.000000000000e+04 1.000000000000e-02 9.900000000000e-01 0.000000000000e+00 0.000000000000e+00 0.000000000000e+00 0.000000000000e+00 
2.600000000000e+00 5.000000000000e+04 0.000000000000e+00 -5.000000000000e+04 1.000000000000e-02 9.900000000000e-01 0.000000000000e+00 0.000000000000e+00 0.000000000000e+00 0.000000000000e+00 
 TITLE = "Profiles along polylines"
 VARIABLES = "DIST" "PRESSURE1" "PRESSURE2" "PRESSURE_W" "SATURATION1" SATURATION2 "VELOCITY_X1" "VELOCITY_Y1" "VELOCITY_X2" "VELOCITY_Y2" 
 ZONE T="TIME=1.000000000000e+01"
0.000000000000e+00 5.000000000000e+03 2.000000000000e+05 1.950000000000e+05 4.153274422642e-01 5.846725577358e-01 6.594387007383e-04 -1.422247591307e-14 -5.606085297463e-05 2.537646416498e-15 
8.965517241379e-02 3.397391475741e+04 2.001925235875e+05 1.662186088301e+05 -1.036081253333e-03 1.001036081253e+00 -4.186944156807e-05 9.013377016950e-16 -1.110352733136e-04 -3.179504793890e-14 
1.793103448276e-01 4.999923281400e+04 2.001925246131e+05 1.501932917991e+05 9.744517194741e-03 9.902554828053e-01 -5.166954365809e-11 3.121237056546e-18 -5.613097411042e-10 1.137441016826e-13 
2.689655172414e-01 4.999999999212e+04 2.001925246135e+05 1.501925246214e+05 1.000000000280e-02 9.899999999972e-01 4.278532983254e-15 8.334765417359e-22 -4.253534670909e-13 1.472446057865e-15 
3.586206896552e-01 5.000000000000e+04 2.001925246138e+05 1.501925246138e+05 1.000000000000e-02 9.900000000000e-01 4.006982726932e-20 3.071990353107e-23 -3.818843691580e-13 2.271003722083e-15 
4.482758620690e-01 5.000000000000e+04 2.001925246142e+05 1.501925246142e+05 1.000000000000e-02 9.900000000000e-01 -3.871329584441e-21 -1.999236442254e-24 -3.798137193317e-13 3.129023481756e-16 
5.379310344828e-01 5.000000000000e+04 2.001925246145e+05 1.501925246145e+05 9.999999999999e-03 9.900000000000e-01 -3.838525050412e-21 1.714540317574e-23 -3.773007499701e-13 1.089681247059e-16 
6.275862068966e-01 5.000000000000e+04 2.001925246149e+05 1.501925246149e+05 9.999999999999e-03 9.900000000000e-01 -3.821096933148e-21 1.780729073491e-23 -3.732530909063e-13 -2.473238964739e-16 
7.172413793105e-01 5.000000000000e+04 2.001925246152e+05 1.501925246152e+05 1.000000000000e-02 9.900000000000e-01 -3.750195167991e-21 -1.179134113348e-23 -3.663276460583e-13 -3.145825382123e-17 
8.068965517245e-01 5.000000000000e+04 2.001925246156e+05 1.501925246156e+05 1.000000000000e-02 9.900000000000e-01 -3.632971059197e-21 -5.245681168742e-24 -3.564549051255e-13 3.195921921212e-18 
8.965517241385e-01 5.000000000000e+04 2.001925246159e+05 1.501925246159e+05 1.000000000000e-02 9.900000000000e-01 -3.506451178527e-21 -4.505989108164e-24 -3.435055664804e-13 -2.554441752405e-16 
9.862068965524e-01 5.000000000000e+04 2.001925246162e+05 1.501925246162e+05 1.000000000000e-02 9.900000000000e-01 -3.346284107598e-21 -9.896495744141e-24 -3.277442304334e-13 -1.883739815245e-16 
1.075862068966e+00 5.000000000000e+04 2.001925246165e+05 1.501925246165e+05 1.000000000000e-02 9.900000000000e-01 -3.160183682592e-21 -4.518646314624e-24 -3.099772271312e-13 8.226045703711e-17 
1.165517241380e+00 5.000000000000e+04 2.001925246168e+05 1.501925246168e+05 1.000000000000e-02 9.900000000000e-01 -2.971121272566e-21 -2.107160634261e-24 -2.909704856336e-13 -4.819471701243e-17 
1.255172413794e+00 5.000000000000e+04 2.001925246170e+05 1.501925246170e+05 1.000000000000e-02 9.900000000000e-01 -2.764260388493e-21 -1.115148405091e-23 -2.708130378956e-13 -1.919916445350e-16 
1.344827586208e+00 5.000000000000e+04 2.001925246172e+05 1.501925246172e+05 1.000000000000e-02 9.900000000000e-01 -2.548178776517e-21 -6.419807106811e-24 -2.500861739162e-13 -3.653141242078e-16 
1.434482758622e+00 5.000000000000e+04 2.001925246175e+05 1.501925246175e+05 1.000000000000e-02 9.900000000000e-01 -2.336807811013e-21 -3.761655916280e-24 -2.292458835003e-13 -2.791943936768e-16 
1.524137931036e+00 5.000000000000e+04 2.001925246177e+05 1.501925246177e+05 1.000000000000e-02 9.900000000000e-01 -2.125952460397e-21 -6.915499032037e-25 -2.082808540878e-13 -2.417375920232e-16 
1.613793103450e+00 5.000000000000e+04 2.001925246178e+05 1.501925246178e+05 1.000000000000e-02 9.900000000000e-01 -1.912345623380e-21 -4.680950080581e-24 -1.874449167607e-13 -3.249935255923e-16 
1.703448275863e+00 5.000000000000e+04 2.001925246180e+05 1.501925246180e+05 1.000000000000e-02 9.900000000000e-01 -1.701819122796e-21 -6.164333609938e-25 -1.667393651566e-13 -2.649632362565e-16 
1.793103448277e+00 5.000000000000e+04 2.001925246182e+05 1.501925246182e+05 1.000000000000e-02 9.900000000000e-01 -1.494684100908e-21 -5.160691793158e-24 -1.466192631790e-13 -2.763901777281e-16 
1.882758620691e+00 5.000000000000e+04 2.001925246183e+05 1.501925246183e+05 1.000000000000e-02 9.900000000000e-01 -1.291459639276e-21 6.288648121988e-25 -1.269818844601e-13 -4.332753160976e-16 
1.972413793105e+00 5.000000000000e+04 2.001925246184e+05 1.501925246184e+05 1.000000000000e-02 9.900000000000e-01 -1.104560937767e-21 2.905016224930e-24 -1.080956254685e-13 -3.630323923412e-16 
2.062068965518e+00 5.000000000000e+04 2.001925246185e+05 1.501925246185e+05 1.000000000000e-02 9.900000000000e-01 -9.230315577903e-22 -2.017622198700e-24 -9.035101352106e-14 -3.901446267142e-16 
2.151724137932e+00 5.000000000000e+04 2.001925246186e+05 1.501925246186e+05 1.000000000000e-02 9.900000000000e-01 -7.511463001049e-22 -7.625174547039e-25 -7.354123676221e-14 -4.467271221473e-16 
2.241379310346e+00 5.000000000000e+04 2.001925246186e+05 1.501925246186e+05 1.000000000000e-02 9.900000000000e-01 -5.905625961811e-22 -4.697223746260e-24 -5.762479239760e-14 -3.811847633919e-16 
2.331034482759e+00 5.000000000000e+04 2.001925246187e+05 1.501925246187e+05 1.000000000000e-02 9.900000000000e-01 -4.345635121260e-22 -5.021653408404e-24 -4.261457079758e-14 -4.342832030074e-16 
2.420689655173e+00 5.000000000000e+04 2.001925246187e+05 1.501925246187e+05 1.000000000000e-02 9.900000000000e-01 -2.853947312087e-22 -4.975983062473e-24 -2.796492978778e-14 -4.725953922501e-16 
2.510344827586e+00 5.000000000000e+04 2.001925246187e+05 1.501925246187e+05 1.000000000000e-02 9.900000000000e-01 -1.386058322393e-22 -4.101310584995e-24 -1.382550894074e-14 -3.533574596899e-16 
2.600000000000e+00 5.000000000000e+04 2.001925246187e+05 1.501925246187e+05 1.000000000000e-02 9.900000000000e-01 -6.505317964641e-23 2.579568224201e-25 -6.887214902382e-15 -3.120647182562e-16 
