 TITLE = "Profiles along polylines"
 VARIABLES = "DIST" "PRESSURE1" "PRESSURE2" "PRESSURE_W" "SATURATION1" SATURATION2 "VELOCITY_X1" "VELOCITY_Y1" "VELOCITY_X2" "VELOCITY_Y2" 
 ZONE T="TIME=0.000000000000e+00"
0.000000000000e+00 5.000000000000e+04 0.000000000000e+00 -5.000000000000e+04 1.000000000000e-02 9.900000000000e-01 0.000000000000e+00 0.000000000000e+00 0.000000000000e+00 0.000000000000e+00 
8.965517241379e-02 5.000000000000e+04 0.000000000000e+00 -5.000000000000e+04 1.000000000000e-02 9.900000000000e-01 0.000000000000e+00 0.000000000000e+00 0.000000000000e+00 0.000000000000e+00 
1.793103448276e-01 5.000000000000e+04 0.000000000000e+00 -5.000000000000e+04 1.000000000000e-02 9.900000000000e-01 0.000000000000e+00 0.000000000000e+00 0.000000000000e+00 0.000000000000e+00 
2.689655172414e-01 5.000000000000e+04 0.000000000000e+00 -5.000000000000e+04 1.000000000000e-02 9.900000000000e-01 0.000000000000e+00 0.000000000000e+00 0.000000000000e+00 0.000000000000e+00 
3.586206896552e-01 5.000000000000e+04 0.000000000000e+00 -5.000000000000e+04 1.000000000000e-02 9.900000000000e-01 0.000000000000e+00 0.000000000000e+00 0.000000000000e+00 0.000000000000e+00 
4.482758620690e-01 5.000000000000e+04 0.000000000000e+00 -5.000000000000e+04 1.000000000000e-02 9.900000000000e-01 0.000000000000e+00 0.000000000000e+00 0.000000000000e+00 0.000000000000e+00 
5.379310344828e-01 5.000000000000e+04 0.000000000000e+00 -5.000000000000e+04 1.000000000000e-02 9.900000000000e-01 0.000000000000e+00 0.000000000000e+00 0.000000000000e+00 0.000000000000e+00 
6.275862068966e-01 5.000000000000e+04 0.000000000000e+00 -5.000000000000e+04 1.000000000000e-02 9.900000000000e-01 0.000000000000e+00 0.000000000000e+00 0.000000000000e+00 0.000000000000e+00 
7.172413793105e-01 5.000000000000e+04 0.000000000000e+00 -5.000000000000e+04 1.000000000000e-02 9.900000000000e-01 0.000000000000e+00 0.000000000000e+00 0.000000000000e+00 0.000000000000e+00 
8.068965517245e-01 5.000000000000e+04 0.000000000000e+00 -5.000000000000e+04 1.000000000000e-02 9.900000000000e-01 0.000000000000e+00 0.000000000000e+00 0.000000000000e+00 0.000000000000e+00 
8.965517241385e-01 5.000000000000e+04 0.000000000000e+00 -5.000000000000e+04 1.000000000000e-02 9.900000000000e-01 0.000000000000e+00 0.000000000000e+00 0.000000000000e+00 0.000000000000e+00 
9.862068965524e-01 5.000000000000e+04 0.000000000000e+00 -5.000000000000e+04 1.000000000000e-02 9.900000000000e-01 0.000000000000e+00 0.000000000000e+00 0.000000000000e+00 0.000000000000e+00 
1.075862068966e+00 5.000000000000e+04 0.000000000000e+00 -5.000000000000e+04 1.000000000000e-02 9.900000000000e-01 0.000000000000e+00 0.000000000000e+00 0.000000000000e+00 0.000000000000e+00 
1.165517241380e+00 5.000000000000e+04 0.000000000000e+00 -5.000000000000e+04 1.000000000000e-02 9.900000000000e-01 0.000000000000e+00 0.000000000000e+00 0.000000000000e+00 0.000000000000e+00 
1.255172413794e+00 5.000000000000e+04 0.000000000000e+00 -5.000000000000e+04 1.000000000000e-02 9.900000000000e-01 0.000000000000e+00 0.000000000000e+00 0.000000000000e+00 0.000000000000e+00 
1.344827586208e+00 5.000000000000e+04 0.000000000000e+00 -5.000000000000e+04 1.000000000000e-02 9.900000000000e-01 0.000000000000e+00 0.000000000000e+00 0.000000000000e+00 0.000000000000e+00 
1.434482758622e+00 5.000000000000e+04 0.000000000000e+00 -5.000000000000e+04 1.000000000000e-02 9.900000000000e-01 0.000000000000e+00 0.000000000000e+00 0.000000000000e+00 0.000000000000e+00 
1.524137931036e+00 5.000000000000e+04 0.000000000000e+00 -5.000000000000e+04 1.000000000000e-02 9.900000000000e-01 0.000000000000e+00 0.000000000000e+00 0.000000000000e+00 0.000000000000e+00 
1.613793103450e+00 5.000000000000e+04 0.000000000000e+00 -5.000000000000e+04 1.000000000000e-02 9.900000000000e-01 0.000000000000e+00 0.000000000000e+00 0.000000000000e+00 0.000000000000e+00 
1.703448275863e+00 5.000000000000e+04 0.000000000000e+00 -5.000000000000e+04 1.000000000000e-02 9.900000000000e-01 0.000000000000e+00 0.000000000000e+00 0.000000000000e+00 0.000000000000e+00 
1.793103448277e+00 5.000000000000e+04 0.000000000000e+00 -5.000000000000e+04 1.000000000000e-02 9.900000000000e-01 0.000000000000e+00 0.000000000000e+00 0.000000000000e+00 0.000000000000e+00 
1.882758620691e+00 5.000000000000e+04 0.000000000000e+00 -5.000000000000e+04 1.000000000000e-02 9.900000000000e-01 0.000000000000e+00 0.000000000000e+00 0.000000000000e+00 0.000000000000e+00 
1.972413793105e+00 5.000000000000e+04 0.000000000000e+00 -5.000000000000e+04 1.000000000000e-02 9.900000000000e-01 0.000000000000e+00 0.000000000000e+00 0.000000000000e+00 0.000000000000e+00 
2.062068965518e+00 5.000000000000e+04 0.000000000000e+00 -5.000000000000e+04 1.000000000000e-02 9.900000000000e-01 0.000000000000e+00 0.000000000000e+00 0.000000000000e+00 0.000000000000e+00 
2.151724137932e+00 5.000000000000e+04 0.000000000000e+00 -5.000000000000e+04 1.000000000000e-02 9.900000000000e-01 0.000000000000e+00 0.000000000000e+00 0.000000000000e+00 0.000000000000e+00 
2.241379310346e+00 5.000000000000e+04 0.000000000000e+00 -5.000000000000e+04 1.000000000000e-02 9.900000000000e-01 0.000000000000e+00 0.000000000000e+00 0.000000000000e+00 0.000000000000e+00 
2.331034482759e+00 5.000000000000e+04 0.000000000000e+00 -5.000000000000e+04 1.000000000000e-02 9.900000000000e-01 0.000000000000e+00 0.000000000000e+00 0.000000000000e+00 0.000000000000e+00 
2.420689655173e+00 5.000000000000e+04 0.000000000000e+00 -5.000000000000e+04 1.000000000000e-02 9.900000000000e-01 0.000000000000e+00 0.000000000000e+00 0.000000000000e+00 0.000000000000e+00 
2.510344827586e+00 5.000000000000e+04 0.000000000000e+00 -5.000000000000e+04 1.000000000000e-02 9.900000000000e-01 0.000000000000e+00 0.000000000000e+00 0.000000000000e+00 0.000000000000e+00 
2.600000000000e+00 5.000000000000e+04 0.000000000000e+00 -5.000000000000e+04 1.000000000000e-02 9.900000000000e-01 0.000000000000e+00 0.000000000000e+00 0.000000000000e+00 0.000000000000e+00 
 TITLE = "Profiles along polylines"
 VARIABLES = "DIST" "PRESSURE1" "PRESSURE2" "PRESSURE_W" "SATURATION1" SATURATION2 "VELOCITY_X1" "VELOCITY_Y1" "VELOCITY_X2" "VELOCITY_Y2" 
 ZONE T="TIME=1.000000000000e+01"
0.000000000000e+00 5.000000000000e+03 2.000000000000e+05 1.950000000000e+05 4.153274420304e-01 5.846725579696e-01 6.594386997163e-04 7.778288356533e-14 -5.606085303283e-05 -1.015444945312e-14 
8.965517241379e-02 3.397391477827e+04 2.001925235875e+05 1.662186088092e+05 -1.036081268350e-03 1.001036081268e+00 -4.186944150321e-05 -4.927074798756e-15 -1.110352733910e-04 1.255993247965e-13 
1.793103448276e-01 4.999923282261e+04 2.001925246132e+05 1.501932917906e+05 9.744517192008e-03 9.902554828080e-01 -5.166954307131e-11 2.535091483749e-18 -5.614515935052e-10 1.004021347868e-13 
2.689655172414e-01 4.999999999201e+04 2.001925246137e+05 1.501925246217e+05 1.000000000284e-02 9.899999999972e-01 4.278484827990e-15 -4.205466118323e-22 -4.944913941477e-13 -2.525730974782e-15 
3.586206896552e-01 5.000000000011e+04 2.001925246141e+05 1.501925246140e+05 9.999999999957e-03 9.900000000000e-01 4.015183026855e-20 1.286735965098e-21 -4.336354460413e-13 -9.405671838747e-16 
4.482758620690e-01 5.000000000001e+04 2.001925246145e+05 1.501925246145e+05 9.999999999997e-03 9.900000000000e-01 -4.680683101350e-21 7.773394347740e-23 -4.318264036282e-13 -1.155342267974e-15 
5.379310344828e-01 5.000000000006e+04 2.001925246149e+05 1.501925246148e+05 9.999999999976e-03 9.900000000000e-01 -4.494766454350e-21 7.017852241953e-22 -4.285527767725e-13 -3.095900849608e-16 
6.275862068966e-01 4.999999999999e+04 2.001925246153e+05 1.501925246153e+05 1.000000000001e-02 9.900000000000e-01 -4.286409795831e-21 -1.687968588256e-22 -4.238286135302e-13 4.001880435238e-16 
7.172413793105e-01 5.000000000007e+04 2.001925246157e+05 1.501925246156e+05 9.999999999974e-03 9.900000000000e-01 -4.303655036894e-21 7.976889827494e-22 -4.175216210229e-13 1.010961156464e-15 
8.068965517245e-01 4.999999999998e+04 2.001925246161e+05 1.501925246161e+05 1.000000000001e-02 9.900000000000e-01 -4.051652574345e-21 -2.552893658709e-22 -4.095426547114e-13 1.222401150436e-15 
8.965517241385e-01 5.000000000009e+04 2.001925246164e+05 1.501925246163e+05 9.999999999965e-03 9.900000000000e-01 -4.139809570222e-21 1.077664260728e-21 -4.002909140538e-13 1.379225100244e-15 
9.862068965524e-01 4.999999999997e+04 2.001925246168e+05 1.501925246168e+05 1.000000000001e-02 9.900000000000e-01 -4.560464750131e-21 -3.747197269356e-22 -3.896873219308e-13 1.141634391224e-15 
1.075862068966e+00 4.999999999998e+04 2.001925246171e+05 1.501925246172e+05 1.000000000001e-02 9.900000000000e-01 -3.695002208726e-21 -1.852498334404e-22 -3.775820981118e-13 7.504025373753e-16 
1.165517241380e+00 5.000000000000e+04 2.001925246175e+05 1.501925246175e+05 1.000000000000e-02 9.900000000000e-01 -3.555662921312e-21 -4.468467599748e-23 -3.639944842900e-13 1.317437458790e-16 
1.255172413794e+00 5.000000000001e+04 2.001925246178e+05 1.501925246178e+05 9.999999999995e-03 9.900000000000e-01 -3.505633508060e-21 1.425990491833e-22 -3.489553594349e-13 -4.090234750293e-16 
1.344827586208e+00 5.000000000001e+04 2.001925246181e+05 1.501925246181e+05 9.999999999998e-03 9.900000000000e-01 -3.329980606234e-21 6.458807406813e-23 -3.323642335225e-13 -7.342631848235e-16 
1.434482758622e+00 5.000000000002e+04 2.001925246184e+05 1.501925246184e+05 9.999999999991e-03 9.900000000000e-01 -3.237569254148e-21 2.685564449168e-22 -3.143838313404e-13 -1.075370054233e-15 
1.524137931036e+00 5.000000000000e+04 2.001925246187e+05 1.501925246187e+05 1.000000000000e-02 9.900000000000e-01 -3.231220709213e-21 -2.480531977549e-24 -2.950662995983e-13 -1.129598868222e-15 
1.613793103450e+00 4.999999999998e+04 2.001925246190e+05 1.501925246190e+05 1.000000000001e-02 9.900000000000e-01 -2.815695918238e-21 -2.040900848161e-22 -2.746039942396e-13 -9.365715727963e-16 
1.703448275863e+00 5.000000000000e+04 2.001925246192e+05 1.501925246192e+05 1.000000000000e-02 9.900000000000e-01 -2.519879138679e-21 -2.686808934614e-23 -2.531409806033e-13 -6.271702942394e-16 
1.793103448277e+00 5.000000000000e+04 2.001925246194e+05 1.501925246194e+05 1.000000000000e-02 9.900000000000e-01 -2.313302520117e-21 -6.032292983091e-23 -2.307164943793e-13 -2.511203708441e-16 
1.882758620691e+00 5.000000000001e+04 2.001925246196e+05 1.501925246196e+05 9.999999999998e-03 9.900000000000e-01 -2.130082735331e-21 6.805386049216e-23 -2.072965815864e-13 5.003392875707e-17 
1.972413793105e+00 4.999999999999e+04 2.001925246198e+05 1.501925246198e+05 1.000000000000e-02 9.900000000000e-01 -1.904794421983e-21 -8.770129003716e-23 -1.830085677677e-13 2.778078026152e-16 
2.062068965518e+00 5.000000000000e+04 2.001925246200e+05 1.501925246200e+05 1.000000000000e-02 9.900000000000e-01 -1.563476102135e-21 -1.224527210565e-23 -1.579700871980e-13 1.967774937252e-16 
2.151724137932e+00 5.000000000000e+04 2.001925246201e+05 1.501925246201e+05 1.000000000000e-02 9.900000000000e-01 -1.355345027829e-21 1.364555259888e-23 -1.324835836840e-13 -2.636447711830e-17 
2.241379310346e+00 5.000000000000e+04 2.001925246202e+05 1.501925246202e+05 1.000000000000e-02 9.900000000000e-01 -1.107632355345e-21 -2.747561397627e-23 -1.065351068583e-13 -6.391147615593e-16 
2.331034482759e+00 5.000000000000e+04 2.001925246203e+05 1.501925246203e+05 1.000000000000e-02 9.900000000000e-01 -8.179962436646e-22 -4.163410951783e-23 -8.027891888147e-14 -1.127766436448e-15 
2.420689655173e+00 5.000000000000e+04 2.001925246203e+05 1.501925246203e+05 1.000000000000e-02 9.900000000000e-01 -5.363754591703e-22 -3.787573551151e-23 -5.365356273571e-14 -1.860768355530e-15 
2.510344827586e+00 5.000000000000e+04 2.001925246204e+05 1.501925246204e+05 1.000000000000e-02 9.900000000000e-01 -2.738178773725e-22 -2.833778797461e-23 -2.685248118798e-14 -2.257395007157e-15 
2.600000000000e+00 5.000000000000e+04 2.001925246204e+05 1.501925246204e+05 1.000000000000e-02 9.900000000000e-01 -1.499705986450e-22 -6.093850943623e-23 -1.351063079794e-14 -2.289214661140e-15 
