 TITLE = "Profiles along polylines"
 VARIABLES = "DIST" "PRESSURE1" "SATURATION1" "SATURATION2" 
 ZONE T="TIME=0.000000000000e+00"
0.000000000000e+00 9.806700000000e+04 1.000000000000e+00 0.000000000000e+00 
3.333333330000e-01 9.806700000000e+04 1.000000000000e+00 0.000000000000e+00 
6.666666670000e-01 9.806700000000e+04 1.000000000000e+00 0.000000000000e+00 
1.000000000000e+00 9.806700000000e+04 1.000000000000e+00 0.000000000000e+00 
1.333333333000e+00 9.806700000000e+04 1.000000000000e+00 0.000000000000e+00 
1.666666667000e+00 9.806700000000e+04 1.000000000000e+00 0.000000000000e+00 
2.000000000000e+00 9.806700000000e+04 1.000000000000e+00 0.000000000000e+00 
2.333333333000e+00 9.806700000000e+04 1.000000000000e+00 0.000000000000e+00 
2.666666667000e+00 9.806700000000e+04 1.000000000000e+00 0.000000000000e+00 
3.000000000000e+00 9.806700000000e+04 1.000000000000e+00 0.000000000000e+00 
3.333333333000e+00 9.806700000000e+04 1.000000000000e+00 0.000000000000e+00 
3.666666667000e+00 9.806700000000e+04 1.000000000000e+00 0.000000000000e+00 
4.000000000000e+00 9.806700000000e+04 1.000000000000e+00 0.000000000000e+00 
4.333333333000e+00 9.806700000000e+04 1.000000000000e+00 0.000000000000e+00 
4.666666667000e+00 9.806700000000e+04 1.000000000000e+00 0.000000000000e+00 
5.000000000000e+00 9.806700000000e+04 8.999977480000e-01 1.000022520000e-01 
5.333333333000e+00 9.806700000000e+04 8.999977480000e-01 1.000022520000e-01 
5.666666667000e+00 9.806700000000e+04 8.999977480000e-01 1.000022520000e-01 
6.000000000000e+00 9.806700000000e+04 8.999977480000e-01 1.000022520000e-01 
6.333333333000e+00 9.806700000000e+04 8.999977480000e-01 1.000022520000e-01 
6.666666667000e+00 9.806700000000e+04 8.999977480000e-01 1.000022520000e-01 
7.000000000000e+00 9.806700000000e+04 8.999977480000e-01 1.000022520000e-01 
7.333333333000e+00 9.806700000000e+04 8.999977480000e-01 1.000022520000e-01 
7.666666667000e+00 9.806700000000e+04 8.999977480000e-01 1.000022520000e-01 
8.000000000000e+00 9.806700000000e+04 8.999977480000e-01 1.000022520000e-01 
8.333333333000e+00 9.806700000000e+04 8.999977480000e-01 1.000022520000e-01 
8.666666667000e+00 9.806700000000e+04 8.999977480000e-01 1.000022520000e-01 
9.000000000000e+00 9.806700000000e+04 8.999977480000e-01 1.000022520000e-01 
9.333333333000e+00 9.806700000000e+04 8.999977480000e-01 1.000022520000e-01 
9.666666667000e+00 9.806700000000e+04 8.999977480000e-01 1.000022520000e-01 
1.000000000000e+01 9.806700000000e+04 8.999977480000e-01 1.000022520000e-01 
1.033333333000e+01 9.806700000000e+04 1.000000000000e+00 0.000000000000e+00 
1.066666667000e+01 9.806700000000e+04 1.000000000000e+00 0.000000000000e+00 
1.100000000000e+01 9.806700000000e+04 1.000000000000e+00 0.000000000000e+00 
1.133333333000e+01 9.806700000000e+04 1.000000000000e+00 0.000000000000e+00 
1.166666667000e+01 9.806700000000e+04 1.000000000000e+00 0.000000000000e+00 
1.200000000000e+01 9.806700000000e+04 1.000000000000e+00 0.000000000000e+00 
1.233333333000e+01 9.806700000000e+04 1.000000000000e+00 0.000000000000e+00 
1.266666667000e+01 9.806700000000e+04 1.000000000000e+00 0.000000000000e+00 
1.300000000000e+01 9.806700000000e+04 1.000000000000e+00 0.000000000000e+00 
1.333333333000e+01 9.806700000000e+04 1.000000000000e+00 0.000000000000e+00 
1.366666667000e+01 9.806700000000e+04 1.000000000000e+00 0.000000000000e+00 
1.400000000000e+01 9.806700000000e+04 1.000000000000e+00 0.000000000000e+00 
1.433333333000e+01 9.806700000000e+04 1.000000000000e+00 0.000000000000e+00 
1.466666667000e+01 9.806700000000e+04 1.000000000000e+00 0.000000000000e+00 
1.500000000000e+01 9.806700000000e+04 1.000000000000e+00 0.000000000000e+00 
1.533333333000e+01 9.806700000000e+04 1.000000000000e+00 0.000000000000e+00 
1.566666667000e+01 9.806700000000e+04 1.000000000000e+00 0.000000000000e+00 
1.600000000000e+01 9.806700000000e+04 1.000000000000e+00 0.000000000000e+00 
1.633333333000e+01 9.806700000000e+04 1.000000000000e+00 0.000000000000e+00 
1.666666667000e+01 9.806700000000e+04 1.000000000000e+00 0.000000000000e+00 
1.700000000000e+01 9.806700000000e+04 1.000000000000e+00 0.000000000000e+00 
1.733333333000e+01 9.806700000000e+04 1.000000000000e+00 0.000000000000e+00 
1.766666667000e+01 9.806700000000e+04 1.000000000000e+00 0.000000000000e+00 
1.800000000000e+01 9.806700000000e+04 1.000000000000e+00 0.000000000000e+00 
1.833333333000e+01 9.806700000000e+04 1.000000000000e+00 0.000000000000e+00 
1.866666667000e+01 9.806700000000e+04 1.000000000000e+00 0.000000000000e+00 
1.900000000000e+01 9.806700000000e+04 1.000000000000e+00 0.000000000000e+00 
1.933333333000e+01 9.806700000000e+04 1.000000000000e+00 0.000000000000e+00 
1.966666667000e+01 9.806700000000e+04 1.000000000000e+00 0.000000000000e+00 
2.000000000000e+01 9.806700000000e+04 1.000000000000e+00 0.000000000000e+00 
2.033333333000e+01 9.806700000000e+04 1.000000000000e+00 0.000000000000e+00 
2.066666667000e+01 9.806700000000e+04 1.000000000000e+00 0.000000000000e+00 
2.100000000000e+01 9.806700000000e+04 1.000000000000e+00 0.000000000000e+00 
2.133333333000e+01 9.806700000000e+04 1.000000000000e+00 0.000000000000e+00 
2.166666667000e+01 9.806700000000e+04 1.000000000000e+00 0.000000000000e+00 
2.200000000000e+01 9.806700000000e+04 1.000000000000e+00 0.000000000000e+00 
2.233333333000e+01 9.806700000000e+04 1.000000000000e+00 0.000000000000e+00 
2.266666667000e+01 9.806700000000e+04 1.000000000000e+00 0.000000000000e+00 
2.300000000000e+01 9.806700000000e+04 1.000000000000e+00 0.000000000000e+00 
2.333333333000e+01 9.806700000000e+04 1.000000000000e+00 0.000000000000e+00 
2.366666667000e+01 9.806700000000e+04 1.000000000000e+00 0.000000000000e+00 
2.400000000000e+01 9.806700000000e+04 1.000000000000e+00 0.000000000000e+00 
2.433333333000e+01 9.806700000000e+04 1.000000000000e+00 0.000000000000e+00 
2.466666667000e+01 9.806700000000e+04 1.000000000000e+00 0.000000000000e+00 
2.500000000000e+01 9.806700000000e+04 1.000000000000e+00 0.000000000000e+00 
2.533333333000e+01 9.806700000000e+04 1.000000000000e+00 0.000000000000e+00 
2.566666667000e+01 9.806700000000e+04 1.000000000000e+00 0.000000000000e+00 
2.600000000000e+01 9.806700000000e+04 1.000000000000e+00 0.000000000000e+00 
2.633333333000e+01 9.806700000000e+04 1.000000000000e+00 0.000000000000e+00 
2.666666667000e+01 9.806700000000e+04 1.000000000000e+00 0.000000000000e+00 
2.700000000000e+01 9.806700000000e+04 1.000000000000e+00 0.000000000000e+00 
2.733333333000e+01 9.806700000000e+04 1.000000000000e+00 0.000000000000e+00 
2.766666667000e+01 9.806700000000e+04 1.000000000000e+00 0.000000000000e+00 
2.800000000000e+01 9.806700000000e+04 1.000000000000e+00 0.000000000000e+00 
2.833333333000e+01 9.806700000000e+04 1.000000000000e+00 0.000000000000e+00 
2.866666667000e+01 9.806700000000e+04 1.000000000000e+00 0.000000000000e+00 
2.900000000000e+01 9.806700000000e+04 1.000000000000e+00 0.000000000000e+00 
2.933333333000e+01 9.806700000000e+04 1.000000000000e+00 0.000000000000e+00 
2.966666667000e+01 9.806700000000e+04 1.000000000000e+00 0.000000000000e+00 
3.000000000000e+01 9.806700000000e+04 1.000000000000e+00 0.000000000000e+00 
3.033333333000e+01 9.806700000000e+04 1.000000000000e+00 0.000000000000e+00 
3.066666667000e+01 9.806700000000e+04 1.000000000000e+00 0.000000000000e+00 
3.100000000000e+01 9.806700000000e+04 1.000000000000e+00 0.000000000000e+00 
3.133333333000e+01 9.806700000000e+04 1.000000000000e+00 0.000000000000e+00 
3.166666667000e+01 9.806700000000e+04 1.000000000000e+00 0.000000000000e+00 
3.200000000000e+01 9.806700000000e+04 1.000000000000e+00 0.000000000000e+00 
3.233333333000e+01 9.806700000000e+04 1.000000000000e+00 0.000000000000e+00 
3.266666667000e+01 9.806700000000e+04 1.000000000000e+00 0.000000000000e+00 
3.300000000000e+01 9.806700000000e+04 1.000000000000e+00 0.000000000000e+00 
3.333333333000e+01 9.806700000000e+04 1.000000000000e+00 0.000000000000e+00 
3.366666667000e+01 9.806700000000e+04 1.000000000000e+00 0.000000000000e+00 
3.400000000000e+01 9.806700000000e+04 1.000000000000e+00 0.000000000000e+00 
3.433333333000e+01 9.806700000000e+04 1.000000000000e+00 0.000000000000e+00 
3.466666667000e+01 9.806700000000e+04 1.000000000000e+00 0.000000000000e+00 
3.500000000000e+01 9.806700000000e+04 1.000000000000e+00 0.000000000000e+00 
3.533333333000e+01 9.806700000000e+04 1.000000000000e+00 0.000000000000e+00 
3.566666667000e+01 9.806700000000e+04 1.000000000000e+00 0.000000000000e+00 
3.600000000000e+01 9.806700000000e+04 1.000000000000e+00 0.000000000000e+00 
3.633333333000e+01 9.806700000000e+04 1.000000000000e+00 0.000000000000e+00 
3.666666667000e+01 9.806700000000e+04 1.000000000000e+00 0.000000000000e+00 
3.700000000000e+01 9.806700000000e+04 1.000000000000e+00 0.000000000000e+00 
3.733333333000e+01 9.806700000000e+04 1.000000000000e+00 0.000000000000e+00 
3.766666667000e+01 9.806700000000e+04 1.000000000000e+00 0.000000000000e+00 
3.800000000000e+01 9.806700000000e+04 1.000000000000e+00 0.000000000000e+00 
3.833333333000e+01 9.806700000000e+04 1.000000000000e+00 0.000000000000e+00 
3.866666667000e+01 9.806700000000e+04 1.000000000000e+00 0.000000000000e+00 
3.900000000000e+01 9.806700000000e+04 1.000000000000e+00 0.000000000000e+00 
3.933333333000e+01 9.806700000000e+04 1.000000000000e+00 0.000000000000e+00 
3.966666667000e+01 9.806700000000e+04 1.000000000000e+00 0.000000000000e+00 
4.000000000000e+01 9.806700000000e+04 1.000000000000e+00 0.000000000000e+00 
4.033333333000e+01 9.806700000000e+04 1.000000000000e+00 0.000000000000e+00 
4.066666667000e+01 9.806700000000e+04 1.000000000000e+00 0.000000000000e+00 
4.100000000000e+01 9.806700000000e+04 1.000000000000e+00 0.000000000000e+00 
4.133333333000e+01 9.806700000000e+04 1.000000000000e+00 0.000000000000e+00 
4.166666667000e+01 9.806700000000e+04 1.000000000000e+00 0.000000000000e+00 
4.200000000000e+01 9.806700000000e+04 1.000000000000e+00 0.000000000000e+00 
4.233333333000e+01 9.806700000000e+04 1.000000000000e+00 0.000000000000e+00 
4.266666667000e+01 9.806700000000e+04 1.000000000000e+00 0.000000000000e+00 
4.300000000000e+01 9.806700000000e+04 1.000000000000e+00 0.000000000000e+00 
4.333333333000e+01 9.806700000000e+04 1.000000000000e+00 0.000000000000e+00 
4.366666667000e+01 9.806700000000e+04 1.000000000000e+00 0.000000000000e+00 
4.400000000000e+01 9.806700000000e+04 1.000000000000e+00 0.000000000000e+00 
4.433333333000e+01 9.806700000000e+04 1.000000000000e+00 0.000000000000e+00 
4.466666667000e+01 9.806700000000e+04 1.000000000000e+00 0.000000000000e+00 
4.500000000000e+01 9.806700000000e+04 1.000000000000e+00 0.000000000000e+00 
4.533333333000e+01 9.806700000000e+04 1.000000000000e+00 0.000000000000e+00 
4.566666667000e+01 9.806700000000e+04 1.000000000000e+00 0.000000000000e+00 
4.600000000000e+01 9.806700000000e+04 1.000000000000e+00 0.000000000000e+00 
4.633333333000e+01 9.806700000000e+04 1.000000000000e+00 0.000000000000e+00 
4.666666667000e+01 9.806700000000e+04 1.000000000000e+00 0.000000000000e+00 
4.700000000000e+01 9.806700000000e+04 1.000000000000e+00 0.000000000000e+00 
4.733333333000e+01 9.806700000000e+04 1.000000000000e+00 0.000000000000e+00 
4.766666667000e+01 9.806700000000e+04 1.000000000000e+00 0.000000000000e+00 
4.800000000000e+01 9.806700000000e+04 1.000000000000e+00 0.000000000000e+00 
4.833333333000e+01 9.806700000000e+04 1.000000000000e+00 0.000000000000e+00 
4.866666667000e+01 9.806700000000e+04 1.000000000000e+00 0.000000000000e+00 
4.900000000000e+01 9.806700000000e+04 1.000000000000e+00 0.000000000000e+00 
4.933333333000e+01 9.806700000000e+04 1.000000000000e+00 0.000000000000e+00 
4.966666667000e+01 9.806700000000e+04 1.000000000000e+00 0.000000000000e+00 
5.000000000000e+01 9.806700000000e+04 1.000000000000e+00 0.000000000000e+00 
 TITLE = "Profiles along polylines"
 VARIABLES = "DIST" "PRESSURE1" "SATURATION1" "SATURATION2" 
 ZONE T="TIME=2.160000000000e+04"
0.000000000000e+00 9.810000000000e+04 1.000000000000e+00 0.000000000000e+00 
3.333333330000e-01 9.806924540926e+04 1.000000000000e+00 0.000000000000e+00 
6.666666670000e-01 9.803849081844e+04 1.000000000000e+00 0.000000000000e+00 
1.000000000000e+00 9.800773622770e+04 1.000000000000e+00 0.000000000000e+00 
1.333333333000e+00 9.797698163697e+04 1.000000000000e+00 0.000000000000e+00 
1.666666667000e+00 9.794622704614e+04 1.000000000000e+00 0.000000000000e+00 
2.000000000000e+00 9.791547245540e+04 1.000000000000e+00 0.000000000000e+00 
2.333333333000e+00 9.788471786467e+04 1.000000000000e+00 0.000000000000e+00 
2.666666667000e+00 9.785396327384e+04 1.000000000000e+00 0.000000000000e+00 
3.000000000000e+00 9.782320868311e+04 1.000000000000e+00 0.000000000000e+00 
3.333333333000e+00 9.779245409237e+04 1.000000000000e+00 0.000000000000e+00 
3.666666667000e+00 9.776169950154e+04 1.000000000000e+00 0.000000000000e+00 
4.000000000000e+00 9.773094491081e+04 1.000000000000e+00 0.000000000000e+00 
4.333333333000e+00 9.770019032007e+04 1.000000000000e+00 0.000000000000e+00 
4.666666667000e+00 9.766943572924e+04 1.000000000000e+00 0.000000000000e+00 
5.000000000000e+00 9.763109328719e+04 8.999977480000e-01 1.000022520000e-01 
5.333333333000e+00 9.758189631790e+04 8.999977480000e-01 1.000022520000e-01 
5.666666667000e+00 9.753269934847e+04 8.999977480000e-01 1.000022520000e-01 
6.000000000000e+00 9.748350237919e+04 8.999977480000e-01 1.000022520000e-01 
6.333333333000e+00 9.743430540991e+04 8.999977480000e-01 1.000022520000e-01 
6.666666667000e+00 9.738510844048e+04 8.999977480000e-01 1.000022520000e-01 
7.000000000000e+00 9.733591147120e+04 8.999977480000e-01 1.000022520000e-01 
7.333333333000e+00 9.728671450191e+04 8.999977480000e-01 1.000022520000e-01 
7.666666667000e+00 9.723751753248e+04 8.999977480000e-01 1.000022520000e-01 
8.000000000000e+00 9.718832056320e+04 8.999977480000e-01 1.000022520000e-01 
8.333333333000e+00 9.713912359392e+04 8.999977480000e-01 1.000022520000e-01 
8.666666667000e+00 9.708992662449e+04 8.999977480000e-01 1.000022520000e-01 
9.000000000000e+00 9.704072965520e+04 8.999977480000e-01 1.000022520000e-01 
9.333333333000e+00 9.699153268592e+04 8.999977480000e-01 1.000022520000e-01 
9.666666667000e+00 9.694233571649e+04 8.999977480000e-01 1.000022520000e-01 
1.000000000000e+01 9.689313874720e+04 8.999977480000e-01 1.000022520000e-01 
1.033333333000e+01 9.685479630548e+04 1.000000000000e+00 0.000000000000e+00 
1.066666667000e+01 9.682404171410e+04 1.000000000000e+00 0.000000000000e+00 
1.100000000000e+01 9.679328712364e+04 1.000000000000e+00 0.000000000000e+00 
1.133333333000e+01 9.676253253318e+04 1.000000000000e+00 0.000000000000e+00 
1.166666667000e+01 9.673177794179e+04 1.000000000000e+00 0.000000000000e+00 
1.200000000000e+01 9.670102335133e+04 1.000000000000e+00 0.000000000000e+00 
1.233333333000e+01 9.667026876086e+04 1.000000000000e+00 0.000000000000e+00 
1.266666667000e+01 9.663951416948e+04 1.000000000000e+00 0.000000000000e+00 
1.300000000000e+01 9.660875957901e+04 1.000000000000e+00 0.000000000000e+00 
1.333333333000e+01 9.657800498855e+04 1.000000000000e+00 0.000000000000e+00 
1.366666667000e+01 9.654725039716e+04 1.000000000000e+00 0.000000000000e+00 
1.400000000000e+01 9.651649580670e+04 1.000000000000e+00 0.000000000000e+00 
1.433333333000e+01 9.648574121623e+04 1.000000000000e+00 0.000000000000e+00 
1.466666667000e+01 9.645498662484e+04 1.000000000000e+00 0.000000000000e+00 
1.500000000000e+01 9.642423203437e+04 1.000000000000e+00 0.000000000000e+00 
1.533333333000e+01 9.639347744391e+04 1.000000000000e+00 0.000000000000e+00 
1.566666667000e+01 9.636272285252e+04 1.000000000000e+00 0.000000000000e+00 
1.600000000000e+01 9.633196826205e+04 1.000000000000e+00 0.000000000000e+00 
1.633333333000e+01 9.630121367158e+04 1.000000000000e+00 0.000000000000e+00 
1.666666667000e+01 9.627045908019e+04 1.000000000000e+00 0.000000000000e+00 
1.700000000000e+01 9.623970448972e+04 1.000000000000e+00 0.000000000000e+00 
1.733333333000e+01 9.620894989924e+04 1.000000000000e+00 0.000000000000e+00 
1.766666667000e+01 9.617819530785e+04 1.000000000000e+00 0.000000000000e+00 
1.800000000000e+01 9.614744071738e+04 1.000000000000e+00 0.000000000000e+00 
1.833333333000e+01 9.611668612691e+04 1.000000000000e+00 0.000000000000e+00 
1.866666667000e+01 9.608593153551e+04 1.000000000000e+00 0.000000000000e+00 
1.900000000000e+01 9.605517694504e+04 1.000000000000e+00 0.000000000000e+00 
1.933333333000e+01 9.602442235456e+04 1.000000000000e+00 0.000000000000e+00 
1.966666667000e+01 9.599366776316e+04 1.000000000000e+00 0.000000000000e+00 
2.000000000000e+01 9.596291317269e+04 1.000000000000e+00 0.000000000000e+00 
2.033333333000e+01 9.593215858221e+04 1.000000000000e+00 0.000000000000e+00 
2.066666667000e+01 9.590140399081e+04 1.000000000000e+00 0.000000000000e+00 
2.100000000000e+01 9.587064940033e+04 1.000000000000e+00 0.000000000000e+00 
2.133333333000e+01 9.583989480985e+04 1.000000000000e+00 0.000000000000e+00 
2.166666667000e+01 9.580914021845e+04 1.000000000000e+00 0.000000000000e+00 
2.200000000000e+01 9.577838562797e+04 1.000000000000e+00 0.000000000000e+00 
2.233333333000e+01 9.574763103748e+04 1.000000000000e+00 0.000000000000e+00 
2.266666667000e+01 9.571687644608e+04 1.000000000000e+00 0.000000000000e+00 
2.300000000000e+01 9.568612185560e+04 1.000000000000e+00 0.000000000000e+00 
2.333333333000e+01 9.565536726511e+04 1.000000000000e+00 0.000000000000e+00 
2.366666667000e+01 9.562461267370e+04 1.000000000000e+00 0.000000000000e+00 
2.400000000000e+01 9.559385808322e+04 1.000000000000e+00 0.000000000000e+00 
2.433333333000e+01 9.556310349273e+04 1.000000000000e+00 0.000000000000e+00 
2.466666667000e+01 9.553234890132e+04 1.000000000000e+00 0.000000000000e+00 
2.500000000000e+01 9.550159431083e+04 1.000000000000e+00 0.000000000000e+00 
2.533333333000e+01 9.547083972034e+04 1.000000000000e+00 0.000000000000e+00 
2.566666667000e+01 9.544008512893e+04 1.000000000000e+00 0.000000000000e+00 
2.600000000000e+01 9.540933053844e+04 1.000000000000e+00 0.000000000000e+00 
2.633333333000e+01 9.537857594795e+04 1.000000000000e+00 0.000000000000e+00 
2.666666667000e+01 9.534782135653e+04 1.000000000000e+00 0.000000000000e+00 
2.700000000000e+01 9.531706676604e+04 1.000000000000e+00 0.000000000000e+00 
2.733333333000e+01 9.528631217555e+04 1.000000000000e+00 0.000000000000e+00 
2.766666667000e+01 9.525555758413e+04 1.000000000000e+00 0.000000000000e+00 
2.800000000000e+01 9.522480299364e+04 1.000000000000e+00 0.000000000000e+00 
2.833333333000e+01 9.519404840314e+04 1.000000000000e+00 0.000000000000e+00 
2.866666667000e+01 9.516329381172e+04 1.000000000000e+00 0.000000000000e+00 
2.900000000000e+01 9.513253922123e+04 1.000000000000e+00 0.000000000000e+00 
2.933333333000e+01 9.510178463073e+04 1.000000000000e+00 0.000000000000e+00 
2.966666667000e+01 9.507103003931e+04 1.000000000000e+00 0.000000000000e+00 
3.000000000000e+01 9.504027544881e+04 1.000000000000e+00 0.000000000000e+00 
3.033333333000e+01 9.500952085831e+04 1.000000000000e+00 0.000000000000e+00 
3.066666667000e+01 9.497876626689e+04 1.000000000000e+00 0.000000000000e+00 
3.100000000000e+01 9.494801167639e+04 1.000000000000e+00 0.000000000000e+00 
3.133333333000e+01 9.491725708589e+04 1.000000000000e+00 0.000000000000e+00 
3.166666667000e+01 9.488650249446e+04 1.000000000000e+00 0.000000000000e+00 
3.200000000000e+01 9.485574790396e+04 1.000000000000e+00 0.000000000000e+00 
3.233333333000e+01 9.482499331346e+04 1.000000000000e+00 0.000000000000e+00 
3.266666667000e+01 9.479423872203e+04 1.000000000000e+00 0.000000000000e+00 
3.300000000000e+01 9.476348413153e+04 1.000000000000e+00 0.000000000000e+00 
3.333333333000e+01 9.473272954103e+04 1.000000000000e+00 0.000000000000e+00 
3.366666667000e+01 9.470197494960e+04 1.000000000000e+00 0.000000000000e+00 
3.400000000000e+01 9.467122035910e+04 1.000000000000e+00 0.000000000000e+00 
3.433333333000e+01 9.464046576859e+04 1.000000000000e+00 0.000000000000e+00 
3.466666667000e+01 9.460971117717e+04 1.000000000000e+00 0.000000000000e+00 
3.500000000000e+01 9.457895658666e+04 1.000000000000e+00 0.000000000000e+00 
3.533333333000e+01 9.454820199616e+04 1.000000000000e+00 0.000000000000e+00 
3.566666667000e+01 9.451744740473e+04 1.000000000000e+00 0.000000000000e+00 
3.600000000000e+01 9.448669281422e+04 1.000000000000e+00 0.000000000000e+00 
3.633333333000e+01 9.445593822372e+04 1.000000000000e+00 0.000000000000e+00 
3.666666667000e+01 9.442518363229e+04 1.000000000000e+00 0.000000000000e+00 
3.700000000000e+01 9.439442904178e+04 1.000000000000e+00 0.000000000000e+00 
3.733333333000e+01 9.436367445128e+04 1.000000000000e+00 0.000000000000e+00 
3.766666667000e+01 9.433291985985e+04 1.000000000000e+00 0.000000000000e+00 
3.800000000000e+01 9.430216526934e+04 1.000000000000e+00 0.000000000000e+00 
3.833333333000e+01 9.427141067884e+04 1.000000000000e+00 0.000000000000e+00 
3.866666667000e+01 9.424065608741e+04 1.000000000000e+00 0.000000000000e+00 
3.900000000000e+01 9.420990149690e+04 1.000000000000e+00 0.000000000000e+00 
3.933333333000e+01 9.417914690639e+04 1.000000000000e+00 0.000000000000e+00 
3.966666667000e+01 9.414839231496e+04 1.000000000000e+00 0.000000000000e+00 
4.000000000000e+01 9.411763772446e+04 1.000000000000e+00 0.000000000000e+00 
4.033333333000e+01 9.408688313395e+04 1.000000000000e+00 0.000000000000e+00 
4.066666667000e+01 9.405612854252e+04 1.000000000000e+00 0.000000000000e+00 
4.100000000000e+01 9.402537395201e+04 1.000000000000e+00 0.000000000000e+00 
4.133333333000e+01 9.399461936150e+04 1.000000000000e+00 0.000000000000e+00 
4.166666667000e+01 9.396386477007e+04 1.000000000000e+00 0.000000000000e+00 
4.200000000000e+01 9.393311017957e+04 1.000000000000e+00 0.000000000000e+00 
4.233333333000e+01 9.390235558906e+04 1.000000000000e+00 0.000000000000e+00 
4.266666667000e+01 9.387160099763e+04 1.000000000000e+00 0.000000000000e+00 
4.300000000000e+01 9.384084640712e+04 1.000000000000e+00 0.000000000000e+00 
4.333333333000e+01 9.381009181661e+04 1.000000000000e+00 0.000000000000e+00 
4.366666667000e+01 9.377933722518e+04 1.000000000000e+00 0.000000000000e+00 
4.400000000000e+01 9.374858263468e+04 1.000000000000e+00 0.000000000000e+00 
4.433333333000e+01 9.371782804417e+04 1.000000000000e+00 0.000000000000e+00 
4.466666667000e+01 9.368707345274e+04 1.000000000000e+00 0.000000000000e+00 
4.500000000000e+01 9.365631886223e+04 1.000000000000e+00 0.000000000000e+00 
4.533333333000e+01 9.362556427172e+04 1.000000000000e+00 0.000000000000e+00 
4.566666667000e+01 9.359480968029e+04 1.000000000000e+00 0.000000000000e+00 
4.600000000000e+01 9.356405508978e+04 1.000000000000e+00 0.000000000000e+00 
4.633333333000e+01 9.353330049928e+04 1.000000000000e+00 0.000000000000e+00 
4.666666667000e+01 9.350254590785e+04 1.000000000000e+00 0.000000000000e+00 
4.700000000000e+01 9.347179131734e+04 1.000000000000e+00 0.000000000000e+00 
4.733333333000e+01 9.344103672683e+04 1.000000000000e+00 0.000000000000e+00 
4.766666667000e+01 9.341028213540e+04 1.000000000000e+00 0.000000000000e+00 
4.800000000000e+01 9.337952754489e+04 1.000000000000e+00 0.000000000000e+00 
4.833333333000e+01 9.334877295438e+04 1.000000000000e+00 0.000000000000e+00 
4.866666667000e+01 9.331801836295e+04 1.000000000000e+00 0.000000000000e+00 
4.900000000000e+01 9.328726377245e+04 1.000000000000e+00 0.000000000000e+00 
4.933333333000e+01 9.325650918194e+04 1.000000000000e+00 0.000000000000e+00 
4.966666667000e+01 9.322575459051e+04 1.000000000000e+00 0.000000000000e+00 
5.000000000000e+01 9.319500000000e+04 1.000000000000e+00 0.000000000000e+00 
 ZONE T="TIME=4.320000000000e+04"
0.000000000000e+00 9.810000000000e+04 1.000000000000e+00 0.000000000000e+00 
3.333333330000e-01 9.806924540926e+04 1.000000000000e+00 0.000000000000e+00 
6.666666670000e-01 9.803849081844e+04 1.000000000000e+00 0.000000000000e+00 
1.000000000000e+00 9.800773622770e+04 1.000000000000e+00 0.000000000000e+00 
1.333333333000e+00 9.797698163697e+04 1.000000000000e+00 0.000000000000e+00 
1.666666667000e+00 9.794622704614e+04 1.000000000000e+00 0.000000000000e+00 
2.000000000000e+00 9.791547245540e+04 1.000000000000e+00 0.000000000000e+00 
2.333333333000e+00 9.788471786467e+04 1.000000000000e+00 0.000000000000e+00 
2.666666667000e+00 9.785396327384e+04 1.000000000000e+00 0.000000000000e+00 
3.000000000000e+00 9.782320868311e+04 1.000000000000e+00 0.000000000000e+00 
3.333333333000e+00 9.779245409237e+04 1.000000000000e+00 0.000000000000e+00 
3.666666667000e+00 9.776169950154e+04 1.000000000000e+00 0.000000000000e+00 
4.000000000000e+00 9.773094491081e+04 1.000000000000e+00 0.000000000000e+00 
4.333333333000e+00 9.770019032007e+04 1.000000000000e+00 0.000000000000e+00 
4.666666667000e+00 9.766943572924e+04 1.000000000000e+00 0.000000000000e+00 
5.000000000000e+00 9.763109328719e+04 8.999977480000e-01 1.000022520000e-01 
5.333333333000e+00 9.758189631790e+04 8.999977480000e-01 1.000022520000e-01 
5.666666667000e+00 9.753269934847e+04 8.999977480000e-01 1.000022520000e-01 
6.000000000000e+00 9.748350237919e+04 8.999977480000e-01 1.000022520000e-01 
6.333333333000e+00 9.743430540991e+04 8.999977480000e-01 1.000022520000e-01 
6.666666667000e+00 9.738510844048e+04 8.999977480000e-01 1.000022520000e-01 
7.000000000000e+00 9.733591147120e+04 8.999977480000e-01 1.000022520000e-01 
7.333333333000e+00 9.728671450191e+04 8.999977480000e-01 1.000022520000e-01 
7.666666667000e+00 9.723751753248e+04 8.999977480000e-01 1.000022520000e-01 
8.000000000000e+00 9.718832056320e+04 8.999977480000e-01 1.000022520000e-01 
8.333333333000e+00 9.713912359392e+04 8.999977480000e-01 1.000022520000e-01 
8.666666667000e+00 9.708992662449e+04 8.999977480000e-01 1.000022520000e-01 
9.000000000000e+00 9.704072965520e+04 8.999977480000e-01 1.000022520000e-01 
9.333333333000e+00 9.699153268592e+04 8.999977480000e-01 1.000022520000e-01 
9.666666667000e+00 9.694233571649e+04 8.999977480000e-01 1.000022520000e-01 
1.000000000000e+01 9.689313874720e+04 8.999977480000e-01 1.000022520000e-01 
1.033333333000e+01 9.685479630548e+04 1.000000000000e+00 0.000000000000e+00 
1.066666667000e+01 9.682404171410e+04 1.000000000000e+00 0.000000000000e+00 
1.100000000000e+01 9.679328712364e+04 1.000000000000e+00 0.000000000000e+00 
1.133333333000e+01 9.676253253318e+04 1.000000000000e+00 0.000000000000e+00 
1.166666667000e+01 9.673177794179e+04 1.000000000000e+00 0.000000000000e+00 
1.200000000000e+01 9.670102335133e+04 1.000000000000e+00 0.000000000000e+00 
1.233333333000e+01 9.667026876086e+04 1.000000000000e+00 0.000000000000e+00 
1.266666667000e+01 9.663951416948e+04 1.000000000000e+00 0.000000000000e+00 
1.300000000000e+01 9.660875957901e+04 1.000000000000e+00 0.000000000000e+00 
1.333333333000e+01 9.657800498855e+04 1.000000000000e+00 0.000000000000e+00 
1.366666667000e+01 9.654725039716e+04 1.000000000000e+00 0.000000000000e+00 
1.400000000000e+01 9.651649580670e+04 1.000000000000e+00 0.000000000000e+00 
1.433333333000e+01 9.648574121623e+04 1.000000000000e+00 0.000000000000e+00 
1.466666667000e+01 9.645498662484e+04 1.000000000000e+00 0.000000000000e+00 
1.500000000000e+01 9.642423203437e+04 1.000000000000e+00 0.000000000000e+00 
1.533333333000e+01 9.639347744391e+04 1.000000000000e+00 0.000000000000e+00 
1.566666667000e+01 9.636272285252e+04 1.000000000000e+00 0.000000000000e+00 
1.600000000000e+01 9.633196826205e+04 1.000000000000e+00 0.000000000000e+00 
1.633333333000e+01 9.630121367158e+04 1.000000000000e+00 0.000000000000e+00 
1.666666667000e+01 9.627045908019e+04 1.000000000000e+00 0.000000000000e+00 
1.700000000000e+01 9.623970448972e+04 1.000000000000e+00 0.000000000000e+00 
1.733333333000e+01 9.620894989924e+04 1.000000000000e+00 0.000000000000e+00 
1.766666667000e+01 9.617819530785e+04 1.000000000000e+00 0.000000000000e+00 
1.800000000000e+01 9.614744071738e+04 1.000000000000e+00 0.000000000000e+00 
1.833333333000e+01 9.611668612691e+04 1.000000000000e+00 0.000000000000e+00 
1.866666667000e+01 9.608593153551e+04 1.000000000000e+00 0.000000000000e+00 
1.900000000000e+01 9.605517694504e+04 1.000000000000e+00 0.000000000000e+00 
1.933333333000e+01 9.602442235456e+04 1.000000000000e+00 0.000000000000e+00 
1.966666667000e+01 9.599366776316e+04 1.000000000000e+00 0.000000000000e+00 
2.000000000000e+01 9.596291317269e+04 1.000000000000e+00 0.000000000000e+00 
2.033333333000e+01 9.593215858221e+04 1.000000000000e+00 0.000000000000e+00 
2.066666667000e+01 9.590140399081e+04 1.000000000000e+00 0.000000000000e+00 
2.100000000000e+01 9.587064940033e+04 1.000000000000e+00 0.000000000000e+00 
2.133333333000e+01 9.583989480985e+04 1.000000000000e+00 0.000000000000e+00 
2.166666667000e+01 9.580914021845e+04 1.000000000000e+00 0.000000000000e+00 
2.200000000000e+01 9.577838562797e+04 1.000000000000e+00 0.000000000000e+00 
2.233333333000e+01 9.574763103748e+04 1.000000000000e+00 0.000000000000e+00 
2.266666667000e+01 9.571687644608e+04 1.000000000000e+00 0.000000000000e+00 
2.300000000000e+01 9.568612185560e+04 1.000000000000e+00 0.000000000000e+00 
2.333333333000e+01 9.565536726511e+04 1.000000000000e+00 0.000000000000e+00 
2.366666667000e+01 9.562461267370e+04 1.000000000000e+00 0.000000000000e+00 
2.400000000000e+01 9.559385808322e+04 1.000000000000e+00 0.000000000000e+00 
2.433333333000e+01 9.556310349273e+04 1.000000000000e+00 0.000000000000e+00 
2.466666667000e+01 9.553234890132e+04 1.000000000000e+00 0.000000000000e+00 
2.500000000000e+01 9.550159431083e+04 1.000000000000e+00 0.000000000000e+00 
2.533333333000e+01 9.547083972034e+04 1.000000000000e+00 0.000000000000e+00 
2.566666667000e+01 9.544008512893e+04 1.000000000000e+00 0.000000000000e+00 
2.600000000000e+01 9.540933053844e+04 1.000000000000e+00 0.000000000000e+00 
2.633333333000e+01 9.537857594795e+04 1.000000000000e+00 0.000000000000e+00 
2.666666667000e+01 9.534782135653e+04 1.000000000000e+00 0.000000000000e+00 
2.700000000000e+01 9.531706676604e+04 1.000000000000e+00 0.000000000000e+00 
2.733333333000e+01 9.528631217555e+04 1.000000000000e+00 0.000000000000e+00 