VARIABLES  = "X","Y","Z", "PRESSURE1", "PRESSURE2", "SATURATION1", "SATURATION2"
ZONE T="0.000000000000e+00s", N=61, E=60, F=FEPOINT, ET=QUADRILATERAL
STRANDID=1, SOLUTIONTIME=0.000000000000e+00
0.000000000000e+00 0.000000000000e+00 0.000000000000e+00 -2.156000000000e+04 -2.156000000000e+04 3.200622360446e-01 1.331375929327e-01 
0.000000000000e+00 0.000000000000e+00 1.000000000000e-02 -2.165800000000e+04 -2.165800000000e+04 3.195293663827e-01 1.329000918360e-01 
0.000000000000e+00 0.000000000000e+00 2.000000000000e-02 -2.175600000000e+04 -2.175600000000e+04 3.184674575122e-01 1.324269787205e-01 
0.000000000000e+00 0.000000000000e+00 3.000000000000e-02 -2.185400000000e+04 -2.185400000000e+04 3.174131685057e-01 1.319576205934e-01 
0.000000000000e+00 0.000000000000e+00 4.000000000000e-02 -2.195200000000e+04 -2.195200000000e+04 3.163664178474e-01 1.314919715022e-01 
0.000000000000e+00 0.000000000000e+00 5.000000000000e-02 -2.205000000000e+04 -2.205000000000e+04 3.153271251503e-01 1.310299862510e-01 
0.000000000000e+00 0.000000000000e+00 6.000000000000e-02 -2.214800000000e+04 -2.214800000000e+04 3.142952111378e-01 1.305716203848e-01 
0.000000000000e+00 0.000000000000e+00 7.000000000000e-02 -2.224600000000e+04 -2.224600000000e+04 3.132705976247e-01 1.301168301746e-01 
0.000000000000e+00 0.000000000000e+00 8.000000000000e-02 -2.234400000000e+04 -2.234400000000e+04 3.122532075000e-01 1.296655726023e-01 
0.000000000000e+00 0.000000000000e+00 9.000000000000e-02 -2.244200000000e+04 -2.244200000000e+04 3.112429647089e-01 1.292178053465e-01 
0.000000000000e+00 0.000000000000e+00 1.000000000000e-01 -2.254000000000e+04 -2.254000000000e+04 3.102397942354e-01 1.287734867679e-01 
0.000000000000e+00 0.000000000000e+00 1.100000000000e-01 -2.263800000000e+04 -2.263800000000e+04 3.092436220857e-01 1.283325758961e-01 
0.000000000000e+00 0.000000000000e+00 1.200000000000e-01 -2.273600000000e+04 -2.273600000000e+04 3.082543752711e-01 1.278950324155e-01 
0.000000000000e+00 0.000000000000e+00 1.300000000000e-01 -2.283400000000e+04 -2.283400000000e+04 3.072719817919e-01 1.274608166528e-01 
0.000000000000e+00 0.000000000000e+00 1.400000000000e-01 -2.293200000000e+04 -2.293200000000e+04 3.062963706212e-01 1.270298895638e-01 
0.000000000000e+00 0.000000000000e+00 1.500000000000e-01 -2.303000000000e+04 -2.303000000000e+04 3.053274716892e-01 1.266022127211e-01 
0.000000000000e+00 0.000000000000e+00 1.600000000000e-01 -2.312800000000e+04 -2.312800000000e+04 3.043652158676e-01 1.261777483016e-01 
0.000000000000e+00 0.000000000000e+00 1.700000000000e-01 -2.322600000000e+04 -2.322600000000e+04 3.034095349547e-01 1.257564590751e-01 
0.000000000000e+00 0.000000000000e+00 1.800000000000e-01 -2.332400000000e+04 -2.332400000000e+04 3.024603616600e-01 1.253383083920e-01 
0.000000000000e+00 0.000000000000e+00 1.900000000000e-01 -2.342200000000e+04 -2.342200000000e+04 3.015176295900e-01 1.249232601724e-01 
0.000000000000e+00 0.000000000000e+00 2.000000000000e-01 -2.352000000000e+04 -2.352000000000e+04 3.005812732335e-01 1.245112788951e-01 
0.000000000000e+00 0.000000000000e+00 2.100000000000e-01 -2.361800000000e+04 -2.361800000000e+04 2.996512279478e-01 1.241023295863e-01 
0.000000000000e+00 0.000000000000e+00 2.200000000000e-01 -2.371600000000e+04 -2.371600000000e+04 2.987274299444e-01 1.236963778093e-01 
0.000000000000e+00 0.000000000000e+00 2.300000000000e-01 -2.381400000000e+04 -2.381400000000e+04 2.978098162758e-01 1.232933896543e-01 
0.000000000000e+00 0.000000000000e+00 2.400000000000e-01 -2.391200000000e+04 -2.391200000000e+04 2.968983248220e-01 1.228933317279e-01 
0.000000000000e+00 0.000000000000e+00 2.500000000000e-01 -2.401000000000e+04 -2.401000000000e+04 2.959928942771e-01 1.224961711436e-01 
0.000000000000e+00 0.000000000000e+00 2.600000000000e-01 -2.410800000000e+04 -2.410800000000e+04 2.950934641370e-01 1.221018755122e-01 
0.000000000000e+00 0.000000000000e+00 2.700000000000e-01 -2.420600000000e+04 -2.420600000000e+04 2.941999746860e-01 1.217104129317e-01 
0.000000000000e+00 0.000000000000e+00 2.800000000000e-01 -2.430400000000e+04 -2.430400000000e+04 2.933123669852e-01 1.213217519792e-01 
0.000000000000e+00 0.000000000000e+00 2.900000000000e-01 -2.440200000000e+04 -2.440200000000e+04 2.924305828596e-01 1.209358617007e-01 
0.000000000000e+00 0.000000000000e+00 3.000000000000e-01 -2.450000000000e+04 -2.450000000000e+04 2.915545648864e-01 1.205527116035e-01 
0.000000000000e+00 0.000000000000e+00 3.100000000000e-01 -2.459800000000e+04 -2.459800000000e+04 2.906842563834e-01 1.201722716464e-01 
0.000000000000e+00 0.000000000000e+00 3.200000000000e-01 -2.469600000000e+04 -2.469600000000e+04 2.898196013971e-01 1.197945122324e-01 
0.000000000000e+00 0.000000000000e+00 3.300000000000e-01 -2.479400000000e+04 -2.479400000000e+04 2.889605446916e-01 1.194194041997e-01 
0.000000000000e+00 0.000000000000e+00 3.400000000000e-01 -2.489200000000e+04 -2.489200000000e+04 2.881070317374e-01 1.190469188140e-01 
0.000000000000e+00 0.000000000000e+00 3.500000000000e-01 -2.499000000000e+04 -2.499000000000e+04 2.872590087003e-01 1.186770277606e-01 
0.000000000000e+00 0.000000000000e+00 3.600000000000e-01 -2.508800000000e+04 -2.508800000000e+04 2.864164224309e-01 1.183097031367e-01 
0.000000000000e+00 0.000000000000e+00 3.700000000000e-01 -2.518600000000e+04 -2.518600000000e+04 2.855792204538e-01 1.179449174438e-01 
0.000000000000e+00 0.000000000000e+00 3.800000000000e-01 -2.528400000000e+04 -2.528400000000e+04 2.847473509575e-01 1.175826435806e-01 
0.000000000000e+00 0.000000000000e+00 3.900000000000e-01 -2.538200000000e+04 -2.538200000000e+04 2.839207627839e-01 1.172228548355e-01 
0.000000000000e+00 0.000000000000e+00 4.000000000000e-01 -2.548000000000e+04 -2.548000000000e+04 2.830994054185e-01 1.168655248798e-01 
0.000000000000e+00 0.000000000000e+00 4.100000000000e-01 -2.557800000000e+04 -2.557800000000e+04 2.822832289804e-01 1.165106277606e-01 
0.000000000000e+00 0.000000000000e+00 4.200000000000e-01 -2.567600000000e+04 -2.567600000000e+04 2.814721842128e-01 1.161581378944e-01 
0.000000000000e+00 0.000000000000e+00 4.300000000000e-01 -2.577400000000e+04 -2.577400000000e+04 2.806662224736e-01 1.158080300600e-01 
0.000000000000e+00 0.000000000000e+00 4.400000000000e-01 -2.587200000000e+04 -2.587200000000e+04 2.798652957256e-01 1.154602793927e-01 
0.000000000000e+00 0.000000000000e+00 4.500000000000e-01 -2.597000000000e+04 -2.597000000000e+04 2.790693565280e-01 1.151148613774e-01 
0.000000000000e+00 0.000000000000e+00 4.600000000000e-01 -2.606800000000e+04 -2.606800000000e+04 2.782783580268e-01 1.147717518427e-01 
0.000000000000e+00 0.000000000000e+00 4.700000000000e-01 -2.616600000000e+04 -2.616600000000e+04 2.774922539463e-01 1.144309269550e-01 
0.000000000000e+00 0.000000000000e+00 4.800000000000e-01 -2.626400000000e+04 -2.626400000000e+04 2.767109985805e-01 1.140923632121e-01 
0.000000000000e+00 0.000000000000e+00 4.900000000000e-01 -2.636200000000e+04 -2.636200000000e+04 2.759345467840e-01 1.137560374381e-01 
0.000000000000e+00 0.000000000000e+00 5.000000000000e-01 -2.646000000000e+04 -2.646000000000e+04 2.751628539643e-01 1.134219267769e-01 
0.000000000000e+00 0.000000000000e+00 5.100000000000e-01 -2.655800000000e+04 -2.655800000000e+04 2.743958760732e-01 1.130900086876e-01 
0.000000000000e+00 0.000000000000e+00 5.200000000000e-01 -2.665600000000e+04 -2.665600000000e+04 2.736335695987e-01 1.127602609380e-01 
0.000000000000e+00 0.000000000000e+00 5.300000000000e-01 -2.675400000000e+04 -2.675400000000e+04 2.728758915571e-01 1.124326616003e-01 
0.000000000000e+00 0.000000000000e+00 5.400000000000e-01 -2.685200000000e+04 -2.685200000000e+04 2.721227994852e-01 1.121071890452e-01 
0.000000000000e+00 0.000000000000e+00 5.500000000000e-01 -2.695000000000e+04 -2.695000000000e+04 2.713742514324e-01 1.117838219369e-01 
0.000000000000e+00 0.000000000000e+00 5.600000000000e-01 -2.704800000000e+04 -2.704800000000e+04 2.706302059535e-01 1.114625392285e-01 
0.000000000000e+00 0.000000000000e+00 5.700000000000e-01 -2.714600000000e+04 -2.714600000000e+04 2.698906221009e-01 1.111433201564e-01 
0.000000000000e+00 0.000000000000e+00 5.800000000000e-01 -2.724400000000e+04 -2.724400000000e+04 2.691554594178e-01 1.108261442364e-01 
0.000000000000e+00 0.000000000000e+00 5.900000000000e-01 -2.734200000000e+04 -2.734200000000e+04 2.684246779303e-01 1.105109912581e-01 
0.000000000000e+00 0.000000000000e+00 6.000000000000e-01 -2.744000000000e+04 -2.744000000000e+04 2.680603775187e-01 1.103539179950e-01 
1  2  2  1
2  3  3  2
3  4  4  3
4  5  5  4
5  6  6  5
6  7  7  6
7  8  8  7
8  9  9  8
9  10  10  9
10  11  11  10
11  12  12  11
12  13  13  12
13  14  14  13
14  15  15  14
15  16  16  15
16  17  17  16
17  18  18  17
18  19  19  18
19  20  20  19
20  21  21  20
21  22  22  21
22  23  23  22
23  24  24  23
24  25  25  24
25  26  26  25
26  27  27  26
27  28  28  27
28  29  29  28
29  30  30  29
30  31  31  30
31  32  32  31
32  33  33  32
33  34  34  33
34  35  35  34
35  36  36  35
36  37  37  36
37  38  38  37
38  39  39  38
39  40  40  39
40  41  41  40
41  42  42  41
42  43  43  42
43  44  44  43
44  45  45  44
45  46  46  45
46  47  47  46
47  48  48  47
48  49  49  48
49  50  50  49
50  51  51  50
51  52  52  51
52  53  53  52
53  54  54  53
54  55  55  54
55  56  56  55
56  57  57  56
57  58  58  57
58  59  59  58
59  60  60  59
60  61  61  60
VARIABLES  = "X","Y","Z", "PRESSURE1", "PRESSURE2", "SATURATION1", "SATURATION2"
ZONE T="1.000000000000e+00s", N=61, E=60, F=FEPOINT, ET=QUADRILATERAL
STRANDID=1, SOLUTIONTIME=1.000000000000e+00
0.000000000000e+00 0.000000000000e+00 0.000000000000e+00 -2.155999994049e+04 -2.155999992525e+04 3.200622360761e-01 1.331375929502e-01 
0.000000000000e+00 0.000000000000e+00 1.000000000000e-02 -2.165800000049e+04 -2.165800000064e+04 3.195293663958e-01 1.329000918431e-01 
0.000000000000e+00 0.000000000000e+00 2.000000000000e-02 -2.175600000050e+04 -2.175600000066e+04 3.184674575068e-01 1.324269787173e-01 
0.000000000000e+00 0.000000000000e+00 3.000000000000e-02 -2.185400000049e+04 -2.185400000065e+04 3.174131685004e-01 1.319576205903e-01 
0.000000000000e+00 0.000000000000e+00 4.000000000000e-02 -2.195200000048e+04 -2.195200000064e+04 3.163664178422e-01 1.314919714992e-01 
0.000000000000e+00 0.000000000000e+00 5.000000000000e-02 -2.205000000048e+04 -2.205000000063e+04 3.153271251453e-01 1.310299862480e-01 
0.000000000000e+00 0.000000000000e+00 6.000000000000e-02 -2.214800000047e+04 -2.214800000062e+04 3.142952111328e-01 1.305716203819e-01 
0.000000000000e+00 0.000000000000e+00 7.000000000000e-02 -2.224600000047e+04 -2.224600000061e+04 3.132705976199e-01 1.301168301718e-01 
0.000000000000e+00 0.000000000000e+00 8.000000000000e-02 -2.234400000046e+04 -2.234400000061e+04 3.122532074953e-01 1.296655725996e-01 
0.000000000000e+00 0.000000000000e+00 9.000000000000e-02 -2.244200000045e+04 -2.244200000060e+04 3.112429647042e-01 1.292178053438e-01 
0.000000000000e+00 0.000000000000e+00 1.000000000000e-01 -2.254000000045e+04 -2.254000000059e+04 3.102397942309e-01 1.287734867653e-01 
0.000000000000e+00 0.000000000000e+00 1.100000000000e-01 -2.263800000044e+04 -2.263800000058e+04 3.092436220813e-01 1.283325758935e-01 
0.000000000000e+00 0.000000000000e+00 1.200000000000e-01 -2.273600000044e+04 -2.273600000057e+04 3.082543752668e-01 1.278950324129e-01 
0.000000000000e+00 0.000000000000e+00 1.300000000000e-01 -2.283400000043e+04 -2.283400000056e+04 3.072719817877e-01 1.274608166503e-01 
0.000000000000e+00 0.000000000000e+00 1.400000000000e-01 -2.293200000042e+04 -2.293200000056e+04 3.062963706171e-01 1.270298895614e-01 
0.000000000000e+00 0.000000000000e+00 1.500000000000e-01 -2.303000000042e+04 -2.303000000055e+04 3.053274716851e-01 1.266022127187e-01 
0.000000000000e+00 0.000000000000e+00 1.600000000000e-01 -2.312800000041e+04 -2.312800000054e+04 3.043652158636e-01 1.261777482993e-01 
0.000000000000e+00 0.000000000000e+00 1.700000000000e-01 -2.322600000041e+04 -2.322600000053e+04 3.034095349508e-01 1.257564590728e-01 
0.000000000000e+00 0.000000000000e+00 1.800000000000e-01 -2.332400000040e+04 -2.332400000053e+04 3.024603616561e-01 1.253383083897e-01 
0.000000000000e+00 0.000000000000e+00 1.900000000000e-01 -2.342200000040e+04 -2.342200000052e+04 3.015176295862e-01 1.249232601702e-01 
0.000000000000e+00 0.000000000000e+00 2.000000000000e-01 -2.352000000039e+04 -2.352000000051e+04 3.005812732298e-01 1.245112788930e-01 
0.000000000000e+00 0.000000000000e+00 2.100000000000e-01 -2.361800000039e+04 -2.361800000051e+04 2.996512279442e-01 1.241023295842e-01 
0.000000000000e+00 0.000000000000e+00 2.200000000000e-01 -2.371600000038e+04 -2.371600000050e+04 2.987274299409e-01 1.236963778072e-01 
0.000000000000e+00 0.000000000000e+00 2.300000000000e-01 -2.381400000038e+04 -2.381400000049e+04 2.978098162723e-01 1.232933896522e-01 
0.000000000000e+00 0.000000000000e+00 2.400000000000e-01 -2.391200000037e+04 -2.391200000049e+04 2.968983248186e-01 1.228933317259e-01 
0.000000000000e+00 0.000000000000e+00 2.500000000000e-01 -2.401000000037e+04 -2.401000000048e+04 2.959928942738e-01 1.224961711417e-01 
0.000000000000e+00 0.000000000000e+00 2.600000000000e-01 -2.410800000036e+04 -2.410800000048e+04 2.950934641337e-01 1.221018755103e-01 
0.000000000000e+00 0.000000000000e+00 2.700000000000e-01 -2.420600000036e+04 -2.420600000047e+04 2.941999746828e-01 1.217104129299e-01 
0.000000000000e+00 0.000000000000e+00 2.800000000000e-01 -2.430400000035e+04 -2.430400000046e+04 2.933123669820e-01 1.213217519773e-01 
0.000000000000e+00 0.000000000000e+00 2.900000000000e-01 -2.440200000035e+04 -2.440200000046e+04 2.924305828565e-01 1.209358616990e-01 
0.000000000000e+00 0.000000000000e+00 3.000000000000e-01 -2.450000000035e+04 -2.450000000045e+04 2.915545648834e-01 1.205527116017e-01 
0.000000000000e+00 0.000000000000e+00 3.100000000000e-01 -2.459800000034e+04 -2.459800000045e+04 2.906842563804e-01 1.201722716447e-01 
0.000000000000e+00 0.000000000000e+00 3.200000000000e-01 -2.469600000034e+04 -2.469600000044e+04 2.898196013942e-01 1.197945122307e-01 
0.000000000000e+00 0.000000000000e+00 3.300000000000e-01 -2.479400000033e+04 -2.479400000043e+04 2.889605446887e-01 1.194194041981e-01 
0.000000000000e+00 0.000000000000e+00 3.400000000000e-01 -2.489200000033e+04 -2.489200000043e+04 2.881070317346e-01 1.190469188124e-01 
0.000000000000e+00 0.000000000000e+00 3.500000000000e-01 -2.499000000033e+04 -2.499000000042e+04 2.872590086975e-01 1.186770277590e-01 
0.000000000000e+00 0.000000000000e+00 3.600000000000e-01 -2.508800000032e+04 -2.508800000042e+04 2.864164224281e-01 1.183097031351e-01 
0.000000000000e+00 0.000000000000e+00 3.700000000000e-01 -2.518600000032e+04 -2.518600000041e+04 2.855792204511e-01 1.179449174423e-01 
0.000000000000e+00 0.000000000000e+00 3.800000000000e-01 -2.528400000031e+04 -2.528400000041e+04 2.847473509549e-01 1.175826435791e-01 
0.000000000000e+00 0.000000000000e+00 3.900000000000e-01 -2.538200000031e+04 -2.538200000040e+04 2.839207627813e-01 1.172228548340e-01 
0.000000000000e+00 0.000000000000e+00 4.000000000000e-01 -2.548000000031e+04 -2.548000000040e+04 2.830994054159e-01 1.168655248784e-01 
0.000000000000e+00 0.000000000000e+00 4.100000000000e-01 -2.557800000030e+04 -2.557800000039e+04 2.822832289779e-01 1.165106277592e-01 
0.000000000000e+00 0.000000000000e+00 4.200000000000e-01 -2.567600000030e+04 -2.567600000039e+04 2.814721842104e-01 1.161581378930e-01 
0.000000000000e+00 0.000000000000e+00 4.300000000000e-01 -2.577400000030e+04 -2.577400000038e+04 2.806662224712e-01 1.158080300587e-01 
0.000000000000e+00 0.000000000000e+00 4.400000000000e-01 -2.587200000029e+04 -2.587200000038e+04 2.798652957233e-01 1.154602793914e-01 
0.000000000000e+00 0.000000000000e+00 4.500000000000e-01 -2.597000000029e+04 -2.597000000037e+04 2.790693565257e-01 1.151148613761e-01 
0.000000000000e+00 0.000000000000e+00 4.600000000000e-01 -2.606800000029e+04 -2.606800000037e+04 2.782783580245e-01 1.147717518414e-01 
0.000000000000e+00 0.000000000000e+00 4.700000000000e-01 -2.616600000028e+04 -2.616600000037e+04 2.774922539441e-01 1.144309269537e-01 
0.000000000000e+00 0.000000000000e+00 4.800000000000e-01 -2.626400000028e+04 -2.626400000036e+04 2.767109985783e-01 1.140923632109e-01 
0.000000000000e+00 0.000000000000e+00 4.900000000000e-01 -2.636200000028e+04 -2.636200000036e+04 2.759345467818e-01 1.137560374368e-01 
0.000000000000e+00 0.000000000000e+00 5.000000000000e-01 -2.646000000027e+04 -2.646000000035e+04 2.751628539622e-01 1.134219267757e-01 
0.000000000000e+00 0.000000000000e+00 5.100000000000e-01 -2.655800000027e+04 -2.655800000035e+04 2.743958760711e-01 1.130900086864e-01 
0.000000000000e+00 0.000000000000e+00 5.200000000000e-01 -2.665600000027e+04 -2.665600000034e+04 2.736335695967e-01 1.127602609369e-01 
0.000000000000e+00 0.000000000000e+00 5.300000000000e-01 -2.675400000026e+04 -2.675400000034e+04 2.728758915551e-01 1.124326615992e-01 
0.000000000000e+00 0.000000000000e+00 5.400000000000e-01 -2.685200000026e+04 -2.685200000034e+04 2.721227994832e-01 1.121071890441e-01 
0.000000000000e+00 0.000000000000e+00 5.500000000000e-01 -2.695000000026e+04 -2.695000000033e+04 2.713742514304e-01 1.117838219359e-01 
0.000000000000e+00 0.000000000000e+00 5.600000000000e-01 -2.704800000025e+04 -2.704800000030e+04 2.706302060123e-01 1.114625394812e-01 
0.000000000000e+00 0.000000000000e+00 5.700000000000e-01 -2.714599998320e+04 -2.714599983525e+04 2.698909454802e-01 1.111446226063e-01 
0.000000000000e+00 0.000000000000e+00 5.800000000000e-01 -2.724390866801e+04 -2.724314741742e+04 2.708840665530e-01 1.166652968590e-01 
0.000000000000e+00 0.000000000000e+00 5.900000000000e-01 -2.685750870696e+04 -2.389265767201e+04 6.080998166340e-01 3.949104330906e-01 
0.000000000000e+00 0.000000000000e+00 6.000000000000e-01 9.800000000000e+01 9.800000000000e+01 9.439540872946e-01 6.674771008081e-01 
1  2  2  1
2  3  3  2
3  4  4  3
4  5  5  4
5  6  6  5
6  7  7  6
7  8  8  7
8  9  9  8
9  10  10  9
10  11  11  10
11  12  12  11
12  13  13  12
13  14  14  13
14  15  15  14
15  16  16  15
16  17  17  16
17  18  18  17
18  19  19  18
19  20  20  19
20  21  21  20
21  22  22  21
22  23  23  22
23  24  24  23
24  25  25  24
25  26  26  25
26  27  27  26
27  28  28  27
28  29  29  28
29  30  30  29
30  31  31  30
31  32  32  31
32  33  33  32
33  34  34  33
34  35  35  34
35  36  36  35
36  37  37  36
37  38  38  37
38  39  39  38
39  40  40  39
40  41  41  40
41  42  42  41
42  43  43  42
43  44  44  43
44  45  45  44
45  46  46  45
46  47  47  46
47  48  48  47
48  49  49  48
49  50  50  49
50  51  51  50
51  52  52  51
52  53  53  52
53  54  54  53
54  55  55  54
55  56  56  55
56  57  57  56
57  58  58  57
58  59  59  58
59  60  60  59
60  61  61  60
VARIABLES  = "X","Y","Z", "PRESSURE1", "PRESSURE2", "SATURATION1", "SATURATION2"
ZONE T="6.000000000000e+02s", N=61, E=60, F=FEPOINT, ET=QUADRILATERAL
STRANDID=1, SOLUTIONTIME=6.000000000000e+02
0.000000000000e+00 0.000000000000e+00 0.000000000000e+00 -2.155996970576e+04 -2.155996381218e+04 3.200622780951e-01 1.331376178868e-01 
0.000000000000e+00 0.000000000000e+00 1.000000000000e-02 -2.165799772078e+04 -2.165799671992e+04 3.195293873335e-01 1.329001044437e-01 
0.000000000000e+00 0.000000000000e+00 2.000000000000e-02 -2.175600015021e+04 -2.175600013777e+04 3.184674559275e-01 1.324269780001e-01 
0.000000000000e+00 0.000000000000e+00 3.000000000000e-02 -2.185400028853e+04 -2.185400036834e+04 3.174131654434e-01 1.319576188522e-01 
0.000000000000e+00 0.000000000000e+00 4.000000000000e-02 -2.195200029076e+04 -2.195200037506e+04 3.163664147722e-01 1.314919697386e-01 
0.000000000000e+00 0.000000000000e+00 5.000000000000e-02 -2.205000028702e+04 -2.205000037034e+04 3.153271221354e-01 1.310299845226e-01 
0.000000000000e+00 0.000000000000e+00 6.000000000000e-02 -2.214800028315e+04 -2.214800036525e+04 3.142952081846e-01 1.305716186935e-01 
0.000000000000e+00 0.000000000000e+00 7.000000000000e-02 -2.224600027933e+04 -2.224600036023e+04 3.132705947317e-01 1.301168285194e-01 
0.000000000000e+00 0.000000000000e+00 8.000000000000e-02 -2.234400027559e+04 -2.234400035530e+04 3.122532046659e-01 1.296655709824e-01 
0.000000000000e+00 0.000000000000e+00 9.000000000000e-02 -2.244200027190e+04 -2.244200035046e+04 3.112429619322e-01 1.292178037610e-01 
0.000000000000e+00 0.000000000000e+00 1.000000000000e-01 -2.254000026829e+04 -2.254000034571e+04 3.102397915148e-01 1.287734852159e-01 
0.000000000000e+00 0.000000000000e+00 1.100000000000e-01 -2.263800026473e+04 -2.263800034104e+04 3.092436194198e-01 1.283325743767e-01 
0.000000000000e+00 0.000000000000e+00 1.200000000000e-01 -2.273600026123e+04 -2.273600033645e+04 3.082543726586e-01 1.278950309279e-01 
0.000000000000e+00 0.000000000000e+00 1.300000000000e-01 -2.283400025780e+04 -2.283400033194e+04 3.072719792315e-01 1.274608151962e-01 
0.000000000000e+00 0.000000000000e+00 1.400000000000e-01 -2.293200025442e+04 -2.293200032751e+04 3.062963681117e-01 1.270298881375e-01 
0.000000000000e+00 0.000000000000e+00 1.500000000000e-01 -2.303000025110e+04 -2.303000032316e+04 3.053274692293e-01 1.266022113243e-01 
0.000000000000e+00 0.000000000000e+00 1.600000000000e-01 -2.312800024784e+04 -2.312800031888e+04 3.043652134563e-01 1.261777469337e-01 
0.000000000000e+00 0.000000000000e+00 1.700000000000e-01 -2.322600024463e+04 -2.322600031468e+04 3.034095325908e-01 1.257564577352e-01 
0.000000000000e+00 0.000000000000e+00 1.800000000000e-01 -2.332400024148e+04 -2.332400031054e+04 3.024603593423e-01 1.253383070795e-01 
0.000000000000e+00 0.000000000000e+00 1.900000000000e-01 -2.342200023838e+04 -2.342200030648e+04 3.015176273175e-01 1.249232588867e-01 
0.000000000000e+00 0.000000000000e+00 2.000000000000e-01 -2.352000023533e+04 -2.352000030249e+04 3.005812710052e-01 1.245112776354e-01 
0.000000000000e+00 0.000000000000e+00 2.100000000000e-01 -2.361800023233e+04 -2.361800029857e+04 2.996512257627e-01 1.241023283520e-01 
0.000000000000e+00 0.000000000000e+00 2.200000000000e-01 -2.371600022938e+04 -2.371600029471e+04 2.987274278014e-01 1.236963765999e-01 
0.000000000000e+00 0.000000000000e+00 2.300000000000e-01 -2.381400022648e+04 -2.381400029091e+04 2.978098141740e-01 1.232933884691e-01 
0.000000000000e+00 0.000000000000e+00 2.400000000000e-01 -2.391200022363e+04 -2.391200028718e+04 2.968983227604e-01 1.228933305664e-01 
0.000000000000e+00 0.000000000000e+00 2.500000000000e-01 -2.401000022082e+04 -2.401000028352e+04 2.959928922549e-01 1.224961700052e-01 
0.000000000000e+00 0.000000000000e+00 2.600000000000e-01 -2.410800021806e+04 -2.410800027991e+04 2.950934621532e-01 1.221018743963e-01 
0.000000000000e+00 0.000000000000e+00 2.700000000000e-01 -2.420600021535e+04 -2.420600027636e+04 2.941999727399e-01 1.217104118379e-01 
0.000000000000e+00 0.000000000000e+00 2.800000000000e-01 -2.430400021268e+04 -2.430400027287e+04 2.933123650758e-01 1.213217509068e-01 
0.000000000000e+00 0.000000000000e+00 2.900000000000e-01 -2.440200021005e+04 -2.440200026944e+04 2.924305809861e-01 1.209358606494e-01 
0.000000000000e+00 0.000000000000e+00 3.000000000000e-01 -2.450000020746e+04 -2.450000026607e+04 2.915545630480e-01 1.205527105726e-01 
0.000000000000e+00 0.000000000000e+00 3.100000000000e-01 -2.459800020492e+04 -2.459800026275e+04 2.906842545793e-01 1.201722706356e-01 
0.000000000000e+00 0.000000000000e+00 3.200000000000e-01 -2.469600020241e+04 -2.469600025948e+04 2.898195996266e-01 1.197945112412e-01 
0.000000000000e+00 0.000000000000e+00 3.300000000000e-01 -2.479400019995e+04 -2.479400025627e+04 2.889605429539e-01 1.194194032276e-01 
0.000000000000e+00 0.000000000000e+00 3.400000000000e-01 -2.489200019752e+04 -2.489200025311e+04 2.881070300318e-01 1.190469178606e-01 
0.000000000000e+00 0.000000000000e+00 3.500000000000e-01 -2.499000019514e+04 -2.499000024999e+04 2.872590070261e-01 1.186770268254e-01 
0.000000000000e+00 0.000000000000e+00 3.600000000000e-01 -2.508800019279e+04 -2.508800024693e+04 2.864164207874e-01 1.183097022193e-01 
0.000000000000e+00 0.000000000000e+00 3.700000000000e-01 -2.518600019047e+04 -2.518600024392e+04 2.855792188404e-01 1.179449165439e-01 
0.000000000000e+00 0.000000000000e+00 3.800000000000e-01 -2.528400018820e+04 -2.528400024096e+04 2.847473493735e-01 1.175826426977e-01 
0.000000000000e+00 0.000000000000e+00 3.900000000000e-01 -2.538200018596e+04 -2.538200023804e+04 2.839207612286e-01 1.172228539692e-01 
0.000000000000e+00 0.000000000000e+00 4.000000000000e-01 -2.548000018375e+04 -2.548000023517e+04 2.830994038913e-01 1.168655240298e-01 
0.000000000000e+00 0.000000000000e+00 4.100000000000e-01 -2.557800018158e+04 -2.557800023234e+04 2.822832274807e-01 1.165106269265e-01 
0.000000000000e+00 0.000000000000e+00 4.200000000000e-01 -2.567600017944e+04 -2.567600022956e+04 2.814721827401e-01 1.161581370758e-01 
0.000000000000e+00 0.000000000000e+00 4.300000000000e-01 -2.577400017733e+04 -2.577400022682e+04 2.806662210273e-01 1.158080292578e-01 
0.000000000000e+00 0.000000000000e+00 4.400000000000e-01 -2.587200017524e+04 -2.587200022346e+04 2.798652943133e-01 1.154602788431e-01 
0.000000000000e+00 0.000000000000e+00 4.500000000000e-01 -2.597000017109e+04 -2.597000007856e+04 2.790693563373e-01 1.151149102757e-01 
0.000000000000e+00 0.000000000000e+00 4.600000000000e-01 -2.606799985721e+04 -2.606797030674e+04 2.782784912495e-01 1.147818267882e-01 
0.000000000000e+00 0.000000000000e+00 4.700000000000e-01 -2.616596494733e+04 -2.615989399891e+04 2.774972064188e-01 1.163315111143e-01 
0.000000000000e+00 0.000000000000e+00 4.800000000000e-01 -2.626272095392e+04 -2.514512508414e+04 2.767816497375e-01 1.874839770292e-01 
0.000000000000e+00 0.000000000000e+00 4.900000000000e-01 -2.634447764384e+04 -7.977723271772e+03 2.771719153658e-01 3.911746737898e-01 
0.000000000000e+00 0.000000000000e+00 5.000000000000e-01 -2.614860689951e+04 -3.016362044455e+03 2.818941949217e-01 5.915503871343e-01 
0.000000000000e+00 0.000000000000e+00 5.100000000000e-01 -2.513404369578e+04 -2.199647855701e+03 2.953353542855e-01 6.997786359621e-01 
0.000000000000e+00 0.000000000000e+00 5.200000000000e-01 -2.300606150144e+04 -1.679985851814e+03 3.219012493773e-01 7.791543781432e-01 
0.000000000000e+00 0.000000000000e+00 5.300000000000e-01 -1.983121232719e+04 -1.268721616212e+03 3.675695598632e-01 8.492352929984e-01 
0.000000000000e+00 0.000000000000e+00 5.400000000000e-01 -1.586862325779e+04 -9.209054568124e+02 4.889182696256e-01 9.082362444774e-01 
0.000000000000e+00 0.000000000000e+00 5.500000000000e-01 -8.334869446587e+03 -6.275594912518e+02 7.224360393971e-01 9.518395343317e-01 
0.000000000000e+00 0.000000000000e+00 5.600000000000e-01 -2.922948679788e+03 -3.965669630939e+02 9.091491856622e-01 9.789506933184e-01 
0.000000000000e+00 0.000000000000e+00 5.700000000000e-01 -1.516615185076e+03 -2.219811692441e+02 9.708641966299e-01 9.931684783566e-01 
0.000000000000e+00 0.000000000000e+00 5.800000000000e-01 -7.525202176771e+02 -8.885149894066e+01 9.922563687659e-01 9.988764066443e-01 
0.000000000000e+00 0.000000000000e+00 5.900000000000e-01 -2.560935171883e+02 1.046297907052e+01 9.989846779027e-01 1.000000000000e+00 
0.000000000000e+00 0.000000000000e+00 6.000000000000e-01 9.800000000000e+01 9.800000000000e+01 1.000000000000e+00 1.000000000000e+00 
1  2  2  1
2  3  3  2
3  4  4  3
4  5  5  4
5  6  6  5
6  7  7  6
7  8  8  7
8  9  9  8
9  10  10  9
10  11  11  10
11  12  12  11
12  13  13  12
13  14  14  13
14  15  15  14
15  16  16  15
16  17  17  16
17  18  18  17
18  19  19  18
19  20  20  19
20  21  21  20
21  22  22  21
22  23  23  22
23  24  24  23
24  25  25  24
25  26  26  25
26  27  27  26
27  28  28  27
28  29  29  28
29  30  30  29
30  31  31  30
31  32  32  31
32  33  33  32
33  34  34  33
34  35  35  34
35  36  36  35
36  37  37  36
37  38  38  37
38  39  39  38
39  40  40  39
40  41  41  40
41  42  42  41
42  43  43  42
43  44  44  43
44  45  45  44
45  46  46  45
46  47  47  46
47  48  48  47
48  49  49  48
49  50  50  49
50  51  51  50
51  52  52  51
52  53  53  52
53  54  54  53
54  55  55  54
55  56  56  55
56  57  57  56
57  58  58  57
58  59  59  58
59  60  60  59
60  61  61  60
VARIABLES  = "X","Y","Z", "PRESSURE1", "PRESSURE2", "SATURATION1", "SATURATION2"
ZONE T="1.200000000000e+03s", N=61, E=60, F=FEPOINT, ET=QUADRILATERAL
STRANDID=1, SOLUTIONTIME=1.200000000000e+03
0.000000000000e+00 0.000000000000e+00 0.000000000000e+00 -2.155994723676e+04 -2.155993910960e+04 3.200623487522e-01 1.331376578708e-01 
0.000000000000e+00 0.000000000000e+00 1.000000000000e-02 -2.165799219886e+04 -2.165798948434e+04 3.195294268256e-01 1.329001273107e-01 
0.000000000000e+00 0.000000000000e+00 2.000000000000e-02 -2.175599966460e+04 -2.175599930630e+04 3.184674591081e-01 1.324269804520e-01 
0.000000000000e+00 0.000000000000e+00 3.000000000000e-02 -2.185400051105e+04 -2.185400060501e+04 3.174131629512e-01 1.319576176125e-01 
0.000000000000e+00 0.000000000000e+00 4.000000000000e-02 -2.195200057691e+04 -2.195200072516e+04 3.163664117410e-01 1.314919680857e-01 
0.000000000000e+00 0.000000000000e+00 5.000000000000e-02 -2.205000057412e+04 -2.205000072539e+04 3.153271191198e-01 1.310299828652e-01 
0.000000000000e+00 0.000000000000e+00 6.000000000000e-02 -2.214800056664e+04 -2.214800071617e+04 3.142952052278e-01 1.305716170682e-01 
0.000000000000e+00 0.000000000000e+00 7.000000000000e-02 -2.224600055902e+04 -2.224600070649e+04 3.132705918352e-01 1.301168269282e-01 
0.000000000000e+00 0.000000000000e+00 8.000000000000e-02 -2.234400055151e+04 -2.234400069695e+04 3.122532018283e-01 1.296655694245e-01 
0.000000000000e+00 0.000000000000e+00 9.000000000000e-02 -2.244200054414e+04 -2.244200068758e+04 3.112429591521e-01 1.292178022356e-01 
0.000000000000e+00 0.000000000000e+00 1.000000000000e-01 -2.254000053690e+04 -2.254000067837e+04 3.102397887908e-01 1.287734837222e-01 
0.000000000000e+00 0.000000000000e+00 1.100000000000e-01 -2.263800052978e+04 -2.263800066932e+04 3.092436167506e-01 1.283325729139e-01 