<?xml version="1.0"?>
<!-- Time step: 1 | Time: 1.000000000000e+00 -->
<VTKFile type="UnstructuredGrid" version="0.1" byte_order="LittleEndian">
  <UnstructuredGrid>
    <Piece NumberOfPoints="527" NumberOfCells="480">
      <Points>
        <DataArray type="Float64" NumberOfComponents="3" format="ascii">
          1.750000000000e-01 0.000000000000e+00 0.000000000000e+00
          1.766666666667e-01 0.000000000000e+00 0.000000000000e+00
          1.783333333333e-01 0.000000000000e+00 0.000000000000e+00
          1.800000000000e-01 0.000000000000e+00 0.000000000000e+00
          1.816666666667e-01 0.000000000000e+00 0.000000000000e+00
          1.833333333333e-01 0.000000000000e+00 0.000000000000e+00
          1.850000000000e-01 0.000000000000e+00 0.000000000000e+00
          1.866666666667e-01 0.000000000000e+00 0.000000000000e+00
          1.883333333333e-01 0.000000000000e+00 0.000000000000e+00
          1.900000000000e-01 0.000000000000e+00 0.000000000000e+00
          1.916666666667e-01 0.000000000000e+00 0.000000000000e+00
          1.933333333333e-01 0.000000000000e+00 0.000000000000e+00
          1.950000000000e-01 0.000000000000e+00 0.000000000000e+00
          1.966666666667e-01 0.000000000000e+00 0.000000000000e+00
          1.983333333333e-01 0.000000000000e+00 0.000000000000e+00
          2.000000000000e-01 0.000000000000e+00 0.000000000000e+00
          2.016666666667e-01 0.000000000000e+00 0.000000000000e+00
          2.033333333333e-01 0.000000000000e+00 0.000000000000e+00
          2.050000000000e-01 0.000000000000e+00 0.000000000000e+00
          2.066666666667e-01 0.000000000000e+00 0.000000000000e+00
          2.083333333333e-01 0.000000000000e+00 0.000000000000e+00
          2.100000000000e-01 0.000000000000e+00 0.000000000000e+00
          2.116666666667e-01 0.000000000000e+00 0.000000000000e+00
          2.133333333333e-01 0.000000000000e+00 0.000000000000e+00
          2.150000000000e-01 0.000000000000e+00 0.000000000000e+00
          2.166666666667e-01 0.000000000000e+00 0.000000000000e+00
          2.183333333333e-01 0.000000000000e+00 0.000000000000e+00
          2.200000000000e-01 0.000000000000e+00 0.000000000000e+00
          2.216666666667e-01 0.000000000000e+00 0.000000000000e+00
          2.233333333333e-01 0.000000000000e+00 0.000000000000e+00
          2.250000000000e-01 0.000000000000e+00 0.000000000000e+00
          1.741573271428e-01 1.715299981026e-02 0.000000000000e+00
          1.758159683536e-01 1.731636171321e-02 0.000000000000e+00
          1.774746095645e-01 1.747972361617e-02 0.000000000000e+00
          1.791332507754e-01 1.764308551912e-02 0.000000000000e+00
          1.807918919863e-01 1.780644742208e-02 0.000000000000e+00
          1.824505331972e-01 1.796980932503e-02 0.000000000000e+00
          1.841091744081e-01 1.813317122799e-02 0.000000000000e+00
          1.857678156189e-01 1.829653313094e-02 0.000000000000e+00
          1.874264568298e-01 1.845989503390e-02 0.000000000000e+00
          1.890850980407e-01 1.862325693685e-02 0.000000000000e+00
          1.907437392516e-01 1.878661883981e-02 0.000000000000e+00
          1.924023804625e-01 1.894998074276e-02 0.000000000000e+00
          1.940610216734e-01 1.911334264571e-02 0.000000000000e+00
          1.957196628842e-01 1.927670454867e-02 0.000000000000e+00
          1.973783040951e-01 1.944006645162e-02 0.000000000000e+00
          1.990369453060e-01 1.960342835458e-02 0.000000000000e+00
          2.006955865169e-01 1.976679025753e-02 0.000000000000e+00
          2.023542277278e-01 1.993015216049e-02 0.000000000000e+00
          2.040128689387e-01 2.009351406344e-02 0.000000000000e+00
          2.056715101495e-01 2.025687596640e-02 0.000000000000e+00
          2.073301513604e-01 2.042023786935e-02 0.000000000000e+00
          2.089887925713e-01 2.058359977231e-02 0.000000000000e+00
          2.106474337822e-01 2.074696167526e-02 0.000000000000e+00
          2.123060749931e-01 2.091032357822e-02 0.000000000000e+00
          2.139647162040e-01 2.107368548117e-02 0.000000000000e+00
          2.156233574148e-01 2.123704738413e-02 0.000000000000e+00
          2.172819986257e-01 2.140040928708e-02 0.000000000000e+00
          2.189406398366e-01 2.156377119004e-02 0.000000000000e+00
          2.205992810475e-01 2.172713309299e-02 0.000000000000e+00
          2.222579222584e-01 2.189049499595e-02 0.000000000000e+00
          2.239165634693e-01 2.205385689890e-02 0.000000000000e+00
          1.716374239715e-01 3.414080685068e-02 0.000000000000e+00
          1.732720661046e-01 3.446595739212e-02 0.000000000000e+00
          1.749067082377e-01 3.479110793355e-02 0.000000000000e+00
          1.765413503707e-01 3.511625847499e-02 0.000000000000e+00
          1.781759925038e-01 3.544140901642e-02 0.000000000000e+00
          1.798106346368e-01 3.576655955786e-02 0.000000000000e+00
          1.814452767699e-01 3.609171009929e-02 0.000000000000e+00
          1.830799189030e-01 3.641686064073e-02 0.000000000000e+00
          1.847145610360e-01 3.674201118216e-02 0.000000000000e+00
          1.863492031691e-01 3.706716172360e-02 0.000000000000e+00
          1.879838453022e-01 3.739231226503e-02 0.000000000000e+00
          1.896184874352e-01 3.771746280647e-02 0.000000000000e+00
          1.912531295683e-01 3.804261334790e-02 0.000000000000e+00
          1.928877717013e-01 3.836776388934e-02 0.000000000000e+00
          1.945224138344e-01 3.869291443077e-02 0.000000000000e+00
          1.961570559675e-01 3.901806497221e-02 0.000000000000e+00
          1.977916981005e-01 3.934321551364e-02 0.000000000000e+00
          1.994263402336e-01 3.966836605508e-02 0.000000000000e+00
          2.010609823667e-01 3.999351659651e-02 0.000000000000e+00
          2.026956244997e-01 4.031866713795e-02 0.000000000000e+00
          2.043302666328e-01 4.064381767938e-02 0.000000000000e+00
          2.059649087658e-01 4.096896822082e-02 0.000000000000e+00
          2.075995508989e-01 4.129411876225e-02 0.000000000000e+00
          2.092341930320e-01 4.161926930369e-02 0.000000000000e+00
          2.108688351650e-01 4.194441984512e-02 0.000000000000e+00
          2.125034772981e-01 4.226957038656e-02 0.000000000000e+00
          2.141381194312e-01 4.259472092799e-02 0.000000000000e+00
          2.157727615642e-01 4.291987146943e-02 0.000000000000e+00
          2.174074036973e-01 4.324502201086e-02 0.000000000000e+00
          2.190420458303e-01 4.357017255230e-02 0.000000000000e+00
          2.206766879634e-01 4.389532309373e-02 0.000000000000e+00
          1.674645585321e-01 5.079981924816e-02 0.000000000000e+00
          1.690594590896e-01 5.128362705053e-02 0.000000000000e+00
          1.706543596470e-01 5.176743485289e-02 0.000000000000e+00
          1.722492602045e-01 5.225124265525e-02 0.000000000000e+00
          1.738441607619e-01 5.273505045762e-02 0.000000000000e+00
          1.754390613194e-01 5.321885825998e-02 0.000000000000e+00
          1.770339618768e-01 5.370266606234e-02 0.000000000000e+00
          1.786288624342e-01 5.418647386471e-02 0.000000000000e+00
          1.802237629917e-01 5.467028166707e-02 0.000000000000e+00
          1.818186635491e-01 5.515408946943e-02 0.000000000000e+00
          1.834135641066e-01 5.563789727180e-02 0.000000000000e+00
          1.850084646640e-01 5.612170507416e-02 0.000000000000e+00
          1.866033652215e-01 5.660551287652e-02 0.000000000000e+00
          1.881982657789e-01 5.708932067889e-02 0.000000000000e+00
          1.897931663364e-01 5.757312848125e-02 0.000000000000e+00
          1.913880668938e-01 5.805693628361e-02 0.000000000000e+00
          1.929829674513e-01 5.854074408598e-02 0.000000000000e+00
          1.945778680087e-01 5.902455188834e-02 0.000000000000e+00
          1.961727685662e-01 5.950835969070e-02 0.000000000000e+00
          1.977676691236e-01 5.999216749307e-02 0.000000000000e+00
          1.993625696811e-01 6.047597529543e-02 0.000000000000e+00
          2.009574702385e-01 6.095978309779e-02 0.000000000000e+00
          2.025523707960e-01 6.144359090016e-02 0.000000000000e+00
          2.041472713534e-01 6.192739870252e-02 0.000000000000e+00
          2.057421719109e-01 6.241120650488e-02 0.000000000000e+00
          2.073370724683e-01 6.289501430725e-02 0.000000000000e+00
          2.089319730258e-01 6.337882210961e-02 0.000000000000e+00
          2.105268735832e-01 6.386262991198e-02 0.000000000000e+00
          2.121217741407e-01 6.434643771434e-02 0.000000000000e+00
          2.137166746981e-01 6.483024551670e-02 0.000000000000e+00
          2.153115752556e-01 6.531405331907e-02 0.000000000000e+00
          1.616789178010e-01 6.696960160183e-02 0.000000000000e+00
          1.632187170181e-01 6.760740733138e-02 0.000000000000e+00
          1.647585162353e-01 6.824521306092e-02 0.000000000000e+00
          1.662983154524e-01 6.888301879046e-02 0.000000000000e+00
          1.678381146696e-01 6.952082452000e-02 0.000000000000e+00
          1.693779138867e-01 7.015863024954e-02 0.000000000000e+00
          1.709177131039e-01 7.079643597908e-02 0.000000000000e+00
          1.724575123210e-01 7.143424170862e-02 0.000000000000e+00
          1.739973115382e-01 7.207204743817e-02 0.000000000000e+00
          1.755371107553e-01 7.270985316771e-02 0.000000000000e+00
          1.770769099725e-01 7.334765889725e-02 0.000000000000e+00
          1.786167091896e-01 7.398546462679e-02 0.000000000000e+00
          1.801565084068e-01 7.462327035633e-02 0.000000000000e+00
          1.816963076239e-01 7.526107608587e-02 0.000000000000e+00
          1.832361068411e-01 7.589888181541e-02 0.000000000000e+00
          1.847759060582e-01 7.653668754495e-02 0.000000000000e+00
          1.863157052754e-01 7.717449327450e-02 0.000000000000e+00
          1.878555044926e-01 7.781229900404e-02 0.000000000000e+00
          1.893953037097e-01 7.845010473358e-02 0.000000000000e+00
          1.909351029269e-01 7.908791046312e-02 0.000000000000e+00
[...]
      <PointData Scalars="DISPLACEMENT_X1">
        <DataArray type="Float64" Name="STRESS_1" format="ascii">
          -1.039995682987e+03 -6.415513267087e+03 -1.156810615718e+04 -1.651893384454e+04 -2.128134824657e+04 -2.586647877325e+04 -3.028398928338e+04 -3.454247496785e+04 -3.864971037553e+04 -4.261281616541e+04 -4.643837446624e+04 -5.013251284543e+04 -5.370096674911e+04 -5.714912390753e+04 -6.048205910626e+04 -6.370456342907e+04 -6.682116433640e+04 -6.983614172635e+04 -7.275354374190e+04 -7.557719526573e+04 -7.831070403632e+04 -8.095746699798e+04 -8.352066943639e+04 -8.600328167309e+04 -8.840805324919e+04 -9.073750094242e+04 -9.299389463994e+04 -9.517924907307e+04 -9.729534792638e+04 -9.934389902394e+04 -1.013278521066e+05 -1.040335953764e+03 -6.415659147610e+03 -1.156818135780e+04 -1.651897590327e+04 -2.128137284228e+04 -2.586649325294e+04 -3.028399746609e+04 -3.454247927036e+04 -3.864971229343e+04 -4.261281637054e+04 -4.643837342471e+04 -5.013251136217e+04 -5.370096487157e+04 -5.714912144144e+04 -6.048205650154e+04 -6.370456081733e+04 -6.682116114187e+04 -6.983613847435e+04 -7.275354031921e+04 -7.557719113373e+04 -7.831069932619e+04 -8.095746161717e+04 -8.352066301397e+04 -8.600327424739e+04 -8.840804481748e+04 -9.073749168156e+04 -9.299388508449e+04 -9.517924042774e+04 -9.729534288970e+04 -9.934389996681e+04 -1.013278561969e+05 -1.040735334459e+03 -6.415807375234e+03 -1.156825139143e+04 -1.651901277025e+04 -2.128139174690e+04 -2.586650085514e+04 -3.028399772829e+04 -3.454247436125e+04 -3.864970429837e+04 -4.261280631210e+04 -4.643836190668e+04 -5.013249914766e+04 -5.370095202322e+04 -5.714910863777e+04 -6.048204316265e+04 -6.370454761839e+04 -6.682114757973e+04 -6.983612510748e+04 -7.275352576259e+04 -7.557717644451e+04 -7.831068326222e+04 -8.095744439448e+04 -8.352064300057e+04 -8.600325215677e+04 -8.840801833695e+04 -9.073745979960e+04 -9.299384551162e+04 -9.517919126051e+04 -9.729527740986e+04 -9.934380791311e+04 -1.013277146413e+05 -1.041437218648e+03 -6.416067893997e+03 -1.156837423676e+04 -1.651907881017e+04 -2.128142508874e+04 -2.586651434123e+04 -3.028399845899e+04 -3.454246687098e+04 -3.864969043190e+04 -4.261278894440e+04 -4.643834273445e+04 -5.013247797675e+04 -5.370093013908e+04 -5.714908612841e+04 -6.048202120593e+04 -6.370452436273e+04 -6.682112485928e+04 -6.983610106789e+04 -7.275350192325e+04 -7.557715017343e+04 -7.831065609267e+04 -8.095741364509e+04 -8.352060952221e+04 -8.600321224282e+04 -8.840797219093e+04 -9.073740383952e+04 -9.299377719698e+04 -9.517910377907e+04 -9.729516350033e+04 -9.934364652982e+04 -1.013274656532e+05 -1.042502914363e+03 -6.416463621361e+03 -1.156856172898e+04 -1.651917770157e+04 -2.128147732453e+04 -2.586653624199e+04 -3.028400042465e+04 -3.454245554337e+04 -3.864967132558e+04 -4.261276380529e+04 -4.643831409777e+04 -5.013244764574e+04 -5.370089831184e+04 -5.714905359232e+04 -6.048198789877e+04 -6.370449111271e+04 -6.682109053522e+04 -6.983606659746e+04 -7.275346540832e+04 -7.557711211809e+04 -7.831061480397e+04 -8.095736848809e+04 -8.352055808634e+04 -8.600315351533e+04 -8.840790253732e+04 -9.073731951281e+04 -9.299367309396e+04 -9.517897206683e+04 -9.729499011876e+04 -9.934340133683e+04 -1.013270879076e+05 -1.044034393387e+03 -6.417031884644e+03 -1.156883030895e+04 -1.651932167677e+04 -2.128155227393e+04 -2.586656905701e+04 -3.028400514648e+04 -3.454244198187e+04 -3.864964509203e+04 -4.261273014615e+04 -4.643827491086e+04 -5.013240533972e+04 -5.370085443349e+04 -5.714900857004e+04 -6.048194180247e+04 -6.370444477005e+04 -6.682104320268e+04 -6.983601765455e+04 -7.275341454336e+04 -7.557705879417e+04 -7.831055645167e+04 -8.095730455739e+04 -8.352048540670e+04 -8.600306982358e+04 -8.840780260675e+04 -9.073719951926e+04 -9.299352385277e+04 -9.517878395298e+04 -9.729474108720e+04 -9.934304985585e+04 -1.013265450410e+05 -1.046196824849e+03 -6.417832884010e+03 -1.156920981916e+04 -1.651952503676e+04 -2.128165979195e+04 -2.586661657441e+04 -3.028401392697e+04 -3.454242432266e+04 -3.864961033812e+04 -4.261268462701e+04 -4.643822228949e+04 -5.013234779738e+04 -5.370079458398e+04 -5.714894697634e+04 -6.048187884513e+04 -6.370438065609e+04 -6.682097816080e+04 -6.983594990312e+04 -7.275334438605e+04 -7.557698365083e+04 -7.831047571942e+04 -8.095721452743e+04 -8.352038438432e+04 -8.600295159775e+04 -8.840766356516e+04 -9.073702989530e+04 -9.299331514710e+04 -9.517851788453e+04 -9.729439156955e+04 -9.934255349054e+04 -1.013257790461e+05 -1.049261452648e+03 -6.418965635222e+03 -1.156974544376e+04 -1.651981241387e+04 -2.128181276725e+04 -2.586668553830e+04 -3.028402766558e+04 -3.454240128450e+04 -3.864956360872e+04 -4.261262166489e+04 -4.643814926287e+04 -5.013226862466e+04 -5.370071147740e+04 -5.714886093731e+04 -6.048179142472e+04 -6.370429110936e+04 -6.682088613038e+04 -6.983585567912e+04 -7.275324535263e+04 -7.557687828428e+04 -7.831036162374e+04 -8.095708838545e+04 -8.352024016031e+04 -8.600278533590e+04 -8.840746615324e+04 -9.073679117551e+04 -9.299301930599e+04 -9.517814372481e+04 -9.729389684517e+04 -9.934185165013e+04 -1.013246939621e+05 -1.053690600477e+03 -6.420594823370e+03 -1.157051315498e+04 -1.652022473693e+04 -2.128203156881e+04 -2.586678380801e+04 -3.028404668401e+04 -3.454236895461e+04 -3.864949579913e+04 -4.261253118931e+04 -4.643804428735e+04 -5.013215489255e+04 -5.370059057406e+04 -5.714873667851e+04 -6.048166415508e+04 -6.370416125529e+04 -6.682075246464e+04 -6.983571781379e+04 -7.275310094700e+04 -7.557672502141e+04 -7.831019501404e+04 -8.095690438754e+04 -8.352003260303e+04 -8.600254458992e+04 -8.840718086147e+04 -9.073644718103e+04 -9.299259414875e+04 -9.517760391894e+04 -9.729318515299e+04 -9.934083975180e+04 -1.013231269663e+05 -1.060317271198e+03 -6.423014222564e+03 -1.157164563555e+04 -1.652082835977e+04 -2.128235055228e+04 -2.586692489264e+04 -3.028407061600e+04 -3.454231514544e+04 -3.864939157203e+04 -4.261239160976e+04 -4.643788298336e+04 -5.013197907984e+04 -5.370040613146e+04 -5.714854553743e+04 -6.048146886851e+04 -6.370396130874e+04 -6.682054811633e+04 -6.983550584549e+04 -7.275288028449e+04 -7.557649097358e+04 -7.830994247966e+04 -8.095662540869e+04 -8.351971905710e+04 -8.600218247148e+04 -8.840675416955e+04 -9.073593298939e+04 -9.299196114505e+04 -9.517680221384e+04 -9.729212724054e+04 -9.933932974589e+04 -1.013207859736e+05 -1.070766954266e+03 -6.426779119250e+03 -1.157338406858e+04 -1.652174927715e+04 -2.128282922663e+04 -2.586712711500e+04 -3.028409077904e+04 -3.454221451499e+04 -3.864921037452e+04 -4.261215837219e+04 -4.643761451572e+04 -5.013168850314e+04 -5.370010068247e+04 -5.714823062026e+04 -6.048114614722e+04 -6.370363273352e+04 -6.682021162805e+04 -6.983515990484e+04 -7.275251987134e+04 -7.557611102230e+04 -7.830953422463e+04 -8.095617911013e+04 -8.351921873466e+04 -8.600160979382e+04 -8.840608233703e+04 -9.073512721603e+04 -9.299097199434e+04 -9.517555442323e+04 -9.729047767488e+04 -9.933696204778e+04 -1.013171022504e+05 -1.088570138536e+03 -6.433063316656e+03 -1.157619878110e+04 -1.652321370092e+04 -2.128357837290e+04 -2.586742299977e+04 -3.028408378343e+04 -3.454200367105e+04 -3.864886500172e+04 -4.261172494706e+04 -4.643712404038e+04 -5.013116123988e+04 -5.369955058904e+04 -5.714766472268e+04 -6.048056930301e+04 -6.370304545101e+04 -6.681961360028e+04 -6.983454735185e+04 -7.275188667132e+04 -7.557544716313e+04 -7.830882758457e+04 -8.095540983659e+04 -8.351836226604e+04 -8.600063451797e+04 -8.840494724596e+04 -9.073377609943e+04 -9.298932779881e+04 -9.517348573161e+04 -9.728772756611e+04 -9.933296602763e+04 -1.013108495078e+05 -1.122540324598e+03 -6.444844784466e+03 -1.158112092249e+04 -1.652559450774e+04 -2.128474031995e+04 -2.586784356299e+04 -3.028399311952e+04 -3.454155003447e+04 -3.864815921793e+04 -4.261085222652e+04 -4.643614463045e+04 -5.013011653329e+04 -5.369846820192e+04 -5.714656134772e+04 -6.047945259490e+04 -6.370191768981e+04 -6.681847095299e+04 -6.983338187355e+04 -7.275068391762e+04 -7.557418742121e+04 -7.830748489681e+04 -8.095395194910e+04 -8.351674896240e+04 -8.599881799885e+04 -8.840286620042e+04 -9.073134171208e+04 -9.298638627103e+04 -9.516974858004e+04 -9.728263756357e+04 -9.932543136197e+04 -1.012989891219e+05 -1.198136653681e+03 -6.472470806220e+03 -1.159196450400e+04 -1.652958396432e+04 -2.128581963961e+04 -2.586763633653e+04 -3.028314149610e+04 -3.454030044348e+04 -3.864661609235e+04 -4.260907718104e+04 -4.643419148620e+04 -5.012803399982e+04 -5.369629552124e+04 -5.714432642578e+04 -6.047717121692e+04 -6.369959192426e+04 -6.681609121439e+04 -6.983093066448e+04 -7.274813908253e+04 -7.557152372321e+04 -7.830467717587e+04 -8.095097309375e+04 -8.351356108026e+04 -8.599534834130e+04 -8.839896326606e+04 -9.072670425078e+04 -9.298046809789e+04 -9.516165960622e+04 -9.727106957086e+04 -9.930845712254e+04 -1.012727516455e+05 -1.386511057507e+03 -6.564717631516e+03 -1.164170156818e+04 -1.655245889028e+04 -2.129219466074e+04 -2.586495171774e+04 -3.027626545654e+04 -3.453206393980e+04 -3.863844616585e+04 -4.260153880085e+04 -4.642737513663e+04 -5.012180975963e+04 -5.369046749340e+04 -5.713871420314e+04 -6.047164497912e+04 -6.369408728692e+04 -6.681060216316e+04 -6.982548481827e+04 -7.274277003985e+04 -7.556622750462e+04 -7.829934848216e+04 -8.094533373565e+04 -8.350707114454e+04 -8.598711203596e+04 -8.838766614466e+04 -9.071063111870e+04 -9.295769760963e+04 -9.513054722651e+04 -9.723093485267e+04 -9.925938861685e+04 -1.012069513668e+05 -1.371365929689e+03 -6.847728629363e+03 -1.201155810147e+04 -1.691326359449e+04 -2.160306445195e+04 -2.611336595757e+04 -3.046340667086e+04 -3.466494797108e+04 -3.872586926660e+04 -4.265210803081e+04 -4.644864112387e+04 -5.011996503125e+04 -5.367031694993e+04 -5.710376957705e+04 -6.042426430613e+04 -6.363561311215e+04 -6.674149155437e+04 -6.974543292530e+04 -7.265082089639e+04 -7.546089373156e+04 -7.817876644808e+04 -8.080747604747e+04 -8.335005980073e+04 -8.580970001354e+04 -8.818996737189e+04 -9.049519851349e+04 -9.273104894178e+04 -9.490511875892e+04 -9.702688762505e+04 -9.910341630311e+04 -1.011107222903e+05 -5.769102873301e+03 -4.323328783575e+03 -8.653033552801e+03 -1.396734193877e+04 -1.932505577584e+04 -2.447189815706e+04 -2.935583031424e+04 -3.398403960740e+04 -3.837899406579e+04 -4.256479357257e+04 -4.656323970117e+04 -5.039306750309e+04 -5.407017857749e+04 -5.760813761457e+04 -6.101868731443e+04 -6.431220084033e+04 -6.749805254845e+04 -7.058491734301e+04 -7.358103386048e+04 -7.649437711278e+04 -7.933275778304e+04 -8.210383253474e+04 -8.481488408670e+04 -8.747213656012e+04 -9.007912848983e+04 -9.263282742189e+04 -9.511438155598e+04 -9.746661190437e+04 -9.953743680643e+04 -1.009327427095e+05 -1.003495758428e+05 
        </DataArray>
        <DataArray type="Float64" Name="STRESS_2" format="ascii">