<?xml version="1.0"?>
<!-- Time step: 1 | Time: 1.000000000000e+00 -->
<VTKFile type="UnstructuredGrid" version="0.1" byte_order="LittleEndian">
  <UnstructuredGrid>
    <Piece NumberOfPoints="527" NumberOfCells="480">
      <Points>
        <DataArray type="Float64" NumberOfComponents="3" format="ascii">
          1.750000000000e-01 0.000000000000e+00 0.000000000000e+00
          1.766666666667e-01 0.000000000000e+00 0.000000000000e+00
          1.783333333333e-01 0.000000000000e+00 0.000000000000e+00
          1.800000000000e-01 0.000000000000e+00 0.000000000000e+00
          1.816666666667e-01 0.000000000000e+00 0.000000000000e+00
          1.833333333333e-01 0.000000000000e+00 0.000000000000e+00
          1.850000000000e-01 0.000000000000e+00 0.000000000000e+00
          1.866666666667e-01 0.000000000000e+00 0.000000000000e+00
          1.883333333333e-01 0.000000000000e+00 0.000000000000e+00
          1.900000000000e-01 0.000000000000e+00 0.000000000000e+00
          1.916666666667e-01 0.000000000000e+00 0.000000000000e+00
          1.933333333333e-01 0.000000000000e+00 0.000000000000e+00
          1.950000000000e-01 0.000000000000e+00 0.000000000000e+00
          1.966666666667e-01 0.000000000000e+00 0.000000000000e+00
          1.983333333333e-01 0.000000000000e+00 0.000000000000e+00
          2.000000000000e-01 0.000000000000e+00 0.000000000000e+00
          2.016666666667e-01 0.000000000000e+00 0.000000000000e+00
          2.033333333333e-01 0.000000000000e+00 0.000000000000e+00
          2.050000000000e-01 0.000000000000e+00 0.000000000000e+00
          2.066666666667e-01 0.000000000000e+00 0.000000000000e+00
          2.083333333333e-01 0.000000000000e+00 0.000000000000e+00
          2.100000000000e-01 0.000000000000e+00 0.000000000000e+00
          2.116666666667e-01 0.000000000000e+00 0.000000000000e+00
          2.133333333333e-01 0.000000000000e+00 0.000000000000e+00
          2.150000000000e-01 0.000000000000e+00 0.000000000000e+00
          2.166666666667e-01 0.000000000000e+00 0.000000000000e+00
          2.183333333333e-01 0.000000000000e+00 0.000000000000e+00
          2.200000000000e-01 0.000000000000e+00 0.000000000000e+00
          2.216666666667e-01 0.000000000000e+00 0.000000000000e+00
          2.233333333333e-01 0.000000000000e+00 0.000000000000e+00
          2.250000000000e-01 0.000000000000e+00 0.000000000000e+00
          1.741573271428e-01 1.715299981026e-02 0.000000000000e+00
          1.758159683536e-01 1.731636171321e-02 0.000000000000e+00
          1.774746095645e-01 1.747972361617e-02 0.000000000000e+00
          1.791332507754e-01 1.764308551912e-02 0.000000000000e+00
          1.807918919863e-01 1.780644742208e-02 0.000000000000e+00
          1.824505331972e-01 1.796980932503e-02 0.000000000000e+00
          1.841091744081e-01 1.813317122799e-02 0.000000000000e+00
          1.857678156189e-01 1.829653313094e-02 0.000000000000e+00
          1.874264568298e-01 1.845989503390e-02 0.000000000000e+00
          1.890850980407e-01 1.862325693685e-02 0.000000000000e+00
          1.907437392516e-01 1.878661883981e-02 0.000000000000e+00
          1.924023804625e-01 1.894998074276e-02 0.000000000000e+00
          1.940610216734e-01 1.911334264571e-02 0.000000000000e+00
          1.957196628842e-01 1.927670454867e-02 0.000000000000e+00
          1.973783040951e-01 1.944006645162e-02 0.000000000000e+00
          1.990369453060e-01 1.960342835458e-02 0.000000000000e+00
          2.006955865169e-01 1.976679025753e-02 0.000000000000e+00
          2.023542277278e-01 1.993015216049e-02 0.000000000000e+00
          2.040128689387e-01 2.009351406344e-02 0.000000000000e+00
          2.056715101495e-01 2.025687596640e-02 0.000000000000e+00
          2.073301513604e-01 2.042023786935e-02 0.000000000000e+00
          2.089887925713e-01 2.058359977231e-02 0.000000000000e+00
          2.106474337822e-01 2.074696167526e-02 0.000000000000e+00
          2.123060749931e-01 2.091032357822e-02 0.000000000000e+00
          2.139647162040e-01 2.107368548117e-02 0.000000000000e+00
          2.156233574148e-01 2.123704738413e-02 0.000000000000e+00
          2.172819986257e-01 2.140040928708e-02 0.000000000000e+00
          2.189406398366e-01 2.156377119004e-02 0.000000000000e+00
          2.205992810475e-01 2.172713309299e-02 0.000000000000e+00
          2.222579222584e-01 2.189049499595e-02 0.000000000000e+00
          2.239165634693e-01 2.205385689890e-02 0.000000000000e+00
          1.716374239715e-01 3.414080685068e-02 0.000000000000e+00
          1.732720661046e-01 3.446595739212e-02 0.000000000000e+00
          1.749067082377e-01 3.479110793355e-02 0.000000000000e+00
          1.765413503707e-01 3.511625847499e-02 0.000000000000e+00
          1.781759925038e-01 3.544140901642e-02 0.000000000000e+00
          1.798106346368e-01 3.576655955786e-02 0.000000000000e+00
          1.814452767699e-01 3.609171009929e-02 0.000000000000e+00
          1.830799189030e-01 3.641686064073e-02 0.000000000000e+00
          1.847145610360e-01 3.674201118216e-02 0.000000000000e+00
          1.863492031691e-01 3.706716172360e-02 0.000000000000e+00
          1.879838453022e-01 3.739231226503e-02 0.000000000000e+00
          1.896184874352e-01 3.771746280647e-02 0.000000000000e+00
          1.912531295683e-01 3.804261334790e-02 0.000000000000e+00
          1.928877717013e-01 3.836776388934e-02 0.000000000000e+00
          1.945224138344e-01 3.869291443077e-02 0.000000000000e+00
          1.961570559675e-01 3.901806497221e-02 0.000000000000e+00
          1.977916981005e-01 3.934321551364e-02 0.000000000000e+00
          1.994263402336e-01 3.966836605508e-02 0.000000000000e+00
          2.010609823667e-01 3.999351659651e-02 0.000000000000e+00
          2.026956244997e-01 4.031866713795e-02 0.000000000000e+00
          2.043302666328e-01 4.064381767938e-02 0.000000000000e+00
          2.059649087658e-01 4.096896822082e-02 0.000000000000e+00
          2.075995508989e-01 4.129411876225e-02 0.000000000000e+00
          2.092341930320e-01 4.161926930369e-02 0.000000000000e+00
          2.108688351650e-01 4.194441984512e-02 0.000000000000e+00
          2.125034772981e-01 4.226957038656e-02 0.000000000000e+00
          2.141381194312e-01 4.259472092799e-02 0.000000000000e+00
          2.157727615642e-01 4.291987146943e-02 0.000000000000e+00
          2.174074036973e-01 4.324502201086e-02 0.000000000000e+00
          2.190420458303e-01 4.357017255230e-02 0.000000000000e+00
          2.206766879634e-01 4.389532309373e-02 0.000000000000e+00
          1.674645585321e-01 5.079981924816e-02 0.000000000000e+00
          1.690594590896e-01 5.128362705053e-02 0.000000000000e+00
          1.706543596470e-01 5.176743485289e-02 0.000000000000e+00
          1.722492602045e-01 5.225124265525e-02 0.000000000000e+00
          1.738441607619e-01 5.273505045762e-02 0.000000000000e+00
          1.754390613194e-01 5.321885825998e-02 0.000000000000e+00
          1.770339618768e-01 5.370266606234e-02 0.000000000000e+00
          1.786288624342e-01 5.418647386471e-02 0.000000000000e+00
          1.802237629917e-01 5.467028166707e-02 0.000000000000e+00
          1.818186635491e-01 5.515408946943e-02 0.000000000000e+00
          1.834135641066e-01 5.563789727180e-02 0.000000000000e+00
          1.850084646640e-01 5.612170507416e-02 0.000000000000e+00
          1.866033652215e-01 5.660551287652e-02 0.000000000000e+00
          1.881982657789e-01 5.708932067889e-02 0.000000000000e+00
          1.897931663364e-01 5.757312848125e-02 0.000000000000e+00
          1.913880668938e-01 5.805693628361e-02 0.000000000000e+00
          1.929829674513e-01 5.854074408598e-02 0.000000000000e+00
          1.945778680087e-01 5.902455188834e-02 0.000000000000e+00
          1.961727685662e-01 5.950835969070e-02 0.000000000000e+00
          1.977676691236e-01 5.999216749307e-02 0.000000000000e+00
          1.993625696811e-01 6.047597529543e-02 0.000000000000e+00
          2.009574702385e-01 6.095978309779e-02 0.000000000000e+00
          2.025523707960e-01 6.144359090016e-02 0.000000000000e+00
          2.041472713534e-01 6.192739870252e-02 0.000000000000e+00
          2.057421719109e-01 6.241120650488e-02 0.000000000000e+00
          2.073370724683e-01 6.289501430725e-02 0.000000000000e+00
          2.089319730258e-01 6.337882210961e-02 0.000000000000e+00
          2.105268735832e-01 6.386262991198e-02 0.000000000000e+00
          2.121217741407e-01 6.434643771434e-02 0.000000000000e+00
          2.137166746981e-01 6.483024551670e-02 0.000000000000e+00
          2.153115752556e-01 6.531405331907e-02 0.000000000000e+00
          1.616789178010e-01 6.696960160183e-02 0.000000000000e+00
          1.632187170181e-01 6.760740733138e-02 0.000000000000e+00
          1.647585162353e-01 6.824521306092e-02 0.000000000000e+00
          1.662983154524e-01 6.888301879046e-02 0.000000000000e+00
          1.678381146696e-01 6.952082452000e-02 0.000000000000e+00
          1.693779138867e-01 7.015863024954e-02 0.000000000000e+00
          1.709177131039e-01 7.079643597908e-02 0.000000000000e+00
          1.724575123210e-01 7.143424170862e-02 0.000000000000e+00
          1.739973115382e-01 7.207204743817e-02 0.000000000000e+00
          1.755371107553e-01 7.270985316771e-02 0.000000000000e+00
          1.770769099725e-01 7.334765889725e-02 0.000000000000e+00
          1.786167091896e-01 7.398546462679e-02 0.000000000000e+00
          1.801565084068e-01 7.462327035633e-02 0.000000000000e+00
          1.816963076239e-01 7.526107608587e-02 0.000000000000e+00
          1.832361068411e-01 7.589888181541e-02 0.000000000000e+00
          1.847759060582e-01 7.653668754495e-02 0.000000000000e+00
          1.863157052754e-01 7.717449327450e-02 0.000000000000e+00
          1.878555044926e-01 7.781229900404e-02 0.000000000000e+00
          1.893953037097e-01 7.845010473358e-02 0.000000000000e+00
          1.909351029269e-01 7.908791046312e-02 0.000000000000e+00
[...]
      <PointData Scalars="DISPLACEMENT_X1">
        <DataArray type="Float64" Name="STRESS_1" format="ascii">
          -1.039995439059e+03 -6.415501851460e+03 -1.156808454664e+04 -1.651890389450e+04 -2.128131198453e+04 -2.586643740152e+04 -3.028394389916e+04 -3.454242671110e+04 -3.864966024680e+04 -4.261276477922e+04 -4.643832242641e+04 -5.013246121860e+04 -5.370091579492e+04 -5.714907392212e+04 -6.048201080745e+04 -6.370451724431e+04 -6.682112008209e+04 -6.983610014494e+04 -7.275350495441e+04 -7.557715898820e+04 -7.831067082357e+04 -8.095743688114e+04 -8.352064233270e+04 -8.600325781171e+04 -8.840803274665e+04 -9.073748359178e+04 -9.299388049597e+04 -9.517923807368e+04 -9.729534014373e+04 -9.934389427987e+04 -1.013278516331e+05 -1.040335681539e+03 -6.415648252910e+03 -1.156816083866e+04 -1.651894765404e+04 -2.128133831986e+04 -2.586645393649e+04 -3.028395448613e+04 -3.454243355611e+04 -3.864966485494e+04 -4.261276786741e+04 -4.643832462962e+04 -5.013246270947e+04 -5.370091684520e+04 -5.714907460534e+04 -6.048201127338e+04 -6.370451734103e+04 -6.682111983551e+04 -6.983609956887e+04 -7.275350386227e+04 -7.557715735997e+04 -7.831066837095e+04 -8.095743358088e+04 -8.352063791742e+04 -8.600325221046e+04 -8.840802584811e+04 -9.073747561455e+04 -9.299387202581e+04 -9.517923041853e+04 -9.729533578220e+04 -9.934389556376e+04 -1.013278558048e+05 -1.040734972256e+03 -6.415797974609e+03 -1.156823398180e+04 -1.651898910946e+04 -2.128136284932e+04 -2.586646807156e+04 -3.028396192807e+04 -3.454243657435e+04 -3.864966507895e+04 -4.261276636862e+04 -4.643832190954e+04 -5.013245928247e+04 -5.370091294329e+04 -5.714907041227e+04 -6.048200665756e+04 -6.370451239378e+04 -6.682111445972e+04 -6.983609355350e+04 -7.275349696854e+04 -7.557714924347e+04 -7.831065884882e+04 -8.095742199574e+04 -8.352062366585e+04 -8.600323445511e+04 -8.840800356371e+04 -9.073744731462e+04 -9.299383574761e+04 -9.517918317189e+04 -9.729527231131e+04 -9.934380479337e+04 -1.013277143803e+05 -1.041436807682e+03 -6.416061074717e+03 -1.156836231371e+04 -1.651906198884e+04 -2.128140582383e+04 -2.586649273384e+04 -3.028397465474e+04 -3.454244165683e+04 -3.864966505897e+04 -4.261276312951e+04 -4.643831655937e+04 -5.013245258233e+04 -5.370090535548e+04 -5.714906207147e+04 -6.048199776154e+04 -6.370450272135e+04 -6.682110401350e+04 -6.983608191420e+04 -7.275348384551e+04 -7.557713407823e+04 -7.831064104644e+04 -8.095740066488e+04 -8.352059770347e+04 -8.600320247517e+04 -8.840796361541e+04 -9.073739697819e+04 -9.299377146462e+04 -9.517909981771e+04 -9.729516055267e+04 -9.934364510400e+04 -1.013274657259e+05 -1.042502502319e+03 -6.416460128776e+03 -1.156855671256e+04 -1.651917186619e+04 -2.128147039392e+04 -2.586652912863e+04 -3.028399293373e+04 -3.454244801146e+04 -3.864966362782e+04 -4.261275648056e+04 -4.643830664676e+04 -5.013244046708e+04 -5.370089171718e+04 -5.714904725799e+04 -6.048198196665e+04 -6.370448578005e+04 -6.682108573695e+04 -6.983606185929e+04 -7.275346162026e+04 -7.557710882533e+04 -7.831061176688e+04 -8.095736612200e+04 -8.352055636004e+04 -8.600315210423e+04 -8.840790134942e+04 -9.073731913690e+04 -9.299367279118e+04 -9.517897234929e+04 -9.729499039440e+04 -9.934340233664e+04 -1.013270882193e+05 -1.044033944736e+03 -6.417032495989e+03 -1.156883435981e+04 -1.651932791562e+04 -2.128156084039e+04 -2.586657897231e+04 -3.028401636221e+04 -3.454245403254e+04 -3.864965805477e+04 -4.261274327725e+04 -4.643828845091e+04 -5.013241900365e+04 -5.370086789660e+04 -5.714902165612e+04 -6.048195473228e+04 -6.370445714105e+04 -6.682105501698e+04 -6.983602881433e+04 -7.275342534900e+04 -7.557706845686e+04 -7.831056581775e+04 -8.095731292687e+04 -8.352049352284e+04 -8.600307660026e+04 -8.840780926736e+04 -9.073720503643e+04 -9.299352918262e+04 -9.517878782776e+04 -9.729474510361e+04 -9.934305305310e+04 -1.013265458794e+05 -1.046196286828e+03 -6.417838047997e+03 -1.156922271826e+04 -1.651954383339e+04 -2.128168355665e+04 -2.586664410023e+04 -3.028404364101e+04 -3.454245615500e+04 -3.864964352264e+04 -4.261271783358e+04 -4.643825573814e+04 -5.013238127594e+04 -5.370082691506e+04 -5.714897819473e+04 -6.048190916955e+04 -6.370440927286e+04 -6.682100477136e+04 -6.983597536456e+04 -7.275336767282e+04 -7.557700527400e+04 -7.831049522589e+04 -8.095723248317e+04 -8.352039996100e+04 -8.600296574398e+04 -8.840767556737e+04 -9.073704088572e+04 -9.299332405972e+04 -9.517852578046e+04 -9.729439772596e+04 -9.934255926841e+04 -1.013257802937e+05 -1.049260869737e+03 -6.418974154929e+03 -1.156976562852e+04 -1.651984177847e+04 -2.128184876234e+04 -2.586672671353e+04 -3.028407216120e+04 -3.454244876247e+04 -3.864961221365e+04 -4.261267057645e+04 -4.643819809195e+04 -5.013231675570e+04 -5.370075775441e+04 -5.714890558871e+04 -6.048183386271e+04 -6.370433125898e+04 -6.682092359722e+04 -6.983589017368e+04 -7.275327715952e+04 -7.557690746090e+04 -7.831038757819e+04 -8.095711159704e+04 -8.352026132263e+04 -8.600280345784e+04 -8.840748168870e+04 -9.073680481213e+04 -9.299303098204e+04 -9.517815289972e+04 -9.729390489720e+04 -9.934185892031e+04 -1.013246957027e+05 -1.053689961033e+03 -6.420605348803e+03 -1.157053723069e+04 -1.652025859512e+04 -2.128207346940e+04 -2.586683157642e+04 -3.028409842075e+04 -3.454242281548e+04 -3.864955148367e+04 -4.261258684012e+04 -4.643809922943e+04 -5.013220818632e+04 -5.370064274218e+04 -5.714878607867e+04 -6.048171091542e+04 -6.370420496442e+04 -6.682079354039e+04 -6.983575505808e+04 -7.275313517763e+04 -7.557675587113e+04 -7.831022282136e+04 -8.095692873607e+04 -8.352005403385e+04 -8.600256310706e+04 -8.840719703869e+04 -9.073646057488e+04 -9.299260575748e+04 -9.517761377870e+04 -9.729319349095e+04 -9.934084710517e+04 -1.013231292678e+05 -1.060316683253e+03 -6.423023646019e+03 -1.157166753767e+04 -1.652086036032e+04 -2.128238849922e+04 -2.586696812926e+04 -3.028411755357e+04 -3.454236394946e+04 -3.864944064833e+04 -4.261244186402e+04 -4.643793192978e+04 -5.013202655954e+04 -5.370045186067e+04 -5.714858914361e+04 -6.048150947812e+04 -6.370399940797e+04 -6.682058318683e+04 -6.983553819465e+04 -7.275290924719e+04 -7.557651686651e+04 -7.830996556953e+04 -8.095664589758e+04 -8.351973632611e+04 -8.600219787705e+04 -8.840676749255e+04 -9.073594403271e+04 -9.299197041495e+04 -9.517681065613e+04 -9.729213418157e+04 -9.933933657601e+04 -1.013207882172e+05 -1.070766434758e+03 -6.426784396560e+03 -1.157339762991e+04 -1.652176917636e+04 -2.128285289192e+04 -2.586715395106e+04 -3.028411999895e+04 -3.454224468031e+04 -3.864924047565e+04 -4.261218886048e+04 -4.643764419279e+04 -5.013171678789e+04 -5.370012802522e+04 -5.714825637046e+04 -6.048117024986e+04 -6.370365460028e+04 -6.682023195950e+04 -6.983517813472e+04 -7.275253643093e+04 -7.557612542139e+04 -7.830954748576e+04 -8.095619015794e+04 -8.351922832964e+04 -8.600161790674e+04 -8.840608953349e+04 -9.073513302691e+04 -9.299097743184e+04 -9.517555932109e+04 -9.729048223973e+04 -9.933696673632e+04 -1.013171041611e+05 -1.088569775112e+03 -6.433061449647e+03 -1.157619816491e+04 -1.652321394498e+04 -2.128357806527e+04 -2.586742249845e+04 -3.028408312346e+04 -3.454200298934e+04 -3.864886354439e+04 -4.261172363176e+04 -4.643712255579e+04 -5.013115956458e+04 -5.369954838101e+04 -5.714766263389e+04 -6.048056686841e+04 -6.370304304587e+04 -6.681961115763e+04 -6.983454465520e+04 -7.275188410672e+04 -7.557544481913e+04 -7.830882505447e+04 -8.095540762981e+04 -8.351836071634e+04 -8.600063316330e+04 -8.840494576820e+04 -9.073377551693e+04 -9.298932738665e+04 -9.517348563688e+04 -9.728772829103e+04 -9.933296776871e+04 -1.013108506696e+05 -1.122540015146e+03 -6.444834457310e+03 -1.158110216248e+04 -1.652556914160e+04 -2.128470972495e+04 -2.586780915085e+04 -3.028395552608e+04 -3.454151104249e+04 -3.864811914373e+04 -4.261081137097e+04 -4.643610396698e+04 -5.013007710534e+04 -5.369842978817e+04 -5.714652469044e+04 -6.047941769593e+04 -6.370188508018e+04 -6.681844072332e+04 -6.983335367973e+04 -7.275065831080e+04 -7.557416484104e+04 -7.830746454071e+04 -8.095393369277e+04 -8.351673365325e+04 -8.599880461081e+04 -8.840285500889e+04 -9.073133267017e+04 -9.298637931027e+04 -9.516974316928e+04 -9.728263382432e+04 -9.932542899938e+04 -1.012989894006e+05 -1.198136124180e+03 -6.472451771788e+03 -1.159192726909e+04 -1.652953261703e+04 -2.128575767640e+04 -2.586756623334e+04 -3.028306567908e+04 -3.454022111071e+04 -3.864653461735e+04 -4.260899582387e+04 -4.643411115545e+04 -5.012795540010e+04 -5.369621960315e+04 -5.714425448682e+04 -6.047710283945e+04 -6.369952798229e+04 -6.681603242066e+04 -6.983087640593e+04 -7.274808952276e+04 -7.557147948750e+04 -7.830463784423e+04 -8.095093852411e+04 -8.351353166701e+04 -8.599532317601e+04 -8.839894221732e+04 -9.072668700762e+04 -9.298045409181e+04 -9.516164839840e+04 -9.727106134829e+04 -9.930845076181e+04 -1.012727506843e+05 -1.386509703117e+03 -6.564690189838e+03 -1.164164774204e+04 -1.655238460132e+04 -2.129210515822e+04 -2.586485085081e+04 -3.027615627988e+04 -3.453195001514e+04 -3.863832998918e+04 -4.260142181359e+04 -4.642725917655e+04 -5.012169713290e+04 -5.369035918789e+04 -5.713861032998e+04 -6.047154726210e+04 -6.369399630335e+04 -6.681051760445e+04 -6.982540752793e+04 -7.274270049878e+04 -7.556616496637e+04 -7.829929299434e+04 -8.094528540381e+04 -8.350702862829e+04 -8.598707595819e+04 -8.838763604956e+04 -9.071060632989e+04 -9.295767756210e+04 -9.513053149089e+04 -9.723092244957e+04 -9.925937828798e+04 -1.012069491092e+05 -1.371364555419e+03 -6.847694767551e+03 -1.201149223695e+04 -1.691317309767e+04 -2.160295559671e+04 -2.611324323473e+04 -3.046327410786e+04 -3.466480919143e+04 -3.872572810742e+04 -4.265196660506e+04 -4.644850196681e+04 -5.011982935998e+04 -5.367018639284e+04 -5.710364499155e+04 -6.042414662389e+04 -6.363550308139e+04 -6.674139009428e+04 -6.974533997273e+04 -7.265073588358e+04 -7.546081734367e+04 -7.817869883946e+04 -8.080741644641e+04 -8.335000778389e+04 -8.580965621063e+04 -8.818993035489e+04 -9.049516658589e+04 -9.273102261374e+04 -9.490509770380e+04 -9.702687043307e+04 -9.910340208684e+04 -1.011107183734e+05 -5.769083615594e+03 -4.323298967875e+03 -8.652970353753e+03 -1.396725206190e+04 -1.932494239812e+04 -2.447176805700e+04 -2.935569009053e+04 -3.398389435622e+04 -3.837884465387e+04 -4.256464228154e+04 -4.656309005868e+04 -5.039292263157e+04 -5.407003842034e+04 -5.760800593196e+04 -6.101856591244e+04 -6.431208818965e+04 -6.749794704534e+04 -7.058482429719e+04 -7.358095263814e+04 -7.649430387729e+04 -7.933269505520e+04 -8.210378181434e+04 -8.481484197447e+04 -8.747210221144e+04 -9.007910494923e+04 -9.263281334000e+04 -9.511437501180e+04 -9.746661254883e+04 -9.953744049676e+04 -1.009327439129e+05 -1.003495712095e+05 
        </DataArray>
        <DataArray type="Float64" Name="STRESS_2" format="ascii">