<?xml version="1.0"?>
<!-- Time step: 1 | Time: 1.000000000000e+00 -->
<VTKFile type="UnstructuredGrid" version="0.1" byte_order="LittleEndian">
  <UnstructuredGrid>
    <Piece NumberOfPoints="527" NumberOfCells="480">
      <Points>
        <DataArray type="Float64" NumberOfComponents="3" format="ascii">
          1.750000000000e-01 0.000000000000e+00 0.000000000000e+00
          1.766666666667e-01 0.000000000000e+00 0.000000000000e+00
          1.783333333333e-01 0.000000000000e+00 0.000000000000e+00
          1.800000000000e-01 0.000000000000e+00 0.000000000000e+00
          1.816666666667e-01 0.000000000000e+00 0.000000000000e+00
          1.833333333333e-01 0.000000000000e+00 0.000000000000e+00
          1.850000000000e-01 0.000000000000e+00 0.000000000000e+00
          1.866666666667e-01 0.000000000000e+00 0.000000000000e+00
          1.883333333333e-01 0.000000000000e+00 0.000000000000e+00
          1.900000000000e-01 0.000000000000e+00 0.000000000000e+00
          1.916666666667e-01 0.000000000000e+00 0.000000000000e+00
          1.933333333333e-01 0.000000000000e+00 0.000000000000e+00
          1.950000000000e-01 0.000000000000e+00 0.000000000000e+00
          1.966666666667e-01 0.000000000000e+00 0.000000000000e+00
          1.983333333333e-01 0.000000000000e+00 0.000000000000e+00
          2.000000000000e-01 0.000000000000e+00 0.000000000000e+00
          2.016666666667e-01 0.000000000000e+00 0.000000000000e+00
          2.033333333333e-01 0.000000000000e+00 0.000000000000e+00
          2.050000000000e-01 0.000000000000e+00 0.000000000000e+00
          2.066666666667e-01 0.000000000000e+00 0.000000000000e+00
          2.083333333333e-01 0.000000000000e+00 0.000000000000e+00
          2.100000000000e-01 0.000000000000e+00 0.000000000000e+00
          2.116666666667e-01 0.000000000000e+00 0.000000000000e+00
          2.133333333333e-01 0.000000000000e+00 0.000000000000e+00
          2.150000000000e-01 0.000000000000e+00 0.000000000000e+00
          2.166666666667e-01 0.000000000000e+00 0.000000000000e+00
          2.183333333333e-01 0.000000000000e+00 0.000000000000e+00
          2.200000000000e-01 0.000000000000e+00 0.000000000000e+00
          2.216666666667e-01 0.000000000000e+00 0.000000000000e+00
          2.233333333333e-01 0.000000000000e+00 0.000000000000e+00
          2.250000000000e-01 0.000000000000e+00 0.000000000000e+00
          1.741573271428e-01 1.715299981026e-02 0.000000000000e+00
          1.758159683536e-01 1.731636171321e-02 0.000000000000e+00
          1.774746095645e-01 1.747972361617e-02 0.000000000000e+00
          1.791332507754e-01 1.764308551912e-02 0.000000000000e+00
          1.807918919863e-01 1.780644742208e-02 0.000000000000e+00
          1.824505331972e-01 1.796980932503e-02 0.000000000000e+00
          1.841091744081e-01 1.813317122799e-02 0.000000000000e+00
          1.857678156189e-01 1.829653313094e-02 0.000000000000e+00
          1.874264568298e-01 1.845989503390e-02 0.000000000000e+00
          1.890850980407e-01 1.862325693685e-02 0.000000000000e+00
          1.907437392516e-01 1.878661883981e-02 0.000000000000e+00
          1.924023804625e-01 1.894998074276e-02 0.000000000000e+00
          1.940610216734e-01 1.911334264571e-02 0.000000000000e+00
          1.957196628842e-01 1.927670454867e-02 0.000000000000e+00
          1.973783040951e-01 1.944006645162e-02 0.000000000000e+00
          1.990369453060e-01 1.960342835458e-02 0.000000000000e+00
          2.006955865169e-01 1.976679025753e-02 0.000000000000e+00
          2.023542277278e-01 1.993015216049e-02 0.000000000000e+00
          2.040128689387e-01 2.009351406344e-02 0.000000000000e+00
          2.056715101495e-01 2.025687596640e-02 0.000000000000e+00
          2.073301513604e-01 2.042023786935e-02 0.000000000000e+00
          2.089887925713e-01 2.058359977231e-02 0.000000000000e+00
          2.106474337822e-01 2.074696167526e-02 0.000000000000e+00
          2.123060749931e-01 2.091032357822e-02 0.000000000000e+00
          2.139647162040e-01 2.107368548117e-02 0.000000000000e+00
          2.156233574148e-01 2.123704738413e-02 0.000000000000e+00
          2.172819986257e-01 2.140040928708e-02 0.000000000000e+00
          2.189406398366e-01 2.156377119004e-02 0.000000000000e+00
          2.205992810475e-01 2.172713309299e-02 0.000000000000e+00
          2.222579222584e-01 2.189049499595e-02 0.000000000000e+00
          2.239165634693e-01 2.205385689890e-02 0.000000000000e+00
          1.716374239715e-01 3.414080685068e-02 0.000000000000e+00
          1.732720661046e-01 3.446595739212e-02 0.000000000000e+00
          1.749067082377e-01 3.479110793355e-02 0.000000000000e+00
          1.765413503707e-01 3.511625847499e-02 0.000000000000e+00
          1.781759925038e-01 3.544140901642e-02 0.000000000000e+00
          1.798106346368e-01 3.576655955786e-02 0.000000000000e+00
          1.814452767699e-01 3.609171009929e-02 0.000000000000e+00
          1.830799189030e-01 3.641686064073e-02 0.000000000000e+00
          1.847145610360e-01 3.674201118216e-02 0.000000000000e+00
          1.863492031691e-01 3.706716172360e-02 0.000000000000e+00
          1.879838453022e-01 3.739231226503e-02 0.000000000000e+00
          1.896184874352e-01 3.771746280647e-02 0.000000000000e+00
          1.912531295683e-01 3.804261334790e-02 0.000000000000e+00
          1.928877717013e-01 3.836776388934e-02 0.000000000000e+00
          1.945224138344e-01 3.869291443077e-02 0.000000000000e+00
          1.961570559675e-01 3.901806497221e-02 0.000000000000e+00
          1.977916981005e-01 3.934321551364e-02 0.000000000000e+00
          1.994263402336e-01 3.966836605508e-02 0.000000000000e+00
          2.010609823667e-01 3.999351659651e-02 0.000000000000e+00
          2.026956244997e-01 4.031866713795e-02 0.000000000000e+00
          2.043302666328e-01 4.064381767938e-02 0.000000000000e+00
          2.059649087658e-01 4.096896822082e-02 0.000000000000e+00
          2.075995508989e-01 4.129411876225e-02 0.000000000000e+00
          2.092341930320e-01 4.161926930369e-02 0.000000000000e+00
          2.108688351650e-01 4.194441984512e-02 0.000000000000e+00
          2.125034772981e-01 4.226957038656e-02 0.000000000000e+00
          2.141381194312e-01 4.259472092799e-02 0.000000000000e+00
          2.157727615642e-01 4.291987146943e-02 0.000000000000e+00
          2.174074036973e-01 4.324502201086e-02 0.000000000000e+00
          2.190420458303e-01 4.357017255230e-02 0.000000000000e+00
          2.206766879634e-01 4.389532309373e-02 0.000000000000e+00
          1.674645585321e-01 5.079981924816e-02 0.000000000000e+00
          1.690594590896e-01 5.128362705053e-02 0.000000000000e+00
          1.706543596470e-01 5.176743485289e-02 0.000000000000e+00
          1.722492602045e-01 5.225124265525e-02 0.000000000000e+00
          1.738441607619e-01 5.273505045762e-02 0.000000000000e+00
          1.754390613194e-01 5.321885825998e-02 0.000000000000e+00
          1.770339618768e-01 5.370266606234e-02 0.000000000000e+00
          1.786288624342e-01 5.418647386471e-02 0.000000000000e+00
          1.802237629917e-01 5.467028166707e-02 0.000000000000e+00
          1.818186635491e-01 5.515408946943e-02 0.000000000000e+00
          1.834135641066e-01 5.563789727180e-02 0.000000000000e+00
          1.850084646640e-01 5.612170507416e-02 0.000000000000e+00
          1.866033652215e-01 5.660551287652e-02 0.000000000000e+00
          1.881982657789e-01 5.708932067889e-02 0.000000000000e+00
          1.897931663364e-01 5.757312848125e-02 0.000000000000e+00
          1.913880668938e-01 5.805693628361e-02 0.000000000000e+00
          1.929829674513e-01 5.854074408598e-02 0.000000000000e+00
          1.945778680087e-01 5.902455188834e-02 0.000000000000e+00
          1.961727685662e-01 5.950835969070e-02 0.000000000000e+00
          1.977676691236e-01 5.999216749307e-02 0.000000000000e+00
          1.993625696811e-01 6.047597529543e-02 0.000000000000e+00
          2.009574702385e-01 6.095978309779e-02 0.000000000000e+00
          2.025523707960e-01 6.144359090016e-02 0.000000000000e+00
          2.041472713534e-01 6.192739870252e-02 0.000000000000e+00
          2.057421719109e-01 6.241120650488e-02 0.000000000000e+00
          2.073370724683e-01 6.289501430725e-02 0.000000000000e+00
          2.089319730258e-01 6.337882210961e-02 0.000000000000e+00
          2.105268735832e-01 6.386262991198e-02 0.000000000000e+00
          2.121217741407e-01 6.434643771434e-02 0.000000000000e+00
          2.137166746981e-01 6.483024551670e-02 0.000000000000e+00
          2.153115752556e-01 6.531405331907e-02 0.000000000000e+00
          1.616789178010e-01 6.696960160183e-02 0.000000000000e+00
          1.632187170181e-01 6.760740733138e-02 0.000000000000e+00
          1.647585162353e-01 6.824521306092e-02 0.000000000000e+00
          1.662983154524e-01 6.888301879046e-02 0.000000000000e+00
          1.678381146696e-01 6.952082452000e-02 0.000000000000e+00
          1.693779138867e-01 7.015863024954e-02 0.000000000000e+00
          1.709177131039e-01 7.079643597908e-02 0.000000000000e+00
          1.724575123210e-01 7.143424170862e-02 0.000000000000e+00
          1.739973115382e-01 7.207204743817e-02 0.000000000000e+00
          1.755371107553e-01 7.270985316771e-02 0.000000000000e+00
          1.770769099725e-01 7.334765889725e-02 0.000000000000e+00
          1.786167091896e-01 7.398546462679e-02 0.000000000000e+00
          1.801565084068e-01 7.462327035633e-02 0.000000000000e+00
          1.816963076239e-01 7.526107608587e-02 0.000000000000e+00
          1.832361068411e-01 7.589888181541e-02 0.000000000000e+00
          1.847759060582e-01 7.653668754495e-02 0.000000000000e+00
          1.863157052754e-01 7.717449327450e-02 0.000000000000e+00
          1.878555044926e-01 7.781229900404e-02 0.000000000000e+00
          1.893953037097e-01 7.845010473358e-02 0.000000000000e+00
          1.909351029269e-01 7.908791046312e-02 0.000000000000e+00
[...]
      <PointData Scalars="DISPLACEMENT_X1">
        <DataArray type="Float64" Name="STRESS_1" format="ascii">
          -1.039995439059e+03 -6.415501851460e+03 -1.156808454664e+04 -1.651890389450e+04 -2.128131198453e+04 -2.586643740152e+04 -3.028394389916e+04 -3.454242671110e+04 -3.864966024680e+04 -4.261276477922e+04 -4.643832242641e+04 -5.013246121860e+04 -5.370091579492e+04 -5.714907392212e+04 -6.048201080745e+04 -6.370451724431e+04 -6.682112008209e+04 -6.983610014494e+04 -7.275350495441e+04 -7.557715898820e+04 -7.831067082357e+04 -8.095743688114e+04 -8.352064233270e+04 -8.600325781171e+04 -8.840803274665e+04 -9.073748359178e+04 -9.299388049597e+04 -9.517923807368e+04 -9.729534014373e+04 -9.934389427987e+04 -1.013278516331e+05 -1.040335681572e+03 -6.415648252944e+03 -1.156816083869e+04 -1.651894765408e+04 -2.128133831989e+04 -2.586645393653e+04 -3.028395448617e+04 -3.454243355615e+04 -3.864966485498e+04 -4.261276786745e+04 -4.643832462966e+04 -5.013246270951e+04 -5.370091684525e+04 -5.714907460539e+04 -6.048201127342e+04 -6.370451734108e+04 -6.682111983556e+04 -6.983609956892e+04 -7.275350386233e+04 -7.557715736002e+04 -7.831066837100e+04 -8.095743358093e+04 -8.352063791747e+04 -8.600325221052e+04 -8.840802584817e+04 -9.073747561461e+04 -9.299387202587e+04 -9.517923041860e+04 -9.729533578227e+04 -9.934389556383e+04 -1.013278558049e+05 -1.040734972378e+03 -6.415797974735e+03 -1.156823398193e+04 -1.651898910960e+04 -2.128136284946e+04 -2.586646807170e+04 -3.028396192822e+04 -3.454243657450e+04 -3.864966507910e+04 -4.261276636878e+04 -4.643832190970e+04 -5.013245928264e+04 -5.370091294346e+04 -5.714907041244e+04 -6.048200665774e+04 -6.370451239396e+04 -6.682111445991e+04 -6.983609355369e+04 -7.275349696874e+04 -7.557714924367e+04 -7.831065884903e+04 -8.095742199595e+04 -8.352062366606e+04 -8.600323445533e+04 -8.840800356394e+04 -9.073744731486e+04 -9.299383574785e+04 -9.517918317213e+04 -9.729527231156e+04 -9.934380479363e+04 -1.013277143806e+05 -1.041436807934e+03 -6.416061074977e+03 -1.156836231398e+04 -1.651906198912e+04 -2.128140582412e+04 -2.586649273414e+04 -3.028397465504e+04 -3.454244165714e+04 -3.864966505929e+04 -4.261276312984e+04 -4.643831655971e+04 -5.013245258267e+04 -5.370090535583e+04 -5.714906207183e+04 -6.048199776191e+04 -6.370450272173e+04 -6.682110401389e+04 -6.983608191459e+04 -7.275348384592e+04 -7.557713407865e+04 -7.831064104687e+04 -8.095740066532e+04 -8.352059770392e+04 -8.600320247563e+04 -8.840796361588e+04 -9.073739697867e+04 -9.299377146511e+04 -9.517909981822e+04 -9.729516055318e+04 -9.934364510453e+04 -1.013274657265e+05 -1.042502502719e+03 -6.416460129189e+03 -1.156855671298e+04 -1.651917186663e+04 -2.128147039437e+04 -2.586652912909e+04 -3.028399293420e+04 -3.454244801194e+04 -3.864966362832e+04 -4.261275648107e+04 -4.643830664729e+04 -5.013244046762e+04 -5.370089171773e+04 -5.714904725856e+04 -6.048198196723e+04 -6.370448578065e+04 -6.682108573757e+04 -6.983606185992e+04 -7.275346162090e+04 -7.557710882599e+04 -7.831061176755e+04 -8.095736612269e+04 -8.352055636075e+04 -8.600315210496e+04 -8.840790135016e+04 -9.073731913766e+04 -9.299367279196e+04 -9.517897235009e+04 -9.729499039522e+04 -9.934340233747e+04 -1.013270882202e+05 -1.044033945276e+03 -6.417032496546e+03 -1.156883436038e+04 -1.651932791621e+04 -2.128156084100e+04 -2.586657897293e+04 -3.028401636285e+04 -3.454245403320e+04 -3.864965805544e+04 -4.261274327795e+04 -4.643828845162e+04 -5.013241900438e+04 -5.370086789735e+04 -5.714902165689e+04 -6.048195473306e+04 -6.370445714185e+04 -6.682105501781e+04 -6.983602881518e+04 -7.275342534987e+04 -7.557706845775e+04 -7.831056581866e+04 -8.095731292781e+04 -8.352049352380e+04 -8.600307660124e+04 -8.840780926836e+04 -9.073720503746e+04 -9.299352918367e+04 -9.517878782883e+04 -9.729474510471e+04 -9.934305305422e+04 -1.013265458807e+05 -1.046196287478e+03 -6.417838048665e+03 -1.156922271895e+04 -1.651954383409e+04 -2.128168355737e+04 -2.586664410098e+04 -3.028404364178e+04 -3.454245615579e+04 -3.864964352345e+04 -4.261271783442e+04 -4.643825573899e+04 -5.013238127682e+04 -5.370082691596e+04 -5.714897819565e+04 -6.048190917049e+04 -6.370440927383e+04 -6.682100477235e+04 -6.983597536558e+04 -7.275336767387e+04 -7.557700527507e+04 -7.831049522698e+04 -8.095723248429e+04 -8.352039996215e+04 -8.600296574516e+04 -8.840767556857e+04 -9.073704088695e+04 -9.299332406098e+04 -9.517852578175e+04 -9.729439772727e+04 -9.934255926976e+04 -1.013257802953e+05 -1.049260870446e+03 -6.418974155658e+03 -1.156976562927e+04 -1.651984177924e+04 -2.128184876313e+04 -2.586672671434e+04 -3.028407216204e+04 -3.454244876333e+04 -3.864961221453e+04 -4.261267057735e+04 -4.643819809288e+04 -5.013231675666e+04 -5.370075775539e+04 -5.714890558972e+04 -6.048183386374e+04 -6.370433126004e+04 -6.682092359831e+04 -6.983589017479e+04 -7.275327716065e+04 -7.557690746207e+04 -7.831038757938e+04 -8.095711159827e+04 -8.352026132389e+04 -8.600280345912e+04 -8.840748169001e+04 -9.073680481347e+04 -9.299303098342e+04 -9.517815290112e+04 -9.729390489864e+04 -9.934185892178e+04 -1.013246957045e+05 -1.053689961743e+03 -6.420605349533e+03 -1.157053723144e+04 -1.652025859589e+04 -2.128207347019e+04 -2.586683157723e+04 -3.028409842159e+04 -3.454242281634e+04 -3.864955148455e+04 -4.261258684103e+04 -4.643809923036e+04 -5.013220818727e+04 -5.370064274316e+04 -5.714878607968e+04 -6.048171091645e+04 -6.370420496548e+04 -6.682079354148e+04 -6.983575505919e+04 -7.275313517876e+04 -7.557675587229e+04 -7.831022282256e+04 -8.095692873729e+04 -8.352005403510e+04 -8.600256310834e+04 -8.840719704000e+04 -9.073646057622e+04 -9.299260575886e+04 -9.517761378011e+04 -9.729319349238e+04 -9.934084710664e+04 -1.013231292696e+05 -1.060316683905e+03 -6.423023646688e+03 -1.157166753836e+04 -1.652086036102e+04 -2.128238849994e+04 -2.586696813000e+04 -3.028411755433e+04 -3.454236395024e+04 -3.864944064914e+04 -4.261244186485e+04 -4.643793193064e+04 -5.013202656042e+04 -5.370045186156e+04 -5.714858914453e+04 -6.048150947906e+04 -6.370399940894e+04 -6.682058318783e+04 -6.983553819567e+04 -7.275290924823e+04 -7.557651686758e+04 -7.830996557063e+04 -8.095664589870e+04 -8.351973632726e+04 -8.600219787823e+04 -8.840676749376e+04 -9.073594403394e+04 -9.299197041621e+04 -9.517681065742e+04 -9.729213418289e+04 -9.933933657735e+04 -1.013207882190e+05 -1.070766435302e+03 -6.426784397117e+03 -1.157339763048e+04 -1.652176917695e+04 -2.128285289253e+04 -2.586715395168e+04 -3.028411999959e+04 -3.454224468097e+04 -3.864924047633e+04 -4.261218886117e+04 -4.643764419350e+04 -5.013171678862e+04 -5.370012802597e+04 -5.714825637122e+04 -6.048117025065e+04 -6.370365460109e+04 -6.682023196033e+04 -6.983517813557e+04 -7.275253643180e+04 -7.557612542228e+04 -7.830954748667e+04 -8.095619015887e+04 -8.351922833059e+04 -8.600161790772e+04 -8.840608953450e+04 -9.073513302794e+04 -9.299097743289e+04 -9.517555932217e+04 -9.729048224083e+04 -9.933696673744e+04 -1.013171041627e+05 -1.088569775517e+03 -6.433061450061e+03 -1.157619816533e+04 -1.652321394541e+04 -2.128357806572e+04 -2.586742249891e+04 -3.028408312393e+04 -3.454200298983e+04 -3.864886354489e+04 -4.261172363228e+04 -4.643712255632e+04 -5.013115956513e+04 -5.369954838156e+04 -5.714766263446e+04 -6.048056686899e+04 -6.370304304647e+04 -6.681961115824e+04 -6.983454465582e+04 -7.275188410736e+04 -7.557544481979e+04 -7.830882505514e+04 -8.095540763050e+04 -8.351836071705e+04 -8.600063316403e+04 -8.840494576894e+04 -9.073377551769e+04 -9.298932738742e+04 -9.517348563768e+04 -9.728772829184e+04 -9.933296776954e+04 -1.013108506709e+05 -1.122540015405e+03 -6.444834457572e+03 -1.158110216275e+04 -1.652556914188e+04 -2.128470972523e+04 -2.586780915114e+04 -3.028395552638e+04 -3.454151104280e+04 -3.864811914404e+04 -4.261081137129e+04 -4.643610396731e+04 -5.013007710568e+04 -5.369842978852e+04 -5.714652469080e+04 -6.047941769630e+04 -6.370188508056e+04 -6.681844072371e+04 -6.983335368013e+04 -7.275065831121e+04 -7.557416484146e+04 -7.830746454114e+04 -8.095393369321e+04 -8.351673365370e+04 -8.599880461127e+04 -8.840285500936e+04 -9.073133267065e+04 -9.298637931076e+04 -9.516974316978e+04 -9.728263382484e+04 -9.932542899991e+04 -1.012989894015e+05 -1.198136124310e+03 -6.472451771916e+03 -1.159192726922e+04 -1.652953261717e+04 -2.128575767654e+04 -2.586756623348e+04 -3.028306567923e+04 -3.454022111086e+04 -3.864653461750e+04 -4.260899582403e+04 -4.643411115561e+04 -5.012795540027e+04 -5.369621960332e+04 -5.714425448699e+04 -6.047710283963e+04 -6.369952798248e+04 -6.681603242085e+04 -6.983087640613e+04 -7.274808952296e+04 -7.557147948770e+04 -7.830463784443e+04 -8.095093852432e+04 -8.351353166723e+04 -8.599532317623e+04 -8.839894221755e+04 -9.072668700785e+04 -9.298045409205e+04 -9.516164839865e+04 -9.727106134854e+04 -9.930845076207e+04 -1.012727506848e+05 -1.386509703156e+03 -6.564690189873e+03 -1.164164774208e+04 -1.655238460136e+04 -2.129210515825e+04 -2.586485085084e+04 -3.027615627991e+04 -3.453195001518e+04 -3.863832998922e+04 -4.260142181363e+04 -4.642725917660e+04 -5.012169713295e+04 -5.369035918793e+04 -5.713861033002e+04 -6.047154726215e+04 -6.369399630340e+04 -6.681051760450e+04 -6.982540752799e+04 -7.274270049883e+04 -7.556616496643e+04 -7.829929299439e+04 -8.094528540386e+04 -8.350702862834e+04 -8.598707595825e+04 -8.838763604962e+04 -9.071060632995e+04 -9.295767756216e+04 -9.513053149096e+04 -9.723092244963e+04 -9.925937828805e+04 -1.012069491095e+05 -1.371364555419e+03 -6.847694767551e+03 -1.201149223695e+04 -1.691317309767e+04 -2.160295559671e+04 -2.611324323473e+04 -3.046327410786e+04 -3.466480919143e+04 -3.872572810742e+04 -4.265196660506e+04 -4.644850196681e+04 -5.011982935998e+04 -5.367018639284e+04 -5.710364499155e+04 -6.042414662389e+04 -6.363550308139e+04 -6.674139009428e+04 -6.974533997273e+04 -7.265073588358e+04 -7.546081734367e+04 -7.817869883946e+04 -8.080741644641e+04 -8.335000778389e+04 -8.580965621063e+04 -8.818993035489e+04 -9.049516658589e+04 -9.273102261374e+04 -9.490509770380e+04 -9.702687043307e+04 -9.910340208684e+04 -1.011107183734e+05 -5.769083615638e+03 -4.323298967875e+03 -8.652970353753e+03 -1.396725206190e+04 -1.932494239812e+04 -2.447176805700e+04 -2.935569009053e+04 -3.398389435622e+04 -3.837884465387e+04 -4.256464228154e+04 -4.656309005868e+04 -5.039292263157e+04 -5.407003842034e+04 -5.760800593196e+04 -6.101856591244e+04 -6.431208818965e+04 -6.749794704534e+04 -7.058482429719e+04 -7.358095263814e+04 -7.649430387729e+04 -7.933269505520e+04 -8.210378181434e+04 -8.481484197447e+04 -8.747210221144e+04 -9.007910494923e+04 -9.263281334000e+04 -9.511437501180e+04 -9.746661254883e+04 -9.953744049676e+04 -1.009327439129e+05 -1.003495712096e+05 
        </DataArray>
        <DataArray type="Float64" Name="STRESS_2" format="ascii">