<?xml version="1.0"?>
<!-- Time step: 12 | Time: 3.155760000000e+07 -->
<VTKFile type="UnstructuredGrid" version="0.1" byte_order="LittleEndian">
  <UnstructuredGrid>
    <Piece NumberOfPoints="16770" NumberOfCells="8192">
      <Points>
        <DataArray type="Float64" NumberOfComponents="3" format="ascii">
          -1.500000000000e+02 -1.170000000000e+00 7.500000000000e+01
          -1.476562500000e+02 -1.170000000000e+00 7.500000000000e+01
          -1.453125000000e+02 -1.170000000000e+00 7.500000000000e+01
          -1.429687500000e+02 -1.170000000000e+00 7.500000000000e+01
          -1.406250000000e+02 -1.170000000000e+00 7.500000000000e+01
          -1.382812500000e+02 -1.170000000000e+00 7.500000000000e+01
          -1.359375000000e+02 -1.170000000000e+00 7.500000000000e+01
          -1.335937500000e+02 -1.170000000000e+00 7.500000000000e+01
          -1.312500000000e+02 -1.170000000000e+00 7.500000000000e+01
          -1.289062500000e+02 -1.170000000000e+00 7.500000000000e+01
          -1.265625000000e+02 -1.170000000000e+00 7.500000000000e+01
          -1.242187500000e+02 -1.170000000000e+00 7.500000000000e+01
          -1.218750000000e+02 -1.170000000000e+00 7.500000000000e+01
          -1.195312500000e+02 -1.170000000000e+00 7.500000000000e+01
          -1.171875000000e+02 -1.170000000000e+00 7.500000000000e+01
          -1.148437500000e+02 -1.170000000000e+00 7.500000000000e+01
          -1.125000000000e+02 -1.170000000000e+00 7.500000000000e+01
          -1.101562500000e+02 -1.170000000000e+00 7.500000000000e+01
          -1.078125000000e+02 -1.170000000000e+00 7.500000000000e+01
          -1.054687500000e+02 -1.170000000000e+00 7.500000000000e+01
          -1.031250000000e+02 -1.170000000000e+00 7.500000000000e+01
          -1.007812500000e+02 -1.170000000000e+00 7.500000000000e+01
          -9.843750000000e+01 -1.170000000000e+00 7.500000000000e+01
          -9.609375000000e+01 -1.170000000000e+00 7.500000000000e+01
          -9.375000000000e+01 -1.170000000000e+00 7.500000000000e+01
          -9.140625000000e+01 -1.170000000000e+00 7.500000000000e+01
          -8.906250000000e+01 -1.170000000000e+00 7.500000000000e+01
          -8.671875000000e+01 -1.170000000000e+00 7.500000000000e+01
          -8.437500000000e+01 -1.170000000000e+00 7.500000000000e+01
          -8.203125000000e+01 -1.170000000000e+00 7.500000000000e+01
          -7.968750000000e+01 -1.170000000000e+00 7.500000000000e+01
          -7.734375000000e+01 -1.170000000000e+00 7.500000000000e+01
          -7.500000000000e+01 -1.170000000000e+00 7.500000000000e+01
          -7.265625000000e+01 -1.170000000000e+00 7.500000000000e+01
          -7.031250000000e+01 -1.170000000000e+00 7.500000000000e+01
          -6.796875000000e+01 -1.170000000000e+00 7.500000000000e+01
          -6.562500000000e+01 -1.170000000000e+00 7.500000000000e+01
          -6.328125000000e+01 -1.170000000000e+00 7.500000000000e+01
          -6.093750000000e+01 -1.170000000000e+00 7.500000000000e+01
          -5.859375000000e+01 -1.170000000000e+00 7.500000000000e+01
          -5.625000000000e+01 -1.170000000000e+00 7.500000000000e+01
          -5.390625000000e+01 -1.170000000000e+00 7.500000000000e+01
          -5.156250000000e+01 -1.170000000000e+00 7.500000000000e+01
          -4.921875000000e+01 -1.170000000000e+00 7.500000000000e+01
          -4.687500000000e+01 -1.170000000000e+00 7.500000000000e+01
          -4.453125000000e+01 -1.170000000000e+00 7.500000000000e+01
          -4.218750000000e+01 -1.170000000000e+00 7.500000000000e+01
          -3.984375000000e+01 -1.170000000000e+00 7.500000000000e+01
          -3.750000000000e+01 -1.170000000000e+00 7.500000000000e+01
          -3.515625000000e+01 -1.170000000000e+00 7.500000000000e+01
          -3.281250000000e+01 -1.170000000000e+00 7.500000000000e+01
          -3.046875000000e+01 -1.170000000000e+00 7.500000000000e+01
          -2.812500000000e+01 -1.170000000000e+00 7.500000000000e+01
          -2.578125000000e+01 -1.170000000000e+00 7.500000000000e+01
          -2.343750000000e+01 -1.170000000000e+00 7.500000000000e+01
          -2.109375000000e+01 -1.170000000000e+00 7.500000000000e+01
          -1.875000000000e+01 -1.170000000000e+00 7.500000000000e+01
          -1.640625000000e+01 -1.170000000000e+00 7.500000000000e+01
          -1.406250000000e+01 -1.170000000000e+00 7.500000000000e+01
          -1.171875000000e+01 -1.170000000000e+00 7.500000000000e+01
          -9.375000000000e+00 -1.170000000000e+00 7.500000000000e+01
          -7.031250000000e+00 -1.170000000000e+00 7.500000000000e+01
          -4.687500000000e+00 -1.170000000000e+00 7.500000000000e+01
          -2.343750000000e+00 -1.170000000000e+00 7.500000000000e+01
          0.000000000000e+00 -1.170000000000e+00 7.500000000000e+01
          2.343750000000e+00 -1.170000000000e+00 7.500000000000e+01
          4.687500000000e+00 -1.170000000000e+00 7.500000000000e+01
          7.031250000000e+00 -1.170000000000e+00 7.500000000000e+01
          9.375000000000e+00 -1.170000000000e+00 7.500000000000e+01
          1.171875000000e+01 -1.170000000000e+00 7.500000000000e+01
          1.406250000000e+01 -1.170000000000e+00 7.500000000000e+01
          1.640625000000e+01 -1.170000000000e+00 7.500000000000e+01
          1.875000000000e+01 -1.170000000000e+00 7.500000000000e+01
          2.109375000000e+01 -1.170000000000e+00 7.500000000000e+01
          2.343750000000e+01 -1.170000000000e+00 7.500000000000e+01
          2.578125000000e+01 -1.170000000000e+00 7.500000000000e+01
          2.812500000000e+01 -1.170000000000e+00 7.500000000000e+01
          3.046875000000e+01 -1.170000000000e+00 7.500000000000e+01
          3.281250000000e+01 -1.170000000000e+00 7.500000000000e+01
          3.515625000000e+01 -1.170000000000e+00 7.500000000000e+01
          3.750000000000e+01 -1.170000000000e+00 7.500000000000e+01
          3.984375000000e+01 -1.170000000000e+00 7.500000000000e+01
          4.218750000000e+01 -1.170000000000e+00 7.500000000000e+01
          4.453125000000e+01 -1.170000000000e+00 7.500000000000e+01
          4.687500000000e+01 -1.170000000000e+00 7.500000000000e+01
          4.921875000000e+01 -1.170000000000e+00 7.500000000000e+01
          5.156250000000e+01 -1.170000000000e+00 7.500000000000e+01
          5.390625000000e+01 -1.170000000000e+00 7.500000000000e+01
          5.625000000000e+01 -1.170000000000e+00 7.500000000000e+01
          5.859375000000e+01 -1.170000000000e+00 7.500000000000e+01
          6.093750000000e+01 -1.170000000000e+00 7.500000000000e+01
          6.328125000000e+01 -1.170000000000e+00 7.500000000000e+01
          6.562500000000e+01 -1.170000000000e+00 7.500000000000e+01
          6.796875000000e+01 -1.170000000000e+00 7.500000000000e+01
          7.031250000000e+01 -1.170000000000e+00 7.500000000000e+01
          7.265625000000e+01 -1.170000000000e+00 7.500000000000e+01
          7.500000000000e+01 -1.170000000000e+00 7.500000000000e+01
          7.734375000000e+01 -1.170000000000e+00 7.500000000000e+01
          7.968750000000e+01 -1.170000000000e+00 7.500000000000e+01
          8.203125000000e+01 -1.170000000000e+00 7.500000000000e+01
          8.437500000000e+01 -1.170000000000e+00 7.500000000000e+01
          8.671875000000e+01 -1.170000000000e+00 7.500000000000e+01
          8.906250000000e+01 -1.170000000000e+00 7.500000000000e+01
          9.140625000000e+01 -1.170000000000e+00 7.500000000000e+01
          9.375000000000e+01 -1.170000000000e+00 7.500000000000e+01
          9.609375000000e+01 -1.170000000000e+00 7.500000000000e+01
          9.843750000000e+01 -1.170000000000e+00 7.500000000000e+01
          1.007812500000e+02 -1.170000000000e+00 7.500000000000e+01
          1.031250000000e+02 -1.170000000000e+00 7.500000000000e+01
          1.054687500000e+02 -1.170000000000e+00 7.500000000000e+01
          1.078125000000e+02 -1.170000000000e+00 7.500000000000e+01
          1.101562500000e+02 -1.170000000000e+00 7.500000000000e+01
          1.125000000000e+02 -1.170000000000e+00 7.500000000000e+01
          1.148437500000e+02 -1.170000000000e+00 7.500000000000e+01
          1.171875000000e+02 -1.170000000000e+00 7.500000000000e+01
          1.195312500000e+02 -1.170000000000e+00 7.500000000000e+01
          1.218750000000e+02 -1.170000000000e+00 7.500000000000e+01
          1.242187500000e+02 -1.170000000000e+00 7.500000000000e+01
          1.265625000000e+02 -1.170000000000e+00 7.500000000000e+01
          1.289062500000e+02 -1.170000000000e+00 7.500000000000e+01
          1.312500000000e+02 -1.170000000000e+00 7.500000000000e+01
          1.335937500000e+02 -1.170000000000e+00 7.500000000000e+01
          1.359375000000e+02 -1.170000000000e+00 7.500000000000e+01
          1.382812500000e+02 -1.170000000000e+00 7.500000000000e+01
          1.406250000000e+02 -1.170000000000e+00 7.500000000000e+01
          1.429687500000e+02 -1.170000000000e+00 7.500000000000e+01
          1.453125000000e+02 -1.170000000000e+00 7.500000000000e+01
          1.476562500000e+02 -1.170000000000e+00 7.500000000000e+01
          1.500000000000e+02 -1.170000000000e+00 7.500000000000e+01
          -1.500000000000e+02 1.170000000000e+00 7.500000000000e+01
          -1.476562500000e+02 1.170000000000e+00 7.500000000000e+01
          -1.453125000000e+02 1.170000000000e+00 7.500000000000e+01
          -1.429687500000e+02 1.170000000000e+00 7.500000000000e+01
          -1.406250000000e+02 1.170000000000e+00 7.500000000000e+01
          -1.382812500000e+02 1.170000000000e+00 7.500000000000e+01
          -1.359375000000e+02 1.170000000000e+00 7.500000000000e+01
          -1.335937500000e+02 1.170000000000e+00 7.500000000000e+01
          -1.312500000000e+02 1.170000000000e+00 7.500000000000e+01
          -1.289062500000e+02 1.170000000000e+00 7.500000000000e+01
          -1.265625000000e+02 1.170000000000e+00 7.500000000000e+01
          -1.242187500000e+02 1.170000000000e+00 7.500000000000e+01
[...]
      <PointData Scalars="PRESSURE1">
        <DataArray type="Float64" Name="PRESSURE1" format="ascii">
          0.000000000000e+00 -3.319376958579e-01 -1.329022893626e+00 -2.995094181540e+00 -5.336577642455e+00 -8.362533173619e+00 -1.208471886069e+01 -1.651767514343e+01 -2.167882982057e+01 -2.758862525586e+01 -3.427066944531e+01 -4.175191294399e+01 -5.006285402906e+01 -5.923777490322e+01 -6.931501222768e+01 -8.033726582929e+01 -9.235195006476e+01 -1.054115930624e+02 -1.195742899187e+02 -1.349042169233e+02 -1.514722150550e+02 -1.693564523566e+02 -1.886431764127e+02 -2.094275700510e+02 -2.318147256473e+02 -2.559207560856e+02 -2.818740636154e+02 -3.098167916556e+02 -3.399064891522e+02 -3.723180225746e+02 -4.072457772151e+02 -4.449061973950e+02 -4.855407247523e+02 -5.294192053406e+02 -5.768438502116e+02 -6.281538509432e+02 -6.837307717338e+02 -7.440048637639e+02 -8.094624760767e+02 -8.806547707349e+02 -9.582079887877e+02 -1.042835557624e+03 -1.135352379077e+03 -1.236691689902e+03 -1.347924939608e+03 -1.470285181538e+03 -1.605194516653e+03 -1.754296160111e+03 -1.919491714103e+03 -2.102984227596e+03 -2.307327621404e+03 -2.535483107570e+03 -2.790883464646e+03 -3.077506735066e+03 -3.399962708046e+03 -3.763599797411e+03 -4.174649324429e+03 -4.640447144228e+03 -5.169811747790e+03 -5.773874562706e+03 -6.467285607360e+03 -7.276693831932e+03 -8.227314129378e+03 -9.544657056330e+03 -1.208893065216e+04 -1.420009054475e+04 -1.601698337030e+04 -1.774827801807e+04 -1.938524053464e+04 -2.087530596361e+04 -2.211819513762e+04 -2.299203386623e+04 -2.340862447121e+04 -2.336749426785e+04 -2.296761360226e+04 -2.236805004898e+04 -2.172823459747e+04 -2.116555488196e+04 -2.074357660424e+04 -2.048070008787e+04 -2.036490736477e+04 -2.036694323984e+04 -2.045017330151e+04 -2.057762600795e+04 -2.071689760017e+04 -2.084323469384e+04 -2.094089133645e+04 -2.100290192535e+04 -2.102960187282e+04 -2.102640451817e+04 -2.100139846313e+04 -2.096324138858e+04 -2.091964109176e+04 -2.087650795452e+04 -2.083769983650e+04 -2.080519088296e+04 -2.077947652111e+04 -2.076005516623e+04 -2.074587654170e+04 -2.073569696421e+04 -2.072832236749e+04 -2.072274660221e+04 -2.071820660603e+04 -2.071418041666e+04 -2.071035216312e+04 -2.070656313911e+04 -2.070276207881e+04 -2.069896223758e+04 -2.069520854278e+04 -2.069155512393e+04 -2.068805183251e+04 -2.068473763734e+04 -2.068163871183e+04 -2.067876932912e+04 -2.067613413229e+04 -2.067373080936e+04 -2.067155259655e+04 -2.066959033036e+04 -2.066783396709e+04 -2.066627360518e+04 -2.066490010084e+04 -2.066370538309e+04 -2.066268256650e+04 -2.066182594154e+04 -2.066113090141e+04 -2.066059384542e+04 -2.066021208317e+04 -2.065998375331e+04 -2.065990776338e+04 0.000000000000e+00 -3.319376958386e-01 -1.329022893602e+00 -2.995094181514e+00 -5.336577642431e+00 -8.362533173592e+00 -1.208471886067e+01 -1.651767514341e+01 -2.167882982055e+01 -2.758862525583e+01 -3.427066944529e+01 -4.175191294397e+01 -5.006285402903e+01 -5.923777490320e+01 -6.931501222765e+01 -8.033726582927e+01 -9.235195006473e+01 -1.054115930624e+02 -1.195742899187e+02 -1.349042169233e+02 -1.514722150549e+02 -1.693564523566e+02 -1.886431764127e+02 -2.094275700510e+02 -2.318147256473e+02 -2.559207560856e+02 -2.818740636154e+02 -3.098167916556e+02 -3.399064891522e+02 -3.723180225746e+02 -4.072457772151e+02 -4.449061973950e+02 -4.855407247523e+02 -5.294192053406e+02 -5.768438502116e+02 -6.281538509432e+02 -6.837307717338e+02 -7.440048637639e+02 -8.094624760766e+02 -8.806547707349e+02 -9.582079887877e+02 -1.042835557624e+03 -1.135352379077e+03 -1.236691689902e+03 -1.347924939608e+03 -1.470285181538e+03 -1.605194516653e+03 -1.754296160111e+03 -1.919491714103e+03 -2.102984227596e+03 -2.307327621404e+03 -2.535483107570e+03 -2.790883464646e+03 -3.077506735066e+03 -3.399962708046e+03 -3.763599797411e+03 -4.174649324429e+03 -4.640447144228e+03 -5.169811747790e+03 -5.773874562706e+03 -6.467285607360e+03 -7.276693831932e+03 -8.227314129378e+03 -9.544657056330e+03 -1.208893065216e+04 -1.420009054475e+04 -1.601698337030e+04 -1.774827801807e+04 -1.938524053464e+04 -2.087530596361e+04 -2.211819513762e+04 -2.299203386623e+04 -2.340862447121e+04 -2.336749426785e+04 -2.296761360226e+04 -2.236805004898e+04 -2.172823459747e+04 -2.116555488196e+04 -2.074357660424e+04 -2.048070008787e+04 -2.036490736477e+04 -2.036694323984e+04 -2.045017330151e+04 -2.057762600795e+04 -2.071689760017e+04 -2.084323469384e+04 -2.094089133645e+04 -2.100290192535e+04 -2.102960187282e+04 -2.102640451817e+04 -2.100139846313e+04 -2.096324138858e+04 -2.091964109176e+04 -2.087650795452e+04 -2.083769983650e+04 -2.080519088296e+04 -2.077947652111e+04 -2.076005516623e+04 -2.074587654170e+04 -2.073569696421e+04 -2.072832236749e+04 -2.072274660221e+04 -2.071820660603e+04 -2.071418041666e+04 -2.071035216312e+04 -2.070656313911e+04 -2.070276207881e+04 -2.069896223758e+04 -2.069520854278e+04 -2.069155512393e+04 -2.068805183251e+04 -2.068473763734e+04 -2.068163871183e+04 -2.067876932912e+04 -2.067613413229e+04 -2.067373080936e+04 -2.067155259655e+04 -2.066959033036e+04 -2.066783396709e+04 -2.066627360518e+04 -2.066490010083e+04 -2.066370538309e+04 -2.066268256650e+04 -2.066182594154e+04 -2.066113090141e+04 -2.066059384542e+04 -2.066021208317e+04 -2.065998375331e+04 -2.065990776338e+04 2.299251901029e+04 2.299218771061e+04 2.299119253977e+04 2.298952967399e+04 2.298719270979e+04 2.298417261933e+04 2.298045768644e+04 2.297603342295e+04 2.297088246438e+04 2.296498444359e+04 2.295831584064e+04 2.295084980710e+04 2.294255596224e+04 2.293340015849e+04 2.292334421282e+04 2.291234560020e+04 2.290035710492e+04 2.288732642427e+04 2.287319571892e+04 2.285790110278e+04 2.284137206424e+04 2.282353080943e+04 2.280429151622e+04 2.278355948622e+04 2.276123017948e+04 2.273718811417e+04 2.271130561037e+04 2.268344135327e+04 2.265343874678e+04 2.262112402311e+04 2.258630406767e+04 2.254876391068e+04 2.250826382809e+04 2.246453598294e+04 2.241728052551e+04 2.236616105428e+04 2.231079932132e+04 2.225076904300e+04 2.218558865089e+04 2.211471278705e+04 2.203752231303e+04 2.195331256252e+04 2.186127952495e+04 2.176050360201e+04 2.164993053418e+04 2.152834905375e+04 2.139436478873e+04 2.124636992634e+04 2.108250815157e+04 2.090063440902e+04 2.069826908966e+04 2.047254628695e+04 2.022015571076e+04 1.993727749085e+04 1.961950799387e+04 1.926177201216e+04 1.885821009725e+04 1.840201701093e+04 1.788516491371e+04 1.729796783424e+04 1.662757413280e+04 1.585966255403e+04 1.495259448321e+04 1.389940969616e+04 1.313034640500e+04 1.182868981069e+04 1.033652729561e+04 8.842775368539e+03 7.392630275358e+03 6.058495612611e+03 4.943233934699e+03 4.162888780967e+03 3.800006607173e+03 3.856122314829e+03 4.241662286628e+03 4.812316536943e+03 5.423330944531e+03 5.967302266359e+03 6.384548119054e+03 6.655787726071e+03 6.789596285963e+03 6.811022864161e+03 6.752824047545e+03 6.648949696279e+03 6.529806143049e+03 6.419129577702e+03 6.332467220218e+03 6.277187412084e+03 6.253730126342e+03 6.257619845260e+03 6.281697365593e+03 6.318106533988e+03 6.359748269328e+03 6.401112005958e+03 6.438551241916e+03 6.470156430094e+03 6.495398628574e+03 6.514692747265e+03 6.528984456540e+03 6.539418481620e+03 6.547108430684e+03 6.553003026107e+03 6.557829952632e+03 6.562093875609e+03 6.566106416990e+03 6.570030240037e+03 6.573924794009e+03 6.577786352797e+03 6.581579038653e+03 6.585256331096e+03 6.588774210244e+03 6.592097819435e+03 6.595203644628e+03 6.598078961608e+03 6.600719899924e+03 6.603129050358e+03 6.605313176390e+03 6.607281310968e+03 6.609043330231e+03 6.610608982590e+03 6.611987295660e+03 6.613186265993e+03 6.614212741483e+03 6.615072422027e+03 6.615769922863e+03 6.616308862577e+03 6.616691951934e+03 6.616921070082e+03 6.616997321381e+03 2.299251901029e+04 2.299218771061e+04 2.299119253977e+04 2.298952967399e+04 2.298719270979e+04 2.298417261933e+04 2.298045768644e+04 2.297603342295e+04 2.297088246438e+04 2.296498444359e+04 2.295831584064e+04 2.295084980710e+04 2.294255596224e+04 2.293340015849e+04 2.292334421282e+04 2.291234560020e+04 2.290035710492e+04 2.288732642427e+04 2.287319571892e+04 2.285790110278e+04 2.284137206424e+04 2.282353080943e+04 2.280429151622e+04 2.278355948622e+04 2.276123017948e+04 2.273718811417e+04 2.271130561037e+04 2.268344135327e+04 2.265343874678e+04 2.262112402311e+04 2.258630406767e+04 2.254876391068e+04 2.250826382809e+04 2.246453598294e+04 2.241728052551e+04 2.236616105428e+04 2.231079932132e+04 2.225076904300e+04 2.218558865089e+04 2.211471278705e+04 2.203752231303e+04 2.195331256252e+04 2.186127952495e+04 2.176050360201e+04 2.164993053418e+04 2.152834905375e+04 2.139436478873e+04 2.124636992634e+04 2.108250815157e+04 2.090063440902e+04 2.069826908966e+04 2.047254628695e+04 2.022015571076e+04 1.993727749085e+04 1.961950799387e+04 1.926177201216e+04 1.885821009725e+04 1.840201701093e+04 1.788516491371e+04 1.729796783424e+04 1.662757413280e+04 1.585966255403e+04 1.495259448321e+04 1.389940969616e+04 1.313034640500e+04 1.182868981069e+04 1.033652729561e+04 8.842775368539e+03 7.392630275358e+03 6.058495612611e+03 4.943233934699e+03 4.162888780967e+03 3.800006607173e+03 3.856122314829e+03 4.241662286628e+03 4.812316536943e+03 5.423330944531e+03 5.967302266359e+03 6.384548119054e+03 6.655787726071e+03 6.789596285963e+03 6.811022864161e+03 6.752824047545e+03 6.648949696279e+03 6.529806143049e+03 6.419129577702e+03 6.332467220218e+03 6.277187412084e+03 6.253730126342e+03 6.257619845260e+03 6.281697365593e+03 6.318106533988e+03 6.359748269328e+03 6.401112005958e+03 6.438551241916e+03 6.470156430094e+03 6.495398628574e+03 6.514692747265e+03 6.528984456540e+03 6.539418481620e+03 6.547108430684e+03 6.553003026107e+03 6.557829952632e+03 6.562093875609e+03 6.566106416990e+03 6.570030240037e+03 6.573924794009e+03 6.577786352797e+03 6.581579038653e+03 6.585256331096e+03 6.588774210244e+03 6.592097819435e+03 6.595203644628e+03 6.598078961608e+03 6.600719899924e+03 6.603129050358e+03 6.605313176390e+03 6.607281310968e+03 6.609043330231e+03 6.610608982591e+03 6.611987295660e+03 6.613186265993e+03 6.614212741483e+03 6.615072422027e+03 6.615769922863e+03 6.616308862577e+03 6.616691951934e+03 6.616921070082e+03 6.616997321381e+03 4.598569977499e+04 4.598537038075e+04 4.598438093968e+04 4.598272766787e+04 4.598040422953e+04 4.597740169257e+04 4.597370846601e+04 4.596931021783e+04 4.596418977273e+04 4.595832698819e+04 4.595169860730e+04 4.594427808659e+04 4.593603539641e+04 4.592693679118e+04 4.591694454647e+04 4.590601665916e+04 4.589410650639e+04 4.588116245827e+04 4.586712743867e+04 4.585193842727e+04 4.583552589500e+04 4.581781316379e+04 4.579871568001e+04 4.577814018912e+04 4.575598379699e+04 4.573213290097e+04 4.570646197064e+04 4.567883215484e+04 4.564908968724e+04 4.561706405791e+04 4.558256591221e+04 4.554538463133e+04 4.550528554022e+04 4.546200667857e+04 4.541525505829e+04 4.536470231650e+04 4.530997965612e+04 4.525067194570e+04 4.518631082690e+04 4.511636665064e+04 4.504023903192e+04 4.495724577882e+04 4.486660991350e+04 4.476744446408e+04 4.465873466787e+04 4.453931719377e+04 4.440785596991e+04 4.426281420212e+04 4.410242220235e+04 4.392464073007e+04 4.372711970556e+04 4.350715240108e+04 4.326162556893e+04 4.298696641777e+04 4.267908786284e+04 4.233333395241e+04 4.194442804084e+04 4.150642615198e+04 4.101269497634e+04 4.045588077115e+04 3.982857772981e+04 3.912205738763e+04 3.833935569459e+04 3.755511331550e+04 3.674418506696e+04 3.594801951212e+04 3.499194035844e+04 3.393663470712e+04 3.287419542904e+04 3.188837328001e+04 3.107258970134e+04 3.051883752215e+04 3.028843688981e+04 3.038104277025e+04 3.072914072665e+04 3.122552781088e+04 3.176227962250e+04 3.225683869011e+04 3.265945033111e+04 3.294928644424e+04 3.312701136634e+04 3.320751901848e+04 3.321377665997e+04 3.317173467137e+04 3.310621139002e+04 3.303784619819e+04 3.298129613675e+04 3.294474253230e+04 3.293054674239e+04 3.293668273337e+04 3.295848102873e+04 3.299026663528e+04 3.302661764627e+04 3.306314014162e+04 3.309679137892e+04 3.312586159734e+04 3.314974794762e+04 3.316863976292e+04 3.318320225266e+04 3.319431054219e+04 3.320285621417e+04 3.320962740781e+04 3.321525113768e+04 3.322018121608e+04 3.322471485555e+04 3.322902362137e+04 3.323318822237e+04 3.323723050859e+04 3.324113931337e+04 3.324488915956e+04 3.324845234165e+04 3.325180564801e+04 3.325493320834e+04 3.325782684575e+04 3.326048504489e+04 3.326291133506e+04 3.326511259937e+04 3.326709759104e+04 3.326887577443e+04 3.327045650488e+04 3.327184850536e+04 3.327305957483e+04 3.327409646092e+04 3.327496483807e+04 3.327566934528e+04 3.327621365071e+04 3.327660052158e+04 3.327683188646e+04 3.327690888280e+04 4.598569977499e+04 4.598537038075e+04 4.598438093968e+04 4.598272766787e+04 4.598040422953e+04 4.597740169257e+04 4.597370846601e+04 4.596931021783e+04 4.596418977273e+04 4.595832698819e+04 4.595169860730e+04 4.594427808659e+04 4.593603539641e+04 4.592693679118e+04 4.591694454647e+04 4.590601665916e+04 4.589410650639e+04 4.588116245827e+04 4.586712743867e+04 4.585193842727e+04 4.583552589500e+04 4.581781316379e+04 4.579871568001e+04 4.577814018912e+04 4.575598379699e+04 4.573213290097e+04 4.570646197064e+04 4.567883215484e+04 4.564908968724e+04 4.561706405791e+04 4.558256591221e+04 4.554538463133e+04 4.550528554022e+04 4.546200667857e+04 4.541525505829e+04 4.536470231650e+04 4.530997965612e+04 4.525067194570e+04 4.518631082690e+04 4.511636665064e+04 4.504023903193e+04 4.495724577882e+04 4.486660991350e+04 4.476744446408e+04 4.465873466787e+04 4.453931719377e+04 4.440785596991e+04 4.426281420212e+04 4.410242220235e+04 4.392464073007e+04 4.372711970556e+04 4.350715240108e+04 4.326162556893e+04 4.298696641777e+04 4.267908786284e+04 4.233333395241e+04 4.194442804084e+04 4.150642615198e+04 4.101269497634e+04 4.045588077115e+04 3.982857772981e+04 3.912205738763e+04 3.833935569459e+04 3.755511331550e+04 3.674418506696e+04 3.594801951212e+04 3.499194035844e+04 3.393663470712e+04 3.287419542904e+04 3.188837328001e+04 3.107258970134e+04 3.051883752215e+04 3.028843688981e+04 3.038104277025e+04 3.072914072665e+04 3.122552781088e+04 3.176227962250e+04 3.225683869011e+04 3.265945033111e+04 3.294928644424e+04 3.312701136634e+04 3.320751901848e+04 3.321377665997e+04 3.317173467137e+04 3.310621139002e+04 3.303784619819e+04 3.298129613675e+04 3.294474253230e+04 3.293054674239e+04 3.293668273337e+04 3.295848102873e+04 3.299026663528e+04 3.302661764627e+04 3.306314014162e+04 3.309679137892e+04 3.312586159734e+04 3.314974794762e+04 3.316863976292e+04 3.318320225266e+04 3.319431054219e+04 3.320285621417e+04 3.320962740781e+04 3.321525113768e+04 3.322018121608e+04 3.322471485555e+04 3.322902362137e+04 3.323318822237e+04 3.323723050859e+04 3.324113931337e+04 3.324488915956e+04 3.324845234165e+04 3.325180564801e+04 3.325493320834e+04 3.325782684575e+04 3.326048504489e+04 3.326291133506e+04 3.326511259937e+04 3.326709759104e+04 3.326887577443e+04 3.327045650488e+04 3.327184850536e+04 3.327305957483e+04 3.327409646092e+04 3.327496483807e+04 3.327566934528e+04 3.327621365071e+04 3.327660052158e+04 3.327683188646e+04 3.327690888280e+04 6.897953849116e+04 6.897921225786e+04 6.897823232162e+04 6.897659496495e+04 6.897429396368e+04 6.897132054401e+04 6.896766332180e+04 6.896330822312e+04 6.895823838520e+04 6.895243403663e+04 6.894587235502e+04 6.893852730061e+04 6.893036942344e+04 6.892136564165e+04 6.891147898789e+04 6.890066832033e+04 6.888888799429e+04 6.887608748969e+04 6.886221098900e+04 6.884719689917e+04 6.883097731038e+04 6.881347738287e+04 6.879461465206e+04 6.877429824026e+04 6.875242796153e+04 6.872889330386e+04 6.870357227020e+04 6.867633005660e+04 6.864701754219e+04 6.861546956081e+04 6.858150291926e+04 6.854491412032e+04 6.850547674151e+04 6.846293841133e+04 6.841701731418e+04 6.836739814250e+04 6.831372739972e+04 6.825560794022e+04 6.819259261204e+04 6.812417684463e+04 6.804978999725e+04 6.796878525371e+04 6.788042781709e+04 6.778388112482e+04 6.767819077277e+04 6.756226581203e+04 6.743485707146e+04 6.729453217642e+04 6.713964700123e+04 6.696831344431e+04 6.677836370502e+04 6.656731175630e+04 6.633231358345e+04 6.607012922302e+04 6.577709207905e+04 6.544909521696e+04 6.508161186221e+04 6.466978388856e+04 6.420863806874e+04 6.369363502775e+04 6.312161837706e+04 6.249438115747e+04 6.182884371147e+04 6.114472966886e+04 6.046916900906e+04 5.978809470008e+04 5.909290669395e+04 5.837067906392e+04 5.766311850600e+04 5.703274854782e+04 5.654270728393e+04 5.624507183090e+04 5.616688566665e+04 5.629923142724e+04 5.659846051125e+04 5.700134381818e+04 5.744359265224e+04 5.787206379160e+04 5.824955532430e+04 5.855494359528e+04 5.878103345327e+04 5.893149368397e+04 5.901755857623e+04 5.905479251015e+04 5.906009203648e+04 5.904913686905e+04 5.903454267570e+04 5.902490088904e+04 5.902471294777e+04 5.903502831239e+04 5.905447428937e+04 5.908035956751e+04 5.910961625317e+04 5.913946159739e+04 5.916776295517e+04 5.919315491396e+04 5.921498510411e+04 5.923316542404e+04 5.924799075464e+04 5.925996747121e+04 5.926967521437e+04 5.927767040777e+04 5.928442982139e+04 5.929032677510e+04 5.929563044293e+04 5.930051902672e+04 5.930509924562e+04 5.930942677774e+04 5.931352440768e+04 5.931739635754e+04 5.932103849538e+04 5.932444484762e+04 5.932761118577e+04 5.933053653252e+04 5.933322334592e+04 5.933567698075e+04 5.933790485118e+04 5.933991556226e+04 5.934171815519e+04 5.934332152548e+04 5.934473401923e+04 5.934596318382e+04 5.934701563810e+04 5.934789702597e+04 5.934861202220e+04 5.934916436613e+04 5.934955690563e+04 5.934979163991e+04 5.934986975385e+04 6.897953849116e+04 6.897921225786e+04 6.897823232162e+04 6.897659496495e+04 6.897429396368e+04 6.897132054401e+04 6.896766332180e+04 6.896330822312e+04 6.895823838520e+04 6.895243403663e+04 6.894587235502e+04 6.893852730061e+04 6.893036942344e+04 6.892136564165e+04 6.891147898789e+04 6.890066832033e+04 6.888888799429e+04 6.887608748969e+04 6.886221098900e+04 6.884719689917e+04 6.883097731038e+04 6.881347738287e+04 6.879461465206e+04 6.877429824026e+04 6.875242796153e+04 6.872889330386e+04 6.870357227020e+04 6.867633005660e+04 6.864701754219e+04 6.861546956081e+04 6.858150291926e+04 6.854491412032e+04 6.850547674151e+04 6.846293841133e+04 6.841701731418e+04 6.836739814250e+04 6.831372739972e+04 6.825560794022e+04 6.819259261204e+04 6.812417684463e+04 6.804978999725e+04 6.796878525371e+04 6.788042781709e+04 6.778388112482e+04 6.767819077277e+04 6.756226581203e+04 6.743485707146e+04 6.729453217642e+04 6.713964700123e+04 6.696831344431e+04 6.677836370502e+04 6.656731175630e+04 6.633231358345e+04 6.607012922302e+04 6.577709207905e+04 6.544909521696e+04 6.508161186221e+04 6.466978388856e+04 6.420863806874e+04 6.369363502775e+04 6.312161837706e+04 6.249438115747e+04 6.182884371147e+04 6.114472966886e+04 6.046916900906e+04 5.978809470008e+04 5.909290669395e+04 5.837067906392e+04 5.766311850600e+04 5.703274854782e+04 5.654270728393e+04 5.624507183090e+04 5.616688566665e+04 5.629923142724e+04 5.659846051125e+04 5.700134381818e+04 5.744359265224e+04 5.787206379160e+04 5.824955532430e+04 5.855494359528e+04 5.878103345327e+04 5.893149368397e+04 5.901755857623e+04 5.905479251015e+04 5.906009203648e+04 5.904913686905e+04 5.903454267570e+04 5.902490088904e+04 5.902471294777e+04 5.903502831239e+04 5.905447428937e+04 5.908035956751e+04 5.910961625317e+04 5.913946159739e+04 5.916776295517e+04 5.919315491396e+04 5.921498510411e+04 5.923316542404e+04 5.924799075464e+04 5.925996747121e+04 5.926967521437e+04 5.927767040777e+04 5.928442982139e+04 5.929032677510e+04 5.929563044293e+04 5.930051902672e+04 5.930509924562e+04 5.930942677774e+04 5.931352440768e+04 5.931739635754e+04 5.932103849538e+04 5.932444484762e+04 5.932761118576e+04 5.933053653252e+04 5.933322334592e+04 5.933567698075e+04 5.933790485118e+04 5.933991556226e+04 5.934171815519e+04 5.934332152548e+04 5.934473401923e+04 5.934596318382e+04 5.934701563810e+04 5.934789702597e+04 5.934861202220e+04 5.934916436613e+04 5.934955690563e+04 5.934979163991e+04 5.934986975385e+04 9.197402885161e+04 9.