 TITLE = "Profiles along polylines"
 VARIABLES = "DIST" "PRESSURE1" "VELOCITY_X1" "VELOCITY_Y1" "VELOCITY_Z1" 
 ZONE T="TIME=0.000000000000e+00"
0.000000000000e+00 0.000000000000e+00 0.000000000000e+00 0.000000000000e+00 0.000000000000e+00 
2.000000000000e+00 0.000000000000e+00 0.000000000000e+00 0.000000000000e+00 0.000000000000e+00 
4.000000000000e+00 0.000000000000e+00 0.000000000000e+00 0.000000000000e+00 0.000000000000e+00 
6.000000000000e+00 0.000000000000e+00 0.000000000000e+00 0.000000000000e+00 0.000000000000e+00 
8.000000000000e+00 0.000000000000e+00 0.000000000000e+00 0.000000000000e+00 0.000000000000e+00 
1.000000000000e+01 0.000000000000e+00 0.000000000000e+00 0.000000000000e+00 0.000000000000e+00 
 TITLE = "Profiles along polylines"
 VARIABLES = "DIST" "PRESSURE1" "VELOCITY_X1" "VELOCITY_Y1" "VELOCITY_Z1" 
 ZONE T="TIME=5.184000000000e+06"
0.000000000000e+00 2.000000000000e+06 -8.469053099858e-18 -1.414213677233e-03 1.414213447514e-03 
2.000000000000e+00 2.025873433920e+06 4.744775245707e-17 -1.414213677233e-03 1.414213447514e-03 
4.000000000000e+00 2.051746867840e+06 1.418616093599e-16 -1.414213677233e-03 1.414213447514e-03 
6.000000000000e+00 2.077620301760e+06 1.263407050595e-16 -1.414213677232e-03 1.414213447514e-03 
8.000000000000e+00 2.103493735680e+06 -9.402185145694e-17 -1.414213677232e-03 1.414213447514e-03 
1.000000000000e+01 2.129367169601e+06 1.278866777577e-16 -1.414213677232e-03 1.414213447514e-03 
