VARIABLES  = "X","Y","Z", "PRESSURE1", "VELOCITY_X1", "VELOCITY_Y1", "VELOCITY_Z1"
ZONE T="0.000000000000e+00s", N=36, E=25, F=FEPOINT, ET=QUADRILATERAL
STRANDID=1, SOLUTIONTIME=0.000000000000e+00
0.000000000000e+00 0.000000000000e+00 0.000000000000e+00 0.000000000000e+00 0.000000000000e+00 0.000000000000e+00 0.000000000000e+00 
0.000000000000e+00 1.414213677232e+00 -1.414213447514e+00 0.000000000000e+00 0.000000000000e+00 0.000000000000e+00 0.000000000000e+00 
2.000000000000e+00 1.414213677232e+00 -1.414213447514e+00 0.000000000000e+00 0.000000000000e+00 0.000000000000e+00 0.000000000000e+00 
2.000000000000e+00 0.000000000000e+00 0.000000000000e+00 0.000000000000e+00 0.000000000000e+00 0.000000000000e+00 0.000000000000e+00 
4.000000000000e+00 1.414213677232e+00 -1.414213447514e+00 0.000000000000e+00 0.000000000000e+00 0.000000000000e+00 0.000000000000e+00 
4.000000000000e+00 0.000000000000e+00 0.000000000000e+00 0.000000000000e+00 0.000000000000e+00 0.000000000000e+00 0.000000000000e+00 
6.000000000000e+00 1.414213677232e+00 -1.414213447514e+00 0.000000000000e+00 0.000000000000e+00 0.000000000000e+00 0.000000000000e+00 
6.000000000000e+00 0.000000000000e+00 0.000000000000e+00 0.000000000000e+00 0.000000000000e+00 0.000000000000e+00 0.000000000000e+00 
8.000000000000e+00 1.414213677232e+00 -1.414213447514e+00 0.000000000000e+00 0.000000000000e+00 0.000000000000e+00 0.000000000000e+00 
8.000000000000e+00 0.000000000000e+00 0.000000000000e+00 0.000000000000e+00 0.000000000000e+00 0.000000000000e+00 0.000000000000e+00 
1.000000000000e+01 1.414213677232e+00 -1.414213447514e+00 0.000000000000e+00 0.000000000000e+00 0.000000000000e+00 0.000000000000e+00 
1.000000000000e+01 0.000000000000e+00 0.000000000000e+00 0.000000000000e+00 0.000000000000e+00 0.000000000000e+00 0.000000000000e+00 
0.000000000000e+00 2.828427354465e+00 -2.828426895027e+00 0.000000000000e+00 0.000000000000e+00 0.000000000000e+00 0.000000000000e+00 
2.000000000000e+00 2.828427354465e+00 -2.828426895027e+00 0.000000000000e+00 0.000000000000e+00 0.000000000000e+00 0.000000000000e+00 
4.000000000000e+00 2.828427354465e+00 -2.828426895027e+00 0.000000000000e+00 0.000000000000e+00 0.000000000000e+00 0.000000000000e+00 
6.000000000000e+00 2.828427354465e+00 -2.828426895027e+00 0.000000000000e+00 0.000000000000e+00 0.000000000000e+00 0.000000000000e+00 
8.000000000000e+00 2.828427354465e+00 -2.828426895027e+00 0.000000000000e+00 0.000000000000e+00 0.000000000000e+00 0.000000000000e+00 
1.000000000000e+01 2.828427354465e+00 -2.828426895027e+00 0.000000000000e+00 0.000000000000e+00 0.000000000000e+00 0.000000000000e+00 
0.000000000000e+00 4.242641031697e+00 -4.242640342541e+00 0.000000000000e+00 0.000000000000e+00 0.000000000000e+00 0.000000000000e+00 
2.000000000000e+00 4.242641031697e+00 -4.242640342541e+00 0.000000000000e+00 0.000000000000e+00 0.000000000000e+00 0.000000000000e+00 
4.000000000000e+00 4.242641031697e+00 -4.242640342541e+00 0.000000000000e+00 0.000000000000e+00 0.000000000000e+00 0.000000000000e+00 
6.000000000000e+00 4.242641031697e+00 -4.242640342541e+00 0.000000000000e+00 0.000000000000e+00 0.000000000000e+00 0.000000000000e+00 
8.000000000000e+00 4.242641031697e+00 -4.242640342541e+00 0.000000000000e+00 0.000000000000e+00 0.000000000000e+00 0.000000000000e+00 
1.000000000000e+01 4.242641031697e+00 -4.242640342541e+00 0.000000000000e+00 0.000000000000e+00 0.000000000000e+00 0.000000000000e+00 
0.000000000000e+00 5.656854708930e+00 -5.656853790055e+00 0.000000000000e+00 0.000000000000e+00 0.000000000000e+00 0.000000000000e+00 
2.000000000000e+00 5.656854708930e+00 -5.656853790055e+00 0.000000000000e+00 0.000000000000e+00 0.000000000000e+00 0.000000000000e+00 
4.000000000000e+00 5.656854708930e+00 -5.656853790055e+00 0.000000000000e+00 0.000000000000e+00 0.000000000000e+00 0.000000000000e+00 
6.000000000000e+00 5.656854708930e+00 -5.656853790055e+00 0.000000000000e+00 0.000000000000e+00 0.000000000000e+00 0.000000000000e+00 
8.000000000000e+00 5.656854708930e+00 -5.656853790055e+00 0.000000000000e+00 0.000000000000e+00 0.000000000000e+00 0.000000000000e+00 
1.000000000000e+01 5.656854708930e+00 -5.656853790055e+00 0.000000000000e+00 0.000000000000e+00 0.000000000000e+00 0.000000000000e+00 
0.000000000000e+00 7.071068386162e+00 -7.071067237568e+00 0.000000000000e+00 0.000000000000e+00 0.000000000000e+00 0.000000000000e+00 
2.000000000000e+00 7.071068386162e+00 -7.071067237568e+00 0.000000000000e+00 0.000000000000e+00 0.000000000000e+00 0.000000000000e+00 
4.000000000000e+00 7.071068386162e+00 -7.071067237568e+00 0.000000000000e+00 0.000000000000e+00 0.000000000000e+00 0.000000000000e+00 
6.000000000000e+00 7.071068386162e+00 -7.071067237568e+00 0.000000000000e+00 0.000000000000e+00 0.000000000000e+00 0.000000000000e+00 
8.000000000000e+00 7.071068386162e+00 -7.071067237568e+00 0.000000000000e+00 0.000000000000e+00 0.000000000000e+00 0.000000000000e+00 
1.000000000000e+01 7.071068386162e+00 -7.071067237568e+00 0.000000000000e+00 0.000000000000e+00 0.000000000000e+00 0.000000000000e+00 
1  2  3  4  
4  3  5  6  
6  5  7  8  
8  7  9  10  
10  9  11  12  
2  13  14  3  
3  14  15  5  
5  15  16  7  
7  16  17  9  
9  17  18  11  
13  19  20  14  
14  20  21  15  
15  21  22  16  
16  22  23  17  
17  23  24  18  
19  25  26  20  
20  26  27  21  
21  27  28  22  
22  28  29  23  
23  29  30  24  
25  31  32  26  
26  32  33  27  
27  33  34  28  
28  34  35  29  
29  35  36  30  
VARIABLES  = "X","Y","Z", "PRESSURE1", "VELOCITY_X1", "VELOCITY_Y1", "VELOCITY_Z1"
ZONE T="5.184000000000e+06s", N=36, E=25, F=FEPOINT, ET=QUADRILATERAL
STRANDID=1, SOLUTIONTIME=5.184000000000e+06
0.000000000000e+00 0.000000000000e+00 0.000000000000e+00 2.000000000000e+06 -8.469053099858e-18 -1.414213677233e-03 1.414213447514e-03 
0.000000000000e+00 1.414213677232e+00 -1.414213447514e+00 2.025873433920e+06 4.744775245707e-17 -1.414213677233e-03 1.414213447514e-03 
2.000000000000e+00 1.414213677232e+00 -1.414213447514e+00 2.025873433920e+06 1.834392200034e-17 -1.414213677233e-03 1.414213447514e-03 
2.000000000000e+00 0.000000000000e+00 0.000000000000e+00 2.000000000000e+06 -2.823017699953e-18 -1.414213677233e-03 1.414213447514e-03 
4.000000000000e+00 1.414213677232e+00 -1.414213447514e+00 2.025873433920e+06 8.466206575182e-18 -1.414213677233e-03 1.414213447514e-03 
4.000000000000e+00 0.000000000000e+00 0.000000000000e+00 2.000000000000e+06 0.000000000000e+00 -1.414213677233e-03 1.414213447514e-03 
6.000000000000e+00 1.414213677232e+00 -1.414213447514e+00 2.025873433920e+06 -2.646579093705e-18 -1.414213677233e-03 1.414213447514e-03 
6.000000000000e+00 0.000000000000e+00 0.000000000000e+00 2.000000000000e+06 0.000000000000e+00 -1.414213677233e-03 1.414213447514e-03 
8.000000000000e+00 1.414213677232e+00 -1.414213447514e+00 2.025873433920e+06 4.445114267555e-17 -1.414213677233e-03 1.414213447514e-03 
8.000000000000e+00 0.000000000000e+00 0.000000000000e+00 2.000000000000e+06 -5.646035399905e-18 -1.414213677233e-03 1.414213447514e-03 
1.000000000000e+01 1.414213677232e+00 -1.414213447514e+00 2.025873433920e+06 1.218877651453e-16 -1.414213677233e-03 1.414213447514e-03 
1.000000000000e+01 0.000000000000e+00 0.000000000000e+00 2.000000000000e+06 -1.411508849976e-17 -1.414213677233e-03 1.414213447514e-03 
0.000000000000e+00 2.828427354465e+00 -2.828426895027e+00 2.051746867840e+06 1.418616093599e-16 -1.414213677233e-03 1.414213447514e-03 
2.000000000000e+00 2.828427354465e+00 -2.828426895027e+00 2.051746867840e+06 6.971814507758e-17 -1.414213677233e-03 1.414213447514e-03 
4.000000000000e+00 2.828427354465e+00 -2.828426895027e+00 2.051746867840e+06 5.276332128585e-17 -1.414213677233e-03 1.414213447514e-03 
6.000000000000e+00 2.828427354465e+00 -2.828426895027e+00 2.051746867840e+06 5.241044407336e-17 -1.414213677233e-03 1.414213447514e-03 
8.000000000000e+00 2.828427354465e+00 -2.828426895027e+00 2.051746867840e+06 -7.410421462375e-18 -1.414213677233e-03 1.414213447514e-03 
1.000000000000e+01 2.828427354465e+00 -2.828426895027e+00 2.051746867840e+06 -1.168976929503e-17 -1.414213677233e-03 1.414213447514e-03 
0.000000000000e+00 4.242641031697e+00 -4.242640342541e+00 2.077620301760e+06 1.263407050595e-16 -1.414213677232e-03 1.414213447514e-03 
2.000000000000e+00 4.242641031697e+00 -4.242640342541e+00 2.077620301760e+06 5.966399104617e-17 -1.414213677233e-03 1.414213447514e-03 
4.000000000000e+00 4.242641031697e+00 -4.242640342541e+00 2.077620301760e+06 -8.645491706105e-18 -1.414213677233e-03 1.414213447514e-03 
6.000000000000e+00 4.242641031697e+00 -4.242640342541e+00 2.077620301760e+06 1.882841653635e-17 -1.414213677232e-03 1.414213447514e-03 
8.000000000000e+00 4.242641031697e+00 -4.242640342541e+00 2.077620301760e+06 6.998422624929e-17 -1.414213677233e-03 1.414213447514e-03 
1.000000000000e+01 4.242641031697e+00 -4.242640342541e+00 2.077620301760e+06 9.203335898082e-17 -1.414213677232e-03 1.414213447514e-03 
0.000000000000e+00 5.656854708930e+00 -5.656853790055e+00 2.103493735680e+06 -9.402185145694e-17 -1.414213677232e-03 1.414213447514e-03 
2.000000000000e+00 5.656854708930e+00 -5.656853790055e+00 2.103493735680e+06 -1.237916768405e-18 -1.414213677232e-03 1.414213447514e-03 
4.000000000000e+00 5.656854708930e+00 -5.656853790055e+00 2.103493735680e+06 7.317968527842e-17 -1.414213677232e-03 1.414213447514e-03 
6.000000000000e+00 5.656854708930e+00 -5.656853790055e+00 2.103493735680e+06 1.316281701976e-17 -1.414213677232e-03 1.414213447514e-03 
8.000000000000e+00 5.656854708930e+00 -5.656853790055e+00 2.103493735680e+06 -3.133314693852e-17 -1.414213677232e-03 1.414213447514e-03 
1.000000000000e+01 5.656854708930e+00 -5.656853790055e+00 2.103493735680e+06 -3.417857527984e-17 -1.414213677232e-03 1.414213447514e-03 
0.000000000000e+00 7.071068386162e+00 -7.071067237568e+00 2.129367169601e+06 1.278866777577e-16 -1.414213677232e-03 1.414213447514e-03 
2.000000000000e+00 7.071068386162e+00 -7.071067237568e+00 2.129367169601e+06 1.221509997923e-16 -1.414213677232e-03 1.414213447514e-03 
4.000000000000e+00 7.071068386162e+00 -7.071067237568e+00 2.129367169601e+06 8.316660738573e-17 -1.414213677232e-03 1.414213447514e-03 
6.000000000000e+00 7.071068386162e+00 -7.071067237568e+00 2.129367169601e+06 1.111278566889e-17 -1.414213677232e-03 1.414213447514e-03 
8.000000000000e+00 7.071068386162e+00 -7.071067237568e+00 2.129367169601e+06 1.675882106879e-17 -1.414213677232e-03 1.414213447514e-03 
1.000000000000e+01 7.071068386162e+00 -7.071067237568e+00 2.129367169601e+06 6.120996374434e-17 -1.414213677232e-03 1.414213447514e-03 
1  2  3  4  
4  3  5  6  
6  5  7  8  
8  7  9  10  
10  9  11  12  
2  13  14  3  
3  14  15  5  
5  15  16  7  
7  16  17  9  
9  17  18  11  
13  19  20  14  
14  20  21  15  
15  21  22  16  
16  22  23  17  
17  23  24  18  
19  25  26  20  
20  26  27  21  
21  27  28  22  
22  28  29  23  
23  29  30  24  
25  31  32  26  
26  32  33  27  
27  33  34  28  
28  34  35  29  
29  35  36  30  
