 TITLE = "Time curves in points"
 VARIABLES = "TIME"  "PRESSURE1"  "SATURATION1"  "TEMPERATURE1"  "DISPLACEMENT_X1"  "DISPLACEMENT_Y1"  "STRESS_XX"  "STRESS_XY"  "STRESS_YY"  "STRESS_ZZ"  "STRAIN_XX"  "STRAIN_XY"  "STRAIN_YY"  "STRAIN_PLS"  p_(1st_Invariant)  q_(2nd_Invariant)   Effective_Strain
 ZONE T="POINT=POINT2"
0.000000000000e+00 -7.000000000000e+07 8.894919982500e-01 2.500000000000e+01 0.000000000000e+00 0.000000000000e+00 0.000000000000e+00 0.000000000000e+00 0.000000000000e+00 0.000000000000e+00 0.000000000000e+00 0.000000000000e+00 0.000000000000e+00 0.000000000000e+00 -0.000000000000e+00 0.000000000000e+00  0.000000000000e+00
1.000000000000e-03 -6.999999537629e+07 6.684760111000e-01 3.309918126187e+01 0.000000000000e+00 9.512673309957e-05 6.208780558822e+06 7.492678792438e+05 -9.024425271300e+06 -1.022653185386e+06 -6.056015696188e-06 -6.011051078499e-04 -7.691592406958e-03 0.000000000000e+00 1.279432632621e+06 1.326161687925e+07  7.758739077827e-03
2.000000000000e-03 -7.015897578459e+07 6.679155799843e-01 3.680473134945e+01 0.000000000000e+00 9.492327222957e-05 6.139814093239e+06 7.469685218359e+05 -9.098493238010e+06 -1.071164882707e+06 -6.745292982375e-06 -6.016085061070e-04 -7.712489392380e-03 0.000000000000e+00 1.343281342493e+06 1.326631072440e+07  7.779223194500e-03
3.000000000000e-03 -7.037098650728e+07 6.671689082400e-01 3.938013025327e+01 0.000000000000e+00 9.458107930054e-05 6.060052977055e+06 7.443307477276e+05 -9.189235724363e+06 -1.126996401861e+06 -7.771063777750e-06 -6.032840895517e-04 -7.751365864895e-03 0.000000000000e+00 1.418726383056e+06 1.327626372779e+07  7.817630835523e-03
4.000000000000e-03 -7.061767524146e+07 6.663004329090e-01 4.141323958417e+01 0.000000000000e+00 9.410290578173e-05 5.973368711036e+06 7.414947619972e+05 -9.290557090720e+06 -1.187671484422e+06 -8.993017047310e-06 -6.056204548489e-04 -7.800602719973e-03 0.000000000000e+00 1.501619954702e+06 1.328953666618e+07  7.866362636057e-03
1.000000000000e-02 -7.212436496915e+07 6.610102016577e-01 4.814029803035e+01 0.000000000000e+00 9.116980906362e-05 5.485967608173e+06 7.271856392093e+05 -9.885953541279e+06 -1.531750103683e+06 -1.650218627797e-05 -6.229918685769e-04 -8.127882036276e-03 0.000000000000e+00 1.977245345596e+06 1.338861140127e+07  8.191029697132e-03
2.000000000000e-02 -7.521838574725e+07 6.501913433875e-01 5.432126500081e+01 0.000000000000e+00 8.904664262012e-05 4.608574362776e+06 7.080382985923e+05 -1.103526249146e+07 -2.169217289024e+06 -3.075316420553e-05 -6.639005373374e-04 -8.815819397076e-03 0.000000000000e+00 2.865301805902e+06 1.364336392028e+07  8.875291253129e-03
3.000000000000e-02 -7.885304100447e+07 6.375370040243e-01 5.823714945253e+01 0.000000000000e+00 8.907303218940e-05 3.698451327327e+06 6.977488517044e+05 -1.231319729632e+07 -2.855161599464e+06 -4.570184995887e-05 -7.161201006267e-04 -9.613922622953e-03 0.000000000000e+00 3.823302522819e+06 1.399461135660e+07  9.671024082565e-03
4.000000000000e-02 -8.260241589782e+07 6.245444250246e-01 6.095064126669e+01 0.000000000000e+00 9.143328299599e-05 2.860635579555e+06 6.993852582500e+05 -1.357371623068e+07 -3.512721925950e+06 -5.939264884140e-05 -7.737902891996e-04 -1.042298290235e-02 0.000000000000e+00 4.741934192359e+06 1.440253536972e+07  1.047947068039e-02
5.000000000000e-02 -8.623994823308e+07 6.178036287470e-01 6.295230685344e+01 0.000000000000e+00 9.106866345507e-05 1.728057232218e+06 6.859124205305e+05 -1.511327768489e+07 -4.351362000633e+06 -7.902313761180e-05 -8.342497920398e-04 -1.137933115312e-02 0.000000000000e+00 5.912194151103e+06 1.481943967035e+07  1.143171508758e-02
6.000000000000e-02 -8.968090113814e+07 6.112977131184e-01 6.450102498338e+01 0.000000000000e+00 1.004124560371e-04 7.583488616522e+05 6.875129203263e+05 -1.656403000503e+07 -5.112375882930e+06 -9.490700775425e-05 -8.990796699992e-04 -1.229935656384e-02 0.000000000000e+00 6.972685675437e+06 1.530533640358e+07  1.235074559914e-02
7.000000000000e-02 -9.292391856137e+07 6.047947278650e-01 6.575111877873e+01 0.000000000000e+00 1.060877149786e-04 -4.819946964581e+04 7.059195183582e+05 -1.791271594373e+07 -5.791442967457e+06 -1.070846579019e-04 -9.680501067566e-04 -1.317523729576e-02 0.000000000000e+00 7.917452793611e+06 1.584362628144e+07  1.322871279349e-02
8.000000000000e-02 -9.597683606347e+07 5.987103802220e-01 6.679366304164e+01 0.000000000000e+00 1.125644888369e-04 -7.545069004472e+05 7.364601925072e+05 -1.918966038911e+07 -6.417406503102e+06 -1.166288284120e-04 -1.039900636184e-03 -1.401832778599e-02 0.000000000000e+00 8.787191264219e+06 1.640591398063e+07  1.407609161140e-02
9.000000000000e-02 -9.886345685571e+07 5.929822637946e-01 6.768828373130e+01 0.000000000000e+00 1.184447833378e-04 -1.398408518485e+06 7.690013770286e+05 -2.038371372245e+07 -6.997852127954e+06 -1.251768552616e-04 -1.108941888778e-03 -1.481291076845e-02 0.000000000000e+00 9.593324789631e+06 1.694882078137e+07  1.487524848296e-02
1.000000000000e-01 -1.016032052445e+08 5.873456081250e-01 6.846871724048e+01 0.000000000000e+00 1.236972635969e-04 -1.978875386025e+06 8.020993317895e+05 -2.148139104031e+07 -7.528047951512e+06 -1.336650044980e-04 -1.173365728843e-03 -1.555032646389e-02 0.000000000000e+00 1.032943812595e+07 1.745991690113e+07  1.561673289811e-02
2.000000000000e-01 -1.181504266370e+08 5.520553472177e-01 7.270597974379e+01 0.000000000000e+00 2.167444156184e-04 -5.168263557438e+06 1.016494785589e+06 -2.758819589059e+07 -1.046795745053e+07 -1.896705821975e-04 -1.537800009185e-03 -1.977081235609e-02 0.000000000000e+00 1.440813896619e+07 2.037206733892e+07  1.985612100245e-02
3.000000000000e-01 -1.336338688500e+08 5.238622946673e-01 7.551347201711e+01 0.000000000000e+00 3.251046675128e-04 -8.256391822663e+06 1.128748713941e+06 -3.270276524781e+07 -1.305441943448e+07 -2.514308417535e-04 -1.805311486957e-03 -2.327338534774e-02 0.000000000000e+00 1.800452550165e+07 2.252052594591e+07  2.335892730497e-02
4.000000000000e-01 -1.468337323412e+08 5.053221802945e-01 7.753845302804e+01 0.000000000000e+00 4.293421563643e-04 -1.095469042182e+07 1.231781816671e+06 -3.722446711089e+07 -1.533388124547e+07 -2.997088691181e-04 -2.043530848812e-03 -2.636483974116e-02 0.000000000000e+00 2.117101292606e+07 2.447018540753e+07  2.645412781911e-02
5.000000000000e-01 -1.576243754719e+08 4.899377915212e-01 7.910019658768e+01 0.000000000000e+00 5.307806426038e-04 -1.296277037874e+07 1.326058683495e+06 -4.066823911172e+07 -1.705598766852e+07 -3.333008981721e-04 -2.232951888362e-03 -2.874904869906e-02 0.000000000000e+00 2.356233238633e+07 2.600419613741e+07  2.884432403860e-02
6.000000000000e-01 -1.663707293593e+08 4.767886004889e-01 8.034131058704e+01 0.000000000000e+00 6.298093216824e-04 -1.446633843642e+07 1.398130703988e+06 -4.320812627608e+07 -1.833278121385e+07 -3.621836518583e-04 -2.371787152120e-03 -3.052531703363e-02 0.000000000000e+00 2.533574864212e+07 2.712518347153e+07  3.062264699677e-02
7.000000000000e-01 -1.732967203639e+08 4.680998994487e-01 8.134433141057e+01 0.000000000000e+00 7.264809879914e-04 -1.585877868444e+07 1.441360994470e+06 -4.538560623627e+07 -1.945894295857e+07 -3.888998622874e-04 -2.483240333796e-03 -3.201977457280e-02 0.000000000000e+00 2.690110929309e+07 2.801295883952e+07  3.211641587320e-02
8.000000000000e-01 -1.786683187145e+08 4.623781820138e-01 8.216159986172e+01 0.000000000000e+00 3.819730272298e-02 -1.719130405488e+07 1.419373152956e+06 -7.398093361269e+07 -2.920652513396e+07 8.108154267072e-05 -4.785885167393e-03 -5.224678889968e-02 0.000000000000e+00 4.012625426718e+07 5.189538967190e+07  5.294038029042e-02
9.000000000000e-01 -1.827329759226e+08 4.580426491141e-01 8.284030380434e+01 0.000000000000e+00 9.132623670114e-04 -1.803931197606e+07 1.492587525586e+06 -4.862576442981e+07 -2.116825552252e+07 -4.312993251143e-04 -2.640542252309e-03 -3.422119792886e-02 0.000000000000e+00 2.927777730946e+07 2.926263028118e+07  3.431376134121e-02
1.000000000000e+00 -1.857446702419e+08 4.548262813537e-01 8.340750001475e+01 0.000000000000e+00 1.003371810801e-03 -1.879622706924e+07 1.516820862629e+06 -4.976185640568e+07 -2.176558710750e+07 -4.447748510542e-04 -2.699473263607e-03 -3.499663503103e-02 0.000000000000e+00 3.010789019414e+07 2.970928194210e+07  3.508928800550e-02
2.000000000000e+00 -1.865346167529e+08 4.540267025952e-01 8.537368214478e+01 0.000000000000e+00 1.751587247666e-03 -2.151862419548e+07 1.545439440065e+06 -5.291377232740e+07 -2.361219857698e+07 -4.866700869573e-04 -2.853497543060e-03 -3.706054103205e-02 0.000000000000e+00 3.268153169995e+07 3.052008275337e+07  3.714985379944e-02
3.000000000000e+00 -1.779756207887e+08 4.632179882425e-01 8.594055527455e+01 0.000000000000e+00 2.386887592919e-03 -2.245989545830e+07 1.519185021984e+06 -5.327954565418e+07 -2.401742363150e+07 -4.957689764475e-04 -2.867659137652e-03 -3.721439314076e-02 0.000000000000e+00 3.325228824799e+07 3.018605684967e+07  3.730117302318e-02
4.000000000000e+00 -1.659453115367e+08 4.777255361567e-01 8.593358545777e+01 0.000000000000e+00 2.388152870987e-03 -2.258038070080e+07 1.472988649911e+06 -5.218490343086e+07 -2.370104075754e+07 -4.920206740800e-04 -2.801338590606e-03 -3.636150305547e-02 0.000000000000e+00 3.282210829640e+07 2.917218067960e+07  3.644245973107e-02
5.000000000000e+00 -1.534804878823e+08 4.962754145216e-01 8.574019207571e+01 0.000000000000e+00 3.430419597367e-03 -2.260694439624e+07 1.393558658625e+06 -5.126655318647e+07 -2.341515978054e+07 -4.806746767915e-04 -2.745120327162e-03 -3.560476186293e-02 0.000000000000e+00 3.242955245442e+07 2.836704546810e+07  3.568505100027e-02
6.000000000000e+00 -1.417531265545e+08 5.128625748683e-01 8.559243039323e+01 0.000000000000e+00 3.872869763706e-03 -2.225244794790e+07 1.317912190154e+06 -4.960023853386e+07 -2.277103092628e+07 -4.679600070543e-04 -2.645715041904e-03 -3.437500692708e-02 0.000000000000e+00 3.154123913601e+07 2.718821724880e+07  3.444957740771e-02
7.000000000000e+00 -1.313745202576e+08 5.275460237376e-01 8.532214757000e+01 0.000000000000e+00 4.275127424321e-03 -2.166005993518e+07 1.275384087470e+06 -4.790477572372e+07 -2.204605314698e+07 -4.501358950879e-04 -2.559177972747e-03 -3.316979518278e-02 0.000000000000e+00 3.053696293529e+07 2.614734459085e+07  3.324387454909e-02
8.000000000000e+00 -1.218730964662e+08 5.455279984971e-01 8.524103799649e+01 0.000000000000e+00 4.647222890977e-03 -2.127060991790e+07 1.230506508675e+06 -4.658888870424e+07 -2.150674009817e+07 -4.333091236732e-04 -2.490702361783e-03 -3.218805027893e-02 0.000000000000e+00 2.978874624010e+07 2.529100684501e+07  3.226331905525e-02
9.000000000000e+00 -1.135456728931e+08 5.638272281620e-01 8.515896295378e+01 0.000000000000e+00 4.991851103845e-03 -2.107292121079e+07 1.173920031540e+06 -4.542971993306e+07 -2.107613305819e+07 -4.228098739769e-04 -2.418267224637e-03 -3.129993434488e-02 0.000000000000e+00 2.919292473401e+07 2.443991998174e+07  3.137156014604e-02
1.000000000000e+01 -1.059793822632e+08 5.802612859685e-01 8.507174885889e+01 0.000000000000e+00 5.312805277404e-03 -2.078133277638e+07 1.112290955540e+06 -4.413194097528e+07 -2.057155889599e+07 -4.131988843607e-04 -2.338089689842e-03 -3.032940511438e-02 0.000000000000e+00 2.849494421588e+07 2.353518280235e+07  3.039591192491e-02
1.100000000000e+01 -9.909822276913e+07 5.940697227811e-01 8.503712468354e+01 0.000000000000e+00 5.615561740786e-03 -2.034116550408e+07 1.053074924112e+06 -4.266449148116e+07 -1.996660008784e+07 -4.059628701008e-04 -2.249075580640e-03 -2.926606686072e-02 0.000000000000e+00 2.765741902436e+07 2.258671353260e+07  2.932510122320e-02
1.200000000000e+01 -9.295714345482e+07 6.064074936278e-01 8.500709528196e+01 0.000000000000e+00 5.899016066866e-03 -1.988312723350e+07 1.001339249360e+06 -4.124431715632e+07 -1.937104208918e+07 -3.976806011128e-04 -2.165948407084e-03 -2.824400259447e-02 0.000000000000e+00 2.683282882633e+07 2.169122991016e+07  2.829706235626e-02
1.300000000000e+01 -8.732663344552e+07 6.177177513438e-01 8.495626091744e+01 0.000000000000e+00 6.165938831024e-03 -1.930555869979e+07 9.768525113063e+05 -3.990719614152e+07 -1.876644252838e+07 -3.842649147866e-04 -2.101416255433e-03 -2.730074966444e-02 0.000000000000e+00 2.599306578990e+07 2.094486834323e+07  2.735389775439e-02
1.400000000000e+01 -8.200086831285e+07 6.338216839159e-01 8.486705898856e+01 0.000000000000e+00 6.418530371469e-03 -1.896316607438e+07 9.446276594597e+05 -3.889833441669e+07 -1.834088278921e+07 -3.731165197583e-04 -2.047112109488e-03 -2.654195837819e-02 0.000000000000e+00 2.540079442676e+07 2.031946012114e+07  2.659480271248e-02
1.500000000000e+01 -7.695663929263e+07 6.518493209885e-01 8.476324830818e+01 0.000000000000e+00 6.656999397540e-03 -1.869915966558e+07 9.064308994420e+05 -3.795276869506e+07 -1.796019009673e+07 -3.637620413961e-04 -1.991146834232e-03 -2.581287790606e-02 0.000000000000e+00 2.487070615246e+07 1.969619807916e+07  2.586389840300e-02
1.600000000000e+01 -7.222795107862e+07 6.687652472791e-01 8.464730282939e+01 0.000000000000e+00 6.658203967791e-03 -1.836066698967e+07 8.696276868719e+05 -3.681232593066e+07 -1.749314951337e+07 -3.550624309498e-04 -1.922945731972e-03 -2.495870137796e-02 0.000000000000e+00 2.422204747790e+07 1.896027947541e+07  2.500588145784e-02
1.700000000000e+01 -6.776362445848e+07 6.847516251122e-01 8.451638150806e+01 0.000000000000e+00 7.095210177596e-03 -1.798120701765e+07 8.316938758245e+05 -3.581256893689e+07 -1.705957008686e+07 -3.428327028283e-04 -1.868164831117e-03 -2.421216906371e-02 0.000000000000e+00 2.361778201380e+07 1.836616640203e+07  2.425934997438e-02
1.800000000000e+01 -6.352441125784e+07 6.999404085399e-01 8.436963674499e+01 0.000000000000e+00 7.296925832117e-03 -1.755443069280e+07 7.932220345594e+05 -3.464556753382e+07 -1.655677740397e+07 -3.312835519212e-04 -1.802309502831e-03 -2.335371863222e-02 0.000000000000e+00 2.291892521020e+07 1.766467953490e+07  2.339902088802e-02
1.900000000000e+01 -5.947137301092e+07 7.144609256110e-01 8.420550241891e+01 0.000000000000e+00 7.488026228083e-03 -1.709508142395e+07 7.525293723894e+05 -3.341147092592e+07 -1.602212461577e+07 -3.200339839739e-04 -1.731653064339e-03 -2.245390590606e-02 0.000000000000e+00 2.217622565521e+07 1.692871776781e+07  2.249644785809e-02
2.000000000000e+01 -5.570661847939e+07 7.279403865758e-01 8.402769637127e+01 0.000000000000e+00 7.670608469961e-03 -1.662272024843e+07 7.114613816891e+05 -3.216629388952e+07 -1.547955908012e+07 -3.089622301722e-04 -1.660437665663e-03 -2.155198746145e-02 0.000000000000e+00 2.142285773936e+07 1.619249334380e+07  2.159157314352e-02
2.100000000000e+01 -5.208363358172e+07 7.403246128670e-01 8.393963706005e+01 0.000000000000e+00 7.843681161166e-03 -1.609483859357e+07 6.701164258544e+05 -3.084447553387e+07 -1.489516577316e+07 -2.982084171961e-04 -1.585055796833e-03 -2.060486894629e-02 0.000000000000e+00 2.061149330020e+07 1.542831524722e+07  2.064079002451e-02
2.200000000000e+01 -4.869858968148e+07 7.518073495209e-01 8.385005085217e+01 0.000000000000e+00 8.009381712413e-03 -1.557362431812e+07 6.295784402530e+05 -2.954774766833e+07 -1.432053907102e+07 -2.875347651119e-04 -1.511446871913e-03 -1.967731425701e-02 0.000000000000e+00 1.981397035249e+07 1.468149246132e+07  1.970976599601e-02
2.300000000000e+01 -4.556372516767e+07 7.623569491501e-01 8.375183854108e+01 0.000000000000e+00 8.168582700947e-03 -1.504079591524e+07 5.947121732533e+05 -2.829438853832e+07 -1.375616319634e+07 -2.763276484825e-04 -1.442659862514e-03 -1.878660709396e-02 0.000000000000e+00 1.903044921663e+07 1.397837776978e+07  1.881662845856e-02
2.400000000000e+01 -4.249966725873e+07 7.735265822650e-01 8.363904691236e+01 0.000000000000e+00 8.169070953933e-03 -1.448400093452e+07 5.612697659297e+05 -2.696401420657e+07 -1.315966920552e+07 -2.656016691272e-04 -1.368530441485e-03 -1.784143725342e-02 0.000000000000e+00 1.820256144887e+07 1.322789985614e+07  1.786805357916e-02
2.500000000000e+01 -3.946992296055e+07 7.878662731965e-01 8.350995327677e+01 0.000000000000e+00 8.465002808329e-03 -1.397541170745e+07 5.249061667892e+05 -2.582109149336e+07 -1.264025195273e+07 -2.530151704083e-04 -1.305872087883e-03 -1.701366349467e-02 0.000000000000e+00 1.747891838452e+07 1.259941409472e+07  1.703936480470e-02
2.600000000000e+01 -3.648795431961e+07 8.025711760980e-01 8.336809727095e+01 0.000000000000e+00 8.465311228181e-03 -1.342751311891e+07 4.884210195799e+05 -2.450267127556e+07 -1.205190951088e+07 -2.420997529193e-04 -1.230408089185e-03 -1.606469597010e-02 0.000000000000e+00 1.666069796845e+07 1.185335843878e+07  1.608681205754e-02
2.700000000000e+01 -3.356096715213e+07 8.175875704100e-01 8.321341878681e+01 0.000000000000e+00 8.735339752248e-03 -1.285698943073e+07 4.510702927419e+05 -2.324443931368e+07 -1.147667203454e+07 -2.290970026450e-04 -1.160920064043e-03 -1.516099759322e-02 0.000000000000e+00 1.585936692632e+07 1.116927760365e+07  1.518150850666e-02
2.800000000000e+01 -3.067654735300e+07 8.329529076222e-01 8.304585346017e+01 0.000000000000e+00 8.861418566481e-03 -1.225134736208e+07 4.130273383008e+05 -2.188119080306e+07 -1.085679516063e+07 -2.164783726856e-04 -1.084313606251e-03 -1.418603071077e-02 0.000000000000e+00 1.499644444192e+07 1.042208015020e+07  1.420375194657e-02
2.900000000000e+01 -2.782238071821e+07 8.487208682791e-01 8.286538398455e+01 0.000000000000e+00 8.861483153893e-03 -1.160500513131e+07 3.741157997505e+05 -2.042683012076e+07 -1.019519963104e+07 -2.038118797976e-04 -1.001944098483e-03 -1.315033473734e-02 0.000000000000e+00 1.407567829437e+07 9.626478742540e+06  1.316451003544e-02
3.000000000000e+01 -2.498527405143e+07 8.648790528650e-01 8.267204417162e+01 0.000000000000e+00 9.096257919580e-03 -1.092634637502e+07 3.342195157443e+05 -1.896063784181e+07 -9.520353366664e+06 -1.898883544519e-04 -9.202609389562e-04 -1.211095578480e-02 0.000000000000e+00 1.313577919450e+07 8.840696884093e+06  1.212238502652e-02
3.100000000000e+01 -2.214935187616e+07 8.814778533551e-01 8.255052625348e+01 0.000000000000e+00 9.206952169653e-03 -1.019476613967e+07 2.933002678760e+05 -1.738279245484e+07 -8.793575665289e+06 -1.757629700091e-04 -8.317965947592e-04 -1.099768241291e-02 0.000000000000e+00 1.212371141993e+07 7.997557514446e+06  1.100557052033e-02
3.200000000000e+01 -1.935151454351e+07 8.982243740285e-01 8.242766309906e+01 0.000000000000e+00 9.313672031641e-03 -9.431097015175e+06 2.517955304469e+05 -1.574994733954e+07 -8.039384568532e+06 -1.613340260233e-04 -7.403705664952e-04 -9.850332340968e-03 0.000000000000e+00 1.107347630775e+07 7.130845571753e+06  9.854457257934e-03
3.300000000000e+01 -1.652325646613e+07 9.153678338488e-01 8.229794235405e+01 0.000000000000e+00 9.416503837273e-03 -8.603749251677e+06 2.093450048607e+05 -1.401018486038e+07 -7.231554093488e+06 -1.462026499378e-04 -6.434057928042e-04 -8.635659191310e-03 0.000000000000e+00 9.948496068515e+06 6.217927814129e+06  8.635701573597e-03
3.400000000000e+01 -1.363663903438e+07 9.328905529123e-01 8.215991185472e+01 0.000000000000e+00 9.515308862229e-03 -7.693989546716e+06 1.660511720507e+05 -1.213521758463e+07 -6.355278375706e+06 -1.301239989046e-04 -5.396706764402e-04 -7.336234273352e-03 0.000000000000e+00 8.728161835683e+06 5.248323031852e+06  7.331874163205e-03
3.500000000000e+01 -1.065695014160e+07 9.506820799030e-01 8.201296691152e+01 0.000000000000e+00 9.610526873486e-03 -6.686651441800e+06 1.218901068883e+05 -1.009625917313e+07 -5.396607745148e+06 -1.130788682931e-04 -4.277483304333e-04 -5.934171807022e-03 0.000000000000e+00 7.393172786694e+06 4.211027449111e+06  5.924952180067e-03
3.600000000000e+01 -7.548471596047e+06 9.684051322248e-01 8.185688150155e+01 0.000000000000e+00 9.683426725241e-03 -5.561438900576e+06 7.720371188126e+04 -7.867736983994e+06 -4.340989237719e+06 -9.445082458762e-05 -3.071668137420e-04 -4.414681620690e-03 0.000000000000e+00 5.923388374096e+06 3.105013717665e+06  4.400502108323e-03
3.700000000000e+01 -4.219404014248e+06 9.854150818342e-01 8.169151112101e+01 0.000000000000e+00 9.785715493953e-03 -4.298181068528e+06 3.033482994812e+04 -5.382619712409e+06 -3.160149396370e+06 -7.434762861140e-05 -1.739721081183e-04 -2.733106190145e-03 0.000000000000e+00 4.280316725769e+06 1.925619222004e+06  2.713484095350e-03
3.800000000000e+01 2.090572350501e+06 1.000000000000e+00 8.151767971104e+01 0.000000000000e+00 9.775578403146e-03 -2.376548845566e+06 -7.707654188641e+04 -1.032735851737e+06 -1.170280442768e+06 -4.080032159359e-05 6.167285813149e-05 2.323605783758e-04 0.000000000000e+00 1.526521713357e+06 1.287532542569e+06  2.766714933617e-04
3.900000000000e+01 2.140132064796e+06 1.000000000000e+00 8.133875654849e+01 0.000000000000e+00 9.966360137077e-03 -2.431888934252e+06 -7.745907074332e+04 -1.106556941462e+06 -1.210695279510e+06 -4.046352041996e-05 5.657892655354e-05 1.828783120405e-04 0.000000000000e+00 1.583047051741e+06 1.283484139518e+06  2.282218188584e-04
4.000000000000e+01 2.169517876865e+06 1.000000000000e+00 8.114888591551e+01 0.000000000000e+00 1.004128662175e-02 -2.440460701396e+06 -7.792052300560e+04 -1.102687162937e+06 -1.211767168745e+06 -4.069239798620e-05 5.693819555554e-05 1.850242690467e-04 0.000000000000e+00 1.584971677693e+06 1.293764648705e+06  2.305315746761e-04
4.200000000000e+01 2.226800900553e+06 1.000000000000e+00 8.087411890821e+01 0.000000000000e+00 1.004153365961e-02 -2.452746954423e+06 -7.877333679577e+04 -1.049859131426e+06 -1.197826581595e+06 -4.181251803778e-05 6.129590505053e-05 2.219036874092e-04 0.000000000000e+00 1.566810889148e+06 1.342021829908e+06  2.674685944383e-04
4.400000000000e+01 2.282567030245e+06 1.000000000000e+00 8.057884092812e+01 0.000000000000e+00 1.031240280225e-02 -2.474028356077e+06 -7.969885282632e+04 -1.089343878567e+06 -1.216750826122e+06 -4.152347378141e-05 5.827362807282e-05 1.933255190127e-04 0.000000000000e+00 1.593374353589e+06 1.332749388055e+06  2.394033196986e-04
5.000000000000e+01 2.434088388030e+06 1.000000000000e+00 7.938389004373e+01 0.000000000000e+00 1.058600263885e-02 -2.514306837313e+06 -8.206601007215e+04 -1.072384478826e+06 -1.221829009167e+06 -4.242953458852e-05 5.951817928533e-05 2.006853884259e-04 0.000000000000e+00 1.602840108435e+06 1.380648701129e+06  2.474209351672e-04
6.500000000000e+01 2.765473872029e+06 1.000000000000e+00 7.672160570923e+01 0.000000000000e+00 1.105010882448e-02 -2.595457738511e+06 -8.725557571062e+04 -1.037031567930e+06 -1.231355194882e+06 -4.398677682371e-05 6.166072052389e-05 2.149540687970e-04 0.000000000000e+00 1.621281500441e+06 1.478666758204e+06  2.626810960953e-04
8.000000000000e+01 3.020527373391e+06 1.000000000000e+00 7.427524876429e+01 0.000000000000e+00 1.127028263424e-02 -2.652062966633e+06 -9.123317308606e+04 -1.012445038407e+06 -1.237332013153e+06 -4.485229289484e-05 6.254948008675e-05 2.211735906185e-04 0.000000000000e+00 1.633946672731e+06 1.547631371473e+06  2.694196362728e-04
1.000000000000e+02 3.321206547252e+06 1.000000000000e+00 7.180475289041e+01 0.000000000000e+00 1.127038311628e-02 -2.713592869167e+06 -9.586671035261e+04 -9.291018536426e+05 -1.225496184196e+06 -4.658643920168e-05 6.808704643630e-05 2.698973668009e-04 0.000000000000e+00 1.622730302335e+06 1.664606873171e+06  3.185843371385e-04
1.860000000000e+02 3.919684777193e+06 1.000000000000e+00 6.658180914234e+01 0.000000000000e+00 1.167336951903e-02 -2.846653153196e+06 -1.052732877110e+05 -9.425890496817e+05 -1.263421591163e+06 -4.689661310738e-05 6.417369219076e-05 2.375756722679e-04 0.000000000000e+00 1.684221264680e+06 1.775036703792e+06  2.865968860068e-04
2.720000000000e+02 4.210009364643e+06 1.000000000000e+00 6.332445519773e+01 0.000000000000e+00 1.150501262535e-02 -2.899634204940e+06 -1.097554258442e+05 -9.291922795098e+05 -1.270991385045e+06 -4.685400402103e-05 6.290797868128e-05 2.308618333021e-04 0.000000000000e+00 1.699939289832e+06 1.833606141712e+06  2.796095963652e-04
3.580000000000e+02 4.351375143740e+06 1.000000000000e+00 6.119532556510e+01 0.000000000000e+00 1.132898378673e-02 -2.918128984002e+06 -1.119292144630e+05 -9.215959349144e+05 -1.271519908869e+06 -4.657392051196e-05 6.174731003045e-05 2.243373033644e-04 0.000000000000e+00 1.703748275928e+06 1.856755415269e+06  2.727321293420e-04
4.440000000000e+02 4.423502889855e+06 1.000000000000e+00 5.963761523498e+01 0.000000000000e+00 1.133016242885e-02 -2.926038439336e+06 -1.131226499174e+05 -9.862259656830e+05 -1.293198462420e+06 -4.506860201714e-05 5.507350384557e-05 1.690578266401e-04 0.000000000000e+00 1.735154289146e+06 1.816597277942e+06  2.175550505510e-04
5.300000000000e+02 4.462468311790e+06 1.000000000000e+00 5.847322558182e+01 0.000000000000e+00 1.102162987623e-02 -2.920053572240e+06 -1.136130714334e+05 -9.144140170037e+05 -1.266567272767e+06 -4.590433052649e-05 5.978308075932e-05 2.123892510984e-04 0.000000000000e+00 1.700344954004e+06 1.865216671545e+06  2.601692490690e-04
6.160000000000e+02 4.484983399542e+06 1.000000000000e+00 5.760610190885e+01 0.000000000000e+00 1.090337736818e-02 -2.916653305790e+06 -1.139458588236e+05 -9.129174794850e+05 -1.264055004262e+06 -4.562255547626e-05 5.903702766385e-05 2.076926386370e-04 0.000000000000e+00 1.697875263179e+06 1.863764727855e+06  2.552434730734e-04
7.020000000000e+02 4.498794056050e+06 1.000000000000e+00 5.697669348352e+01 0.000000000000e+00 1.081267151059e-02 -2.913400415411e+06 -1.141471253580e+05 -9.120526358117e+05 -1.262070415851e+06 -4.540257248933e-05 5.846564795124e-05 2.040630458128e-04 0.000000000000e+00 1.695841155691e+06 1.861850362685e+06  2.514414513481e-04
7.880000000000e+02 4.508412519807e+06 1.000000000000e+00 5.650296314976e+01 0.000000000000e+00 1.081206309521e-02 -2.912333523235e+06 -1.143492775965e+05 -9.531526965179e+05 -1.274642834067e+06 -4.449818414984e-05 5.461079748287e-05 1.717484419501e-04 0.000000000000e+00 1.713376351273e+06 1.830605194659e+06  2.192421654413e-04
8.740000000000e+02 4.516798536054e+06 1.000000000000e+00 5.570721292845e+01 0.000000000000e+00 1.061539273900e-02 -2.903869362534e+06 -1.143971278918e+05 -9.108652497485e+05 -1.257367055432e+06 -4.491356232075e-05 5.723149483054e-05 1.960987672078e-04 0.000000000000e+00 1.690700555905e+06 1.854941907370e+06  2.431168048169e-04
9.370000000000e+02 4.522172566344e+06 1.000000000000e+00 5.519188197114e+01 0.000000000000e+00 1.052042504839e-02 -2.899193925648e+06 -1.144669746887e+05 -9.109843069304e+05 -1.255412920938e+06 -4.467742579274e-05 5.665388852705e-05 1.923896062090e-04 0.000000000000e+00 1.688530384506e+06 1.850978211558e+06  2.392369005048e-04
1.000000000000e+03 4.526362533232e+06 1.000000000000e+00 5.480037787262e+01 0.000000000000e+00 1.044091364999e-02 -2.895405972023e+06 -1.145220201185e+05 -9.112286239155e+05 -1.253907167459e+06 -4.447862408683e-05 5.618533033422e-05 1.894567255824e-04 0.000000000000e+00 1.686847254466e+06 1.847646938255e+06  2.361553458663e-04
1.100000000000e+03 4.530507846576e+06 1.000000000000e+00 5.441729858288e+01 0.000000000000e+00 1.035773066978e-02 -2.891553633416e+06 -1.145765560204e+05 -9.116224778444e+05 -1.252440158726e+06 -4.427035830600e-05 5.570292147068e-05 1.864742905068e-04 0.000000000000e+00 1.685205423329e+06 1.844145300465e+06  2.330155696112e-04
1.200000000000e+03 4.533767384081e+06 1.000000000000e+00 5.407980822141e+01 0.000000000000e+00 1.028860322266e-02 -2.888166143776e+06 -1.146185387940e+05 -9.118359496230e+05 -1.251106749878e+06 -4.409708561161e-05 5.529686674772e-05 1.839341733986e-04 0.000000000000e+00 1.683702947759e+06 1.841164526596e+06  2.303487019952e-04
1.300000000000e+03 4.536671136929e+06 1.000000000000e+00 5.375342301512e+01 0.000000000000e+00 1.022280739387e-02 -2.884852685335e+06 -1.146552565257e+05 -9.120083758884e+05 -1.249795201581e+06 -4.393202603127e-05 5.490891006218e-05 1.814962539937e-04 0.000000000000e+00 1.682218754268e+06 1.838273993614e+06  2.277923977938e-04
1.400000000000e+03 4.539407270806e+06 1.000000000000e+00 5.342073506614e+01 0.000000000000e+00 1.015482238325e-02 -2.881393896269e+06 -1.146891281060e+05 -9.122135330889e+05 -1.248443680352e+06 -4.376143110776e-05 5.450919040307e-05 1.789844616391e-04 0.000000000000e+00 1.680683703237e+06 1.835234317323e+06  2.251596590498e-04
1.500000000000e+03 4.542049867338e+06 1.000000000000e+00 5.307167403274e+01 0.000000000000e+00 1.008142803773e-02 -2.877649182660e+06 -1.147210285753e+05 -9.124906280362e+05 -1.247011209073e+06 -4.357720029453e-05 5.408049812218e-05 1.762982861738e-04 0.000000000000e+00 1.679050339923e+06 1.831897629678e+06  2.223437533481e-04
1.600000000000e+03 4.544614986167e+06 1.000000000000e+00 5.270009876972e+01 0.000000000000e+00 1.000065027674e-02 -2.873528756696e+06 -1.147510059413e+05 -9.128687756878e+05 -1.245473308288e+06 -4.337439203850e-05 5.361201165326e-05 1.733722792959e-04 0.000000000000e+00 1.677290280224e+06 1.828166381858e+06  2.192759578802e-04
1.700000000000e+03 4.547100804198e+06 1.000000000000e+00 5.230221776456e+01 0.000000000000e+00 9.911267894547e-03 -2.868975569308e+06 -1.147788973457e+05 -9.133681986228e+05 -1.243815123775e+06 -4.314995265061e-05 5.309690758100e-05 1.701642571997e-04 0.000000000000e+00 1.675386297235e+06 1.823977385277e+06  2.159125222563e-04
1.800000000000e+03 4.549515672844e+06 1.000000000000e+00 5.187574277104e+01 0.000000000000e+00 9.812544444549e-03 -2.863952287880e+06 -1.148047854283e+05 -9.139945740980e+05 -1.242024683598e+06 -4.290197670058e-05 5.253140973407e-05 1.666532666603e-04 0.000000000000e+00 1.673323848525e+06 1.819295031647e+06  2.122316952829e-04
1.900000000000e+03 4.551855370346e+06 1.000000000000e+00 5.141938715866e+01 0.000000000000e+00 9.704061978526e-03 -2.858439528441e+06 -1.148285489054e+05 -9.147560804226e+05 -1.240097371889e+06 -4.262942928517e-05 5.191312125928e-05 1.628240352985e-04 0.000000000000e+00 1.671097660251e+06 1.814097187525e+06  2.082185075525e-04