 TITLE = "Time curves in points"
 VARIABLES = "TIME"  "PRESSURE1"  "SATURATION1"  "TEMPERATURE1"  "DISPLACEMENT_X1"  "DISPLACEMENT_Y1"  "STRESS_XX"  "STRESS_XY"  "STRESS_YY"  "STRESS_ZZ"  "STRAIN_XX"  "STRAIN_XY"  "STRAIN_YY"  "STRAIN_PLS"  p_(1st_Invariant)  q_(2nd_Invariant)   Effective_Strain
 ZONE T="POINT=POINT9"
0.000000000000e+00 1.000000000000e+05 1.000000000000e+00 2.500000000000e+01 0.000000000000e+00 0.000000000000e+00 -6.854419775061e+07 7.586938602830e+05 -6.954707405871e+06 -1.965222756120e+07 0.000000000000e+00 0.000000000000e+00 0.000000000000e+00 0.000000000000e+00 3.171704423923e+07 5.633990941714e+07  0.000000000000e+00
1.000000000000e-03 1.375363517933e+05 1.000000000000e+00 2.500341908267e+01 0.000000000000e+00 -1.346031019363e-03 -9.829619242282e+07 1.493518104072e+06 2.294816361406e+07 -1.960805181536e+07 -1.106714901242e-03 5.458694382436e-05 1.109037253038e-03 0.000000000000e+00 3.165202687471e+07 1.065749323075e+08  1.921225847873e-03
2.000000000000e-03 1.596543381659e+05 1.000000000000e+00 2.501822584451e+01 0.000000000000e+00 -1.346090030451e-03 -9.828394357857e+07 1.493426530275e+06 2.294978899884e+07 -1.960864891391e+07 -1.106237766224e-03 5.458014119938e-05 1.109119802418e-03 0.000000000000e+00 3.164760116455e+07 1.065645871751e+08  1.920884150509e-03
3.000000000000e-03 1.750698772340e+05 1.000000000000e+00 2.505297113902e+01 0.000000000000e+00 -1.345993849490e-03 -9.828114968586e+07 1.493482323435e+06 2.294569439051e+07 -1.962031147240e+07 -1.105700812322e-03 5.458428583413e-05 1.109400897710e-03 0.000000000000e+00 3.165192225591e+07 1.065568462957e+08  1.920663542835e-03
4.000000000000e-03 1.857698442851e+05 1.000000000000e+00 2.511281051277e+01 0.000000000000e+00 -1.345910252937e-03 -9.829019514208e+07 1.493742148433e+06 2.293705673570e+07 -1.964518444542e+07 -1.105112933127e-03 5.460358711975e-05 1.110003923815e-03 0.000000000000e+00 3.166610761727e+07 1.065544911371e+08  1.920678956269e-03
1.000000000000e-02 2.016789111645e+05 1.000000000000e+00 2.596897761954e+01 0.000000000000e+00 -1.344665505544e-03 -9.858751532869e+07 1.498599726960e+06 2.283509413798e+07 -2.005258973039e+07 -1.101024058045e-03 5.496443581029e-05 1.121348937913e-03 0.000000000000e+00 3.193500364036e+07 1.066864866393e+08  1.927011375853e-03
2.000000000000e-02 1.999775638072e+05 1.000000000000e+00 2.761199352605e+01 0.000000000000e+00 -1.339641625426e-03 -9.921404816334e+07 1.507232982702e+06 2.265525568515e+07 -2.085425313797e+07 -1.094519208193e-03 5.560576337968e-05 1.144445293375e-03 0.000000000000e+00 3.247101520539e+07 1.070025526858e+08  1.941551103041e-03
3.000000000000e-02 1.899417015385e+05 1.000000000000e+00 2.912015010583e+01 0.000000000000e+00 -1.332742780352e-03 -9.979910746606e+07 1.514483793959e+06 2.248842166179e+07 -2.159748713270e+07 -1.088644148204e-03 5.614439507307e-05 1.165854435169e-03 0.000000000000e+00 3.296939097899e+07 1.073011242349e+08  1.955254416494e-03
4.000000000000e-02 1.766791345000e+05 1.000000000000e+00 3.042920762065e+01 0.000000000000e+00 -1.323676855090e-03 -1.003040549201e+08 1.520214521522e+06 2.233554243310e+07 -2.224629362698e+07 -1.083300812423e-03 5.657010626349e-05 1.184274590748e-03 0.000000000000e+00 3.340493537132e+07 1.075520603166e+08  1.966868860281e-03
5.000000000000e-02 1.624755312972e+05 1.000000000000e+00 3.155418858050e+01 0.000000000000e+00 -1.317015214019e-03 -1.007250383623e+08 1.525345299536e+06 2.220421235066e+07 -2.280120758164e+07 -1.078326250531e-03 5.695124977306e-05 1.200007706001e-03 0.000000000000e+00 3.377401119775e+07 1.077570693211e+08  1.976495925071e-03
6.000000000000e-02 1.480496644926e+05 1.000000000000e+00 3.252595810313e+01 0.000000000000e+00 -1.301947128934e-03 -1.010984818473e+08 1.528288619385e+06 2.206724406878e+07 -2.329130361161e+07 -1.073993441719e-03 5.716989639046e-05 1.213123879502e-03 0.000000000000e+00 3.410751379671e+07 1.079239659893e+08  1.984395056840e-03
7.000000000000e-02 1.342905906219e+05 1.000000000000e+00 3.337380556941e+01 0.000000000000e+00 -1.290357169636e-03 -1.014138731962e+08 1.531145133132e+06 2.194897032185e+07 -2.371588860339e+07 -1.069937677842e-03 5.738209455447e-05 1.224501154311e-03 0.000000000000e+00 3.439359715926e+07 1.080618196771e+08  1.991026807268e-03
8.000000000000e-02 1.218339376391e+05 1.000000000000e+00 3.412173675870e+01 0.000000000000e+00 -1.278157500833e-03 -1.016876532264e+08 1.533431364611e+06 2.183826636580e+07 -2.409133498225e+07 -1.066161499176e-03 5.755192889294e-05 1.234334444301e-03 0.000000000000e+00 3.464690728094e+07 1.081745768807e+08  1.996551626653e-03
9.000000000000e-02 1.115908105104e+05 1.000000000000e+00 3.478854305609e+01 0.000000000000e+00 -1.266936213163e-03 -1.019284137079e+08 1.535286938995e+06 2.173304870269e+07 -2.442723619144e+07 -1.062627700720e-03 5.768977156146e-05 1.242902690298e-03 0.000000000000e+00 3.487420039889e+07 1.082670410129e+08  2.001177624582e-03
1.000000000000e-01 1.045672230919e+05 1.000000000000e+00 3.538879924497e+01 0.000000000000e+00 -1.256764260612e-03 -1.021436973098e+08 1.536835790236e+06 2.163392301081e+07 -2.473065505210e+07 -1.059354105394e-03 5.780482908220e-05 1.250490722281e-03 0.000000000000e+00 3.508014311703e+07 1.083455667950e+08  2.005167036017e-03
2.000000000000e-01 1.257458991114e+05 1.000000000000e+00 3.885749387717e+01 0.000000000000e+00 -1.122732978541e-03 -1.033402081429e+08 1.542342141694e+06 2.099268818331e+07 -2.649274414392e+07 -1.038346912929e-03 5.821387233341e-05 1.292122452099e-03 0.000000000000e+00 3.628008803452e+07 1.087045100972e+08  2.024742617437e-03
3.000000000000e-01 1.562400302842e+05 1.000000000000e+00 4.116519256362e+01 0.000000000000e+00 -9.746375049218e-04 -1.040365177820e+08 1.542061182966e+06 2.044781599628e+07 -2.767147901385e+07 -1.020428261495e-03 5.819300111357e-05 1.315665923178e-03 0.000000000000e+00 3.708672693318e+07 1.087605231017e+08  2.030997938232e-03
4.000000000000e-01 1.873099542003e+05 1.000000000000e+00 4.284986262779e+01 0.000000000000e+00 -8.342375891042e-04 -1.044936449549e+08 1.539210090736e+06 1.996161649347e+07 -2.854352065477e+07 -1.005017152686e-03 5.798120569083e-05 1.329997202594e-03 0.000000000000e+00 3.769184970542e+07 1.086841681649e+08  2.031183767750e-03
5.000000000000e-01 2.167971535766e+05 1.000000000000e+00 4.415870676282e+01 0.000000000000e+00 -6.987285829689e-04 -1.048033498278e+08 1.535141772813e+06 1.950582258411e+07 -2.923099313484e+07 -9.909857844177e-04 5.767898778796e-05 1.338602406649e-03 0.000000000000e+00 3.817617345951e+07 1.085204326610e+08  2.027418501661e-03
6.000000000000e-01 2.441751596801e+05 1.000000000000e+00 4.522029208765e+01 0.000000000000e+00 -5.672307428643e-04 -1.050204111183e+08 1.530187547581e+06 1.906911683311e+07 -2.979855832825e+07 -9.779670680256e-04 5.731095962784e-05 1.343462900224e-03 0.000000000000e+00 3.858328420450e+07 1.083019773680e+08  2.021145284791e-03
7.000000000000e-01 2.695236752065e+05 1.000000000000e+00 4.610823884779e+01 0.000000000000e+00 -4.397812648153e-04 -1.051831823034e+08 1.524883054927e+06 1.865620892783e+07 -3.028200802070e+07 -9.660561520380e-04 5.691691160214e-05 1.346083023747e-03 0.000000000000e+00 3.893632713210e+07 1.080631329769e+08  2.013781116814e-03
8.000000000000e-01 2.931001235804e+05 1.000000000000e+00 4.686835921443e+01 0.000000000000e+00 1.143705695438e-03 -1.004583228449e+08 1.316277943197e+06 1.258421163353e+06 -3.434993817880e+07 -6.394668234196e-04 4.142053187358e-05 8.509740269389e-04 0.000000000000e+00 4.451661328678e+07 8.942864562202e+07  1.297070257149e-03
9.000000000000e-01 3.149678557638e+05 1.000000000000e+00 4.753046193221e+01 0.000000000000e+00 -1.967717601092e-04 -1.054371367886e+08 1.515057159047e+06 1.791798867033e+07 -3.107748938003e+07 -9.459422967126e-04 5.618698790819e-05 1.348209864673e-03 0.000000000000e+00 3.953221249944e+07 1.076108112558e+08  1.999318968194e-03
1.000000000000e+00 3.353127053504e+05 1.000000000000e+00 4.811530562709e+01 0.000000000000e+00 -8.026702095816e-05 -1.055376267933e+08 1.510600875567e+06 1.757621019806e+07 -3.141492997792e+07 -9.371412746801e-04 5.585594970684e-05 1.348048743624e-03 0.000000000000e+00 3.979211552440e+07 1.073895114704e+08  1.992019317974e-03
2.000000000000e+00 4.697379123725e+05 1.000000000000e+00 5.129669055427e+01 0.000000000000e+00 8.739525760947e-04 -1.061033994054e+08 1.477017698349e+06 1.493566952513e+07 -3.349154689638e+07 -8.810242004446e-04 5.336119939915e-05 1.327103004172e-03 0.000000000000e+00 4.155309225890e+07 1.055490931046e+08  1.927474550134e-03
3.000000000000e+00 5.733073288959e+05 1.000000000000e+00 5.334711595520e+01 0.000000000000e+00 1.685848081139e-03 -1.064522171310e+08 1.449568171268e+06 1.271606193440e+07 -3.498118120108e+07 -8.386510132193e-04 5.132209167316e-05 1.299989710691e-03 0.000000000000e+00 4.290577879923e+07 1.039154035799e+08  1.868541765442e-03
4.000000000000e+00 6.596594521673e+05 1.000000000000e+00 5.484331796413e+01 0.000000000000e+00 2.164842381415e-03 -1.065189372463e+08 1.465735269278e+06 1.142095878753e+07 -3.591488251102e+07 -8.064488545597e-04 5.252307609674e-05 1.286566213891e-03 0.000000000000e+00 4.367095365658e+07 1.028307438761e+08  1.830693378975e-03
5.000000000000e+00 7.354601088473e+05 1.000000000000e+00 5.604440460970e+01 0.000000000000e+00 3.015886903096e-03 -1.069038340407e+08 1.406995017507e+06 9.157280734971e+06 -3.713121854797e+07 -7.755668255519e-04 4.815951453665e-05 1.247664939025e-03 0.000000000000e+00 4.495925728456e+07 1.012247578693e+08  1.769965325537e-03
6.000000000000e+00 8.041390172580e+05 1.000000000000e+00 5.709454683571e+01 0.000000000000e+00 3.578067941742e-03 -1.070732790076e+08 1.389654915903e+06 7.674227838616e+06 -3.799568822472e+07 -7.497516220437e-04 4.687139270321e-05 1.224688990869e-03 0.000000000000e+00 4.579824646457e+07 1.000900393489e+08  1.728234347210e-03
7.000000000000e+00 8.678837873012e+05 1.000000000000e+00 5.796631081853e+01 0.000000000000e+00 4.086328717867e-03 -1.072094788008e+08 1.374083554805e+06 6.357104897389e+06 -3.873805461556e+07 -7.272368627037e-04 4.571466302166e-05 1.203340890426e-03 0.000000000000e+00 4.653014283967e+07 9.907221332956e+07  1.690646650902e-03
8.000000000000e+00 9.273815372719e+05 1.000000000000e+00 5.880767307389e+01 0.000000000000e+00 4.553371192745e-03 -1.073641911775e+08 1.360557572314e+06 5.166711159016e+06 -3.943699157242e+07 -7.070228068680e-04 4.470987575091e-05 1.185086781398e-03 0.000000000000e+00 4.721149053030e+07 9.817816820877e+07  1.657767242532e-03
9.000000000000e+00 9.837160277888e+05 1.000000000000e+00 5.957121528383e+01 0.000000000000e+00 4.985559382426e-03 -1.075004470634e+08 1.348173716663e+06 4.075980866472e+06 -4.007322617573e+07 -6.884521687927e-04 4.378993218824e-05 1.168205512941e-03 0.000000000000e+00 4.783256412422e+07 9.735447422410e+07  1.627475592027e-03
1.000000000000e+01 1.037379885510e+06 1.000000000000e+00 6.026073689987e+01 0.000000000000e+00 5.387450047084e-03 -1.076142839321e+08 1.336606398713e+06 3.067338818301e+06 -4.065218292324e+07 -6.711762875799e-04 4.293064571196e-05 1.152245773202e-03 0.000000000000e+00 4.839970934568e+07 9.658276312957e+07  1.599073823291e-03
1.100000000000e+01 1.088673730551e+06 1.000000000000e+00 6.090878637885e+01 0.000000000000e+00 5.763189789868e-03 -1.077314959478e+08 1.326068245989e+06 2.136854759096e+06 -4.119409415287e+07 -6.554017453490e-04 4.214781150961e-05 1.137813068103e-03 0.000000000000e+00 4.892957844720e+07 9.588118220029e+07  1.573284465859e-03
1.200000000000e+01 1.137991997085e+06 1.000000000000e+00 6.149982089458e+01 0.000000000000e+00 6.115339951832e-03 -1.078413390947e+08 1.316443985014e+06 1.280021210441e+06 -4.169174247863e+07 -6.409975529909e-04 4.143286640859e-05 1.124471902682e-03 0.000000000000e+00 4.941768678764e+07 9.523710156883e+07  1.549596304895e-03
1.300000000000e+01 1.185597007461e+06 1.000000000000e+00 6.203604973873e+01 0.000000000000e+00 6.446443237766e-03 -1.079359490573e+08 1.307342649900e+06 4.786723997765e+05 -4.214899372988e+07 -6.275280194106e-04 4.075676722873e-05 1.111691136189e-03 0.000000000000e+00 4.986875679579e+07 9.462828970611e+07  1.527170349549e-03
1.400000000000e+01 1.232205373400e+06 1.000000000000e+00 6.252137324457e+01 0.000000000000e+00 6.758359146724e-03 -1.080183028541e+08 1.298764171254e+06 -2.694524382789e+05 -4.256878520663e+07 -6.149946198702e-04 4.011950881502e-05 1.099495897055e-03 0.000000000000e+00 5.028551349966e+07 9.405532523226e+07  1.506028683767e-03
1.500000000000e+01 1.277367066716e+06 1.000000000000e+00 6.295962165415e+01 0.000000000000e+00 7.052161665128e-03 -1.080917103047e+08 1.290762029737e+06 -9.650406902359e+05 -4.295365608372e+07 -6.034259783141e-04 3.952506401661e-05 1.087954965989e-03 0.000000000000e+00 5.067013569287e+07 9.352039796947e+07  1.486255664781e-03
1.600000000000e+01 1.321228592736e+06 1.000000000000e+00 6.335431298003e+01 0.000000000000e+00 7.249244538244e-03 -1.080596675818e+08 1.297991664916e+06 -1.371969478161e+06 -4.320504944282e+07 -5.928983524135e-04 4.006212262985e-05 1.082177935775e-03 0.000000000000e+00 5.087889550093e+07 9.313565830045e+07  1.472777640080e-03
1.700000000000e+01 1.363922198573e+06 1.000000000000e+00 6.370850933870e+01 0.000000000000e+00 7.591740969604e-03 -1.081895534561e+08 1.275670423786e+06 -2.241712804813e+06 -4.362969307688e+07 -5.819502070493e-04 3.840397328880e-05 1.065645661479e-03 0.000000000000e+00 5.135365311259e+07 9.250851158685e+07  1.448738771534e-03
1.800000000000e+01 1.405587800680e+06 1.000000000000e+00 6.402490330082e+01 0.000000000000e+00 7.840004416331e-03 -1.082083108420e+08 1.268392139152e+06 -2.836071686921e+06 -4.392515265393e+07 -5.716726970933e-04 3.786330071597e-05 1.054543687291e-03 0.000000000000e+00 5.165651172761e+07 9.201521259447e+07  1.430393926003e-03
1.900000000000e+01 1.446313787815e+06 1.000000000000e+00 6.430589302134e+01 0.000000000000e+00 8.075297042019e-03 -1.082072918526e+08 1.261173751909e+06 -3.405094075902e+06 -4.419468729173e+07 -5.616235623701e-04 3.732707766362e-05 1.043419856533e-03 0.000000000000e+00 5.193569107342e+07 9.152717758025e+07  1.412209308803e-03
2.000000000000e+01 1.486183576155e+06 1.000000000000e+00 6.455355247475e+01 0.000000000000e+00 8.297148373209e-03 -1.082021887616e+08 1.254481356145e+06 -3.932898101695e+06 -4.443896628821e+07 -5.523607991206e-04 3.682992826400e-05 1.032888926872e-03 0.000000000000e+00 5.219135105051e+07 9.107144836800e+07  1.395191267016e-03
2.100000000000e+01 1.525125193316e+06 1.000000000000e+00 6.481651523440e+01 0.000000000000e+00 8.509294367621e-03 -1.082081043449e+08 1.248251202224e+06 -4.437674793912e+06 -4.468485225735e+07 -5.434476133584e-04 3.636711682988e-05 1.023272985730e-03 0.000000000000e+00 5.244354379871e+07 9.064405574862e+07  1.379306302189e-03
2.200000000000e+01 1.563296833681e+06 1.000000000000e+00 6.506310122449e+01 0.000000000000e+00 8.712307409345e-03 -1.082043112969e+08 1.242131313625e+06 -4.924811707538e+06 -4.491679556965e+07 -5.346916914073e-04 3.591249653397e-05 1.013794366252e-03 0.000000000000e+00 5.268197285805e+07 9.022355789039e+07  1.363675463062e-03
2.300000000000e+01 1.600764539826e+06 1.000000000000e+00 6.528885384062e+01 0.000000000000e+00 8.905806123791e-03 -1.082038012543e+08 1.236433421042e+06 -5.379402557119e+06 -4.513266775243e+07 -5.266546373195e-04 3.548922451354e-05 1.004927672914e-03 0.000000000000e+00 5.290529052128e+07 8.983406800307e+07  1.349174936425e-03
2.400000000000e+01 1.637574359413e+06 1.000000000000e+00 6.549323373170e+01 0.000000000000e+00 9.034796180430e-03 -1.081504222389e+08 1.240543988383e+06 -5.651848405300e+06 -4.527055521636e+07 -5.195504538028e-04 3.579458094454e-05 9.999297900700e-04 0.000000000000e+00 5.302427528686e+07 8.955085410091e+07  1.339085505632e-03
2.500000000000e+01 1.673781468571e+06 1.000000000000e+00 6.567656887101e+01 0.000000000000e+00 9.266998922003e-03 -1.081842265555e+08 1.225587314139e+06 -6.225406496175e+06 -4.551756573709e+07 -5.116313662218e-04 3.468351371499e-05 9.878008803218e-04 0.000000000000e+00 5.330906626294e+07 8.909432509828e+07  1.321558166102e-03
2.600000000000e+01 1.709418523672e+06 1.000000000000e+00 6.583945735150e+01 0.000000000000e+00 9.370494909519e-03 -1.080852169866e+08 1.232912280314e+06 -6.435372735557e+06 -4.560849832554e+07 -5.045763718044e-04 3.522765405948e-05 9.833796304299e-04 0.000000000000e+00 5.337636268257e+07 8.882478656194e+07  1.312076941870e-03
2.700000000000e+01 1.744518244819e+06 1.000000000000e+00 6.598257455829e+01 0.000000000000e+00 9.596403349820e-03 -1.081276032161e+08 1.215221193384e+06 -7.002228524554e+06 -4.584199671389e+07 -4.974779201889e-04 3.391345903033e-05 9.709977841200e-04 0.000000000000e+00 5.365727615150e+07 8.838333087223e+07  1.294921350547e-03
2.800000000000e+01 1.779123733143e+06 1.000000000000e+00 6.610660138925e+01 0.000000000000e+00 9.750092573948e-03 -1.080817487963e+08 1.210068782488e+06 -7.370931350975e+06 -4.598289552140e+07 -4.905413717489e-04 3.353070850665e-05 9.625364919889e-04 0.000000000000e+00 5.381185855624e+07 8.803012468589e+07  1.281656830897e-03
2.900000000000e+01 1.813258576316e+06 1.000000000000e+00 6.621219494674e+01 0.000000000000e+00 9.816375122232e-03 -1.078865265647e+08 1.220717899737e+06 -7.505090854745e+06 -4.600216945604e+07 -4.825743712866e-04 3.432178578801e-05 9.582693137072e-04 0.000000000000e+00 5.379792895850e+07 8.774130231517e+07  1.271663582847e-03
3.000000000000e+01 1.846933371041e+06 1.000000000000e+00 6.629998132217e+01 0.000000000000e+00 1.003683889918e-02 -1.079536739620e+08 1.199796671787e+06 -8.073594964839e+06 -4.622422527330e+07 -4.768206299754e-04 3.276763742600e-05 9.454012342591e-04 0.000000000000e+00 5.408383140006e+07 8.732314321289e+07  1.255049550096e-03
3.100000000000e+01 1.880068626244e+06 1.000000000000e+00 6.640753140304e+01 0.000000000000e+00 1.017209550345e-02 -1.078883880883e+08 1.194833170194e+06 -8.414070821915e+06 -4.634494386891e+07 -4.699118925436e-04 3.239892016485e-05 9.372388216901e-04 0.000000000000e+00 5.421580092638e+07 8.697715852436e+07  1.242096024543e-03
3.200000000000e+01 1.912746246806e+06 1.000000000000e+00 6.650903880481e+01 0.000000000000e+00 1.030281838001e-02 -1.078135153819e+08 1.189792166789e+06 -8.751426902137e+06 -4.645973026013e+07 -4.628674117721e-04 3.202444562617e-05 9.289719475272e-04 0.000000000000e+00 5.434155751471e+07 8.662561427565e+07  1.228943715752e-03
3.300000000000e+01 1.944992529974e+06 1.000000000000e+00 6.660028937757e+01 0.000000000000e+00 1.042907286854e-02 -1.077270495703e+08 1.184640964742e+06 -9.085767004923e+06 -4.656654341973e+07 -4.556884785565e-04 3.164178490267e-05 9.205209467806e-04 0.000000000000e+00 5.445978666498e+07 8.626685048348e+07  1.215518490326e-03
3.400000000000e+01 1.976830068916e+06 1.000000000000e+00 6.668024540017e+01 0.000000000000e+00 1.055085043286e-02 -1.076293852079e+08 1.179396127535e+06 -9.416296915678e+06 -4.666490069228e+07 -4.484076749723e-04 3.125216842440e-05 9.118973916472e-04 0.000000000000e+00 5.457019427194e+07 8.590193076643e+07  1.201856139129e-03
3.500000000000e+01 2.008299345601e+06 1.000000000000e+00 6.674866253807e+01 0.000000000000e+00 1.066854743904e-02 -1.075140672674e+08 1.173948435940e+06 -9.749544827965e+06 -4.675473861580e+07 -4.407876000236e-04 3.084748276310e-05 9.028564492070e-04 0.000000000000e+00 5.467278357038e+07 8.551973796397e+07  1.187546253920e-03
3.600000000000e+01 2.039444675167e+06 1.000000000000e+00 6.680556866857e+01 0.000000000000e+00 1.076272968722e-02 -1.073528069430e+08 1.171859884780e+06 -1.004916665981e+07 -4.681667709860e+07 -4.324973586161e-04 3.069233324838e-05 8.940282105281e-04 0.000000000000e+00 5.473955023382e+07 8.512552727096e+07  1.172958355600e-03
3.700000000000e+01 2.070350550759e+06 1.000000000000e+00 6.685110794370e+01 0.000000000000e+00 1.089447264196e-02 -1.071767419816e+08 1.161056842916e+06 -1.047999037391e+07 -4.690955630603e+07 -4.225080037715e-04 2.988982156699e-05 8.814759859945e-04 0.000000000000e+00 5.485542955384e+07 8.460968334855e+07  1.153526675310e-03
3.800000000000e+01 2.103243222883e+06 1.000000000000e+00 6.688582001013e+01 0.000000000000e+00 1.104592973594e-02 -1.060413389456e+08 1.132255412050e+06 -1.179541410941e+07 -4.697622368253e+07 -3.778596741664e-04 2.775028670270e-05 8.350936069462e-04 0.000000000000e+00 5.493765891253e+07 8.251170694335e+07  1.076112307884e-03
3.900000000000e+01 2.133056541203e+06 1.000000000000e+00 6.690898244278e+01 0.000000000000e+00 1.113548823978e-02 -1.061330283813e+08 1.132173113291e+06 -1.186980351929e+07 -4.703466788944e+07 -3.790944969495e-04 2.774417308060e-05 8.345013565502e-04 0.000000000000e+00 5.501249993002e+07 8.253008650226e+07  1.076461444310e-03
4.000000000000e+01 2.162442325650e+06 1.000000000000e+00 6.692120017560e+01 0.000000000000e+00 1.121793849148e-02 -1.062651266706e+08 1.133151766875e+06 -1.187874210244e+07 -4.708176895729e+07 -3.822515366026e-04 2.781687306113e-05 8.359188202675e-04 0.000000000000e+00 5.507521257678e+07 8.263902443572e+07  1.080152350419e-03
4.200000000000e+01 2.219725187330e+06 1.000000000000e+00 6.697479474566e+01 0.000000000000e+00 1.129464679503e-02 -1.064168146616e+08 1.150148138285e+06 -1.168136747881e+07 -4.708765997735e+07 -3.876668526660e-04 2.907946065157e-05 8.434686870335e-04 0.000000000000e+00 5.506194737259e+07 8.293460116684e+07  1.091442490918e-03
4.400000000000e+01 2.275490824415e+06 1.000000000000e+00 6.700716875485e+01 0.000000000000e+00 1.151658127259e-02 -1.067472568011e+08 1.136777645511e+06 -1.191205962225e+07 -4.726816514093e+07 -3.932359403425e-04 2.808622404548e-05 8.416045992103e-04 0.000000000000e+00 5.530916052143e+07 8.303398324364e+07  1.093731452460e-03
5.000000000000e+01 2.427012691325e+06 1.000000000000e+00 6.679476010369e+01 0.000000000000e+00 1.181769910175e-02 -1.070764087403e+08 1.138403054729e+06 -1.192478227470e+07 -4.729888275434e+07 -4.043206438705e-04 2.820696873028e-05 8.422729834741e-04 0.000000000000e+00 5.543335792310e+07 8.332552845878e+07  1.102648727382e-03
6.500000000000e+01 2.758397042957e+06 1.000000000000e+00 6.601327659366e+01 0.000000000000e+00 1.233005957648e-02 -1.072327687030e+08 1.136300184082e+06 -1.189736232487e+07 -4.706883970070e+07 -4.186727559058e-04 2.805075548218e-05 8.347469824758e-04 0.000000000000e+00 5.539965690951e+07 8.352639688060e+07  1.106316299969e-03
8.000000000000e+01 3.013450391591e+06 1.000000000000e+00 6.501253197491e+01 0.000000000000e+00 1.257358687224e-02 -1.068936670795e+08 1.130110797433e+06 -1.183145287234e+07 -4.660076033188e+07 -4.234633578758e-04 2.759097247403e-05 8.198092427276e-04 0.000000000000e+00 5.510862676123e+07 8.333254711618e+07  1.095833641551e-03
1.000000000000e+02 3.314130008803e+06 1.000000000000e+00 6.391116481201e+01 0.000000000000e+00 1.267598752392e-02 -1.062548202066e+08 1.143443253080e+06 -1.145131438532e+07 -4.591307993544e+07 -4.252771744647e-04 2.858138346489e-05 8.083862575204e-04 0.000000000000e+00 5.453973817578e+07 8.313930597082e+07  1.086548630474e-03
1.860000000000e+02 3.912611204981e+06 1.000000000000e+00 6.127460364766e+01 0.000000000000e+00 1.302636123656e-02 -1.046930725772e+08 1.099308258492e+06 -1.151350380931e+07 -4.454701686092e+07 -4.180088909970e-04 2.530278386693e-05 7.553368790047e-04 0.000000000000e+00 5.358453108246e+07 8.184877491570e+07  1.030981792988e-03
2.720000000000e+02 4.202932554198e+06 1.000000000000e+00 5.927316690374e+01 0.000000000000e+00 1.284167004684e-02 -1.030820543185e+08 1.080689081642e+06 -1.132621910920e+07 -4.331022776096e+07 -4.041089508148e-04 2.391964501526e-05 7.163552870101e-04 0.000000000000e+00 5.257283372953e+07 8.069011304909e+07  9.837026852933e-04
3.580000000000e+02 4.344298235920e+06 1.000000000000e+00 5.786901994322e+01 0.000000000000e+00 1.264825230931e-02 -1.018618511705e+08 1.067013811868e+06 -1.118936965264e+07 -4.241351096274e+07 -3.920937435395e-04 2.290376783204e-05 6.881316428910e-04 0.000000000000e+00 5.182157726196e+07 7.980407937402e+07  9.479707386425e-04
4.440000000000e+02 4.416427124637e+06 1.000000000000e+00 5.679914792531e+01 0.000000000000e+00 1.253903420220e-02 -1.009584829400e+08 1.042942760117e+06 -1.128728073535e+07 -4.179866367171e+07 -3.813772515008e-04 2.111563255909e-05 6.616577604380e-04 0.000000000000e+00 5.134814244902e+07 7.898822566362e+07  9.148324588881e-04
5.300000000000e+02 4.455391632438e+06 1.000000000000e+00 5.597604571250e+01 0.000000000000e+00 1.230925444695e-02 -1.001469357063e+08 1.048302601149e+06 -1.100291341910e+07 -4.118267459346e+07 -3.741136628702e-04 2.151379217859e-05 6.493403807065e-04 0.000000000000e+00 5.077750790628e+07 7.855206048451e+07  8.977302494623e-04
6.160000000000e+02 4.477907093358e+06 1.000000000000e+00 5.534879648942e+01 0.000000000000e+00 1.217858983531e-02 -9.956241057940e+07 1.042039740830e+06 -1.094068538949e+07 -4.076972368376e+07 -3.677409062313e-04 2.104855112637e-05 6.363135308750e-04 0.000000000000e+00 5.042427321755e+07 7.812386579828e+07  8.805997517006e-04
7.020000000000e+02 4.491717405633e+06 1.000000000000e+00 5.488766012867e+01 0.000000000000e+00 1.207830052259e-02 -9.912898970670e+07 1.037422409658e+06 -1.089484991907e+07 -4.046497860879e+07 -3.629615194589e-04 2.070554938212e-05 6.266968884200e-04 0.000000000000e+00 5.016293941152e+07 7.780610388788e+07  8.678957706717e-04
7.880000000000e+02 4.501335977491e+06 1.000000000000e+00 5.452634195931e+01 0.000000000000e+00 1.201383504056e-02 -9.880231269846e+07 1.028885855152e+06 -1.094189686261e+07 -4.025491516123e+07 -3.586301586337e-04 2.007140533314e-05 6.171470738932e-04 0.000000000000e+00 4.999970824077e+07 7.750114550000e+07  8.555829816233e-04
8.740000000000e+02 4.509722045069e+06 1.000000000000e+00 5.394399347024e+01 0.000000000000e+00 1.186012230611e-02 -9.823453598085e+07 1.027966991483e+06 -1.080109905815e+07 -3.983906487149e+07 -3.529871770267e-04 2.000314688916e-05 6.069308387262e-04 0.000000000000e+00 4.962489997016e+07 7.714979161861e+07  8.416674944483e-04
9.370000000000e+02 4.515095919892e+06 1.000000000000e+00 5.354017271306e+01 0.000000000000e+00 1.175518551481e-02 -9.783600602648e+07 1.023813282479e+06 -1.076002104223e+07 -3.956612971715e+07 -3.483222273115e-04 1.969458564882e-05 5.983190021559e-04 0.000000000000e+00 4.938738559528e+07 7.685599099906e+07  8.299912288485e-04
1.000000000000e+03 4.519285921411e+06 1.000000000000e+00 5.322023068126e+01 0.000000000000e+00 1.166749589920e-02 -9.750863012861e+07 1.020416263806e+06 -1.072646459630e+07 -3.934605304856e+07 -3.443368273667e-04 1.944223569025e-05 5.913911081715e-04 0.000000000000e+00 4.919371592449e+07 7.661383023435e+07  8.204163778301e-04
1.100000000000e+03 4.523431231599e+06 1.000000000000e+00 5.289815608528e+01 0.000000000000e+00 1.157583404289e-02 -9.717176134696e+07 1.016933827050e+06 -1.069209316481e+07 -3.912211077605e+07 -3.401424141703e-04 1.918354038838e-05 5.843499055050e-04 0.000000000000e+00 4.899532176261e+07 7.636414658767e+07  8.105725669090e-04
1.200000000000e+03 4.526692601910e+06 1.000000000000e+00 5.262163516755e+01 0.000000000000e+00 1.149961359865e-02 -9.688813591702e+07 1.013992071288e+06 -1.066303556321e+07 -3.893167914891e+07 -3.366809300664e-04 1.896500996038e-05 5.783560131278e-04 0.000000000000e+00 4.882761687638e+07 7.615446179259e+07  8.022781199866e-04
1.300000000000e+03 4.529597953562e+06 1.000000000000e+00 5.235621146220e+01 0.000000000000e+00 1.142705248955e-02 -9.661757414032e+07 1.011183568175e+06 -1.063528875079e+07 -3.874944380568e+07 -3.334002339659e-04 1.875637830058e-05 5.726178676977e-04 0.000000000000e+00 4.866743556560e+07 7.595463967703e+07  7.943634399062e-04
1.400000000000e+03 4.532337486591e+06 1.000000000000e+00 5.208448068658e+01 0.000000000000e+00 1.135208878016e-02 -9.633975153850e+07 1.008302588296e+06 -1.060683035176e+07 -3.856260922536e+07 -3.300206788815e-04 1.854236265243e-05 5.667353238216e-04 0.000000000000e+00 4.850306370521e+07 7.574944741110e+07  7.862368661596e-04
1.500000000000e+03 4.534977393509e+06 1.000000000000e+00 5.179637439358e+01 0.000000000000e+00 1.127118612036e-02 -9.604292642193e+07 1.005230423181e+06 -1.057649790697e+07 -3.836378022363e+07 -3.263808231875e-04 1.831414467240e-05 5.604768802779e-04 0.000000000000e+00 4.832773485084e+07 7.553009432351e+07  7.775563672934e-04
1.600000000000e+03 4.537538419910e+06 1.000000000000e+00 5.148575268691e+01 0.000000000000e+00 1.118217601267e-02 -9.571995125795e+07 1.001894948922e+06 -1.054358082383e+07 -3.814845041013e+07 -3.223825673127e-04 1.806636658459e-05 5.537015502932e-04 0.000000000000e+00 4.813732749730e+07 7.529124575942e+07  7.681138161871e-04
1.700000000000e+03 4.540025723991e+06 1.000000000000e+00 5.114882390051e+01 0.000000000000e+00 1.108371652291e-02 -9.536641538830e+07 9.982517055036e+05 -1.050763924803e+07 -3.791383754782e+07 -3.179654270397e-04 1.779572564496e-05 5.463223310801e-04 0.000000000000e+00 4.792929739472e+07 7.502962525761e+07  7.577808252300e-04
1.800000000000e+03 4.542439111581e+06 1.000000000000e+00 5.078330093702e+01 0.000000000000e+00 1.097499860963e-02 -9.497965502563e+07 9.942737776720e+05 -1.046841283545e+07 -3.765826392189e+07 -3.130927768183e-04 1.750022243461e-05 5.382865774411e-04 0.000000000000e+00 4.770211059432e+07 7.474326531123e+07  7.464796976207e-04
1.900000000000e+03 4.544778414397e+06 1.000000000000e+00 5.038789692756e+01 0.000000000000e+00 1.085556266761e-02 -9.455817857963e+07 9.899461870979e+05 -1.042575258419e+07 -3.738078694988e+07 -3.077442249271e-04 1.717874427768e-05 5.295648135274e-04 0.000000000000e+00 4.745490603790e+07 7.443108576339e+07  7.341670385919e-04
2.000000000000e+03 4.547042748876e+06 1.000000000000e+00 4.996201021308e+01 0.000000000000e+00 1.072520009632e-02 -9.410128330737e+07 9.852618190532e+05 -1.037958797999e+07 -3.708096407486e+07 -3.019101073156e-04 1.683076265150e-05 5.201432206111e-04 0.000000000000e+00 4.718727845407e+07 7.409260085981e+07  7.208224483987e-04