 TITLE = "Time curves in points"
 VARIABLES = "TIME"  "PRESSURE1"  "SATURATION1"  "TEMPERATURE1"  "DISPLACEMENT_X1"  "DISPLACEMENT_Y1"  "STRESS_XX"  "STRESS_XY"  "STRESS_YY"  "STRESS_ZZ"  "STRAIN_XX"  "STRAIN_XY"  "STRAIN_YY"  "STRAIN_PLS"  p_(1st_Invariant)  q_(2nd_Invariant)   Effective_Strain
 ZONE T="POINT=POINT9"
0.000000000000e+00 1.000000000000e+05 1.000000000000e+00 2.500000000000e+01 0.000000000000e+00 0.000000000000e+00 -6.854419775061e+07 7.586938602830e+05 -6.954707405871e+06 -1.965222756120e+07 0.000000000000e+00 0.000000000000e+00 0.000000000000e+00 0.000000000000e+00 3.171704423923e+07 5.633990941714e+07  0.000000000000e+00
1.000000000000e-03 1.375363516703e+05 1.000000000000e+00 2.500341801932e+01 0.000000000000e+00 -1.346031018907e-03 -9.829619201347e+07 1.493518091672e+06 2.294816361447e+07 -1.960805133757e+07 -1.106714903784e-03 5.458694290319e-05 1.109037235306e-03 0.000000000000e+00 3.165202657886e+07 1.065749320043e+08  1.921225834650e-03
2.000000000000e-03 1.596543389367e+05 1.000000000000e+00 2.501822523887e+01 0.000000000000e+00 -1.346090028167e-03 -9.828394328990e+07 1.493426540696e+06 2.294978900089e+07 -1.960864861477e+07 -1.106237766613e-03 5.458014197357e-05 1.109119791384e-03 0.000000000000e+00 3.164760096792e+07 1.065645869571e+08  1.920884141363e-03
3.000000000000e-03 1.750698786130e+05 1.000000000000e+00 2.505296830634e+01 0.000000000000e+00 -1.345993850131e-03 -9.828114860757e+07 1.493482296482e+06 2.294569447045e+07 -1.962031017586e+07 -1.105700820429e-03 5.458428383192e-05 1.109400852522e-03 0.000000000000e+00 3.165192143766e+07 1.065568455643e+08  1.920663510565e-03
4.000000000000e-03 1.857698476363e+05 1.000000000000e+00 2.511280761999e+01 0.000000000000e+00 -1.345910252341e-03 -9.829019404563e+07 1.493742128023e+06 2.293705681527e+07 -1.964518311095e+07 -1.105112941967e-03 5.460358560353e-05 1.110003877204e-03 0.000000000000e+00 3.166610678044e+07 1.065544903948e+08  1.920678923435e-03
1.000000000000e-02 2.016789187738e+05 1.000000000000e+00 2.596897994581e+01 0.000000000000e+00 -1.344665497630e-03 -9.858751635217e+07 1.498599743576e+06 2.283509395671e+07 -2.005259087567e+07 -1.101024053521e-03 5.496443704463e-05 1.121348973719e-03 0.000000000000e+00 3.193500442371e+07 1.066864872682e+08  1.927011403123e-03
2.000000000000e-02 1.999775654951e+05 1.000000000000e+00 2.761199733326e+01 0.000000000000e+00 -1.339641614352e-03 -9.921404990774e+07 1.507233014398e+06 2.265525546010e+07 -2.085425503367e+07 -1.094519202573e-03 5.560576573426e-05 1.144445355428e-03 0.000000000000e+00 3.247101649377e+07 1.070025538366e+08  1.941551152487e-03
3.000000000000e-02 1.899417002927e+05 1.000000000000e+00 2.912015439710e+01 0.000000000000e+00 -1.332742769196e-03 -9.979910943074e+07 1.514483824504e+06 2.248842139502e+07 -2.159748928004e+07 -1.088644141420e-03 5.614439734212e-05 1.165854505019e-03 0.000000000000e+00 3.296939243859e+07 1.073011255235e+08  1.955254471984e-03
4.000000000000e-02 1.766791337347e+05 1.000000000000e+00 3.042921113057e+01 0.000000000000e+00 -1.323676850051e-03 -1.003040563414e+08 1.520214545833e+06 2.233554221288e+07 -2.224629532252e+07 -1.083300802237e-03 5.657010806941e-05 1.184274645545e-03 0.000000000000e+00 3.340493648367e+07 1.075520612086e+08  1.966868899845e-03
5.000000000000e-02 1.624755356040e+05 1.000000000000e+00 3.155419082157e+01 0.000000000000e+00 -1.313942356006e-03 -1.007331895619e+08 1.524734464667e+06 2.219533040489e+07 -2.280631829254e+07 -1.078439182971e-03 5.690587346852e-05 1.199867631564e-03 0.000000000000e+00 3.378139248320e+07 1.077569384394e+08  1.976464648863e-03
6.000000000000e-02 1.480496713839e+05 1.000000000000e+00 3.252596107649e+01 0.000000000000e+00 -1.301947129127e-03 -1.010984829816e+08 1.528288631609e+06 2.206724391841e+07 -2.329130501773e+07 -1.073993431624e-03 5.716989729853e-05 1.213123926144e-03 0.000000000000e+00 3.410751469364e+07 1.079239667172e+08  1.984395089505e-03
7.000000000000e-02 1.342905955250e+05 1.000000000000e+00 3.337380847169e+01 0.000000000000e+00 -1.290357168315e-03 -1.014138744430e+08 1.531145153439e+06 2.194897019625e+07 -2.371589001681e+07 -1.069937671652e-03 5.738209606303e-05 1.224501202144e-03 0.000000000000e+00 3.439359808785e+07 1.080618205301e+08  1.991026844439e-03
8.000000000000e-02 1.218339395709e+05 1.000000000000e+00 3.412173941680e+01 0.000000000000e+00 -1.278157499611e-03 -1.016876544182e+08 1.533431381686e+06 2.183826625391e+07 -2.409133629422e+07 -1.066161494712e-03 5.755193016133e-05 1.234334488875e-03 0.000000000000e+00 3.464690815283e+07 1.081745777097e+08  1.996551662458e-03
9.000000000000e-02 1.115908111548e+05 1.000000000000e+00 3.478854342154e+01 0.000000000000e+00 -1.266936213119e-03 -1.019284140007e+08 1.535286939929e+06 2.173304868800e+07 -2.442723641518e+07 -1.062627703283e-03 5.768977163085e-05 1.242902698063e-03 0.000000000000e+00 3.487420057595e+07 1.082670412410e+08  2.001177633629e-03
1.000000000000e-01 1.045672281260e+05 1.000000000000e+00 3.538879861076e+01 0.000000000000e+00 -1.256764260808e-03 -1.021436972033e+08 1.536835786086e+06 2.163392305070e+07 -2.473065479077e+07 -1.059354111144e-03 5.780482877394e-05 1.250490714057e-03 0.000000000000e+00 3.508014298112e+07 1.083455667647e+08  2.005167033519e-03
2.000000000000e-01 1.257459077061e+05 1.000000000000e+00 3.885749486388e+01 0.000000000000e+00 -1.122732664078e-03 -1.033402076316e+08 1.542342102935e+06 2.099268445846e+07 -2.649274544851e+07 -1.038346845479e-03 5.821386945416e-05 1.292122362204e-03 0.000000000000e+00 3.628008954055e+07 1.087045065024e+08  2.024742480658e-03
3.000000000000e-01 1.562400342334e+05 1.000000000000e+00 4.116519315852e+01 0.000000000000e+00 -9.746375127841e-04 -1.040365182236e+08 1.542061189774e+06 2.044781612645e+07 -2.767147931340e+07 -1.020428266772e-03 5.819300161932e-05 1.315665939139e-03 0.000000000000e+00 3.708672713685e+07 1.087605235741e+08  2.030997956985e-03
4.000000000000e-01 1.873099578947e+05 1.000000000000e+00 4.284986289610e+01 0.000000000000e+00 -8.342375935705e-04 -1.044936453396e+08 1.539210095503e+06 1.996161661799e+07 -2.854352082624e+07 -1.005017160605e-03 5.798120604489e-05 1.329997213587e-03 0.000000000000e+00 3.769184984929e+07 1.086841685972e+08  2.031183784209e-03
5.000000000000e-01 2.167971566593e+05 1.000000000000e+00 4.415870671746e+01 0.000000000000e+00 -6.987285866291e-04 -1.048033501103e+08 1.535141777004e+06 1.950582275296e+07 -2.923099315256e+07 -9.909857942530e-04 5.767898809925e-05 1.338602413578e-03 0.000000000000e+00 3.817617350331e+07 1.085204330538e+08  2.027418516011e-03
6.000000000000e-01 2.441751628291e+05 1.000000000000e+00 4.522029182487e+01 0.000000000000e+00 -5.672307446829e-04 -1.050204113216e+08 1.530187551801e+06 1.906911703493e+07 -2.979855823639e+07 -9.779670789866e-04 5.731095994132e-05 1.343462904308e-03 0.000000000000e+00 3.858328417435e+07 1.083019777275e+08  2.021145297467e-03
7.000000000000e-01 2.695236779936e+05 1.000000000000e+00 4.610823859284e+01 0.000000000000e+00 -4.397812658947e-04 -1.051831825156e+08 1.524883059257e+06 1.865620913030e+07 -3.028200793412e+07 -9.660561631346e-04 5.691691192379e-05 1.346083028052e-03 0.000000000000e+00 3.893632710648e+07 1.080631333444e+08  2.013781129782e-03
8.000000000000e-01 2.931001257873e+05 1.000000000000e+00 4.686835873420e+01 0.000000000000e+00 -3.165334477410e-04 -1.053220246843e+08 1.519837092714e+06 1.827640408836e+07 -3.070365368479e+07 -9.555520300889e-04 5.654206869485e-05 1.347637111519e-03 0.000000000000e+00 3.924975809357e+07 1.078364001019e+08  2.006622500841e-03
9.000000000000e-01 3.149678579272e+05 1.000000000000e+00 4.753046136150e+01 0.000000000000e+00 -1.967717638444e-04 -1.054371368319e+08 1.515057161994e+06 1.791798895646e+07 -3.107748910744e+07 -9.459423084439e-04 5.618698812708e-05 1.348209865175e-03 0.000000000000e+00 3.953221232762e+07 1.076108115570e+08  1.999318978176e-03
1.000000000000e+00 3.353127070913e+05 1.000000000000e+00 4.811530496720e+01 0.000000000000e+00 -8.026702417543e-05 -1.055376267974e+08 1.510600877622e+06 1.757621049741e+07 -3.141492965876e+07 -9.371412866863e-04 5.585594985947e-05 1.348048742888e-03 0.000000000000e+00 3.979211531958e+07 1.073895117515e+08  1.992019327026e-03
2.000000000000e+00 4.697379129060e+05 1.000000000000e+00 5.129669005998e+01 0.000000000000e+00 8.739525682566e-04 -1.061033996150e+08 1.477017692935e+06 1.493566983518e+07 -3.349154669363e+07 -8.810242157588e-04 5.336119899703e-05 1.327103008158e-03 0.000000000000e+00 4.155309215781e+07 1.055490935687e+08  1.927474566028e-03
3.000000000000e+00 5.733073288012e+05 1.000000000000e+00 5.334711570138e+01 0.000000000000e+00 1.685848094497e-03 -1.064522170474e+08 1.449568168136e+06 1.271606196432e+07 -3.498118107820e+07 -8.386510146790e-04 5.132209144048e-05 1.299989707238e-03 0.000000000000e+00 4.290577872043e+07 1.039154035411e+08  1.868541763409e-03
4.000000000000e+00 6.596594516993e+05 1.000000000000e+00 5.484331777328e+01 0.000000000000e+00 2.391704319362e-03 -1.066997384630e+08 1.426530771868e+06 1.081115178204e+07 -3.615206491121e+07 -8.043546963181e-04 4.961074200345e-05 1.272725871408e-03 0.000000000000e+00 4.401355053074e+07 1.024781372591e+08  1.816018813284e-03
5.000000000000e+00 7.354601082005e+05 1.000000000000e+00 5.604440422179e+01 0.000000000000e+00 3.954598157199e-03 -1.057392228407e+08 1.254560596601e+06 2.754665922200e+06 -3.870261949669e+07 -6.739435171703e-04 3.683581469793e-05 1.068219852646e-03 0.000000000000e+00 4.722905880505e+07 9.484982903210e+07  1.522919562636e-03
6.000000000000e+00 8.041390166719e+05 1.000000000000e+00 5.709454644138e+01 0.000000000000e+00 3.578067956404e-03 -1.070732786641e+08 1.389654916012e+06 7.674227926088e+06 -3.799568795799e+07 -7.497516191935e-04 4.687139271127e-05 1.224688984211e-03 0.000000000000e+00 4.579824623201e+07 1.000900391348e+08  1.728234338802e-03
7.000000000000e+00 8.678837884386e+05 1.000000000000e+00 5.796631025403e+01 0.000000000000e+00 4.086328724406e-03 -1.072094783850e+08 1.374083554954e+06 6.357105153743e+06 -3.873805421719e+07 -7.272368620551e-04 4.571466303272e-05 1.203340885151e-03 0.000000000000e+00 4.653014248282e+07 9.907221319981e+07  1.690646645504e-03
8.000000000000e+00 9.273815366453e+05 1.000000000000e+00 5.880767266523e+01 0.000000000000e+00 4.553371182846e-03 -1.073641909223e+08 1.360557570758e+06 5.166711439208e+06 -3.943699126926e+07 -7.070228086492e-04 4.470987563529e-05 1.185086780545e-03 0.000000000000e+00 4.721149025078e+07 9.817816823440e+07  1.657767243127e-03
9.000000000000e+00 9.837160272921e+05 1.000000000000e+00 5.957121473990e+01 0.000000000000e+00 4.985559401515e-03 -1.075004466372e+08 1.348173710884e+06 4.075981003671e+06 -4.007322581716e+07 -6.884521662791e-04 4.378993175896e-05 1.168205504718e-03 0.000000000000e+00 4.783256381688e+07 9.735447398459e+07  1.627475582386e-03
1.000000000000e+01 1.037379885079e+06 1.000000000000e+00 6.026073646996e+01 0.000000000000e+00 5.387450033535e-03 -1.076142834875e+08 1.336606397737e+06 3.067339031611e+06 -4.065218257559e+07 -6.711762839785e-04 4.293064563941e-05 1.152245768212e-03 0.000000000000e+00 4.839970901049e+07 9.658276293298e+07  1.599073815833e-03
1.100000000000e+01 1.088673730097e+06 1.000000000000e+00 6.090878593713e+01 0.000000000000e+00 5.763189792498e-03 -1.077314954198e+08 1.326068240129e+06 2.136854875745e+06 -4.119409380500e+07 -6.554017386594e-04 4.214781107425e-05 1.137813059515e-03 0.000000000000e+00 4.892957811637e+07 9.588118184964e+07  1.573284452619e-03
1.200000000000e+01 1.137991996889e+06 1.000000000000e+00 6.149982009879e+01 0.000000000000e+00 6.115339965474e-03 -1.078413383712e+08 1.316443976612e+06 1.280021333114e+06 -4.169174194713e+07 -6.409975458606e-04 4.143286578442e-05 1.124471887497e-03 0.000000000000e+00 4.941768632842e+07 9.523710106538e+07  1.549596285148e-03
1.300000000000e+01 1.185597007244e+06 1.000000000000e+00 6.203604875536e+01 0.000000000000e+00 6.446443255045e-03 -1.079359481981e+08 1.307342640603e+06 4.786725291661e+05 -4.214899308993e+07 -6.275280112686e-04 4.075676653809e-05 1.111691117226e-03 0.000000000000e+00 4.986875625296e+07 9.462828909649e+07  1.527170325484e-03
1.400000000000e+01 1.232205373220e+06 1.000000000000e+00 6.252137199533e+01 0.000000000000e+00 6.758359169129e-03 -1.080183018000e+08 1.298764158942e+06 -2.694523019740e+05 -4.256878441328e+07 -6.149946101853e-04 4.011950790039e-05 1.099495872650e-03 0.000000000000e+00 5.028551283841e+07 9.405532446757e+07  1.506028653404e-03
1.500000000000e+01 1.277367066549e+06 1.000000000000e+00 6.295962034440e+01 0.000000000000e+00 6.936770301450e-03 -1.079502204841e+08 1.313458226093e+06 -6.305347175075e+05 -4.281085688816e+07 -6.034746122431e-04 4.121106717443e-05 1.095075503426e-03 0.000000000000e+00 5.046387069659e+07 9.367545638057e+07  1.493089845524e-03
1.600000000000e+01 1.321228592590e+06 1.000000000000e+00 6.335431159983e+01 0.000000000000e+00 7.329485501041e-03 -1.081504568791e+08 1.283097650417e+06 -1.619582814499e+06 -4.330656975053e+07 -5.924997720247e-04 3.895571012425e-05 1.076751623283e-03 0.000000000000e+00 5.102553648136e+07 9.300870858200e+07  1.467302890159e-03
1.700000000000e+01 1.363922198426e+06 1.000000000000e+00 6.370850794089e+01 0.000000000000e+00 7.591740983216e-03 -1.081895521710e+08 1.275670407040e+06 -2.241712657051e+06 -4.362969215833e+07 -5.819501934356e-04 3.840397204477e-05 1.065645632849e-03 0.000000000000e+00 5.135365232879e+07 9.250851063456e+07  1.448738734150e-03
1.800000000000e+01 1.405587800456e+06 1.000000000000e+00 6.402490207886e+01 0.000000000000e+00 7.840004417568e-03 -1.082083096654e+08 1.268392124613e+06 -2.836071575037e+06 -4.392515183998e+07 -5.716726836248e-04 3.786329963592e-05 1.054543661214e-03 0.000000000000e+00 5.165651102682e+07 9.201521170085e+07  1.430393891134e-03
1.900000000000e+01 1.446313787525e+06 1.000000000000e+00 6.430589191110e+01 0.000000000000e+00 8.075139256542e-03 -1.082071052753e+08 1.261204008161e+06 -3.404785552749e+06 -4.419453837441e+07 -5.616221635688e-04 3.732932527092e-05 1.043425784749e-03 0.000000000000e+00 5.193547640082e+07 9.152727104262e+07  1.412213972889e-03
2.000000000000e+01 1.486183575855e+06 1.000000000000e+00 6.455355182090e+01 0.000000000000e+00 8.297148362407e-03 -1.082021879053e+08 1.254481344429e+06 -3.932898058589e+06 -4.443896578902e+07 -5.523607858555e-04 3.682992739367e-05 1.032888909932e-03 0.000000000000e+00 5.219135058431e+07 9.107144767553e+07  1.395191240891e-03
2.100000000000e+01 1.525125193105e+06 1.000000000000e+00 6.481651445565e+01 0.000000000000e+00 8.377933652010e-03 -1.079590459445e+08 1.274966431051e+06 -4.070239769815e+06 -4.449990395741e+07 -5.410663810585e-04 3.835167668563e-05 1.030051064055e-03 0.000000000000e+00 5.217639655726e+07 9.073107993647e+07  1.384014659648e-03
2.200000000000e+01 1.563296833469e+06 1.000000000000e+00 6.506310018593e+01 0.000000000000e+00 8.712307402525e-03 -1.082043102214e+08 1.242131300831e+06 -4.924811579615e+06 -4.491679484547e+07 -5.346916783569e-04 3.591249558358e-05 1.013794344105e-03 0.000000000000e+00 5.268197221550e+07 9.022355709211e+07  1.363675432212e-03
2.300000000000e+01 1.600764539603e+06 1.000000000000e+00 6.528885309718e+01 0.000000000000e+00 8.905806123239e-03 -1.082038005792e+08 1.236433411999e+06 -5.379402512843e+06 -4.513266727743e+07 -5.266546298893e-04 3.548922384177e-05 1.004927656915e-03 0.000000000000e+00 5.290529012317e+07 8.983406747617e+07  1.349174915666e-03
2.400000000000e+01 1.637574353710e+06 1.000000000000e+00 6.549323259149e+01 0.000000000000e+00 9.090560821338e-03 -1.081979722736e+08 1.230945860760e+06 -5.811940583190e+06 -4.533284748243e+07 -5.190028852073e-04 3.508157717826e-05 9.962972219166e-04 0.000000000000e+00 5.311425344640e+07 8.945925566626e+07  1.335194904545e-03
2.500000000000e+01 1.673781468298e+06 1.000000000000e+00 6.567656835799e+01 0.000000000000e+00 9.266998918328e-03 -1.081842259269e+08 1.225587306363e+06 -6.225406395273e+06 -4.551756533836e+07 -5.116313576836e-04 3.468351313740e-05 9.878008692594e-04 0.000000000000e+00 5.330906588686e+07 8.909432464949e+07  1.321558149150e-03
2.600000000000e+01 1.709418523505e+06 1.000000000000e+00 6.583945705198e+01 0.000000000000e+00 9.478339887306e-03 -1.082374940816e+08 1.211198151245e+06 -6.668135907284e+06 -4.572401030033e+07 -5.059419334114e-04 3.361460447147e-05 9.790245859721e-04 0.000000000000e+00 5.354321342973e+07 8.876495227504e+07  1.308887236055e-03
2.700000000000e+01 1.744518244495e+06 1.000000000000e+00 6.598257470197e+01 0.000000000000e+00 9.596403354901e-03 -1.081276031256e+08 1.215221192851e+06 -7.002228473606e+06 -4.584199672103e+07 -4.974779165632e-04 3.391345899079e-05 9.709977862778e-04 0.000000000000e+00 5.365727610675e+07 8.838333082796e+07  1.294921349825e-03
2.800000000000e+01 1.779123729551e+06 1.000000000000e+00 6.610660141992e+01 0.000000000000e+00 9.750092575078e-03 -1.080817485946e+08 1.210068782146e+06 -7.370931257443e+06 -4.598289544282e+07 -4.905413671752e-04 3.353070848124e-05 9.625364925444e-04 0.000000000000e+00 5.381185843163e+07 8.803012458384e+07  1.281656827951e-03
2.900000000000e+01 1.813258576254e+06 1.000000000000e+00 6.621219521848e+01 0.000000000000e+00 9.965209602215e-03 -1.081248175836e+08 1.191573787693e+06 -7.819866474869e+06 -4.616808954207e+07 -4.852624345067e-04 3.215679460763e-05 9.527403938693e-04 0.000000000000e+00 5.403759120017e+07 8.768929429380e+07  1.268315887212e-03
3.000000000000e+01 1.846933373640e+06 1.000000000000e+00 6.629998133800e+01 0.000000000000e+00 1.003683890597e-02 -1.079536737271e+08 1.199796670249e+06 -8.073594938849e+06 -4.622422520028e+07 -4.768206239593e-04 3.276763731178e-05 9.454012325123e-04 0.000000000000e+00 5.408383128873e+07 8.732314302578e+07  1.255049543887e-03
3.100000000000e+01 1.880068626278e+06 1.000000000000e+00 6.640753135157e+01 0.000000000000e+00 1.017209551337e-02 -1.078883879892e+08 1.194833169662e+06 -8.414070745557e+06 -4.634494379809e+07 -4.699118914914e-04 3.239892012530e-05 9.372388218960e-04 0.000000000000e+00 5.421580084428e+07 8.697715850250e+07  1.242096023939e-03
3.200000000000e+01 1.912746247325e+06 1.000000000000e+00 6.650903883674e+01 0.000000000000e+00 1.030281839254e-02 -1.078135153548e+08 1.189792167924e+06 -8.751426844298e+06 -4.645973024559e+07 -4.628674113083e-04 3.202444571045e-05 9.289719491355e-04 0.000000000000e+00 5.434155748157e+07 8.662561429831e+07  1.228943716927e-03
3.300000000000e+01 1.944992523902e+06 1.000000000000e+00 6.660028932077e+01 0.000000000000e+00 1.042907287850e-02 -1.077270495244e+08 1.184640965578e+06 -9.085766918210e+06 -4.656654335996e+07 -4.556884790745e-04 3.164178496478e-05 9.205209477811e-04 0.000000000000e+00 5.445978660087e+07 8.626685051768e+07  1.215518491666e-03
3.400000000000e+01 1.976830065057e+06 1.000000000000e+00 6.668024540347e+01 0.000000000000e+00 1.055085044736e-02 -1.076293850613e+08 1.179396126128e+06 -9.416296972265e+06 -4.666490066619e+07 -4.484076704986e-04 3.125216831992e-05 9.118973885763e-04 0.000000000000e+00 5.457019423326e+07 8.590193058959e+07  1.201856132852e-03
3.500000000000e+01 2.008299349169e+06 1.000000000000e+00 6.674866244683e+01 0.000000000000e+00 1.066854745290e-02 -1.075140671705e+08 1.173948434569e+06 -9.749544815220e+06 -4.675473855107e+07 -4.407875988284e-04 3.084748266127e-05 9.028564472762e-04 0.000000000000e+00 5.467278351225e+07 8.551973789313e+07  1.187546251188e-03
3.600000000000e+01 2.039444674912e+06 1.000000000000e+00 6.680556864159e+01 0.000000000000e+00 1.078262311586e-02 -1.073723804726e+08 1.168038419512e+06 -1.009489518035e+07 -4.683626770425e+07 -4.324967243605e-04 3.040845297127e-05 8.930573736895e-04 0.000000000000e+00 5.476784778573e+07 8.510477199112e+07  1.172016766137e-03
3.700000000000e+01 2.070350550235e+06 1.000000000000e+00 6.685110782821e+01 0.000000000000e+00 1.089447265520e-02 -1.071767418599e+08 1.161056841636e+06 -1.047999034566e+07 -4.690955622067e+07 -4.225080024221e-04 2.988982147193e-05 8.814759838736e-04 0.000000000000e+00 5.485542947541e+07 8.460968326988e+07  1.153526672283e-03
3.800000000000e+01 2.103243222953e+06 1.000000000000e+00 6.688581964194e+01 0.000000000000e+00 1.104592975913e-02 -1.060413388613e+08 1.132255411856e+06 -1.179541404379e+07 -4.697622350968e+07 -3.778596774548e-04 2.775028668831e-05 8.350936029635e-04 0.000000000000e+00 5.493765880493e+07 8.251170694149e+07  1.076112306523e-03
3.900000000000e+01 2.133056549040e+06 1.000000000000e+00 6.690898301728e+01 0.000000000000e+00 1.113548824664e-02 -1.061330287463e+08 1.132173117538e+06 -1.186980357237e+07 -4.703466821465e+07 -3.790944984276e-04 2.774417339608e-05 8.345013666581e-04 0.000000000000e+00 5.501250017779e+07 8.253008675280e+07  1.076461455044e-03
4.000000000000e+01 2.162442326272e+06 1.000000000000e+00 6.692120015106e+01 0.000000000000e+00 1.121793849648e-02 -1.062651270838e+08 1.133151773453e+06 -1.187874194317e+07 -4.708176902627e+07 -3.822515493888e-04 2.781687354976e-05 8.359188287458e-04 0.000000000000e+00 5.507521268443e+07 8.263902493482e+07  1.080152367991e-03
4.200000000000e+01 2.219725183668e+06 1.000000000000e+00 6.697479447988e+01 0.000000000000e+00 1.137248017968e-02 -1.065210165273e+08 1.135108802981e+06 -1.189681250997e+07 -4.718355395453e+07 -3.879754313823e-04 2.796225288616e-05 8.390282193140e-04 0.000000000000e+00 5.520046099727e+07 8.284793118790e+07  1.087364376026e-03
4.400000000000e+01 2.275490821994e+06 1.000000000000e+00 6.700716852179e+01 0.000000000000e+00 1.151658128827e-02 -1.067472568810e+08 1.136777647477e+06 -1.191205949393e+07 -4.726816504597e+07 -3.932359468384e-04 2.808622419154e-05 8.416046004488e-04 0.000000000000e+00 5.530916047364e+07 8.303398343237e+07  1.093731458481e-03
5.000000000000e+01 2.427012680572e+06 1.000000000000e+00 6.679475873735e+01 0.000000000000e+00 1.181769912225e-02 -1.070764077142e+08 1.138403037712e+06 -1.192478237423e+07 -4.729888199969e+07 -4.043206337904e-04 2.820696746613e-05 8.422729517475e-04 0.000000000000e+00 5.543335736272e+07 8.332552753677e+07  1.102648689688e-03
6.500000000000e+01 2.758397045387e+06 1.000000000000e+00 6.601327625245e+01 0.000000000000e+00 1.233005957614e-02 -1.072327682552e+08 1.136300176383e+06 -1.189736232570e+07 -4.706883944753e+07 -4.186727486776e-04 2.805075491027e-05 8.347469730412e-04 0.000000000000e+00 5.539965667613e+07 8.352639650071e+07  1.106316285559e-03
8.000000000000e+01 3.013450396859e+06 1.000000000000e+00 6.501253149927e+01 0.000000000000e+00 1.257358687672e-02 -1.068936662819e+08 1.130110787602e+06 -1.183145284382e+07 -4.660075991789e+07 -4.234633436296e-04 2.759097174369e-05 8.198092284104e-04 0.000000000000e+00 5.510862634788e+07 8.333254645798e+07  1.095833617184e-03
1.000000000000e+02 3.314130008212e+06 1.000000000000e+00 6.391116452846e+01 0.000000000000e+00 1.277801346184e-02 -1.063759495238e+08 1.122094880840e+06 -1.174763303250e+07 -4.603831422552e+07 -4.251247040434e-04 2.699550438426e-05 8.020316956855e-04 0.000000000000e+00 5.472063226060e+07 8.300166839761e+07  1.080340508314e-03
1.860000000000e+02 3.912611194134e+06 1.000000000000e+00 6.127460327711e+01 0.000000000000e+00 1.302636130101e-02 -1.046930708162e+08 1.099308224966e+06 -1.151350497545e+07 -4.454701655314e+07 -4.180088370228e-04 2.530278137645e-05 7.553368242591e-04 0.000000000000e+00 5.358453078161e+07 8.184877241685e+07  1.030981699942e-03
2.720000000000e+02 4.202932547880e+06 1.000000000000e+00 5.927316549109e+01 0.000000000000e+00 1.284167007646e-02 -1.030820529943e+08 1.080689064438e+06 -1.132621899713e+07 -4.331022683677e+07 -4.041089359586e-04 2.391964373722e-05 7.163552568460e-04 0.000000000000e+00 5.257283294273e+07 8.069011205015e+07  9.837026455258e-04
3.580000000000e+02 4.344298242584e+06 1.000000000000e+00 5.786901894250e+01 0.000000000000e+00 1.264825230214e-02 -1.018618504973e+08 1.067013802846e+06 -1.118936945883e+07 -4.241351035248e+07 -3.920937412000e-04 2.290376716186e-05 6.881316274230e-04 0.000000000000e+00 5.182157676953e+07 7.980407899636e+07  9.479707223501e-04
4.440000000000e+02 4.416427120793e+06 1.000000000000e+00 5.679914781059e+01 0.000000000000e+00 1.246676512396e-02 -1.009016340909e+08 1.056473869674e+06 -1.108423953492e+07 -4.172069661768e+07 -3.821616419706e-04 2.212080069758e-05 6.663033715898e-04 0.000000000000e+00 5.123552341450e+07 7.910384646097e+07  9.198430755262e-04
5.300000000000e+02 4.455391633555e+06 1.000000000000e+00 5.597604588127e+01 0.000000000000e+00 1.230925444927e-02 -1.001469354383e+08 1.048302593665e+06 -1.100291380054e+07 -4.118267468696e+07 -3.741136494424e-04 2.151379162264e-05 6.493403700117e-04 0.000000000000e+00 5.077750797526e+07 7.855205992470e+07  8.977302290061e-04
6.160000000000e+02 4.477907107511e+06 1.000000000000e+00 5.534879697180e+01 0.000000000000e+00 1.217858983072e-02 -9.956241081063e+07 1.042039740996e+06 -1.094068567407e+07 -4.076972400720e+07 -3.677409028068e-04 2.104855113866e-05 6.363135323180e-04 0.000000000000e+00 5.042427349730e+07 7.812386574075e+07  8.805997503781e-04
7.020000000000e+02 4.491717405697e+06 1.000000000000e+00 5.488766039025e+01 0.000000000000e+00 1.207830050354e-02 -9.912899015316e+07 1.037422415996e+06 -1.089484981384e+07 -4.046497880306e+07 -3.629615288259e-04 2.070554985298e-05 6.266968995443e-04 0.000000000000e+00 5.016293959002e+07 7.780610435293e+07  8.678957883636e-04
7.880000000000e+02 4.501335963429e+06 1.000000000000e+00 5.452634175249e+01 0.000000000000e+00 1.198773322938e-02 -9.878188473240e+07 1.033800387319e+06 -1.085900775115e+07 -4.022391996457e+07 -3.590226557699e-04 2.043648486557e-05 6.190745621574e-04 0.000000000000e+00 4.995493748271e+07 7.755055790629e+07  8.577093470592e-04
8.740000000000e+02 4.509722041740e+06 1.000000000000e+00 5.394399381871e+01 0.000000000000e+00 1.186012229216e-02 -9.823453598279e+07 1.027966989720e+06 -1.080109925284e+07 -3.983906505210e+07 -3.529871703904e-04 2.000314675819e-05 6.069308382031e-04 0.000000000000e+00 4.962490009591e+07 7.714979143905e+07  8.416674887762e-04
9.370000000000e+02 4.515095894650e+06 1.000000000000e+00 5.354017255568e+01 0.000000000000e+00 1.175518548866e-02 -9.783600624514e+07 1.023813290211e+06 -1.076002056757e+07 -3.956612958523e+07 -3.483222403328e-04 1.969458622321e-05 5.983190148864e-04 0.000000000000e+00 4.938738546598e+07 7.685599158926e+07  8.299912508958e-04
1.000000000000e+03 4.519285924027e+06 1.000000000000e+00 5.322023015424e+01 0.000000000000e+00 1.166749588576e-02 -9.750862983579e+07 1.020416259253e+06 -1.072646459098e+07 -3.934605277622e+07 -3.443368266061e-04 1.944223535207e-05 5.913910982537e-04 0.000000000000e+00 4.919371573433e+07 7.661383001369e+07  8.204163679821e-04
1.100000000000e+03 4.523431233215e+06 1.000000000000e+00 5.289815657553e+01 0.000000000000e+00 1.157583399770e-02 -9.717176225366e+07 1.016933847613e+06 -1.069209240829e+07 -3.912211099135e+07 -3.401424398506e-04 1.918354191594e-05 5.843499416014e-04 0.000000000000e+00 4.899532188443e+07 7.636414797395e+07  8.105726206462e-04
1.200000000000e+03 4.526692605805e+06 1.000000000000e+00 5.262163521004e+01 0.000000000000e+00 1.149961352861e-02 -9.688813736370e+07 1.013992105470e+06 -1.066303415504e+07 -3.893167917555e+07 -3.366809828107e-04 1.896501249958e-05 5.783560664207e-04 0.000000000000e+00 4.882761689810e+07 7.615446421680e+07  8.022782109134e-04
1.300000000000e+03 4.529597980313e+06 1.000000000000e+00 5.235621120800e+01 0.000000000000e+00 1.142705251952e-02 -9.661757299361e+07 1.011183546041e+06 -1.063528939447e+07 -3.874944356499e+07 -3.334002003139e-04 1.875637665628e-05 5.726178348495e-04 0.000000000000e+00 4.866743531769e+07 7.595463815396e+07  7.943633829646e-04
1.400000000000e+03 4.532337492299e+06 1.000000000000e+00 5.208448040418e+01 0.000000000000e+00 1.135208888885e-02 -9.633974891338e+07 1.008302529562e+06 -1.060683264125e+07 -3.856260902539e+07 -3.300205888047e-04 1.854235828931e-05 5.667352313556e-04 0.000000000000e+00 4.850306352667e+07 7.574944324333e+07  7.862367095194e-04
1.500000000000e+03 4.534977373574e+06 1.000000000000e+00 5.179637447202e+01 0.000000000000e+00 1.127118614563e-02 -9.604292594941e+07 1.005230409560e+06 -1.057649856728e+07 -3.836378030765e+07 -3.263808025161e-04 1.831414366058e-05 5.604768588728e-04 0.000000000000e+00 4.832773494145e+07 7.553009336353e+07  7.775563311733e-04
1.600000000000e+03 4.537538419095e+06 1.000000000000e+00 5.148575252824e+01 0.000000000000e+00 1.123567588645e-02 -9.581023223851e+07 9.915691734361e+05 -1.068880786718e+07 -3.821910276041e+07 -3.231116307228e-04 1.729930897709e-05 5.509316331222e-04 0.000000000000e+00 4.823938095537e+07 7.525360946503e+07  7.660528747751e-04
1.700000000000e+03 4.540025723702e+06 1.000000000000e+00 5.114882393591e+01 0.000000000000e+00 1.108371654603e-02 -9.536641501266e+07 9.982516963933e+05 -1.050763972623e+07 -3.791383759118e+07 -3.179654114769e-04 1.779572496820e-05 5.463223149289e-04 0.000000000000e+00 4.792929744336e+07 7.502962453456e+07  7.577807980093e-04
1.800000000000e+03 4.542439116959e+06 1.000000000000e+00 5.078330097111e+01 0.000000000000e+00 1.097499858383e-02 -9.497965545421e+07 9.942737887668e+05 -1.046841228045e+07 -3.765826389536e+07 -3.130927937223e-04 1.750022325880e-05 5.382865970702e-04 0.000000000000e+00 4.770211054334e+07 7.474326613837e+07  7.464797291343e-04
1.900000000000e+03 4.544778407473e+06 1.000000000000e+00 5.038789710871e+01 0.000000000000e+00 1.085556265281e-02 -9.455817883232e+07 9.899461916915e+05 -1.042575231764e+07 -3.738078700822e+07 -3.077442321459e-04 1.717874461892e-05 5.295648255950e-04 0.000000000000e+00 4.745490605273e+07 7.443108619052e+07  7.341670554791e-04
2.000000000000e+03 4.547042749809e+06 1.000000000000e+00 4.996201039977e+01 0.000000000000e+00 1.079044301270e-02 -9.419626209713e+07 9.728241448521e+05 -1.056070213502e+07 -3.716379202342e+07 -3.023614242742e-04 1.590682113942e-05 5.164925900852e-04 0.000000000000e+00 4.730691875186e+07 7.403044051400e+07  7.177141091992e-04