 TITLE = "Time curves in points"
 VARIABLES = "TIME"  "PRESSURE1"  "SATURATION1"  "TEMPERATURE1"  "DISPLACEMENT_X1"  "DISPLACEMENT_Y1"  "STRESS_XX"  "STRESS_XY"  "STRESS_YY"  "STRESS_ZZ"  "STRAIN_XX"  "STRAIN_XY"  "STRAIN_YY"  "STRAIN_PLS"  p_(1st_Invariant)  q_(2nd_Invariant)   Effective_Strain
 ZONE T="POINT=POINT2"
0.000000000000e+00 -7.000000000000e+07 8.894919982500e-01 2.500000000000e+01 0.000000000000e+00 0.000000000000e+00 0.000000000000e+00 0.000000000000e+00 0.000000000000e+00 0.000000000000e+00 0.000000000000e+00 0.000000000000e+00 0.000000000000e+00 0.000000000000e+00 -0.000000000000e+00 0.000000000000e+00  0.000000000000e+00
1.000000000000e-03 -6.999999537629e+07 6.684760111000e-01 3.309918126187e+01 0.000000000000e+00 2.359793098002e-05 -2.180888556593e+07 5.738117050419e+04 -2.480677846273e+07 -1.423635725758e+07 -7.236806895572e-05 -5.652871222651e-04 -6.188831451213e-03 0.000000000000e+00 2.028400709541e+07 9.436209695849e+06  6.230380941765e-03
2.000000000000e-03 -7.015897578459e+07 6.679155799843e-01 3.680473134945e+01 0.000000000000e+00 2.353027134386e-05 -2.202943479807e+07 5.403427533704e+04 -2.488504554893e+07 -1.433084310446e+07 -8.277361168418e-05 -5.528596807179e-04 -6.175334025602e-03 0.000000000000e+00 2.041510781715e+07 9.455991071309e+06  6.208655939701e-03
3.000000000000e-03 -7.037098650728e+07 6.671689082400e-01 3.938013025327e+01 0.000000000000e+00 2.335596635539e-05 -2.227612645916e+07 5.050786162458e+04 -2.500030209281e+07 -1.444369921592e+07 -9.358873922446e-05 -5.416382002834e-04 -6.181422232172e-03 0.000000000000e+00 2.057337592263e+07 9.492766192437e+06  6.206475970403e-03
4.000000000000e-03 -7.061767524146e+07 6.663004329090e-01 4.141323958417e+01 0.000000000000e+00 2.305695566816e-05 -2.253985533354e+07 4.698885698933e+04 -2.513979182818e+07 -1.456888083467e+07 -1.046315779072e-04 -5.310942892757e-04 -6.198518432915e-03 0.000000000000e+00 2.074950933213e+07 9.540794285238e+06  6.215319878997e-03
1.000000000000e-02 -7.212436496915e+07 6.610102016577e-01 4.814029803035e+01 0.000000000000e+00 2.016224671296e-05 -2.360199873144e+07 3.144583005481e+04 -2.626038435831e+07 -1.524717016783e+07 -1.255321418527e-04 -5.360869188349e-04 -6.557786468273e-03 0.000000000000e+00 2.170318441920e+07 9.954069376774e+06  6.561956739767e-03
2.000000000000e-02 -7.521838574725e+07 6.501913433875e-01 5.432126500081e+01 0.000000000000e+00 1.787485011585e-05 -2.552970716753e+07 1.343157797577e+04 -2.857341025451e+07 -1.655826641167e+07 -1.560573482208e-04 -5.654881745360e-04 -7.334441384992e-03 0.000000000000e+00 2.355379461124e+07 1.081932626658e+07  7.323463762402e-03
3.000000000000e-02 -7.885304100447e+07 6.375370040243e-01 5.823714945253e+01 0.000000000000e+00 1.763436591334e-05 -2.764040603871e+07 9.310793473599e+03 -3.127826026190e+07 -1.804437197082e+07 -1.866426439120e-04 -6.065949328266e-04 -8.213920213346e-03 0.000000000000e+00 2.565434609048e+07 1.184175182622e+07  8.189879437442e-03
4.000000000000e-02 -8.260241589782e+07 6.245444250246e-01 6.095064126669e+01 0.000000000000e+00 1.967139906759e-05 -2.969878435245e+07 2.319722204462e+04 -3.407119227148e+07 -1.954061856869e+07 -2.141480438960e-04 -6.533146581604e-04 -9.073467491507e-03 0.000000000000e+00 2.777019839754e+07 1.291214706972e+07  9.039417377087e-03
5.000000000000e-02 -8.623994823308e+07 6.178036287470e-01 6.295230685344e+01 0.000000000000e+00 2.269141404794e-05 -3.157695897508e+07 5.277605082155e+04 -3.679844547581e+07 -2.095895241529e+07 -2.369703928660e-04 -7.038164333005e-04 -9.872927951782e-03 0.000000000000e+00 2.977811895540e+07 1.398056216439e+07  9.832463699809e-03
6.000000000000e-02 -8.968090113814e+07 6.112977131184e-01 6.450102498338e+01 0.000000000000e+00 2.810406700619e-05 -3.334326349864e+07 9.506558952069e+04 -3.945182041704e+07 -2.232562836247e+07 -2.605471072354e-04 -7.648304937570e-04 -1.077971264336e-02 0.000000000000e+00 3.170690409272e+07 1.503435117834e+07  1.073388855797e-02
7.000000000000e-02 -9.292391856137e+07 6.047947278650e-01 6.575111877873e+01 0.000000000000e+00 3.355628065387e-05 -3.494977706124e+07 1.465052929873e+05 -4.196470956937e+07 -2.359918954729e+07 -2.812026945986e-04 -8.247983212032e-04 -1.161482625344e-02 0.000000000000e+00 3.350455872597e+07 1.605406838612e+07  1.156538024560e-02
8.000000000000e-02 -9.597683606347e+07 5.987103802220e-01 6.679366304164e+01 0.000000000000e+00 3.982662887771e-05 -3.641972602011e+07 2.036765474964e+05 -4.433683119851e+07 -2.478652129517e+07 -2.995810923705e-04 -8.823776923439e-04 -1.238143384017e-02 0.000000000000e+00 3.518102617126e+07 1.703636593748e+07  1.232948419320e-02
9.000000000000e-02 -9.886345685571e+07 5.929822637946e-01 6.768828373130e+01 0.000000000000e+00 3.930847252282e-05 -3.778119309627e+07 2.637309273200e+05 -4.658130813411e+07 -2.590021658166e+07 -3.163391400834e-04 -9.368091975035e-04 -1.308769420801e-02 0.000000000000e+00 3.675423927068e+07 1.798227598822e+07  1.303382118260e-02
1.000000000000e-01 -1.016032052445e+08 5.873456081250e-01 6.846871724048e+01 0.000000000000e+00 5.057557024313e-05 -3.905591668859e+07 3.248535237486e+05 -4.870951727819e+07 -2.695041616558e+07 -3.320084013643e-04 -9.876512370005e-04 -1.374026544170e-02 0.000000000000e+00 3.823861671079e+07 1.889215190702e+07  1.368464852750e-02
2.000000000000e-01 -1.181504266370e+08 5.520553472177e-01 7.270597974379e+01 0.000000000000e+00 1.410004163835e-04 -4.612018284390e+07 7.086491933075e+05 -6.197673408209e+07 -3.319308877018e+07 -3.717637614791e-04 -1.360625675024e-03 -1.778610495860e-02 0.000000000000e+00 4.709666856539e+07 2.500051317350e+07  1.776022002380e-02
3.000000000000e-01 -1.336338688500e+08 5.238622946673e-01 7.551347201711e+01 0.000000000000e+00 2.468919761833e-04 -5.299741829228e+07 1.012259483481e+06 -7.411509846400e+07 -3.902667668690e+07 -4.291428463143e-04 -1.655423708837e-03 -2.139206718978e-02 0.000000000000e+00 5.537973114773e+07 3.064705039004e+07  2.137394985958e-02
4.000000000000e-01 -1.468337323412e+08 5.053221802945e-01 7.753845302804e+01 0.000000000000e+00 3.491778809190e-04 -5.892474445760e+07 1.261360497319e+06 -8.440006988700e+07 -4.399673989414e+07 -4.797194079700e-04 -1.891626854962e-03 -2.439848810628e-02 0.000000000000e+00 6.244051807958e+07 3.545287564019e+07  2.438332792685e-02
5.000000000000e-01 -1.576243754719e+08 4.899377915212e-01 7.910019658768e+01 0.000000000000e+00 4.489803178100e-04 -6.379466052373e+07 1.464595082186e+06 -9.275391090182e+07 -4.804225560693e+07 -5.216027320730e-04 -2.064600339417e-03 -2.666170305865e-02 0.000000000000e+00 6.819694234416e+07 3.936228394581e+07  2.664581366604e-02
6.000000000000e-01 -1.663707293593e+08 4.767886004889e-01 8.034131058704e+01 0.000000000000e+00 5.466359704375e-04 -6.780571989190e+07 1.630990102614e+06 -9.957065522223e+07 -5.135597978858e+07 -5.582627631979e-04 -2.203761448534e-03 -2.853449340478e-02 0.000000000000e+00 7.291078496757e+07 4.254539202703e+07  2.851611683963e-02
7.000000000000e-01 -1.732967203639e+08 4.680998994487e-01 8.134433141057e+01 0.000000000000e+00 6.423503005880e-04 -7.105014834758e+07 1.767242098551e+06 -1.050337024074e+08 -5.402358853007e+07 -5.899602275692e-04 -2.318437708481e-03 -3.011388898788e-02 0.000000000000e+00 7.670247976169e+07 4.508634089914e+07  3.009242141252e-02
8.000000000000e-01 -1.786683187145e+08 4.623781820138e-01 8.216159986172e+01 0.000000000000e+00 7.361292625877e-04 -7.362106928355e+07 1.873965343021e+06 -1.092957305536e+08 -5.611541011676e+07 -6.165559768662e-04 -2.403656125023e-03 -3.132865207149e-02 0.000000000000e+00 7.967740331796e+07 4.705500248644e+07  3.130305739875e-02
9.000000000000e-01 -1.827329759226e+08 4.580426491141e-01 8.284030380434e+01 0.000000000000e+00 8.279215193085e-04 -7.564876961890e+07 1.953478735859e+06 -1.125456581809e+08 -5.772985166764e+07 -6.423381020570e-04 -2.462592173066e-03 -3.224515091431e-02 0.000000000000e+00 8.197475982249e+07 4.852904864527e+07  3.221246881749e-02
1.000000000000e+00 -1.857446702419e+08 4.548262813537e-01 8.340750001475e+01 0.000000000000e+00 9.177110587188e-04 -7.723705007112e+07 2.012776016681e+06 -1.150024755269e+08 -5.896681918599e+07 -6.654853638431e-04 -2.504252217456e-03 -3.295016406022e-02 0.000000000000e+00 8.373544826134e+07 4.962021302741e+07  3.290960601333e-02
2.000000000000e+00 -1.865346167529e+08 4.540267025952e-01 8.537368214478e+01 0.000000000000e+00 9.314502690262e-04 -8.027041088959e+07 2.054645747824e+06 -1.180156378000e+08 -6.084761882479e+07 -7.260365120004e-04 -2.605505513886e-03 -3.464082386271e-02 0.000000000000e+00 8.637788917145e+07 5.047503746679e+07  3.457931868795e-02
3.000000000000e+00 -1.779756207887e+08 4.632179882425e-01 8.594055527455e+01 0.000000000000e+00 2.302669037794e-03 -7.909667974484e+07 1.927981602838e+06 -1.148409286277e+08 -5.956782968955e+07 -7.377333922778e-04 -2.644729249098e-03 -3.515867183877e-02 0.000000000000e+00 8.450181268738e+07 4.866438871125e+07  3.509590443604e-02
4.000000000000e+00 -1.659453115367e+08 4.777255361567e-01 8.593358545777e+01 0.000000000000e+00 2.857953693194e-03 -7.620323297310e+07 1.736028347978e+06 -1.081711040540e+08 -5.667134206896e+07 -7.477635373608e-04 -2.557197699686e-03 -3.429116180011e-02 0.000000000000e+00 8.034855969868e+07 4.513173935711e+07  3.421138739787e-02
5.000000000000e+00 -1.534804878823e+08 4.962754145216e-01 8.574019207571e+01 0.000000000000e+00 3.350483504859e-03 -7.296138314314e+07 1.536014473225e+06 -1.009417514082e+08 -5.349715863355e+07 -7.568406981388e-04 -2.450452935763e-03 -3.324323798821e-02 0.000000000000e+00 7.580009772829e+07 4.139385504113e+07  3.314423031399e-02
6.000000000000e+00 -1.417531265545e+08 5.128625748683e-01 8.559243039323e+01 0.000000000000e+00 3.794929671483e-03 -6.981503915896e+07 1.349268904242e+06 -9.401754910304e+07 -5.044058627439e+07 -7.634628245634e-04 -2.337705288354e-03 -3.211470525745e-02 0.000000000000e+00 7.142439151213e+07 3.788803083426e+07  3.199708398772e-02
7.000000000000e+00 -1.313745202576e+08 5.275460237376e-01 8.532214757000e+01 0.000000000000e+00 4.199083277039e-03 -6.692912486994e+07 1.185046418302e+06 -8.781006627131e+07 -4.767242940146e+07 -7.621344206621e-04 -2.227459122024e-03 -3.091568103079e-02 0.000000000000e+00 6.747054018090e+07 3.483023067502e+07  3.078446036950e-02
8.000000000000e+00 -1.218730964662e+08 5.455279984971e-01 8.524103799649e+01 0.000000000000e+00 4.572408640508e-03 -6.425062924592e+07 1.032710527380e+06 -8.201056254339e+07 -4.508420547599e+07 -7.615236812579e-04 -2.107726640126e-03 -2.961478369611e-02 0.000000000000e+00 6.378179908843e+07 3.203686800647e+07  2.946846632170e-02
9.000000000000e+00 -1.135456728931e+08 5.638272281620e-01 8.515896295378e+01 0.000000000000e+00 4.431307529531e-03 -6.201720124671e+07 9.023355097127e+05 -7.678022687781e+07 -4.281036813236e+07 -7.742515225408e-04 -1.992449464530e-03 -2.851029798674e-02 0.000000000000e+00 6.053593208563e+07 2.954391581599e+07  2.834205320181e-02
1.000000000000e+01 -1.059793822632e+08 5.802612859685e-01 8.507174885889e+01 0.000000000000e+00 5.241289523058e-03 -6.000107271943e+07 7.815966414604e+05 -7.248524765605e+07 -4.089479040350e+07 -7.762552218034e-04 -1.917776247160e-03 -2.774763847227e-02 0.000000000000e+00 5.779370359299e+07 2.759100394213e+07  2.756861187842e-02
1.100000000000e+01 -9.909822276913e+07 5.940697227811e-01 8.503712468354e+01 0.000000000000e+00 5.545337479067e-03 -5.812209000450e+07 6.716910879658e+05 -6.828853114004e+07 -3.904007820460e+07 -7.801772169456e-04 -1.820531666001e-03 -2.676017253473e-02 0.000000000000e+00 5.515023311638e+07 2.574547253709e+07  2.656653609874e-02
1.200000000000e+01 -9.295714345482e+07 6.064074936278e-01 8.500709528196e+01 0.000000000000e+00 5.545841355469e-03 -5.641285934047e+07 5.768603515002e+05 -6.446202786088e+07 -3.734504865214e+07 -7.829134189576e-04 -1.722655847105e-03 -2.574752103632e-02 0.000000000000e+00 5.273997861783e+07 2.414226260020e+07  2.554001454024e-02
1.300000000000e+01 -8.732663344552e+07 6.177177513438e-01 8.495626091744e+01 0.000000000000e+00 6.097345392531e-03 -5.487657604918e+07 4.891905593394e+05 -6.102169063788e+07 -3.581961673566e+07 -7.840687567846e-04 -1.633038157295e-03 -2.480801016747e-02 0.000000000000e+00 5.057262780757e+07 2.277619925468e+07  2.458864346531e-02
1.400000000000e+01 -8.200086831285e+07 6.338216839159e-01 8.486705898856e+01 0.000000000000e+00 6.350275942404e-03 -5.339071700548e+07 4.054675534642e+05 -5.767864574496e+07 -3.433545806467e+07 -7.847061346336e-04 -1.537998789003e-03 -2.380701898465e-02 0.000000000000e+00 4.846827360504e+07 2.153346303866e+07  2.357551110015e-02
1.500000000000e+01 -7.695663929263e+07 6.518493209885e-01 8.476324830818e+01 0.000000000000e+00 6.591114777130e-03 -5.200708434233e+07 3.315616201094e+05 -5.457716011900e+07 -3.296608288043e+07 -7.881314230704e-04 -1.459973194759e-03 -2.302387192327e-02 0.000000000000e+00 4.651677578059e+07 2.045560172947e+07  2.278088140797e-02
1.600000000000e+01 -7.222795107862e+07 6.687652472791e-01 8.464730282939e+01 0.000000000000e+00 6.648457223736e-03 -5.071348450082e+07 2.651748146010e+05 -5.110140838382e+07 -3.149749645342e+07 -8.005460528473e-04 -1.338357012978e-03 -2.184894556049e-02 0.000000000000e+00 4.443746311269e+07 1.941828971158e+07  2.158471235489e-02
1.700000000000e+01 -6.776362445848e+07 6.847516251122e-01 8.451638150806e+01 0.000000000000e+00 7.030918469689e-03 -4.941710380996e+07 1.988517836364e+05 -4.885420504812e+07 -3.042403744394e+07 -7.891637108702e-04 -1.307468453260e-03 -2.141439553332e-02 0.000000000000e+00 4.289844876734e+07 1.872113451569e+07  2.115249566466e-02
1.800000000000e+01 -6.352441125784e+07 6.999404085399e-01 8.436963674499e+01 0.000000000000e+00 7.233241768944e-03 -4.820166340901e+07 1.351446791447e+05 -4.615546958443e+07 -2.922232589350e+07 -7.885996581128e-04 -1.226872699106e-03 -2.054471332403e-02 0.000000000000e+00 4.119315296231e+07 1.804498685866e+07  2.027365854855e-02
1.900000000000e+01 -5.947137301092e+07 7.144609256110e-01 8.420550241891e+01 0.000000000000e+00 7.424774531809e-03 -4.702843695277e+07 7.240700093640e+04 -4.353712361904e+07 -2.805544461450e+07 -7.875008756703e-04 -1.143260326948e-03 -1.963842235832e-02 0.000000000000e+00 3.954033506210e+07 1.749110557547e+07  1.935829662121e-02
2.000000000000e+01 -5.570661847939e+07 7.279403865758e-01 8.402769637127e+01 0.000000000000e+00 7.607861551257e-03 -4.593040601858e+07 1.327670225824e+04 -4.107149202639e+07 -2.695617348068e+07 -7.859974484322e-04 -1.059814197607e-03 -1.873246153263e-02 0.000000000000e+00 3.798602384188e+07 1.707152337751e+07  1.844366716500e-02
2.100000000000e+01 -5.208363358172e+07 7.403246128670e-01 8.393963706005e+01 0.000000000000e+00 7.781356540895e-03 -4.485305598291e+07 -4.440083873102e+04 -3.866351220775e+07 -2.587895861278e+07 -7.836385575842e-04 -9.743755408154e-04 -1.779711942695e-02 0.000000000000e+00 3.646517560115e+07 1.675982491533e+07  1.750009323898e-02
2.200000000000e+01 -4.869858968148e+07 7.518073495209e-01 8.385005085217e+01 0.000000000000e+00 7.947495196595e-03 -4.384774827239e+07 -9.861506527442e+04 -3.640369317330e+07 -2.486789446256e+07 -7.809915823361e-04 -8.910115848586e-04 -1.688056871615e-02 0.000000000000e+00 3.503977863608e+07 1.656474884268e+07  1.657593650124e-02
2.300000000000e+01 -4.556372516767e+07 7.623569491501e-01 8.375183854108e+01 0.000000000000e+00 7.970964199809e-03 -4.291095616773e+07 -1.495104545941e+05 -3.421869513142e+07 -2.389823038863e+07 -7.795041078568e-04 -8.038815520872e-04 -1.593868631437e-02 0.000000000000e+00 3.367596056259e+07 1.648765077623e+07  1.562574008729e-02
2.400000000000e+01 -4.249966725873e+07 7.735265822650e-01 8.363904691236e+01 0.000000000000e+00 8.258779804010e-03 -4.198068765036e+07 -1.997082749286e+05 -3.219267739517e+07 -2.298072436240e+07 -7.747737482282e-04 -7.263640978820e-04 -1.507017292467e-02 0.000000000000e+00 3.238469646931e+07 1.646060644004e+07  1.475185501505e-02
2.500000000000e+01 -3.946992296055e+07 7.878662731965e-01 8.350995327677e+01 0.000000000000e+00 8.404341903904e-03 -4.103959646225e+07 -2.483221590568e+05 -3.010259939547e+07 -2.203915940152e+07 -7.707440461376e-04 -6.426904273622e-04 -1.414286074986e-02 0.000000000000e+00 3.106045175308e+07 1.652306813581e+07  1.381858110707e-02
2.600000000000e+01 -3.648795431961e+07 8.025711760980e-01 8.336809727095e+01 0.000000000000e+00 8.542982511333e-03 -4.010557401102e+07 -2.951912178023e+05 -2.804019921609e+07 -2.111042286367e+07 -7.665181355695e-04 -5.602142509229e-04 -1.322748537091e-02 0.000000000000e+00 2.975206536359e+07 1.665733567347e+07  1.289791967279e-02
2.700000000000e+01 -3.356096715213e+07 8.175875704100e-01 8.321341878681e+01 0.000000000000e+00 8.543359298228e-03 -3.916590888270e+07 -3.413992281318e+05 -2.595942300853e+07 -2.017289825535e+07 -7.618221422337e-04 -4.735075354672e-04 -1.226181230760e-02 0.000000000000e+00 2.843274338219e+07 1.687200212115e+07  1.192743568760e-02
2.800000000000e+01 -3.067654735300e+07 8.329529076222e-01 8.304585346017e+01 0.000000000000e+00 8.801707394991e-03 -3.823418107080e+07 -3.871907776165e+05 -2.394836596453e+07 -1.925958673248e+07 -7.554380587366e-04 -3.896366872955e-04 -1.130930494840e-02 0.000000000000e+00 2.714737792260e+07 1.713189852922e+07  1.097192033988e-02
2.900000000000e+01 -2.782238071821e+07 8.487208682791e-01 8.286538398455e+01 0.000000000000e+00 8.922282814745e-03 -3.728801186312e+07 -4.326678153741e+05 -2.190146853027e+07 -1.832934095467e+07 -7.484761031108e-04 -3.007631208375e-04 -1.029631468103e-02 0.000000000000e+00 2.583960711602e+07 1.746511125638e+07  9.956864082801e-03
3.000000000000e+01 -2.498527405143e+07 8.648790528650e-01 8.267204417162e+01 0.000000000000e+00 9.037010432394e-03 -3.632622984882e+07 -4.780209515079e+05 -1.984113677404e+07 -1.738920737318e+07 -7.404070464199e-04 -2.089578443778e-04 -9.239143562085e-03 0.000000000000e+00 2.451885799868e+07 1.785710077104e+07  8.899451640474e-03
3.100000000000e+01 -2.214935187616e+07 8.814778533551e-01 8.255052625348e+01 0.000000000000e+00 9.147875317799e-03 -3.534320793390e+07 -5.233909124668e+05 -1.775639111247e+07 -1.643405603796e+07 -7.311459934159e-04 -1.136422992256e-04 -8.129727063670e-03 0.000000000000e+00 2.317788502811e+07 1.830634247558e+07  7.792417015266e-03
3.200000000000e+01 -1.935151454351e+07 8.982243740285e-01 8.242766309906e+01 0.000000000000e+00 9.143930449280e-03 -3.435514771570e+07 -5.682880257774e+05 -1.565367851053e+07 -1.547034663266e+07 -7.213159400394e-04 -1.410754989053e-05 -6.965961425469e-03 0.000000000000e+00 2.182639095296e+07 1.881956403104e+07  6.634821272761e-03
3.300000000000e+01 -1.652325646613e+07 9.153678338488e-01 8.229794235405e+01 0.000000000000e+00 9.357643959900e-03 -3.333816254975e+07 -6.133411447147e+05 -1.356070439614e+07 -1.450037864080e+07 -7.092355671437e-04 8.537155115516e-05 -5.775117559064e-03 0.000000000000e+00 2.046641519556e+07 1.935394101291e+07  5.457191955450e-03
3.400000000000e+01 -1.363663903438e+07 9.328905529123e-01 8.215991185472e+01 0.000000000000e+00 9.358103121209e-03 -3.225989705824e+07 -6.584823074647e+05 -1.133002696511e+07 -1.346617466525e+07 -6.964311060979e-04 1.956432696629e-04 -4.453712648480e-03 0.000000000000e+00 1.901869956287e+07 1.998034264211e+07  4.163375731500e-03
3.500000000000e+01 -1.065695014160e+07 9.506820799030e-01 8.201296691152e+01 0.000000000000e+00 9.551733174270e-03 -3.112073689802e+07 -7.040530327026e+05 -9.069250539357e+06 -1.240285977702e+07 -6.808373049305e-04 3.075256611586e-04 -3.077709952546e-03 0.000000000000e+00 1.753094907147e+07 2.062418567034e+07  2.850286711043e-03
3.600000000000e+01 -7.548471596047e+06 9.684051322248e-01 8.185688150155e+01 0.000000000000e+00 9.643056927597e-03 -2.989611931998e+07 -7.497757868470e+05 -6.651996904812e+06 -1.126133639033e+07 -6.635463748302e-04 4.300473661285e-04 -1.557519964733e-03 0.000000000000e+00 1.593648420504e+07 2.135606886300e+07  1.545152975310e-03
3.700000000000e+01 -4.219404014248e+06 9.854150818342e-01 8.169151112101e+01 0.000000000000e+00 9.726878427282e-03 -2.856974742688e+07 -7.975941905012e+05 -4.053760722437e+06 -1.002817348344e+07 -6.440408984046e-04 5.640921424956e-04 1.236212392166e-04 0.000000000000e+00 1.421722721092e+07 2.218483846219e+07  1.210077625298e-03
3.800000000000e+01 2.090572350501e+06 1.000000000000e+00 8.151767971104e+01 0.000000000000e+00 9.716738889479e-03 -2.662774753527e+07 -9.056935440289e+05 3.342860514340e+05 -8.021283476967e+06 -6.105883510174e-04 7.999971510020e-04 3.090158187245e-03 0.000000000000e+00 1.143824832027e+07 2.395713867308e+07  3.705225590077e-03
3.900000000000e+01 2.140132064796e+06 1.000000000000e+00 8.133875654849e+01 0.000000000000e+00 9.907520618919e-03 -2.668308762421e+07 -9.060760729157e+05 2.604649620739e+05 -8.061698313660e+06 -6.102515498233e-04 7.949032194325e-04 3.040675921269e-03 0.000000000000e+00 1.149477365860e+07 2.394676815891e+07  3.656406376554e-03
4.000000000000e+01 2.169517876865e+06 1.000000000000e+00 8.114888591551e+01 0.000000000000e+00 9.982447070639e-03 -2.669165939072e+07 -9.065375251674e+05 2.643347646913e+05 -8.062770194832e+06 -6.104804278439e-04 7.952624904293e-04 3.042821895224e-03 0.000000000000e+00 1.149669827362e+07 2.395759454008e+07  3.658737751921e-03
4.200000000000e+01 2.226800900553e+06 1.000000000000e+00 8.087411890821e+01 0.000000000000e+00 1.012275804346e-02 -2.670885510817e+07 -9.074389354679e+05 2.710975204569e+05 -8.065366918644e+06 -6.109091354145e-04 7.959560110902e-04 3.047132636733e-03 0.000000000000e+00 1.150104150212e+07 2.397847792908e+07  3.663384549423e-03
4.400000000000e+01 2.282567030245e+06 1.000000000000e+00 8.057884092812e+01 0.000000000000e+00 1.025356327976e-02 -2.672522704575e+07 -9.083158549505e+05 2.776780282410e+05 -8.067753859118e+06 -6.113115032296e-04 7.965979211987e-04 3.051123130473e-03 0.000000000000e+00 1.150510095887e+07 2.399848586562e+07  3.667689398367e-03
5.000000000000e+01 2.434088388030e+06 1.000000000000e+00 7.938389004373e+01 0.000000000000e+00 1.052716308643e-02 -2.676550552526e+07 -9.106830122142e+05 2.946374500805e+05 -8.072832034428e+06 -6.122175645236e-04 7.978424743259e-04 3.058483015447e-03 0.000000000000e+00 1.151456670320e+07 2.404847174924e+07  3.675764351323e-03
6.500000000000e+01 2.765473872029e+06 1.000000000000e+00 7.672160570923e+01 0.000000000000e+00 1.099126960577e-02 -2.684665644943e+07 -9.158725777353e+05 3.299901213237e+05 -8.082358305383e+06 -6.137748023413e-04 7.999849956095e-04 3.072751526114e-03 0.000000000000e+00 1.153300821116e+07 2.415025408970e+07  3.691128132348e-03
8.000000000000e+01 3.020527373391e+06 1.000000000000e+00 7.427524876429e+01 0.000000000000e+00 1.121144318617e-02 -2.690326165603e+07 -9.198501752768e+05 3.545768143789e+05 -8.088335063725e+06 -6.146403213497e-04 8.008737687699e-04 3.078971163917e-03 0.000000000000e+00 1.154567330179e+07 2.422138236976e+07  3.697905131151e-03
1.000000000000e+02 3.321206547252e+06 1.000000000000e+00 7.180475289041e+01 0.000000000000e+00 1.139568938908e-02 -2.697166640098e+07 -9.245395520086e+05 3.774076358056e+05 -8.098350218804e+06 -6.154672755578e-04 8.015967510796e-04 3.084924489872e-03 0.000000000000e+00 1.156420299466e+07 2.430165658851e+07  3.704308464559e-03
1.860000000000e+02 3.919684777193e+06 1.000000000000e+00 6.658180914234e+01 0.000000000000e+00 1.161453014390e-02 -2.709785184383e+07 -9.338902899608e+05 4.244327515658e+05 -8.114424658962e+06 -6.166846406336e-04 8.024979766229e-04 3.095373208974e-03 0.000000000000e+00 1.159594791708e+07 2.445395315029e+07  3.715173397202e-03
2.720000000000e+02 4.210009364643e+06 1.000000000000e+00 6.332445519773e+01 0.000000000000e+00 1.144617324249e-02 -2.715083289466e+07 -9.383724286898e+05 4.378295277859e+05 -8.121994450604e+06 -6.166420316503e-04 8.012322635689e-04 3.088659373954e-03 0.000000000000e+00 1.161166593916e+07 2.451310700646e+07  3.708177549079e-03
3.580000000000e+02 4.351375143740e+06 1.000000000000e+00 6.119532556510e+01 0.000000000000e+00 1.127014421711e-02 -2.716932767543e+07 -9.405462163434e+05 4.454260054655e+05 -8.122522931403e+06 -6.163619506388e-04 8.000716060183e-04 3.082134938990e-03 0.000000000000e+00 1.161547486712e+07 2.453643111690e+07  3.701285217831e-03
4.440000000000e+02 4.423502889855e+06 1.000000000000e+00 5.963761523498e+01 0.000000000000e+00 1.110548091103e-02 -2.717309794488e+07 -9.416445886562e+05 4.499155596137e+05 -8.120357984420e+06 -6.160194242827e-04 7.990133697453e-04 3.075788488329e-03 0.000000000000e+00 1.161451345656e+07 2.454391503894e+07  3.694586215657e-03
5.300000000000e+02 4.462468311790e+06 1.000000000000e+00 5.847322558182e+01 0.000000000000e+00 1.096279034503e-02 -2.717125226221e+07 -9.422300735622e+05 4.526078963205e+05 -8.117570303722e+06 -6.156923601214e-04 7.981073744516e-04 3.070186867187e-03 0.000000000000e+00 1.161207155654e+07 2.454480785913e+07  3.688677435544e-03
6.160000000000e+02 4.484983399542e+06 1.000000000000e+00 5.760610190885e+01 0.000000000000e+00 1.084453796163e-02 -2.716785199571e+07 -9.425628611052e+05 4.541043445618e+05 -8.115058064393e+06 -6.154105834355e-04 7.973613139966e-04 3.065490191481e-03 0.000000000000e+00 1.160960190518e+07 2.454325285620e+07  3.683727813330e-03
7.020000000000e+02 4.498794056050e+06 1.000000000000e+00 5.697669348352e+01 0.000000000000e+00 1.075383205886e-02 -2.716459910442e+07 -9.427641276029e+05 4.549692207877e+05 -8.113073465073e+06 -6.151906010220e-04 7.967899369294e-04 3.061860621513e-03 0.000000000000e+00 1.160756778290e+07 2.454124451129e+07  3.679904948219e-03
7.880000000000e+02 4.508412519807e+06 1.000000000000e+00 5.650296314976e+01 0.000000000000e+00 1.067209518328e-02 -2.716201157637e+07 -9.428999792743e+05 4.546994006011e+05 -8.111838333957e+06 -6.149967834291e-04 7.962729381266e-04 3.058475059838e-03 0.000000000000e+00 1.160638350324e+07 2.453886465114e+07  3.676356189932e-03
8.740000000000e+02 4.516798536054e+06 1.000000000000e+00 5.570721292845e+01 0.000000000000e+00 1.055655326321e-02 -2.715506805217e+07 -9.430141300889e+05 4.561566237507e+05 -8.108370099310e+06 -6.147015911772e-04 7.955557852301e-04 3.053896355064e-03 0.000000000000e+00 1.160242717591e+07 2.453409059757e+07  3.671525972216e-03
9.370000000000e+02 4.522172566344e+06 1.000000000000e+00 5.519188197114e+01 0.000000000000e+00 1.046158543731e-02 -2.715039261535e+07 -9.430839766055e+05 4.560376637254e+05 -8.106415933075e+06 -6.144654564349e-04 7.949781869275e-04 3.050187262713e-03 0.000000000000e+00 1.160025696157e+07 2.452998263908e+07  3.667617182373e-03
1.000000000000e+03 4.526362533232e+06 1.000000000000e+00 5.480037787262e+01 0.000000000000e+00 1.038207416045e-02 -2.714660466238e+07 -9.431390222860e+05 4.557932594813e+05 -8.104910208315e+06 -6.142666531294e-04 7.945096215543e-04 3.047254320506e-03 0.000000000000e+00 1.159857387041e+07 2.452652859533e+07  3.664511665134e-03
1.100000000000e+03 4.530507846576e+06 1.000000000000e+00 5.441729858288e+01 0.000000000000e+00 1.029889114015e-02 -2.714275232365e+07 -9.431935581269e+05 4.553994337721e+05 -8.103443190310e+06 -6.140583878604e-04 7.940272150296e-04 3.044271905590e-03 0.000000000000e+00 1.159693202673e+07 2.452289485657e+07  3.661346404268e-03
1.200000000000e+03 4.533767384081e+06 1.000000000000e+00 5.407980822141e+01 0.000000000000e+00 1.022976372707e-02 -2.713936483262e+07 -9.432355409777e+05 4.551859383180e+05 -8.102109788801e+06 -6.138851147256e-04 7.936211583231e-04 3.041731771352e-03 0.000000000000e+00 1.159542956103e+07 2.451980609354e+07  3.658656117917e-03
1.300000000000e+03 4.536671136929e+06 1.000000000000e+00 5.375342301512e+01 0.000000000000e+00 1.016396786797e-02 -2.713605137444e+07 -9.432722586660e+05 4.550135337601e+05 -8.100798233481e+06 -6.137200555564e-04 7.932332034467e-04 3.039293867392e-03 0.000000000000e+00 1.159394535805e+07 2.451681275399e+07  3.656076020169e-03
1.400000000000e+03 4.539407270806e+06 1.000000000000e+00 5.342073506614e+01 0.000000000000e+00 1.009598290734e-02 -2.713259258592e+07 -9.433061303084e+05 4.548083407062e+05 -8.099446724138e+06 -6.135494599735e-04 7.928334808252e-04 3.036782049643e-03 0.000000000000e+00 1.159241032312e+07 2.451366526786e+07  3.653417431452e-03
1.500000000000e+03 4.542049867338e+06 1.000000000000e+00 5.307167403274e+01 0.000000000000e+00 1.002258849734e-02 -2.712884787104e+07 -9.433380307171e+05 4.545312921607e+05 -8.098014237307e+06 -6.133652300237e-04 7.924047923927e-04 3.034095907046e-03 0.000000000000e+00 1.159077693873e+07 2.451021001267e+07  3.650572541056e-03
1.600000000000e+03 4.544614986167e+06 1.000000000000e+00 5.270009876972e+01 0.000000000000e+00 9.941810779552e-03 -2.712472744728e+07 -9.433680081765e+05 4.541531128566e+05 -8.096476347521e+06 -6.131624211880e-04 7.919363033260e-04 3.031169878046e-03 0.000000000000e+00 1.158901689398e+07 2.450634526227e+07  3.647471421597e-03
1.700000000000e+03 4.547100804198e+06 1.000000000000e+00 5.230221776456e+01 0.000000000000e+00 9.941240828016e-03 -2.712201636976e+07 -9.434628152475e+05 4.111877019301e+05 -8.109257151082e+06 -6.122081145166e-04 7.879580955068e-04 2.997879482501e-03 0.000000000000e+00 1.160669527297e+07 2.446937936030e+07  3.613867760922e-03
1.800000000000e+03 4.549515672844e+06 1.000000000000e+00 5.187574277104e+01 0.000000000000e+00 9.753704966878e-03 -2.711515097807e+07 -9.434217876186e+05 4.530273007320e+05 -8.093027727205e+06 -6.126900055972e-04 7.908557002616e-04 3.024450855511e-03 0.000000000000e+00 1.158505046818e+07 2.449715239716e+07  3.640343534319e-03
1.900000000000e+03 4.551855370346e+06 1.000000000000e+00 5.141938715866e+01 0.000000000000e+00 9.753157032354e-03 -2.711168244566e+07 -9.435346819801e+05 3.976220360858e+05 -8.109581477489e+06 -6.114635607846e-04 7.857679148690e-04 2.981916270666e-03 0.000000000000e+00 1.160788062902e+07 2.444949623276e+07  3.597407277522e-03