 TITLE = "Time curves in points"
 VARIABLES = "TIME"  "PRESSURE1"  "SATURATION1"  "TEMPERATURE1"  "DISPLACEMENT_X1"  "DISPLACEMENT_Y1"  "STRESS_XX"  "STRESS_XY"  "STRESS_YY"  "STRESS_ZZ"  "STRAIN_XX"  "STRAIN_XY"  "STRAIN_YY"  "STRAIN_PLS"  p_(1st_Invariant)  q_(2nd_Invariant)   Effective_Strain
 ZONE T="POINT=POINT18"
0.000000000000e+00 1.000000000000e+05 1.000000000000e+00 2.500000000000e+01 0.000000000000e+00 0.000000000000e+00 -3.130685851467e+07 -1.409868786187e+04 -1.352808692198e+07 -1.044743363099e+07 0.000000000000e+00 0.000000000000e+00 0.000000000000e+00 0.000000000000e+00 1.842745968921e+07 1.950246065449e+07  0.000000000000e+00
1.000000000000e-03 3.083650903810e+05 1.000000000000e+00 2.500000000002e+01 -8.227611765767e-05 6.303349082214e-05 -3.059527162246e+07 -1.351253309639e+04 -1.354545950527e+07 -1.023916933833e+07 1.869483941154e-05 4.354292543558e-08 -8.380798249804e-06 0.000000000000e+00 1.812663348869e+07 1.892088321978e+07  2.400871019665e-05
2.000000000000e-03 3.159689360280e+05 1.000000000000e+00 2.499999999996e+01 -8.198371378770e-05 6.240423274395e-05 -3.059711571776e+07 -1.356060869601e+04 -1.354506863478e+07 -1.023960530575e+07 1.864253751915e-05 3.997159517829e-08 -8.350087127372e-06 0.000000000000e+00 1.812726321943e+07 1.892257555217e+07  2.393616021699e-05
3.000000000000e-03 3.211298787651e+05 1.000000000000e+00 2.499999999991e+01 -8.176411854243e-05 6.190707549864e-05 -3.059871412063e+07 -1.358873113929e+04 -1.354517787933e+07 -1.024011759996e+07 1.860219634034e-05 3.788249939157e-08 -8.335116711341e-06 0.000000000000e+00 1.812800319997e+07 1.892379562874e+07  2.388664191784e-05
4.000000000000e-03 3.246441761979e+05 1.000000000000e+00 2.499999999985e+01 -8.158716379506e-05 6.138368046620e-05 -3.060033594430e+07 -1.360823321449e+04 -1.354593382728e+07 -1.024083093143e+07 1.856845234412e-05 3.643377380562e-08 -8.336699609378e-06 0.000000000000e+00 1.812903356767e+07 1.892467822969e+07  2.385564030782e-05
1.000000000000e-02 3.282972249361e+05 1.000000000000e+00 2.499999999990e+01 -8.056285222117e-05 5.856327294215e-05 -3.061258279654e+07 -1.367052955034e+04 -1.355446077113e+07 -1.024706307026e+07 1.834504870341e-05 3.180604599931e-08 -8.421935224186e-06 0.000000000000e+00 1.813803554597e+07 1.892979030004e+07  2.370598345543e-05
2.000000000000e-02 3.209720129956e+05 1.000000000000e+00 2.499999999908e+01 -7.824837117364e-05 5.672191708405e-05 -3.063603288886e+07 -1.373068179101e+04 -1.356205286439e+07 -1.025637572613e+07 1.781994392063e-05 2.733759383522e-08 -8.358028613144e-06 0.000000000000e+00 1.815148715980e+07 1.894439036336e+07  2.315920738795e-05
3.000000000000e-02 3.083467012302e+05 1.000000000000e+00 2.499999998944e+01 -7.546915014099e-05 5.706019865005e-05 -3.066095301828e+07 -1.377149174219e+04 -1.356327419869e+07 -1.026421816890e+07 1.718562984517e-05 2.430599746239e-08 -8.112101726936e-06 0.000000000000e+00 1.816281512862e+07 1.896368005090e+07  2.237331932220e-05
4.000000000000e-02 2.935043081162e+05 1.000000000000e+00 2.499999996589e+01 -7.238611072886e-05 5.973259002699e-05 -3.068565628381e+07 -1.380202664986e+04 -1.355766486189e+07 -1.026994638432e+07 1.648084226992e-05 2.203769003560e-08 -7.690992644516e-06 0.000000000000e+00 1.817108917667e+07 1.898656810238e+07  2.138983458180e-05
5.000000000000e-02 2.781875990811e+05 1.000000000000e+00 2.500000002203e+01 -6.907565068289e-05 6.317841199298e-05 -3.071101295611e+07 -1.333530251894e+04 -1.354887711813e+07 -1.027491726822e+07 1.572365584347e-05 5.670862547497e-08 -7.179957902809e-06 0.000000000000e+00 1.817826911415e+07 1.901174365447e+07  2.029014497753e-05
6.000000000000e-02 2.628169348885e+05 1.000000000000e+00 2.500000066194e+01 -6.569914378899e-05 6.940142355092e-05 -3.073417316713e+07 -1.384475039942e+04 -1.353357690706e+07 -1.027727606394e+07 1.495103184674e-05 1.886392578216e-08 -6.524051936253e-06 0.000000000000e+00 1.818167537938e+07 1.903877354290e+07  1.906932045881e-05
7.000000000000e-02 2.482548179423e+05 1.000000000000e+00 2.500000344140e+01 -6.220447220450e-05 7.541255532352e-05 -3.075821722782e+07 -1.385968793581e+04 -1.351790542078e+07 -1.027979023584e+07 1.415135026270e-05 1.775428022205e-08 -5.848584632613e-06 0.000000000000e+00 1.818530429481e+07 1.906673629344e+07  1.781103511262e-05
8.000000000000e-02 2.351205277284e+05 1.000000000000e+00 2.500001194545e+01 -5.864696863245e-05 8.220964138063e-05 -3.078186745866e+07 -1.387187837920e+04 -1.350001545331e+07 -1.028152432809e+07 1.333732225814e-05 1.684870442708e-08 -5.119690985920e-06 0.000000000000e+00 1.818780241336e+07 1.909563192072e+07  1.650391532294e-05
9.000000000000e-02 2.243279757792e+05 1.000000000000e+00 2.500003296199e+01 -5.504161765403e-05 8.839172394277e-05 -3.080659168623e+07 -1.388211889564e+04 -1.348363678583e+07 -1.028404106224e+07 1.251247250255e-05 1.608798034835e-08 -4.417861782312e-06 0.000000000000e+00 1.819142317810e+07 1.912457084054e+07  1.521047735593e-05
1.000000000000e-01 2.168958645063e+05 1.000000000000e+00 2.500007760982e+01 -5.140481742205e-05 9.392747065674e-05 -3.083229282369e+07 -1.389113615834e+04 -1.346888144656e+07 -1.028735015733e+07 1.168076807166e-05 1.541812654807e-08 -3.746897077719e-06 0.000000000000e+00 1.819617480919e+07 1.915340730708e+07  1.393724970588e-05
2.000000000000e-01 2.305342196323e+05 1.000000000000e+00 2.502667784583e+01 -1.531974137206e-05 1.887324328132e-04 -3.104427105442e+07 -1.394687175026e+04 -1.322250961046e+07 -1.028751183061e+07 3.813295937854e-06 1.127776829101e-08 5.410061842233e-06 0.000000000000e+00 1.818476416516e+07 1.945602237740e+07  4.814583031176e-06
3.000000000000e-01 2.539215353889e+05 1.000000000000e+00 2.509252326898e+01 1.909596015666e-05 2.983914813046e-04 -3.123648363618e+07 -1.396832884085e+04 -1.295802144137e+07 -1.029099349103e+07 -3.196709712218e-06 9.683812990189e-09 1.536322693817e-05 0.000000000000e+00 1.816183285619e+07 1.974753081275e+07  1.718603366198e-05
4.000000000000e-01 2.778424050117e+05 1.000000000000e+00 2.519884265383e+01 5.083632370772e-05 4.038126884977e-04 -3.142690798816e+07 -1.396517849739e+04 -1.272985659883e+07 -1.031956260271e+07 -9.208475780502e-06 9.917838504504e-09 2.489905952336e-05 0.000000000000e+00 1.815877572990e+07 2.001137735366e+07  3.056209863567e-05
5.000000000000e-01 3.006476895386e+05 1.000000000000e+00 2.534048619115e+01 7.950261359475e-05 5.062272741439e-04 -3.161284463723e+07 -1.395305067191e+04 -1.253336695252e+07 -1.036885664840e+07 -1.428377247710e-05 1.081876268323e-08 3.402816808341e-05 0.000000000000e+00 1.817168941272e+07 2.024870079009e+07  4.298829307082e-05
6.000000000000e-01 3.220253445303e+05 1.000000000000e+00 2.551037587099e+01 1.049803249801e-04 6.060825407214e-04 -3.179297162013e+07 -1.394302450530e+04 -1.236414451096e+07 -1.043443588513e+07 -1.853840304918e-05 1.156356363097e-08 4.274937327709e-05 0.000000000000e+00 1.819718400540e+07 2.046205406856e+07  5.443975400620e-05
7.000000000000e-01 3.420511571217e+05 1.000000000000e+00 2.570176343614e+01 1.273661055963e-04 7.035622714732e-04 -3.196684865631e+07 -1.394018787894e+04 -1.221809842799e+07 -1.051243874121e+07 -2.209944402410e-05 1.177428444668e-08 5.107119101357e-05 0.000000000000e+00 1.823246194183e+07 2.065448233829e+07  6.500228704183e-05
8.000000000000e-01 3.610103636712e+05 1.000000000000e+00 2.590902641469e+01 1.468508706307e-04 8.615946099023e-04 -3.213454139157e+07 -1.217672415598e+05 -1.209161196967e+07 -1.059976441268e+07 -2.508450639378e-05 -7.998235417560e-06 5.901278440555e-05 0.000000000000e+00 1.827530592464e+07 2.083002894911e+07  7.605237051819e-05
9.000000000000e-01 3.788546174175e+05 1.000000000000e+00 2.612776099003e+01 1.637704308686e-04 8.918572302647e-04 -3.229609107118e+07 -1.395810969379e+04 -1.198165038195e+07 -1.069395119661e+07 -2.758655680477e-05 1.044294962903e-08 6.659543820956e-05 0.000000000000e+00 1.832389754992e+07 2.098795232796e+07  8.386363737007e-05
1.000000000000e+00 3.956972549986e+05 1.000000000000e+00 2.635461476987e+01 1.783750419608e-04 9.826965720314e-04 -3.245251415009e+07 -1.397607625571e+04 -1.188604873096e+07 -1.079348474722e+07 -2.969959642742e-05 9.108290743754e-09 7.384331712613e-05 0.000000000000e+00 1.837734920943e+07 2.113395280767e+07  9.234727109413e-05
2.000000000000e+00 5.150057620619e+05 1.000000000000e+00 2.862803377208e+01 2.311883419652e-04 1.735802189499e-03 -3.370202003895e+07 -1.415007270604e+04 -1.147963306786e+07 -1.184902826625e+07 -3.690391302103e-05 -3.817159852661e-09 1.281446581765e-04 0.000000000000e+00 1.901022712435e+07 2.204002479888e+07  1.500399666042e-04
3.000000000000e+00 6.107955937443e+05 1.000000000000e+00 3.070915686662e+01 2.473400664940e-04 2.378438383944e-03 -3.474273974166e+07 -1.424924822020e+04 -1.129121860052e+07 -1.283523525338e+07 -3.892867102827e-05 -1.118448376160e-08 1.717734550568e-04 0.000000000000e+00 1.962306453185e+07 2.271891065179e+07  1.941866987946e-04
4.000000000000e+00 6.926709896687e+05 1.000000000000e+00 3.256538025870e+01 2.503750619789e-04 2.907719684872e-03 -3.563985008948e+07 3.712166437497e+04 -1.119309183697e+07 -1.372488501749e+07 -3.920577842338e-05 3.804940451879e-06 2.084622975129e-04 0.000000000000e+00 2.018594231464e+07 2.328441461558e+07  2.306728894075e-04
5.000000000000e+00 7.655249436283e+05 1.000000000000e+00 3.421390812078e+01 2.459767811590e-04 3.436085889585e-03 -3.640520189429e+07 -1.431753462182e+04 -1.113406594264e+07 -1.451337795409e+07 -3.834625067088e-05 -1.625718788147e-08 2.399415683762e-04 0.000000000000e+00 2.068421526367e+07 2.376239936682e+07  2.612340932871e-04
6.000000000000e+00 8.320077995269e+05 1.000000000000e+00 3.568672735160e+01 2.413768440866e-04 3.884839751420e-03 -3.709163534729e+07 -1.432507443064e+04 -1.108997159132e+07 -1.522099296950e+07 -3.755950692431e-05 -1.681728796530e-08 2.678622019973e-04 0.000000000000e+00 2.113419996937e+07 2.420204624581e+07  2.884816266218e-04
7.000000000000e+00 8.939780185268e+05 1.000000000000e+00 3.700928530232e+01 2.359651309498e-04 4.292070579589e-03 -3.770263168942e+07 -1.432686192130e+04 -1.105667811014e+07 -1.585656016825e+07 -3.664687510709e-05 -1.695007298567e-08 2.927055986803e-04 0.000000000000e+00 2.153862332260e+07 2.459977421017e+07  3.126440585296e-04
8.000000000000e+00 9.520385371765e+05 1.000000000000e+00 3.821072858671e+01 2.311962179142e-04 4.667502153769e-03 -3.825866837446e+07 -1.432632104824e+04 -1.102466394270e+07 -1.643369097954e+07 -3.586337898936e-05 -1.690989384431e-08 3.153309836047e-04 0.000000000000e+00 2.190567443224e+07 2.497277958722e+07  3.347068069275e-04
9.000000000000e+00 1.007090272487e+06 1.000000000000e+00 3.931176311486e+01 2.268036260105e-04 5.015626837043e-03 -3.876785937052e+07 -1.432480976398e+04 -1.099479208910e+07 -1.696232199058e+07 -3.514132129022e-05 -1.679762701398e-08 3.360753757201e-04 0.000000000000e+00 2.224165781673e+07 2.532229621276e+07  3.549531014512e-04
1.000000000000e+01 1.059630028865e+06 1.000000000000e+00 4.032707778812e+01 2.226167784868e-04 5.339804434284e-03 -3.923643505000e+07 -1.432305107252e+04 -1.096726945242e+07 -1.744950599180e+07 -3.445015505385e-05 -1.666698136233e-08 3.551930508421e-04 0.000000000000e+00 2.255107016474e+07 2.564991835096e+07  3.736112592771e-04
1.100000000000e+01 1.109950425320e+06 1.000000000000e+00 4.126965474554e+01 2.187482037717e-04 5.643646290180e-03 -3.967107576741e+07 -1.432172122931e+04 -1.094055595945e+07 -1.790133528876e+07 -3.381172209935e-05 -1.656819300937e-08 3.729674973251e-04 0.000000000000e+00 2.283765567187e+07 2.595975778475e+07  3.909714322139e-04
1.200000000000e+01 1.158414524275e+06 1.000000000000e+00 4.214857090916e+01 2.150085468425e-04 5.929133436391e-03 -4.007522783602e+07 -1.432024735131e+04 -1.091535934785e+07 -1.832221706361e+07 -3.319033301000e-05 -1.645870492987e-08 3.895361231077e-04 0.000000000000e+00 2.310426808249e+07 2.625218257165e+07  4.071471771597e-04
1.300000000000e+01 1.205265988209e+06 1.000000000000e+00 4.297047290891e+01 2.113116214309e-04 6.197855272867e-03 -4.045177620012e+07 -1.431889518199e+04 -1.089187029758e+07 -1.871538811761e+07 -3.257291881384e-05 -1.635825806610e-08 4.050120698379e-04 0.000000000000e+00 2.335301153844e+07 2.652797829750e+07  4.222418712382e-04
1.400000000000e+01 1.251210412292e+06 1.000000000000e+00 4.374060737425e+01 2.076123748281e-04 6.451351740968e-03 -4.080282377293e+07 -1.431756629639e+04 -1.086950956440e+07 -1.908313580911e+07 -3.195262869083e-05 -1.625954084994e-08 4.195018113259e-04 0.000000000000e+00 2.358515638215e+07 2.678817865025e+07  4.363564215083e-04
1.500000000000e+01 1.295786605128e+06 1.000000000000e+00 4.446330203793e+01 2.038921670712e-04 6.690557607461e-03 -4.113062365150e+07 -1.431653530359e+04 -1.084873959924e+07 -1.942778672662e+07 -3.132673295922e-05 -1.618295281294e-08 4.330745869677e-04 0.000000000000e+00 2.380238332578e+07 2.703337670118e+07  4.495573098040e-04
1.600000000000e+01 1.339131722122e+06 1.000000000000e+00 4.514222095808e+01 2.003838480740e-04 6.909033918213e-03 -4.143881580982e+07 7.765682131348e+01 -1.082925866108e+07 -1.975162347518e+07 -3.074564817879e-05 1.053099890751e-06 4.458263867602e-04 0.000000000000e+00 2.400656598202e+07 2.726616854376e+07  4.619707894531e-04
1.700000000000e+01 1.381371180159e+06 1.000000000000e+00 4.578051570932e+01 1.964369249912e-04 7.130023000095e-03 -4.172374609561e+07 -1.431483277939e+04 -1.081126821454e+07 -2.005471263699e+07 -3.007117564085e-05 -1.605647958696e-08 4.577522007847e-04 0.000000000000e+00 2.419657564904e+07 2.748245616804e+07  4.735044883957e-04
1.800000000000e+01 1.422623256449e+06 1.000000000000e+00 4.638092712895e+01 1.927216404394e-04 7.331958673261e-03 -4.199205700020e+07 -1.431414274242e+04 -1.079423454758e+07 -2.033984574087e+07 -2.944635109601e-05 -1.600521969808e-08 4.689755379873e-04 0.000000000000e+00 2.437537909622e+07 2.768792426877e+07  4.843704800448e-04
1.900000000000e+01 1.462974445898e+06 1.000000000000e+00 4.694585953505e+01 1.890170550610e-04 7.522999559368e-03 -4.224314477742e+07 -1.434467299144e+04 -1.077816695400e+07 -2.060768568877e+07 -2.882412761344e-05 -1.827318105351e-08 4.795206752422e-04 0.000000000000e+00 2.454299914006e+07 2.788152248874e+07  4.945631147342e-04
2.000000000000e+01 1.502507803805e+06 1.000000000000e+00 4.747743644101e+01 1.852849868026e-04 7.703715460638e-03 -4.247770100114e+07 -1.431326717232e+04 -1.076298412341e+07 -2.085915857505e+07 -2.819579443247e-05 -1.594017734737e-08 4.894250304405e-04 0.000000000000e+00 2.469994789987e+07 2.806348705203e+07  5.041146611199e-04
2.100000000000e+01 1.541141802716e+06 1.000000000000e+00 4.798108162243e+01 1.819820956092e-04 7.876430778516e-03 -4.270063987863e+07 -1.431283960092e+04 -1.074602745572e+07 -2.109687396233e+07 -2.764695264028e-05 -1.590841490032e-08 4.988842781964e-04 0.000000000000e+00 2.484784709889e+07 2.823969909022e+07  5.132665075702e-04
2.200000000000e+01 1.579012601248e+06 1.000000000000e+00 4.845978692297e+01 1.788916420718e-04 8.041534180312e-03 -4.291229186806e+07 -1.431248246301e+04 -1.072865285690e+07 -2.132237325443e+07 -2.713262425566e-05 -1.588188465608e-08 5.079053084306e-04 0.000000000000e+00 2.498777265980e+07 2.840897170515e+07  5.220007531400e-04
2.300000000000e+01 1.616195875671e+06 1.000000000000e+00 4.891513181202e+01 1.758525192657e-04 8.199308841672e-03 -4.311256898922e+07 -1.431223771872e+04 -1.071151805656e+07 -2.153636736688e+07 -2.662313600752e-05 -1.586370365147e-08 5.164900966199e-04 0.000000000000e+00 2.512015147089e+07 2.857043200251e+07  5.303031190943e-04
2.400000000000e+01 1.652744296674e+06 1.000000000000e+00 4.934819136547e+01 1.725270550588e-04 8.346120659840e-03 -4.329976033784e+07 -4.248102486524e+03 -1.069486664121e+07 -2.173878591939e+07 -2.605755414871e-05 7.317577707402e-07 5.246269811405e-04 0.000000000000e+00 2.524447096614e+07 2.872214278342e+07  5.381306234048e-04
2.500000000000e+01 1.688706439367e+06 1.000000000000e+00 4.975985594780e+01 1.698220793004e-04 8.493931539141e-03 -4.348091838554e+07 -1.431163892516e+04 -1.067865360210e+07 -2.193204005103e+07 -2.560827103088e-05 -1.581922184450e-08 5.324071903398e-04 0.000000000000e+00 2.536387067956e+07 2.887024998078e+07  5.456621924327e-04
2.600000000000e+01 1.724115300514e+06 1.000000000000e+00 5.015093060175e+01 1.669530894695e-04 8.624992936354e-03 -4.365115781883e+07 -2.432623344196e+03 -1.066289911902e+07 -2.211495088904e+07 -2.513761885580e-05 8.666219355988e-07 5.397861879801e-04 0.000000000000e+00 2.547633594229e+07 2.901019601983e+07  5.527858728057e-04
2.700000000000e+01 1.758998233454e+06 1.000000000000e+00 5.052216683763e+01 1.638203633754e-04 8.762316634311e-03 -4.380911407655e+07 -1.431114438176e+04 -1.064780127386e+07 -2.228743107616e+07 -2.459815862061e-05 -1.578248433475e-08 5.467533720366e-04 0.000000000000e+00 2.558144880886e+07 2.914050202686e+07  5.594581719484e-04
2.800000000000e+01 1.793391624997e+06 1.000000000000e+00 5.087427315543e+01 1.608331757365e-04 8.887247773541e-03 -4.395911705802e+07 -1.431094047668e+04 -1.063309251448e+07 -2.245094710721e+07 -2.409624535063e-05 -1.576733709979e-08 5.533731499665e-04 0.000000000000e+00 2.568105222657e+07 2.926506622666e+07  5.658062283871e-04
2.900000000000e+01 1.827319649147e+06 1.000000000000e+00 5.120791821705e+01 1.583382186083e-04 8.998747269990e-03 -4.410400157601e+07 -6.603038275148e+01 -1.061830258833e+07 -2.260644229376e+07 -2.370213480418e-05 1.042425984163e-06 5.596980255813e-04 0.000000000000e+00 2.577624881937e+07 2.938666862210e+07  5.719204219484e-04
3.000000000000e+01 1.860795158172e+06 1.000000000000e+00 5.152373279853e+01 1.548936488311e-04 9.119634142560e-03 -4.423263236056e+07 -1.431055909822e+04 -1.060499617267e+07 -2.275126618160e+07 -2.310067668215e-05 -1.573900612839e-08 5.655714368541e-04 0.000000000000e+00 2.586296490494e+07 2.949406815262e+07  5.774684191321e-04
3.100000000000e+01 1.893730300302e+06 1.000000000000e+00 5.182511086879e+01 1.522903508631e-04 9.228840101926e-03 -4.435980263757e+07 -1.431043655786e+04 -1.058952931960e+07 -2.288997890655e+07 -2.267195718720e-05 -1.572990313068e-08 5.712981068949e-04 0.000000000000e+00 2.594643695457e+07 2.960309932917e+07  5.829648287396e-04
3.200000000000e+01 1.926193299595e+06 1.000000000000e+00 5.211364605689e+01 1.498692097075e-04 9.334011334520e-03 -4.448152791354e+07 -1.431033936896e+04 -1.057354328078e+07 -2.302242614025e+07 -2.227371304291e-05 -1.572268338371e-08 5.768113427311e-04 0.000000000000e+00 2.602583244486e+07 2.970875614979e+07  5.882645446272e-04
3.300000000000e+01 1.958214425336e+06 1.000000000000e+00 5.238991562667e+01 1.475334258261e-04 9.435206275146e-03 -4.459764848732e+07 -1.431026391802e+04 -1.055750245266e+07 -2.314889124702e+07 -2.188948753171e-05 -1.571707845629e-08 5.821044203129e-04 0.000000000000e+00 2.610134739567e+07 2.981044305010e+07  5.933520658124e-04
3.400000000000e+01 1.989824628968e+06 1.000000000000e+00 5.265418163190e+01 1.452402712653e-04 9.532452147162e-03 -4.470814348631e+07 -1.431017184126e+04 -1.054165873192e+07 -2.326953017914e+07 -2.151271287248e-05 -1.571023846855e-08 5.871737759906e-04 0.000000000000e+00 2.617311079912e+07 2.990788158052e+07  5.982203119384e-04
3.500000000000e+01 2.021048805028e+06 1.000000000000e+00 5.290663242471e+01 1.429923719159e-04 9.625812165301e-03 -4.481319874180e+07 -1.431012653477e+04 -1.052605261401e+07 -2.338447464516e+07 -2.114539933886e-05 -1.570687284394e-08 5.920227976791e-04 0.000000000000e+00 2.624124200032e+07 3.000115707608e+07  6.028736850284e-04
3.600000000000e+01 2.051915339564e+06 1.000000000000e+00 5.314745065240e+01 1.407955869380e-04 9.713361004997e-03 -4.491300616130e+07 -1.052356288004e+04 -1.051074550543e+07 -2.349386374035e+07 -2.078950852747e-05 2.655807129362e-07 5.966543709622e-04 0.000000000000e+00 2.630587180236e+07 3.009034084102e+07  6.073162312877e-04
3.700000000000e+01 2.082462264971e+06 1.000000000000e+00 5.337683015383e+01 1.387500879713e-04 9.801090534537e-03 -4.500850804329e+07 -1.430955206228e+04 -1.049565067943e+07 -2.359802167762e+07 -2.046799790271e-05 -1.566419774448e-08 6.010837593123e-04 0.000000000000e+00 2.636739346678e+07 3.017631193657e+07  6.115746941365e-04
3.800000000000e+01 2.113406986873e+06 1.000000000000e+00 5.359501613293e+01 1.392024830833e-04 9.883172769318e-03 -4.511956208553e+07 -1.429708872161e+04 -1.047868778292e+07 -2.370236772909e+07 -2.071715184549e-05 -1.473834958061e-08 6.055895202374e-04 0.000000000000e+00 2.643353919918e+07 3.027832000219e+07  6.162093460022e-04
3.900000000000e+01 2.143157948371e+06 1.000000000000e+00 5.380215920338e+01 1.363740438107e-04 9.961652691561e-03 -4.519759494340e+07 -1.431160978080e+04 -1.046484883237e+07 -2.379387939348e+07 -2.021651046082e-05 -1.581705683442e-08 6.095025430777e-04 0.000000000000e+00 2.648544105641e+07 3.034919254599e+07  6.198581068292e-04
4.000000000000e+01 2.172544102675e+06 1.000000000000e+00 5.399845057485e+01 1.333996442761e-04 1.003659624644e-02 -4.526909451417e+07 -1.431141324049e+04 -1.045138632218e+07 -2.387974578349e+07 -1.968288574583e-05 -1.580245669754e-08 6.131919022279e-04 0.000000000000e+00 2.653340887328e+07 3.041462731636e+07  6.232664854219e-04
4.200000000000e+01 2.229827606147e+06 1.000000000000e+00 5.435968904675e+01 1.286177840762e-04 1.016893001132e-02 -4.540369539706e+07 4.732190461481e+01 -1.042101496310e+07 -2.403701724262e+07 -1.884083577154e-05 1.050846439796e-06 6.201614926185e-04 0.000000000000e+00 2.662057586759e+07 3.054274368643e+07  6.297959413082e-04
4.400000000000e+01 2.285593808854e+06 1.000000000000e+00 5.469219717124e+01 1.233044586030e-04 1.030778154242e-02 -4.551943205009e+07 -1.431061412255e+04 -1.039109500061e+07 -2.417873341003e+07 -1.787588237976e-05 -1.574309365051e-08 6.265365488721e-04 0.000000000000e+00 2.669642015358e+07 3.065555156882e+07  6.356630307335e-04
5.000000000000e+01 2.437116681227e+06 1.000000000000e+00 5.537543881103e+01 1.093220114839e-04 1.058148201334e-02 -4.573827707446e+07 -1.430948100822e+04 -1.033119938485e+07 -2.446434992080e+07 -1.539579859977e-05 -1.565891944300e-08 6.393698564289e-04 0.000000000000e+00 2.684460879337e+07 3.087060332823e+07  6.472051098380e-04
6.500000000000e+01 2.768502507727e+06 1.000000000000e+00 5.631568923171e+01 8.294151349360e-05 1.104582168447e-02 -4.593516522019e+07 -1.430728076135e+04 -1.011748613877e+07 -2.478608548085e+07 -1.075860892483e-05 -1.549547253285e-08 6.592579549424e-04 0.000000000000e+00 2.694624561327e+07 3.118780806220e+07  6.647025636019e-04
8.000000000000e+01 3.023556376288e+06 1.000000000000e+00 5.663857106345e+01 6.340421960660e-05 1.126618835488e-02 -4.589883727861e+07 -1.430559197790e+04 -9.966234699636e+06 -2.484104657264e+07 -7.367873399787e-06 -1.537002004803e-08 6.669172775195e-04 0.000000000000e+00 2.690203951696e+07 3.127174230573e+07  6.706315705289e-04
1.000000000000e+02 3.324236306270e+06 1.000000000000e+00 5.678970356682e+01 4.546872413861e-05 1.144163516748e-02 -4.577450987954e+07 2.741297860890e+03 -9.782308955429e+06 -2.479980393473e+07 -4.281867985126e-06 1.250970367977e-06 6.722169357535e-04 0.000000000000e+00 2.678554092324e+07 3.131215432843e+07  6.743715460072e-04
1.860000000000e+02 3.922717200628e+06 1.000000000000e+00 5.651434056636e+01 1.194110733274e-05 1.167000300229e-02 -4.520801724651e+07 -1.430104236672e+04 -9.307801937689e+06 -2.438801213959e+07 1.464163136328e-06 -1.503204893178e-08 6.745463583070e-04 0.000000000000e+00 2.630127710793e+07 3.122268437150e+07  6.738154703219e-04
2.720000000000e+02 4.213038211931e+06 1.000000000000e+00 5.565863468720e+01 -2.815597305494e-06 1.150191354666e-02 -4.462989881512e+07 -1.429965655114e+04 -9.181077283281e+06 -2.387555223393e+07 3.902908378237e-06 -1.492910263122e-08 6.602190489751e-04 0.000000000000e+00 2.589550944411e+07 3.084874933416e+07  6.582762729540e-04
3.580000000000e+02 4.354403691824e+06 1.000000000000e+00 5.491482482709e+01 -1.084132136471e-05 1.132602080669e-02 -4.417523005424e+07 -1.429889968410e+04 -9.107105154893e+06 -2.345576161168e+07 5.198382098644e-06 -1.487287822250e-08 6.473743620600e-04 0.000000000000e+00 2.557936560694e+07 3.053649394875e+07  6.447908879612e-04
4.440000000000e+02 4.426532454791e+06 1.000000000000e+00 5.428887034456e+01 -1.600993249169e-05 1.116855317185e-02 -4.381501428373e+07 -2.774737609045e+04 -9.072279142767e+06 -2.311758493608e+07 6.016977052181e-06 -1.013902554123e-06 6.361070517024e-04 0.000000000000e+00 2.533495945419e+07 3.027140945682e+07  6.331224428976e-04
5.300000000000e+02 4.465496888394e+06 1.000000000000e+00 5.377624841476e+01 -1.945497259818e-05 1.101878557362e-02 -4.353097754177e+07 -1.429806226442e+04 -9.056774461272e+06 -2.284789953146e+07 6.550026724889e-06 -1.481066990382e-08 6.266660534150e-04 0.000000000000e+00 2.514521717817e+07 3.005375809550e+07  6.234168481950e-04
6.160000000000e+02 4.488012306153e+06 1.000000000000e+00 5.336720481859e+01 -2.179630498419e-05 1.090056144100e-02 -4.331024225554e+07 -1.429783686154e+04 -9.051834587834e+06 -2.263674707160e+07 6.905960275788e-06 -1.479392568951e-08 6.190067287765e-04 0.000000000000e+00 2.499960797166e+07 2.987961657056e+07  6.155828029884e-04
7.020000000000e+02 4.501822574046e+06 1.000000000000e+00 5.305912776015e+01 -2.339902707577e-05 1.080987432404e-02 -4.314635529625e+07 -1.429768700273e+04 -9.051095933237e+06 -2.247933295438e+07 7.146380124387e-06 -1.478279332089e-08 6.131873544505e-04 0.000000000000e+00 2.489226139462e+07 2.974837222059e+07  6.096455799398e-04
7.880000000000e+02 4.511441119130e+06 1.000000000000e+00 5.280009972364e+01 -2.439610209828e-05 1.073065114528e-02 -4.301522548744e+07 -1.898773397273e+04 -9.060611028098e+06 -2.235205522663e+07 7.289457420484e-06 -3.631862825209e-07 6.081064781819e-04 0.000000000000e+00 2.480929724739e+07 2.963568035660e+07  6.044950408641e-04
8.740000000000e+02 4.519827164553e+06 1.000000000000e+00 5.241137385704e+01 -2.638710821621e-05 1.061262585649e-02 -4.280845773886e+07 -1.429740345374e+04 -9.059151358463e+06 -2.215328038157e+07 7.586336694262e-06 -1.476172968161e-08 6.007776288089e-04 0.000000000000e+00 2.467362982629e+07 2.947125272352e+07  5.970206119263e-04
9.370000000000e+02 4.525201014624e+06 1.000000000000e+00 5.210907667166e+01 -2.726708485403e-05 1.051767039058e-02 -4.265522256103e+07 -1.429730127773e+04 -9.065188248339e+06 -2.200318381194e+07 7.702913570174e-06 -1.475413946394e-08 5.949783860275e-04 0.000000000000e+00 2.457453154044e+07 2.934442080961e+07  5.911645695462e-04
1.000000000000e+03 4.529391013695e+06 1.000000000000e+00 5.185429705433e+01 -2.772019545726e-05 1.043816912106e-02 -4.252654385173e+07 -1.429725061563e+04 -9.066836373894e+06 -2.187581680906e+07 7.751634094430e-06 -1.475037599361e-08 5.901863955427e-04 0.000000000000e+00 2.448973234489e+07 2.924103074577e+07  5.863490095342e-04
1.100000000000e+03 4.533536317574e+06 1.000000000000e+00 5.158773666029e+01 -2.801421539436e-05 1.035499656378e-02 -4.239257137846e+07 -1.429721634994e+04 -9.067263794022e+06 -2.174238524919e+07 7.771725163840e-06 -1.474783054205e-08 5.852144905715e-04 0.000000000000e+00 2.440074014056e+07 2.913474080146e+07  5.813675895307e-04
1.200000000000e+03 4.536797685240e+06 1.000000000000e+00 5.136659194752e+01 -2.838780502954e-05 1.028587752371e-02 -4.228095905417e+07 -1.429717751847e+04 -9.068577840301e+06 -2.163182319595e+07 7.810735230905e-06 -1.474494591830e-08 5.810590925891e-04 0.000000000000e+00 2.432712003014e+07 2.904552838139e+07  5.771933632604e-04
1.300000000000e+03 4.539703043561e+06 1.000000000000e+00 5.115655275434e+01 -2.878201262661e-05 1.022008945207e-02 -4.217487378545e+07 -1.429713866323e+04 -9.070262368998e+06 -2.152691711299e+07 7.854533559239e-06 -1.474205952918e-08 5.771000127275e-04 0.000000000000e+00 2.425735108914e+07 2.896051523749e+07  5.732131083833e-04
1.400000000000e+03 4.542442559409e+06 1.000000000000e+00 5.094021066014e+01 -2.916444007628e-05 1.015211226432e-02 -4.206581111665e+07 -1.429710001784e+04 -9.072105609965e+06 -2.141895929283e+07 7.895570794544e-06 -1.473918872916e-08 5.730216876001e-04 0.000000000000e+00 2.418562533981e+07 2.887319791437e+07  5.691149812197e-04
1.500000000000e+03 4.545082455935e+06 1.000000000000e+00 5.070749549464e+01 -2.951632862230e-05 1.007872608636e-02 -4.194887041496e+07 -1.429705409652e+04 -9.074028744929e+06 -2.130293138760e+07 7.929474663182e-06 -1.473577743099e-08 5.686406489643e-04 0.000000000000e+00 2.410861018250e+07 2.877983060608e+07  5.647176668531e-04
1.600000000000e+03 4.547643486762e+06 1.000000000000e+00 5.045226663416e+01 -2.982620765684e-05 9.997957146068e-03 -4.182107268689e+07 -1.429701280608e+04 -9.076005073165e+06 -2.117578250029e+07 7.953574462659e-06 -1.473271014092e-08 5.638445695296e-04 0.000000000000e+00 2.402428675345e+07 2.867815632262e+07  5.599101524502e-04
1.700000000000e+03 4.550130780898e+06 1.000000000000e+00 5.017073121983e+01 -3.008704245111e-05 9.908584235649e-03 -4.168057994910e+07 -1.429696532976e+04 -9.078023515355e+06 -2.103563042376e+07 7.966227595125e-06 -1.472918332872e-08 5.585639502629e-04 0.000000000000e+00 2.393141129607e+07 2.856681830651e+07  5.546237467077e-04
1.800000000000e+03 4.552544175035e+06 1.000000000000e+00 4.986060266177e+01 -3.029454139937e-05 9.809870941070e-03 -4.152628482571e+07 -1.429692318504e+04 -9.080078285593e+06 -2.088134091519e+07 7.966436145633e-06 -1.472605257842e-08 5.527568770500e-04 0.000000000000e+00 2.382923467550e+07 2.844504397938e+07  5.488170255344e-04
1.900000000000e+03 4.554883468630e+06 1.000000000000e+00 4.952059342570e+01 -3.044631643609e-05 9.701399491436e-03 -4.135756820339e+07 -1.429688047878e+04 -9.082176841070e+06 -2.071227984666e+07 7.953642429066e-06 -1.472288011307e-08 5.463995195869e-04 0.000000000000e+00 2.371734163037e+07 2.831244727368e+07  5.424664318470e-04
2.000000000000e+03 4.557147800933e+06 1.000000000000e+00 4.915010152781e+01 -3.054124610264e-05 9.582979957520e-03 -4.117413545114e+07 -1.429683718703e+04 -9.084310587232e+06 -2.052814556067e+07 7.927585461666e-06 -1.471966415436e-08 5.394809926785e-04 0.000000000000e+00 2.359553053302e+07 2.816892209200e+07  5.355612075648e-04