 TITLE = "Time curves in points"
 VARIABLES = "TIME"  "PRESSURE1"  "SATURATION1"  "TEMPERATURE1"  "DISPLACEMENT_X1"  "DISPLACEMENT_Y1"  "STRESS_XX"  "STRESS_XY"  "STRESS_YY"  "STRESS_ZZ"  "STRAIN_XX"  "STRAIN_XY"  "STRAIN_YY"  "STRAIN_PLS"  p_(1st_Invariant)  q_(2nd_Invariant)   Effective_Strain
 ZONE T="POINT=POINT2"
0.000000000000e+00 -7.000000000000e+07 8.894919982500e-01 2.500000000000e+01 0.000000000000e+00 0.000000000000e+00 0.000000000000e+00 0.000000000000e+00 0.000000000000e+00 0.000000000000e+00 0.000000000000e+00 0.000000000000e+00 0.000000000000e+00 0.000000000000e+00 -0.000000000000e+00 0.000000000000e+00  0.000000000000e+00
1.000000000000e-03 -6.999999537629e+07 6.684760111000e-01 3.309918126187e+01 0.000000000000e+00 9.512673560400e-05 6.208780558521e+06 7.492678792453e+05 -9.024425273070e+06 -1.022653186053e+06 -6.056015673943e-06 -6.011051079829e-04 -7.691592408170e-03 0.000000000000e+00 1.279432633534e+06 1.326161688052e+07  7.758739079070e-03
2.000000000000e-03 -7.015897578459e+07 6.679155799843e-01 3.680473134945e+01 0.000000000000e+00 9.492327192873e-05 6.139814093238e+06 7.469685218364e+05 -9.098493237799e+06 -1.071164882638e+06 -6.745292986142e-06 -6.016085060897e-04 -7.712489392230e-03 0.000000000000e+00 1.343281342399e+06 1.326631072422e+07  7.779223194345e-03
3.000000000000e-03 -7.037098650729e+07 6.671689082400e-01 3.938013025327e+01 0.000000000000e+00 9.458107913734e-05 6.060052977046e+06 7.443307477276e+05 -9.189235724281e+06 -1.126996401837e+06 -7.771063779583e-06 -6.032840895446e-04 -7.751365864837e-03 0.000000000000e+00 1.418726383024e+06 1.327626372771e+07  7.817630835462e-03
4.000000000000e-03 -7.061767524146e+07 6.663004329090e-01 4.141323958417e+01 0.000000000000e+00 9.410290587648e-05 5.973368711065e+06 7.414947619969e+05 -9.290557090792e+06 -1.187671484438e+06 -8.993017045757e-06 -6.056204548555e-04 -7.800602720031e-03 0.000000000000e+00 1.501619954722e+06 1.328953666627e+07  7.866362636117e-03
1.000000000000e-02 -7.212436482483e+07 6.610102021796e-01 4.814029802963e+01 0.000000000000e+00 9.116980864334e-05 5.485967652208e+06 7.271856425549e+05 -9.885953498676e+06 -1.531750077035e+06 -1.650218562028e-05 -6.229918680267e-04 -8.127882011649e-03 0.000000000000e+00 1.977245307835e+06 1.338861140221e+07  8.191029672919e-03
2.000000000000e-02 -7.521838563687e+07 6.501913437855e-01 5.432126500020e+01 0.000000000000e+00 8.904664484256e-05 4.608574394218e+06 7.080383009137e+05 -1.103526246213e+07 -2.169217270365e+06 -3.075316372405e-05 -6.639005370087e-04 -8.815819380202e-03 0.000000000000e+00 2.865301779425e+06 1.364336392156e+07  8.875291236561e-03
3.000000000000e-02 -7.885304092398e+07 6.375370043135e-01 5.823714945203e+01 0.000000000000e+00 8.907303197894e-05 3.698451348320e+06 6.977488531821e+05 -1.231319727481e+07 -2.855161586387e+06 -4.570184968045e-05 -7.161201002208e-04 -9.613922610258e-03 0.000000000000e+00 3.823302504291e+06 1.399461135553e+07  9.671024070022e-03
4.000000000000e-02 -8.260241584029e+07 6.245444252302e-01 6.095064126626e+01 0.000000000000e+00 9.143328423556e-05 2.860635593071e+06 6.993852591252e+05 -1.357371621710e+07 -3.512721917629e+06 -5.939264866212e-05 -7.737902889360e-04 -1.042298289432e-02 0.000000000000e+00 4.741934180554e+06 1.440253536913e+07  1.047947067245e-02
5.000000000000e-02 -8.623994819307e+07 6.178036288263e-01 6.295230685316e+01 0.000000000000e+00 9.476356367832e-05 1.727607325667e+06 6.859149380404e+05 -1.511379468103e+07 -4.351665207228e+06 -7.902514603486e-05 -8.342803974438e-04 -1.137966662071e-02 0.000000000000e+00 5.912617520864e+06 1.481952567906e+07  1.143205357319e-02
6.000000000000e-02 -8.968090111042e+07 6.112977131777e-01 6.450102498318e+01 0.000000000000e+00 1.004124588724e-04 7.583488694373e+05 6.875129206977e+05 -1.656402999785e+07 -5.112375878311e+06 -9.490700762868e-05 -8.990796698884e-04 -1.229935655977e-02 0.000000000000e+00 6.972685668906e+06 1.530533640362e+07  1.235074559514e-02
7.000000000000e-02 -9.292391854210e+07 6.047947279057e-01 6.575111877855e+01 0.000000000000e+00 1.060877153361e-04 -4.819946480431e+04 7.059195185007e+05 -1.791271593751e+07 -5.791442964013e+06 -1.070846578532e-04 -9.680501065240e-04 -1.317523729195e-02 0.000000000000e+00 7.917452788777e+06 1.584362627987e+07  1.322871278968e-02
8.000000000000e-02 -9.597683604977e+07 5.987103802504e-01 6.679366304146e+01 0.000000000000e+00 1.125644901121e-04 -7.545068973202e+05 7.364601925370e+05 -1.918966038533e+07 -6.417406500956e+06 -1.166288283752e-04 -1.039900636039e-03 -1.401832778369e-02 0.000000000000e+00 8.787191261202e+06 1.640591397980e+07  1.407609160910e-02
9.000000000000e-02 -9.886345684560e+07 5.929822638152e-01 6.768828373113e+01 0.000000000000e+00 1.184447813891e-04 -1.398408516441e+06 7.690013769996e+05 -2.038371371754e+07 -6.997852125754e+06 -1.251768552809e-04 -1.108941888469e-03 -1.481291076519e-02 0.000000000000e+00 9.593324786580e+06 1.694882077866e+07  1.487524847965e-02
1.000000000000e-01 -1.016032052367e+08 5.873456081412e-01 6.846871724032e+01 0.000000000000e+00 1.236972619691e-04 -1.978875384698e+06 8.020993317297e+05 -2.148139103648e+07 -7.528047949874e+06 -1.336650045170e-04 -1.173365728583e-03 -1.555032646129e-02 0.000000000000e+00 1.032943812368e+07 1.745991689880e+07  1.561673289547e-02
2.000000000000e-01 -1.181504266330e+08 5.520553472259e-01 7.270597960228e+01 0.000000000000e+00 2.167444730366e-04 -5.168263555534e+06 1.016494785484e+06 -2.758819592851e+07 -1.046795746221e+07 -1.896705814588e-04 -1.537800012454e-03 -1.977081238420e-02 0.000000000000e+00 1.440813898208e+07 2.037206737360e+07  1.985612103143e-02
3.000000000000e-01 -1.336338687182e+08 5.238622948540e-01 7.551347198192e+01 0.000000000000e+00 3.251047867096e-04 -8.256391796276e+06 1.128748713181e+06 -3.270276529514e+07 -1.305441944212e+07 -2.514308396359e-04 -1.805311492280e-03 -2.327338538262e-02 0.000000000000e+00 1.800452551118e+07 2.252052600675e+07  2.335892734181e-02
4.000000000000e-01 -1.468337322116e+08 5.053221804776e-01 7.753845301290e+01 0.000000000000e+00 4.293421825982e-04 -1.095469040433e+07 1.231781815570e+06 -3.722446709593e+07 -1.533388123541e+07 -2.997088684145e-04 -2.043530848583e-03 -2.636483973107e-02 0.000000000000e+00 2.117101291189e+07 2.447018540720e+07  2.645412780941e-02
5.000000000000e-01 -1.576243753576e+08 4.899377916938e-01 7.910019667414e+01 0.000000000000e+00 5.307806581816e-04 -1.296277036002e+07 1.326058682458e+06 -4.066823909981e+07 -1.705598765919e+07 -3.333008975929e-04 -2.232951888057e-03 -2.874904869018e-02 0.000000000000e+00 2.356233237301e+07 2.600419614043e+07  2.884432403001e-02
6.000000000000e-01 -1.663707293409e+08 4.767886005158e-01 8.034131042319e+01 0.000000000000e+00 6.298093496739e-04 -1.446633843405e+07 1.398130703712e+06 -4.320812629023e+07 -1.833278121759e+07 -3.621836515394e-04 -2.371787153411e-03 -3.052531704472e-02 0.000000000000e+00 2.533574864729e+07 2.712518348545e+07  3.062264700822e-02
7.000000000000e-01 -1.732967202213e+08 4.680998996021e-01 8.134433145431e+01 0.000000000000e+00 7.264810565377e-04 -1.585877866115e+07 1.441360993722e+06 -4.538560625409e+07 -1.945894295754e+07 -3.888998607712e-04 -2.483240336513e-03 -3.201977458588e-02 0.000000000000e+00 2.690110929093e+07 2.801295887123e+07  3.211641588752e-02
8.000000000000e-01 -1.786683186338e+08 4.623781821005e-01 8.216159986681e+01 0.000000000000e+00 8.209692350178e-04 -1.706692228236e+07 1.470618346582e+06 -4.720980183760e+07 -2.041536516523e+07 -4.124388173671e-04 -2.572365140327e-03 -3.325940317229e-02 0.000000000000e+00 2.823069642840e+07 2.872910896755e+07  3.335403608996e-02
9.000000000000e-01 -1.827329758634e+08 4.580426491775e-01 8.284030380263e+01 0.000000000000e+00 9.132624080064e-04 -1.803931196868e+07 1.492587525136e+06 -4.862576444815e+07 -2.116825552632e+07 -4.312993244102e-04 -2.640542254200e-03 -3.422119794180e-02 0.000000000000e+00 2.927777731439e+07 2.926263030197e+07  3.431376135481e-02
1.000000000000e+00 -1.857446701905e+08 4.548262814089e-01 8.340750001222e+01 0.000000000000e+00 1.003371782464e-03 -1.879622706141e+07 1.516820862277e+06 -4.976185637580e+07 -2.176558709542e+07 -4.447748512873e-04 -2.699473261459e-03 -3.499663501014e-02 0.000000000000e+00 3.010789017754e+07 2.970928192196e+07  3.508928798418e-02
2.000000000000e+00 -1.865346167221e+08 4.540267026282e-01 8.537368214519e+01 0.000000000000e+00 1.751586818542e-03 -2.151862420387e+07 1.545439440746e+06 -5.291377201861e+07 -2.361219847844e+07 -4.866700926470e-04 -2.853497517369e-03 -3.706054081051e-02 0.000000000000e+00 3.268153156697e+07 3.052008248574e+07  3.714985357120e-02
3.000000000000e+00 -1.779756207739e+08 4.632179882584e-01 8.594055529762e+01 0.000000000000e+00 2.386888085166e-03 -2.245989545818e+07 1.519185021291e+06 -5.327954600378e+07 -2.401742374581e+07 -4.957689699342e-04 -2.867659166622e-03 -3.721439338858e-02 0.000000000000e+00 3.325228840259e+07 3.018605714509e+07  3.730117327863e-02
4.000000000000e+00 -1.659453116109e+08 4.777255360440e-01 8.593358546599e+01 0.000000000000e+00 2.940176092628e-03 -2.258437997917e+07 1.472516186172e+06 -5.242499843638e+07 -2.378076518471e+07 -4.877473340050e-04 -2.821081558100e-03 -3.653206299127e-02 0.000000000000e+00 3.293004786675e+07 2.937171913216e+07  3.661811861637e-02
5.000000000000e+00 -1.534804879174e+08 4.962754144721e-01 8.574019208264e+01 0.000000000000e+00 3.430419992474e-03 -2.260694439703e+07 1.393558658279e+06 -5.126655347771e+07 -2.341515987599e+07 -4.806746715754e-04 -2.745120351074e-03 -3.560476206949e-02 0.000000000000e+00 3.242955258358e+07 2.836704571223e+07  3.568505121302e-02
6.000000000000e+00 -1.417531265737e+08 5.128625748412e-01 8.559243042605e+01 0.000000000000e+00 3.872869936540e-03 -2.225244794777e+07 1.317912192790e+06 -4.960023867387e+07 -2.277103097175e+07 -4.679600046704e-04 -2.645715052472e-03 -3.437500701860e-02 0.000000000000e+00 3.154123919780e+07 2.718821736674e+07  3.444957750200e-02
7.000000000000e+00 -1.313745203331e+08 5.275460236307e-01 8.532214757414e+01 0.000000000000e+00 4.275127504200e-03 -2.166005995954e+07 1.275384088445e+06 -4.790477580169e+07 -2.204605317971e+07 -4.501358942917e-04 -2.559177978526e-03 -3.316979523711e-02 0.000000000000e+00 3.053696298031e+07 2.614734464033e+07  3.324387460465e-02
8.000000000000e+00 -1.218730965058e+08 5.455279984103e-01 8.524103800531e+01 0.000000000000e+00 4.277531109313e-03 -2.126534569073e+07 1.230862466327e+06 -4.638370642694e+07 -2.143806866293e+07 -4.369674620508e-04 -2.473848177968e-03 -3.204263866176e-02 0.000000000000e+00 2.969570692686e+07 2.512306566901e+07  3.211354569182e-02
9.000000000000e+00 -1.135456729218e+08 5.638272280988e-01 8.515896296113e+01 0.000000000000e+00 4.991851029099e-03 -2.107292121094e+07 1.173920031862e+06 -4.542971988994e+07 -2.107613304412e+07 -4.228098748062e-04 -2.418267221066e-03 -3.129993431445e-02 0.000000000000e+00 2.919292471500e+07 2.443991994576e+07  3.137156011466e-02
1.000000000000e+01 -1.059793822877e+08 5.802612859194e-01 8.507174886468e+01 0.000000000000e+00 5.315872313370e-03 -2.078143036502e+07 1.112420418840e+06 -4.413267662128e+07 -2.057182929137e+07 -4.131884745762e-04 -2.338145910407e-03 -3.032993852951e-02 0.000000000000e+00 2.849531209255e+07 2.353574979009e+07  3.039645857299e-02
1.100000000000e+01 -9.909822278868e+07 5.940697227419e-01 8.503712468801e+01 0.000000000000e+00 5.615561839782e-03 -2.034116550448e+07 1.053074924169e+06 -4.266449156207e+07 -1.996660011440e+07 -4.059628686587e-04 -2.249075587286e-03 -2.926606691821e-02 0.000000000000e+00 2.765741906032e+07 2.258671359948e+07  2.932510128241e-02
1.200000000000e+01 -9.295714347300e+07 6.064074935913e-01 8.500709528553e+01 0.000000000000e+00 5.899016058693e-03 -1.988312723436e+07 1.001339249440e+06 -4.124431715653e+07 -1.937104208950e+07 -3.976806012063e-04 -2.165948406979e-03 -2.824400259466e-02 0.000000000000e+00 2.683282882680e+07 2.169122990980e+07  2.829706235637e-02
1.300000000000e+01 -8.732663346282e+07 6.177177513091e-01 8.495626091682e+01 0.000000000000e+00 5.851261660045e-03 -1.926365007767e+07 9.757528426365e+05 -4.026772745427e+07 -1.887175622703e+07 -3.763151176692e-04 -2.132402260461e-03 -2.755756410427e-02 0.000000000000e+00 2.613437791966e+07 2.126999052243e+07  2.761941423440e-02
1.400000000000e+01 -8.200086832566e+07 6.338216838700e-01 8.486705899045e+01 0.000000000000e+00 6.418530394485e-03 -1.896316607433e+07 9.446276595384e+05 -3.889833442952e+07 -1.834088279338e+07 -3.731165195657e-04 -2.047112110527e-03 -2.654195838756e-02 0.000000000000e+00 2.540079443241e+07 2.031946013179e+07  2.659480272210e-02
1.500000000000e+01 -7.695663930580e+07 6.518493209411e-01 8.476324830987e+01 0.000000000000e+00 6.656999398056e-03 -1.869915966174e+07 9.064308994569e+05 -3.795276869490e+07 -1.796019009550e+07 -3.637620414462e-04 -1.991146834156e-03 -2.581287790611e-02 0.000000000000e+00 2.487070615071e+07 1.969619808145e+07  2.586389840301e-02
1.600000000000e+01 -7.222795109157e+07 6.687652472325e-01 8.464730283071e+01 0.000000000000e+00 6.882111033752e-03 -1.836536514089e+07 8.694564194313e+05 -3.691914180027e+07 -1.752948773182e+07 -3.532401779623e-04 -1.931640976056e-03 -2.503435602479e-02 0.000000000000e+00 2.427133155766e+07 1.904515333431e+07  2.508374633908e-02
1.700000000000e+01 -6.776362447091e+07 6.847516250674e-01 8.451638150917e+01 0.000000000000e+00 7.104127551727e-03 -1.799125566435e+07 8.320167442375e+05 -3.569613761609e+07 -1.702451405100e+07 -3.452956028796e-04 -1.858253079965e-03 -2.412932795327e-02 0.000000000000e+00 2.357063577714e+07 1.826445279778e+07  2.417377213458e-02
1.800000000000e+01 -6.352441126970e+07 6.999404084972e-01 8.436963674590e+01 0.000000000000e+00 7.296925830560e-03 -1.755443069375e+07 7.932220346733e+05 -3.464556753520e+07 -1.655677740469e+07 -3.312835519785e-04 -1.802309502877e-03 -2.335371863335e-02 0.000000000000e+00 2.291892521121e+07 1.766467953547e+07  2.339902088912e-02
1.900000000000e+01 -5.947137302226e+07 7.144609255701e-01 8.420550246259e+01 0.000000000000e+00 7.488017745161e-03 -1.709507312546e+07 7.525290757083e+05 -3.341158369155e+07 -1.602215899902e+07 -3.200316418834e-04 -1.731662626687e-03 -2.245398611830e-02 0.000000000000e+00 2.217627193867e+07 1.692881497583e+07  2.249653069178e-02
2.000000000000e+01 -5.570661854689e+07 7.279403863319e-01 8.402769637504e+01 0.000000000000e+00 7.670608482905e-03 -1.662272026799e+07 7.114613824487e+05 -3.216629392439e+07 -1.547955909727e+07 -3.089622305401e-04 -1.660437667544e-03 -2.155198748613e-02 0.000000000000e+00 2.142285776322e+07 1.619249336046e+07  2.159157316824e-02
2.100000000000e+01 -5.208363362654e+07 7.403246127136e-01 8.393963706186e+01 0.000000000000e+00 7.843681164587e-03 -1.609483860661e+07 6.701164263648e+05 -3.084447554979e+07 -1.489516578220e+07 -2.982084175658e-04 -1.585055797488e-03 -2.060486895745e-02 0.000000000000e+00 2.061149331287e+07 1.542831525237e+07  2.064079003555e-02
2.200000000000e+01 -4.869858971457e+07 7.518073494086e-01 8.385005085335e+01 0.000000000000e+00 8.009381709140e-03 -1.557362432717e+07 6.295784406759e+05 -2.954774767569e+07 -1.432053907609e+07 -2.875347654626e-04 -1.511446872043e-03 -1.967731426224e-02 0.000000000000e+00 1.981397035965e+07 1.468149246193e+07  1.970976600105e-02
2.300000000000e+01 -4.556372519387e+07 7.623569490620e-01 8.375183854193e+01 0.000000000000e+00 8.168582702017e-03 -1.504079592273e+07 5.947121735449e+05 -2.829438854899e+07 -1.375616320203e+07 -2.763276486780e-04 -1.442659862989e-03 -1.878660710146e-02 0.000000000000e+00 1.903044922458e+07 1.397837777400e+07  1.881662846601e-02
2.400000000000e+01 -4.249966766860e+07 7.735265803632e-01 8.363904692081e+01 0.000000000000e+00 8.320252596178e-03 -1.448639425702e+07 5.611466435592e+05 -2.703482916652e+07 -1.318354266808e+07 -2.643763693161e-04 -1.374307410235e-03 -1.789158295625e-02 0.000000000000e+00 1.823492203054e+07 1.328360064019e+07  1.791967316597e-02
2.500000000000e+01 -3.946992333216e+07 7.878662713921e-01 8.350995328388e+01 0.000000000000e+00 8.465002810528e-03 -1.397541177346e+07 5.249061713940e+05 -2.582109164089e+07 -1.264025201993e+07 -2.530151721001e-04 -1.305872095921e-03 -1.701366360234e-02 0.000000000000e+00 1.747891847809e+07 1.259941417556e+07  1.703936491244e-02
2.600000000000e+01 -3.648795466928e+07 8.025711743269e-01 8.336809727694e+01 0.000000000000e+00 8.603293738698e-03 -1.343087765727e+07 4.883183572715e+05 -2.455619713513e+07 -1.207042301557e+07 -2.412531375894e-04 -1.234701563781e-03 -1.610257342718e-02 0.000000000000e+00 1.668583260266e+07 1.189430230382e+07  1.612574778255e-02
2.700000000000e+01 -3.356096686395e+07 8.175875719457e-01 8.321341878403e+01 0.000000000000e+00 8.735339732143e-03 -1.285698932612e+07 4.510702916010e+05 -2.324443915881e+07 -1.147667195342e+07 -2.290970007824e-04 -1.160920056855e-03 -1.516099748640e-02 0.000000000000e+00 1.585936681278e+07 1.116927753984e+07  1.518150840004e-02
2.800000000000e+01 -3.067654729616e+07 8.329529079313e-01 8.304585345929e+01 0.000000000000e+00 8.861418557065e-03 -1.225134736053e+07 4.130273365004e+05 -2.188119079713e+07 -1.085679515829e+07 -2.164783722591e-04 -1.084313605898e-03 -1.418603070387e-02 0.000000000000e+00 1.499644443865e+07 1.042208014611e+07  1.420375193986e-02
2.900000000000e+01 -2.782238067274e+07 8.487208685209e-01 8.286538398550e+01 0.000000000000e+00 8.981742910809e-03 -1.161024529992e+07 3.740991318499e+05 -2.045648291326e+07 -1.020647084114e+07 -2.034524695467e-04 -1.004222658144e-03 -1.317126961139e-02 0.000000000000e+00 1.409106635144e+07 9.646993082927e+06  1.318595458036e-02
3.000000000000e+01 -2.498527441125e+07 8.648790508043e-01 8.267204417553e+01 0.000000000000e+00 9.096257824762e-03 -1.092634642953e+07 3.342195267580e+05 -1.896063800154e+07 -9.520353434417e+06 -1.898883571984e-04 -9.202609492206e-04 -1.211095590321e-02 0.000000000000e+00 1.313577928850e+07 8.840696981206e+06  1.212238514490e-02
3.100000000000e+01 -2.214935203253e+07 8.814778524463e-01 8.255052625710e+01 0.000000000000e+00 9.206952150111e-03 -1.019476606684e+07 2.933002844479e+05 -1.738279249983e+07 -8.793575658528e+06 -1.757629720652e-04 -8.317966019267e-04 -1.099768246527e-02 0.000000000000e+00 1.212371140840e+07 7.997557591216e+06  1.100557057286e-02
3.200000000000e+01 -1.935151508592e+07 8.982243707391e-01 8.242766310301e+01 0.000000000000e+00 9.313672018467e-03 -9.431097162522e+06 2.517955385231e+05 -1.574994764219e+07 -8.039384709992e+06 -1.613340294846e-04 -7.403705827996e-04 -9.850332554686e-03 0.000000000000e+00 1.107347650490e+07 7.130845729146e+06  9.854457471814e-03
3.300000000000e+01 -1.652325634416e+07 9.153678345734e-01 8.229794235195e+01 0.000000000000e+00 9.416503785996e-03 -8.603749329994e+06 2.093449852492e+05 -1.401018476997e+07 -7.231554086906e+06 -1.462026482892e-04 -6.434057805473e-04 -8.635659107081e-03 0.000000000000e+00 9.948496062291e+06 6.217927702470e+06  8.635701488138e-03
3.400000000000e+01 -1.363663852466e+07 9.328905560143e-01 8.215991185165e+01 0.000000000000e+00 9.515308854671e-03 -7.693989392458e+06 1.660511645765e+05 -1.213521724762e+07 -6.355278220960e+06 -1.301239960731e-04 -5.396706577458e-04 -7.336234038982e-03 0.000000000000e+00 8.728161620347e+06 5.248322853525e+06  7.331873928014e-03
3.500000000000e+01 -1.065695042838e+07 9.506820782492e-01 8.201296691195e+01 0.000000000000e+00 9.610526857834e-03 -6.686651604639e+06 1.218901146458e+05 -1.009625948054e+07 -5.396607893487e+06 -1.130788707275e-04 -4.277483489085e-04 -5.934172016032e-03 0.000000000000e+00 7.393172992888e+06 4.211027599295e+06  5.924952390237e-03
3.600000000000e+01 -7.548471815086e+06 9.684051310537e-01 8.185688150224e+01 0.000000000000e+00 9.701861785885e-03 -5.562509034434e+06 7.721644761171e+04 -7.866458991694e+06 -4.340892428569e+06 -9.450601578132e-05 -3.070326798869e-04 -4.413747388191e-03 0.000000000000e+00 5.923286818232e+06 3.103701532606e+06  4.399520304876e-03
3.700000000000e+01 -4.219404164602e+06 9.854150811584e-01 8.169151112141e+01 0.000000000000e+00 9.785715459191e-03 -4.298181132745e+06 3.033483290653e+04 -5.382619802454e+06 -3.160149444674e+06 -7.434763049907e-05 -1.739721119785e-04 -2.733106250631e-03 0.000000000000e+00 4.280316793291e+06 1.925619258207e+06  2.713484155289e-03
3.800000000000e+01 2.090572323719e+06 1.000000000000e+00 8.151767971102e+01 0.000000000000e+00 9.775578247636e-03 -2.376548782189e+06 -7.707654215374e+04 -1.032735743236e+06 -1.170280388420e+06 -4.080032253369e-05 6.167286595550e-05 2.323606507687e-04 0.000000000000e+00 1.526521637948e+06 1.287532564828e+06  2.766715652638e-04
3.900000000000e+01 2.140131954939e+06 1.000000000000e+00 8.133875654839e+01 0.000000000000e+00 9.966360139302e-03 -2.431889018919e+06 -7.745907962199e+04 -1.106557018920e+06 -1.210695329669e+06 -4.046352006750e-05 5.657892582982e-05 1.828782724546e-04 0.000000000000e+00 1.583047122503e+06 1.283484160156e+06  2.282217828863e-04
4.000000000000e+01 2.169517858748e+06 1.000000000000e+00 8.114888591526e+01 0.000000000000e+00 9.968285718733e-03 -2.439955953309e+06 -7.782831281471e+04 -1.052819201356e+06 -1.195309316450e+06 -4.160491000566e-05 6.105606136436e-05 2.203918226208e-04 0.000000000000e+00 1.562694823705e+06 1.328521834562e+06  2.658127796943e-04
4.200000000000e+01 2.226801110672e+06 1.000000000000e+00 8.087411890793e+01 0.000000000000e+00 1.018159749358e-02 -2.457656385556e+06 -7.882193709522e+04 -1.095924226091e+06 -1.214363823271e+06 -4.112110594671e-05 5.763172800501e-05 1.893351383298e-04 0.000000000000e+00 1.589314811639e+06 1.313658287824e+06  2.351354045265e-04
4.400000000000e+01 2.282566763235e+06 1.000000000000e+00 8.057884092811e+01 0.000000000000e+00 1.018209974603e-02 -2.471124614837e+06 -7.961245543069e+04 -1.031797177790e+06 -1.197062408953e+06 -4.250187630144e-05 6.295623766429e-05 2.340699274877e-04 0.000000000000e+00 1.566661400527e+06 1.371174575043e+06  2.800607347161e-04
5.000000000000e+01 2.434088944890e+06 1.000000000000e+00 7.938389004357e+01 0.000000000000e+00 1.058600274979e-02 -2.514306751627e+06 -8.206602047835e+04 -1.072384276792e+06 -1.221828917167e+06 -4.242953058033e-05 5.951818764888e-05 2.006855300969e-04 0.000000000000e+00 1.602839981862e+06 1.380648772651e+06  2.474210659480e-04
6.500000000000e+01 2.765473840046e+06 1.000000000000e+00 7.672160570615e+01 0.000000000000e+00 1.105010892543e-02 -2.595457772201e+06 -8.725557454097e+04 -1.037031656482e+06 -1.231355233885e+06 -4.398677578613e-05 6.166071380263e-05 2.149540078979e-04 0.000000000000e+00 1.621281554189e+06 1.478666723380e+06  2.626810358308e-04
8.000000000000e+01 3.020526535888e+06 1.000000000000e+00 7.427524849798e+01 0.000000000000e+00 1.127028267377e-02 -2.652063084056e+06 -9.123315714727e+04 -1.012445482584e+06 -1.237332193683e+06 -4.485229599366e-05 6.254945538161e-05 2.211732754229e-04 0.000000000000e+00 1.633946920108e+06 1.547631147567e+06  2.694193358651e-04
1.000000000000e+02 3.321207027926e+06 1.000000000000e+00 7.180475286864e+01 0.000000000000e+00 1.145452883140e-02 -2.720467637161e+06 -9.592255859229e+04 -9.896139738184e+05 -1.247347066160e+06 -4.567924483394e-05 6.327247521539e-05 2.271270876608e-04 0.000000000000e+00 1.652476225713e+06 1.625972292350e+06  2.757870910017e-04
1.860000000000e+02 3.919688640947e+06 1.000000000000e+00 6.658180939414e+01 0.000000000000e+00 1.167336949811e-02 -2.846652577629e+06 -1.052733584971e+05 -9.425871021813e+05 -1.263420780316e+06 -4.689659561131e-05 6.417379573307e-05 2.375770454707e-04 0.000000000000e+00 1.684220153376e+06 1.775037659868e+06  2.865981961193e-04
2.720000000000e+02 4.210009317830e+06 1.000000000000e+00 6.332445494308e+01 0.000000000000e+00 1.150501279995e-02 -2.899634202228e+06 -1.097554254836e+05 -9.291924209808e+05 -1.270991430207e+06 -4.685400163279e-05 6.290796716181e-05 2.308617312609e-04 0.000000000000e+00 1.699939351139e+06 1.833606033938e+06  2.796094944034e-04
3.580000000000e+02 4.351375004859e+06 1.000000000000e+00 6.119532556628e+01 0.000000000000e+00 1.132898369864e-02 -2.918129009143e+06 -1.119292116614e+05 -9.215959454965e+05 -1.271519919881e+06 -4.657392228335e-05 6.174731135889e-05 2.243372975529e-04 0.000000000000e+00 1.703748291507e+06 1.856755428895e+06  2.727321259988e-04
4.440000000000e+02 4.423504654173e+06 1.000000000000e+00 5.963761514343e+01 0.000000000000e+00 1.116432043227e-02 -2.921898985843e+06 -1.130276188470e+05 -9.171054561726e+05 -1.269354578406e+06 -4.623138658921e-05 6.068912360356e-05 2.179915033793e-04 0.000000000000e+00 1.702786340140e+06 1.864246632692e+06  2.660548727025e-04
5.300000000000e+02 4.462467967361e+06 1.000000000000e+00 5.847322562843e+01 0.000000000000e+00 1.102162985819e-02 -2.920053626356e+06 -1.136130651009e+05 -9.144141786955e+05 -1.266567342072e+06 -4.590433238940e-05 5.978307264549e-05 2.123891377363e-04 0.000000000000e+00 1.700345049041e+06 1.865216597098e+06  2.601691420208e-04
6.160000000000e+02 4.484982194127e+06 1.000000000000e+00 5.760610189971e+01 0.000000000000e+00 1.090337747267e-02 -2.916653492423e+06 -1.139458363644e+05 -9.129181657729e+05 -1.264055285178e+06 -4.562255982444e-05 5.903698908171e-05 2.076921548906e-04 0.000000000000e+00 1.697875647791e+06 1.863764375160e+06  2.552430119888e-04
7.020000000000e+02 4.498785226281e+06 1.000000000000e+00 5.697669349298e+01 0.000000000000e+00 1.090033781451e-02 -2.913101660726e+06 -1.142834536851e+05 -9.802419477301e+05 -1.284277799874e+06 -4.412736393823e-05 5.281132055795e-05 1.556856995360e-04 0.000000000000e+00 1.725873802777e+06 1.811051612449e+06  2.035248573240e-04
7.880000000000e+02 4.508409989778e+06 1.000000000000e+00 5.650296291044e+01 0.000000000000e+00 1.073093469513e-02 -2.910813240787e+06 -1.142829296738e+05 -9.123237537256e+05 -1.260835815995e+06 -4.520876540818e-05 5.794857838613e-05 2.006765659479e-04 0.000000000000e+00 1.694657603502e+06 1.859598063810e+06  2.479140367025e-04
8.740000000000e+02 4.516798931167e+06 1.000000000000e+00 5.570721289740e+01 0.000000000000e+00 1.061539267329e-02 -2.903869298816e+06 -1.143971352954e+05 -9.108649939732e+05 -1.257366952479e+06 -4.491356139391e-05 5.723150994971e-05 1.960989471813e-04 0.000000000000e+00 1.690700415089e+06 1.854942043602e+06  2.431169767408e-04
9.370000000000e+02 4.522168025011e+06 1.000000000000e+00 5.519188196368e+01 0.000000000000e+00 1.052042500524e-02 -2.899194590385e+06 -1.144668904194e+05 -9.109865404015e+05 -1.255413852674e+06 -4.467744712177e-05 5.665377097853e-05 1.923880317684e-04 0.000000000000e+00 1.688531661154e+06 1.850977113735e+06  2.392354164071e-04
1.000000000000e+03 4.526359979205e+06 1.000000000000e+00 5.480037786924e+01 0.000000000000e+00 1.044091366135e-02 -2.895406354323e+06 -1.145219730736e+05 -9.112299127191e+05 -1.253907704671e+06 -4.447863574037e-05 5.618526189299e-05 1.894558178012e-04 0.000000000000e+00 1.686847990571e+06 1.847646304251e+06  2.361544901264e-04
1.100000000000e+03 4.530508736538e+06 1.000000000000e+00 5.441729858152e+01 0.000000000000e+00 1.035773061801e-02 -2.891553486248e+06 -1.145765711597e+05 -9.116219890084e+05 -1.252439954412e+06 -4.427035476896e-05 5.570294788477e-05 1.864746331572e-04 0.000000000000e+00 1.685205143223e+06 1.844145538387e+06  2.330158932282e-04
1.200000000000e+03 4.533769006331e+06 1.000000000000e+00 5.407980818416e+01 0.000000000000e+00 1.028860319118e-02 -2.888165924140e+06 -1.146185720709e+05 -9.118351205156e+05 -1.251106411944e+06 -4.409707835466e-05 5.529691243064e-05 1.839347619593e-04 0.000000000000e+00 1.683702485533e+06 1.841164957763e+06  2.303492569118e-04
1.300000000000e+03 4.536674468334e+06 1.000000000000e+00 5.375342298412e+01 0.000000000000e+00 1.022280738923e-02 -2.884852195918e+06 -1.146553174535e+05 -9.120067145222e+05 -1.249794510049e+06 -4.393201093600e-05 5.490899798358e-05 1.814974239428e-04 0.000000000000e+00 1.682217806830e+06 1.838274812876e+06  2.277934974378e-04
1.400000000000e+03 4.539414117052e+06 1.000000000000e+00 5.342073505839e+01 0.000000000000e+00 1.015482240558e-02 -2.881392871493e+06 -1.146892536255e+05 -9.122101168663e+05 -1.248442252928e+06 -4.376139939971e-05 5.450937064696e-05 1.789868668656e-04 0.000000000000e+00 1.680681747096e+06 1.835235985166e+06  2.251619168975e-04
1.500000000000e+03 4.542053790366e+06 1.000000000000e+00 5.307167403444e+01 0.000000000000e+00 1.008142805796e-02 -2.877648592535e+06 -1.147211003249e+05 -9.124886661693e+05 -1.247010388882e+06 -4.357718220976e-05 5.408060167248e-05 1.762996669003e-04 0.000000000000e+00 1.679049215862e+06 1.831898585556e+06  2.223450482883e-04
1.600000000000e+03 4.544615031972e+06 1.000000000000e+00 5.270009877011e+01 0.000000000000e+00 1.000065030888e-02 -2.873528752737e+06 -1.147510071100e+05 -9.128687762405e+05 -1.245473307238e+06 -4.337439139327e-05 5.361201105338e-05 1.733722793802e-04 0.000000000000e+00 1.677290278739e+06 1.828166378218e+06  2.192759571325e-04
1.700000000000e+03 4.547102251321e+06 1.000000000000e+00 5.230221775356e+01 0.000000000000e+00 9.911267918334e-03 -2.868975350995e+06 -1.147789239701e+05 -9.133674886533e+05 -1.243814825504e+06 -4.314994565409e-05 5.309694460650e-05 1.701647567656e-04 0.000000000000e+00 1.675385888384e+06 1.823977726786e+06  2.159129890520e-04
1.800000000000e+03 4.549515667578e+06 1.000000000000e+00 5.187574274695e+01 0.000000000000e+00 9.812544421860e-03 -2.863952287331e+06 -1.148047847715e+05 -9.139945601195e+05 -1.242024678864e+06 -4.290197712045e-05 5.253141083620e-05 1.666532758355e-04 0.000000000000e+00 1.673323842105e+06 1.819295041419e+06  2.122317044831e-04
1.900000000000e+03 4.551854727380e+06 1.000000000000e+00 5.141938716692e+01 0.000000000000e+00 9.803636644027e-03 -2.857708301101e+06 -1.150169424767e+05 -1.006785109829e+06 -1.269971398501e+06 -4.089977055195e-05 4.427201839682e-05 9.749738435542e-05 0.000000000000e+00 1.711488269810e+06 1.745775692458e+06  1.450730391068e-04