 TITLE = "Time curves in points"
 VARIABLES = "TIME"  "PRESSURE1"  "SATURATION1"  "TEMPERATURE1"  "DISPLACEMENT_X1"  "DISPLACEMENT_Y1"  "STRESS_XX"  "STRESS_XY"  "STRESS_YY"  "STRESS_ZZ"  "STRAIN_XX"  "STRAIN_XY"  "STRAIN_YY"  "STRAIN_PLS"  p_(1st_Invariant)  q_(2nd_Invariant)   Effective_Strain
 ZONE T="POINT=POINT18"
0.000000000000e+00 1.000000000000e+05 1.000000000000e+00 2.500000000000e+01 0.000000000000e+00 0.000000000000e+00 -3.130685851467e+07 -1.409868786187e+04 -1.352808692198e+07 -1.044743363099e+07 0.000000000000e+00 0.000000000000e+00 0.000000000000e+00 0.000000000000e+00 1.842745968921e+07 1.950246065449e+07  0.000000000000e+00
1.000000000000e-03 3.083650903865e+05 1.000000000000e+00 2.500000000001e+01 -8.662245366448e-05 6.303347330586e-05 -3.055838061535e+07 -1.351249260690e+04 -1.354850571309e+07 -1.022901589854e+07 1.968794905505e-05 4.354593322645e-08 -8.871070875342e-06 0.000000000000e+00 1.811196740899e+07 1.888966678019e+07  2.531738763522e-05
2.000000000000e-03 3.159689363052e+05 1.000000000000e+00 2.499999999998e+01 -8.632252655438e-05 6.240421105671e-05 -3.056028852100e+07 -1.356054670201e+04 -1.354810876726e+07 -1.022946918648e+07 1.963392039713e-05 3.997620044659e-08 -8.839490763942e-06 0.000000000000e+00 1.811262215824e+07 1.889141268916e+07  2.524254502674e-05
3.000000000000e-03 3.211298791958e+05 1.000000000000e+00 2.499999999994e+01 -8.609449682700e-05 6.190705154035e-05 -3.056195846448e+07 -1.358866176052e+04 -1.354821122231e+07 -1.023000090602e+07 1.959164350813e-05 3.788765324318e-08 -8.823546654119e-06 0.000000000000e+00 1.811339019760e+07 1.889269330975e+07  2.519046561409e-05
4.000000000000e-03 3.246441773391e+05 1.000000000000e+00 2.499999999989e+01 -8.590847938840e-05 6.138365571218e-05 -3.056365715793e+07 -1.360816079776e+04 -1.354895988943e+07 -1.023073511417e+07 1.955581976839e-05 3.643915333397e-08 -8.824083701444e-06 0.000000000000e+00 1.811445072051e+07 1.889364137385e+07  2.515672303593e-05
1.000000000000e-02 3.282972272535e+05 1.000000000000e+00 2.499999999993e+01 -8.482614350243e-05 5.856324787898e-05 -3.057639618461e+07 -1.367045653890e+04 -1.355744042387e+07 -1.023710098252e+07 1.931910245875e-05 3.181146970648e-08 -8.902628442233e-06 0.000000000000e+00 1.812364586366e+07 1.889917405335e+07  2.498956462063e-05
2.000000000000e-02 3.209720134637e+05 1.000000000000e+00 2.499999999911e+01 -8.240937326057e-05 5.672189261703e-05 -3.060071390123e+07 -1.373061058723e+04 -1.356495049969e+07 -1.024664932044e+07 1.877052553577e-05 2.734288325921e-08 -8.826921564137e-06 0.000000000000e+00 1.813743790712e+07 1.891451074607e+07  2.441178757711e-05
3.000000000000e-02 3.083467007490e+05 1.000000000000e+00 2.499999998947e+01 -7.952401939318e-05 5.706017488790e-05 -3.062653423014e+07 -1.377142259562e+04 -1.356608635370e+07 -1.025473617897e+07 1.811185377902e-05 2.431113406426e-08 -8.568741396316e-06 0.000000000000e+00 1.814911892094e+07 1.893456119737e+07  2.359364619476e-05
4.000000000000e-02 2.935043077693e+05 1.000000000000e+00 2.499999996592e+01 -7.633502642910e-05 5.973256699509e-05 -3.065213615278e+07 -1.380195960574e+04 -1.356039139409e+07 -1.026070830469e+07 1.738274703575e-05 2.204267045543e-08 -8.135392512627e-06 0.000000000000e+00 1.815774528385e+07 1.895820561176e+07  2.257789701378e-05
5.000000000000e-02 2.781876004411e+05 1.000000000000e+00 2.500000002206e+01 -7.295418187002e-05 6.340832838567e-05 -3.067809834026e+07 -1.382582156987e+04 -1.355155552280e+07 -1.026584640488e+07 1.660928093651e-05 2.027006740629e-08 -7.616359286160e-06 0.000000000000e+00 1.816516675598e+07 1.898388170633e+07  2.145648213775e-05
6.000000000000e-02 2.628169370989e+05 1.000000000000e+00 2.500000066197e+01 -6.945356823778e-05 6.940140183351e-05 -3.070230259562e+07 -1.384468715172e+04 -1.353614624900e+07 -1.026848569509e+07 1.580829651681e-05 1.886862418277e-08 -6.945984051777e-06 0.000000000000e+00 1.816897817990e+07 1.901179308204e+07  2.019787555109e-05
7.000000000000e-02 2.482548195271e+05 1.000000000000e+00 2.500000344144e+01 -6.587153337087e-05 7.541253425659e-05 -3.072708768198e+07 -1.385962654621e+04 -1.352040504055e+07 -1.027120125803e+07 1.498857136124e-05 1.775884059216e-08 -6.260446828155e-06 0.000000000000e+00 1.817289799352e+07 1.904037413850e+07  1.891260336668e-05
8.000000000000e-02 2.351205283323e+05 1.000000000000e+00 2.500001194551e+01 -6.223011482488e-05 8.220962087433e-05 -3.075144971801e+07 -1.387181865762e+04 -1.350244849109e+07 -1.027312891726e+07 1.415529450852e-05 1.685314088728e-08 -5.521890505564e-06 0.000000000000e+00 1.817567570879e+07 1.906986268460e+07  1.757920577880e-05
9.000000000000e-02 2.243279759682e+05 1.000000000000e+00 2.500003296209e+01 -5.854371468043e-05 8.839170392473e-05 -3.077686144422e+07 -1.388206060997e+04 -1.348600557491e+07 -1.027583262642e+07 1.331185387516e-05 1.609231014161e-08 -4.810730136123e-06 0.000000000000e+00 1.817956654852e+07 1.909937493625e+07  1.626004586489e-05
1.000000000000e-01 2.168958661304e+05 1.000000000000e+00 2.500007760999e+01 -5.482771525086e-05 9.392745118526e-05 -3.080323438321e+07 -1.389107950614e+04 -1.347118741068e+07 -1.027932441451e+07 1.246198255623e-05 1.542233499753e-08 -4.130646192780e-06 0.000000000000e+00 1.818458206946e+07 1.912877256674e+07  1.496128341913e-05
2.000000000000e-01 2.305342225030e+05 1.000000000000e+00 2.502667785271e+01 -1.815301513119e-05 1.887324198210e-04 -3.102021456129e+07 -1.394683194040e+04 -1.322435740536e+07 -1.028084922385e+07 4.459354574108e-06 1.128072559508e-08 5.093961208727e-06 0.000000000000e+00 1.817514039683e+07 1.943552435637e+07  4.808210328332e-06
3.000000000000e-01 2.539215367668e+05 1.000000000000e+00 2.509252329034e+01 1.674727290587e-05 2.983914721025e-04 -3.121653808724e+07 -1.396829980030e+04 -1.295949455798e+07 -1.028545176946e+07 -2.661710409520e-06 9.685970288455e-09 1.510267580607e-05 0.000000000000e+00 1.815382813823e+07 1.973045473864e+07  1.659441923256e-05
4.000000000000e-01 2.778424062248e+05 1.000000000000e+00 2.519884269225e+01 4.885300739382e-05 4.038126825390e-04 -3.141006245302e+07 -1.396515842101e+04 -1.273105398205e+07 -1.031486817154e+07 -8.757149061577e-06 9.919329892631e-09 2.468022070318e-05 0.000000000000e+00 1.815199486887e+07 1.999689604985e+07  3.003214312023e-05
5.000000000000e-01 3.006476905570e+05 1.000000000000e+00 2.534048624400e+01 7.779489623938e-05 5.062272716690e-04 -3.159833761252e+07 -1.395304069482e+04 -1.253435885151e+07 -1.036480213028e+07 -1.389553651793e-05 1.081950383790e-08 3.384072973397e-05 0.000000000000e+00 1.816583286477e+07 2.023618614965e+07  4.252665483019e-05
6.000000000000e-01 3.220253455709e+05 1.000000000000e+00 2.551037593212e+01 1.034842076528e-04 6.060825439165e-04 -3.178026006952e+07 -1.394302900593e+04 -1.236497907663e+07 -1.043087281207e+07 -1.819860245453e-05 1.156322929864e-08 4.258603240985e-05 0.000000000000e+00 1.819203731941e+07 2.045105627825e+07  5.403485877449e-05
7.000000000000e-01 3.420511580479e+05 1.000000000000e+00 2.570176350101e+01 1.260309098782e-04 7.035622753793e-04 -3.195550267179e+07 -1.394019451007e+04 -1.221881554570e+07 -1.050925010472e+07 -2.179645681181e-05 1.177379184825e-08 5.092612014322e-05 0.000000000000e+00 1.822785610740e+07 2.064464031964e+07  6.464181801707e-05
8.000000000000e-01 3.610103644069e+05 1.000000000000e+00 2.590902647514e+01 1.456355398736e-04 7.988316012916e-04 -3.212390896586e+07 -1.394556756974e+04 -1.209215541230e+07 -1.059673773942e+07 -2.480200701718e-05 1.137465027309e-08 5.888018010089e-05 0.000000000000e+00 1.827093403919e+07 2.081979457551e+07  7.444704284910e-05
9.000000000000e-01 3.788546181406e+05 1.000000000000e+00 2.612776104278e+01 1.626318050058e-04 8.918572329265e-04 -3.228641334469e+07 -1.395811423510e+04 -1.198222750133e+07 -1.069122103313e+07 -2.732850446446e-05 1.044261227490e-08 6.647259627483e-05 0.000000000000e+00 1.831995395972e+07 2.097951572856e+07  8.355866312350e-05
1.000000000000e+00 3.956972555865e+05 1.000000000000e+00 2.635461481276e+01 1.772982064083e-04 9.826965739974e-04 -3.244336092972e+07 -1.397607826413e+04 -1.188658350745e+07 -1.079089922898e+07 -2.945565320530e-05 9.108141546909e-09 7.372742046477e-05 0.000000000000e+00 1.837361455538e+07 2.112595431825e+07  9.206007610222e-05
2.000000000000e+00 5.150057622498e+05 1.000000000000e+00 2.862803367889e+01 2.303590263710e-04 1.735802182398e-03 -3.369496887125e+07 -1.415005175826e+04 -1.148001640438e+07 -1.184702788361e+07 -3.671631243284e-05 -3.815603731316e-09 1.280561200365e-04 0.000000000000e+00 1.900733771975e+07 2.203375294036e+07  1.498272539739e-04
3.000000000000e+00 6.107955937086e+05 1.000000000000e+00 3.070915667385e+01 2.466365240483e-04 2.378438361302e-03 -3.473675732500e+07 -1.424919427729e+04 -1.129153584728e+07 -1.283353563407e+07 -3.876959569810e-05 -1.118047657367e-08 1.716985428888e-04 0.000000000000e+00 1.962060960212e+07 2.271352583992e+07  1.940107075538e-04
4.000000000000e+00 6.926709895023e+05 1.000000000000e+00 3.256538003711e+01 2.486460756055e-04 2.938759356000e-03 -3.562639315185e+07 -1.429701656355e+04 -1.119370387930e+07 -1.372103147079e+07 -3.884908104561e-05 -1.473298926752e-08 2.082964327776e-04 0.000000000000e+00 2.018037616731e+07 2.327219141647e+07  2.301929205159e-04
5.000000000000e+00 7.655249434076e+05 1.000000000000e+00 3.421390787268e+01 2.454342453589e-04 3.436085849574e-03 -3.640058823234e+07 -1.431744203642e+04 -1.113430760591e+07 -1.451206626718e+07 -3.822360588387e-05 -1.625031010959e-08 2.398838725122e-04 0.000000000000e+00 2.068232070181e+07 2.375818610523e+07  2.611025540496e-04
6.000000000000e+00 8.320077993300e+05 1.000000000000e+00 3.568672709666e+01 2.408992099594e-04 3.884839702666e-03 -3.708757339488e+07 -1.432496827524e+04 -1.109018174800e+07 -1.521983734118e+07 -3.745155774395e-05 -1.680940213560e-08 2.678114728403e-04 0.000000000000e+00 2.113253082802e+07 2.419832162674e+07  2.883670609650e-04
7.000000000000e+00 8.939780188885e+05 1.000000000000e+00 3.700928500172e+01 2.355413294306e-04 4.292070529386e-03 -3.769902747676e+07 -1.432674496850e+04 -1.105686419518e+07 -1.585553462440e+07 -3.655109597967e-05 -1.694138506375e-08 2.926605953218e-04 0.000000000000e+00 2.153714209878e+07 2.459645821795e+07  3.125432338758e-04
8.000000000000e+00 9.520385369560e+05 1.000000000000e+00 3.821072829304e+01 2.307249527252e-04 4.666609306126e-03 -3.825470309511e+07 -2.415445740218e+03 -1.102495242914e+07 -1.643258783860e+07 -3.575707099095e-05 8.678979861801e-07 3.152792945880e-04 0.000000000000e+00 2.190408112095e+07 2.496904675120e+07  3.345972587770e-04
9.000000000000e+00 1.007090272312e+06 1.000000000000e+00 3.931176279752e+01 2.264782817946e-04 5.015626782973e-03 -3.876509233634e+07 -1.432468316720e+04 -1.099493351113e+07 -1.696153419559e+07 -3.506780669134e-05 -1.678822268163e-08 3.360408619454e-04 0.000000000000e+00 2.224052001435e+07 2.531973956898e+07  3.548766388419e-04
1.000000000000e+01 1.059630028710e+06 1.000000000000e+00 4.032707742531e+01 2.223404644767e-04 5.339804378801e-03 -3.923408462162e+07 -1.432291922279e+04 -1.096738443586e+07 -1.744883523103e+07 -3.438776739997e-05 -1.665718681122e-08 3.551638660570e-04 0.000000000000e+00 2.255010142950e+07 2.564774713000e+07  3.735467621952e-04
1.100000000000e+01 1.109950425180e+06 1.000000000000e+00 4.126965435291e+01 2.185182263413e-04 5.643646239297e-03 -3.966911890629e+07 -1.432159666630e+04 -1.094064343358e+07 -1.790077433487e+07 -3.375987411659e-05 -1.655893975734e-08 3.729434128557e-04 0.000000000000e+00 2.283684555825e+07 2.595795428360e+07  3.909182034467e-04
1.200000000000e+01 1.158414524193e+06 1.000000000000e+00 4.214857048244e+01 2.148165216332e-04 5.929133394066e-03 -4.007359332486e+07 -1.432015036712e+04 -1.091542432585e+07 -1.832174605384e+07 -3.314711724447e-05 -1.645150038994e-08 3.895162149904e-04 0.000000000000e+00 2.310358790152e+07 2.625068104846e+07  4.071031240127e-04
1.300000000000e+01 1.205265988125e+06 1.000000000000e+00 4.297047243320e+01 2.111471969071e-04 6.197855235698e-03 -4.045037626650e+07 -1.431881700937e+04 -1.089192126661e+07 -1.871498326094e+07 -3.253595881296e-05 -1.635245095668e-08 4.049951391687e-04 0.000000000000e+00 2.335242693135e+07 2.652669504692e+07  4.222044023169e-04
1.400000000000e+01 1.251210412219e+06 1.000000000000e+00 4.374060686257e+01 2.074644364620e-04 6.451351712422e-03 -4.080156418643e+07 -1.431751238360e+04 -1.086955593187e+07 -1.908277166320e+07 -3.191936946916e-05 -1.625553589937e-08 4.194865636860e-04 0.000000000000e+00 2.358463059384e+07 2.678702306542e+07  4.363227826584e-04
1.500000000000e+01 1.295786605059e+06 1.000000000000e+00 4.446330149352e+01 2.037558631929e-04 6.690557583410e-03 -4.112946320676e+07 -1.431649294449e+04 -1.084878437536e+07 -1.942745183410e+07 -3.129606959080e-05 -1.617980613700e-08 4.330604849900e-04 0.000000000000e+00 2.380189980541e+07 2.703231004973e+07  4.495263279189e-04
1.600000000000e+01 1.339131722057e+06 1.000000000000e+00 4.514222039457e+01 2.000343361441e-04 6.916484513022e-03 -4.143596428793e+07 -1.431558085157e+04 -1.082942987776e+07 -1.975081918474e+07 -3.066960815359e-05 -1.611205066312e-08 4.457901536385e-04 0.000000000000e+00 2.400540445014e+07 2.726350934426e+07  4.618892681747e-04
1.700000000000e+01 1.381371180093e+06 1.000000000000e+00 4.578051513596e+01 1.963200871830e-04 7.130022975337e-03 -4.172275152707e+07 -1.431478664662e+04 -1.081131003318e+07 -2.005442660966e+07 -3.004485839601e-05 -1.605305258090e-08 4.577400236485e-04 0.000000000000e+00 2.419616272331e+07 2.748153883502e+07  4.734779379565e-04
1.800000000000e+01 1.422623256356e+06 1.000000000000e+00 4.638092658090e+01 1.926152135545e-04 7.331958648311e-03 -4.199115107216e+07 -1.431410063266e+04 -1.079427322248e+07 -2.033958537165e+07 -2.942237319672e-05 -1.600209154395e-08 4.689644306343e-04 0.000000000000e+00 2.437500322210e+07 2.768708813000e+07  4.843463229002e-04
1.900000000000e+01 1.462974445785e+06 1.000000000000e+00 4.694585902072e+01 1.889201935292e-04 7.523108781569e-03 -4.224232020655e+07 -1.464748260447e+04 -1.077820272797e+07 -2.060744886846e+07 -2.880229687832e-05 -4.076760944989e-08 4.795105503117e-04 0.000000000000e+00 2.454265726766e+07 2.788076140911e+07  4.945411513495e-04
2.000000000000e+01 1.502507803692e+06 1.000000000000e+00 4.747743597235e+01 1.851987706426e-04 7.703715431781e-03 -4.247696707183e+07 -1.431321630606e+04 -1.076301517091e+07 -2.085894754550e+07 -2.817637244163e-05 -1.593639871070e-08 4.894160390069e-04 0.000000000000e+00 2.469964326275e+07 2.806280984805e+07  5.040951661711e-04
2.100000000000e+01 1.541141802637e+06 1.000000000000e+00 4.798108119168e+01 1.819068508807e-04 7.876430751376e-03 -4.269999924024e+07 -1.431278956886e+04 -1.074605311948e+07 -2.109668931826e+07 -2.763001570838e-05 -1.590469823301e-08 4.988764667628e-04 0.000000000000e+00 2.484758055933e+07 2.823910914962e+07  5.132495613538e-04
2.200000000000e+01 1.579012601176e+06 1.000000000000e+00 4.845978648259e+01 1.788267725292e-04 8.041534156480e-03 -4.291173940726e+07 -1.431243849703e+04 -1.072867312380e+07 -2.132221344085e+07 -2.711804021586e-05 -1.587861861179e-08 5.078986197268e-04 0.000000000000e+00 2.498754199064e+07 2.840846451662e+07  5.219862181871e-04
2.300000000000e+01 1.616195875602e+06 1.000000000000e+00 4.891513143569e+01 1.775585127208e-04 8.308345638648e-03 -4.312681202695e+07 -2.204859073845e+05 -1.070868324529e+07 -2.153978970245e+07 -2.702504780207e-05 -1.533162202168e-05 5.167225049309e-04 0.000000000000e+00 2.512509499156e+07 2.858792715326e+07  5.314152111187e-04
2.400000000000e+01 1.652744293327e+06 1.000000000000e+00 4.934819097905e+01 1.727852387430e-04 8.350021705647e-03 -4.330155864024e+07 -1.431189499194e+04 -1.069484593262e+07 -2.173931906123e+07 -2.610454582674e-05 -1.583824394790e-08 5.246475527276e-04 0.000000000000e+00 2.524524121136e+07 2.872376633495e+07  5.381748681716e-04
2.500000000000e+01 1.688706439286e+06 1.000000000000e+00 4.975985558927e+01 1.697801164934e-04 8.493931522959e-03 -4.348056082255e+07 -1.431161523384e+04 -1.067866451898e+07 -2.193193593096e+07 -2.559885743699e-05 -1.581746191768e-08 5.324029175385e-04 0.000000000000e+00 2.536372042416e+07 2.886992364239e+07  5.456528889700e-04
2.600000000000e+01 1.724115300466e+06 1.000000000000e+00 5.015093029860e+01 1.668976672477e-04 8.625205103974e-03 -4.365037453004e+07 -3.448621805408e+03 -1.066292330251e+07 -2.211472305096e+07 -2.511698782929e-05 7.911477641945e-07 5.397768271788e-04 0.000000000000e+00 2.547600696117e+07 2.900948131174e+07  5.527651689280e-04
2.700000000000e+01 1.758998233262e+06 1.000000000000e+00 5.052216664284e+01 1.637895022864e-04 8.762316624627e-03 -4.380885113289e+07 -1.431112960293e+04 -1.064780913171e+07 -2.228735448256e+07 -2.459123704752e-05 -1.578138647888e-08 5.467502352678e-04 0.000000000000e+00 2.558133824905e+07 2.914026226288e+07  5.594513509621e-04
2.800000000000e+01 1.793391626416e+06 1.000000000000e+00 5.087427301804e+01 1.607815064954e-04 8.885209609549e-03 -4.395869834525e+07 -1.047292419612e+04 -1.063313543986e+07 -2.245083432309e+07 -2.408488228671e-05 2.693424437413e-07 5.533673664708e-04 0.000000000000e+00 2.568088936940e+07 2.926465464297e+07  5.657945999640e-04
2.900000000000e+01 1.827319648769e+06 1.000000000000e+00 5.120791815911e+01 1.578365293102e-04 9.006286321086e-03 -4.410000970410e+07 -1.431075142909e+04 -1.061884009783e+07 -2.260540596526e+07 -2.359235747771e-05 -1.575329356478e-08 5.596395687409e-04 0.000000000000e+00 2.577475192239e+07 2.938269642301e+07  5.718008951906e-04
3.000000000000e+01 1.860795160124e+06 1.000000000000e+00 5.152373277042e+01 1.548758035655e-04 9.119252242587e-03 -4.423248152479e+07 -1.356765225381e+04 -1.060500176503e+07 -2.275122259899e+07 -2.309669299335e-05 3.944835945630e-08 5.655696103549e-04 0.000000000000e+00 2.586290196294e+07 2.949392874021e+07  5.774644869682e-04
3.100000000000e+01 1.893730298971e+06 1.000000000000e+00 5.182511085861e+01 1.522762811595e-04 9.228840102041e-03 -4.435968283477e+07 -1.431043465504e+04 -1.058953320753e+07 -2.288994412866e+07 -2.266879911915e-05 -1.572976177818e-08 5.712966707359e-04 0.000000000000e+00 2.594638672365e+07 2.960298991247e+07  5.829617231483e-04
3.200000000000e+01 1.926193299566e+06 1.000000000000e+00 5.211364607381e+01 1.498582043965e-04 9.334011337433e-03 -4.448143423246e+07 -1.431034138509e+04 -1.057354654360e+07 -2.302239902094e+07 -2.227124074848e-05 -1.572283315351e-08 5.768102142520e-04 0.000000000000e+00 2.602579326567e+07 2.970867042167e+07  5.882621110690e-04
3.300000000000e+01 1.958214421356e+06 1.000000000000e+00 5.238991565054e+01 1.475259898883e-04 9.432603534909e-03 -4.459758484598e+07 -8.183169959698e+03 -1.055750401849e+07 -2.314887263288e+07 -2.188781509305e-05 4.394384727330e-07 5.821036707708e-04 0.000000000000e+00 2.610132049912e+07 2.981037842523e+07  5.933509221394e-04
3.400000000000e+01 1.989824628077e+06 1.000000000000e+00 5.265418165855e+01 1.452341751443e-04 9.532452152310e-03 -4.470809163641e+07 -1.431017633090e+04 -1.054166100917e+07 -2.326951531697e+07 -2.151133904307e-05 -1.571057198522e-08 5.871731393833e-04 0.000000000000e+00 2.617308932085e+07 2.990783375956e+07  5.982189520062e-04
3.500000000000e+01 2.021048807675e+06 1.000000000000e+00 5.290663245736e+01 1.429880604693e-04 9.625812171934e-03 -4.481316209947e+07 -1.431013300293e+04 -1.052605454245e+07 -2.338446424250e+07 -2.114442472271e-05 -1.570735333531e-08 5.920223396669e-04 0.000000000000e+00 2.624122696147e+07 3.000112302203e+07  6.028727145070e-04
3.600000000000e+01 2.051915339508e+06 1.000000000000e+00 5.314745069506e+01 1.408012766025e-04 9.715335585634e-03 -4.491305049345e+07 -1.431006568236e+04 -1.051073657006e+07 -2.349387437460e+07 -2.079076016353e-05 -1.570235237924e-08 5.966550978338e-04 0.000000000000e+00 2.630588714604e+07 3.009039219430e+07  6.073174419184e-04
3.700000000000e+01 2.082462264688e+06 1.000000000000e+00 5.337683019192e+01 1.387475369055e-04 9.801090544161e-03 -4.500848641576e+07 -1.430956323506e+04 -1.049565247172e+07 -2.359801574040e+07 -2.046741511984e-05 -1.566502772217e-08 6.010834722160e-04 0.000000000000e+00 2.636738487596e+07 3.017629129959e+07  6.115741012638e-04
3.800000000000e+01 2.113406986858e+06 1.000000000000e+00 5.359501617471e+01 1.391995319381e-04 9.883172782989e-03 -4.511953707596e+07 -1.429710641763e+04 -1.047869004317e+07 -2.370236091903e+07 -2.071647586357e-05 -1.473966414233e-08 6.055891833400e-04 0.000000000000e+00 2.643352934605e+07 3.027829598543e+07  6.162086543553e-04
3.900000000000e+01 2.143157951008e+06 1.000000000000e+00 5.380215925705e+01 1.363710666511e-04 9.961652697424e-03 -4.519756971693e+07 -1.431161384625e+04 -1.046485113303e+07 -2.379387253508e+07 -2.021582821805e-05 -1.581735883921e-08 6.095022028841e-04 0.000000000000e+00 2.648543112835e+07 3.034916830616e+07  6.198574090980e-04
4.000000000000e+01 2.172544103083e+06 1.000000000000e+00 5.399845068676e+01 1.333966592560e-04 1.003659625198e-02 -4.526906925704e+07 -1.431141847201e+04 -1.045138864227e+07 -2.387973894222e+07 -1.968220172805e-05 -1.580284532436e-08 6.131915619492e-04 0.000000000000e+00 2.653339894718e+07 3.041460303363e+07  6.232657871888e-04
4.200000000000e+01 2.229827604345e+06 1.000000000000e+00 5.435968914148e+01 1.282203288780e-04 1.017694194132e-02 -4.540062485730e+07 -1.431101725469e+04 -1.042139693448e+07 -2.403621070550e+07 -1.875674424486e-05 -1.577304060954e-08 6.201173480173e-04 0.000000000000e+00 2.661941083243e+07 3.053971971857e+07  6.297052675749e-04
4.400000000000e+01 2.285593810150e+06 1.000000000000e+00 5.469219727662e+01 1.233014568466e-04 1.030778155467e-02 -4.551940665300e+07 -1.431062739827e+04 -1.039109732739e+07 -2.417872652605e+07 -1.787519475024e-05 -1.574407984647e-08 6.265362067584e-04 0.000000000000e+00 2.669641016881e+07 3.065552716918e+07  6.356623305058e-04
5.000000000000e+01 2.437116675171e+06 1.000000000000e+00 5.537543856230e+01 1.093189746845e-04 1.058148201754e-02 -4.573825115001e+07 -1.430948483964e+04 -1.033120153432e+07 -2.446434269991e+07 -1.539510389569e-05 -1.565920406299e-08 6.393695083871e-04 0.000000000000e+00 2.684459846141e+07 3.087057863894e+07  6.472044021978e-04
6.500000000000e+01 2.768502505939e+06 1.000000000000e+00 5.631568881840e+01 8.293845052440e-05 1.104582167933e-02 -4.593513893300e+07 -1.430727551853e+04 -1.011748822586e+07 -2.478607807605e+07 -1.075790757876e-05 -1.549508306603e-08 6.592576023865e-04 0.000000000000e+00 2.694623507830e+07 3.118778313452e+07  6.647018519286e-04
8.000000000000e+01 3.023556378504e+06 1.000000000000e+00 5.663857051715e+01 6.340112401952e-05 1.126618835203e-02 -4.589881062182e+07 -1.430558890937e+04 -9.966236735068e+06 -2.484103899463e+07 -7.367164759003e-06 -1.536979209959e-08 6.669169204489e-04 0.000000000000e+00 2.690202878384e+07 3.127171711139e+07  6.706308533313e-04
1.000000000000e+02 3.324236307843e+06 1.000000000000e+00 5.678970313193e+01 4.518329789681e-05 1.145037076353e-02 -4.577227696940e+07 -1.378551577069e+04 -9.782611425700e+06 -2.479922465062e+07 -4.220447589565e-06 2.326421248776e-08 6.721841848765e-04 0.000000000000e+00 2.678470434857e+07 3.130994061399e+07  6.743043158118e-04
1.860000000000e+02 3.922717196870e+06 1.000000000000e+00 5.651434017817e+01 1.120908896521e-05 1.153151113798e-02 -4.520212027305e+07 2.474942500874e+05 -9.308710945608e+06 -2.438651561437e+07 1.627608357128e-06 1.943261824766e-05 6.744570099335e-04 0.000000000000e+00 2.629911561101e+07 3.121965682471e+07  6.744850149910e-04
2.720000000000e+02 4.213038211902e+06 1.000000000000e+00 5.565863395361e+01 -2.818852147081e-06 1.150191355552e-02 -4.462987068617e+07 -1.429966513121e+04 -9.181079319309e+06 -2.387554414788e+07 3.903652828814e-06 -1.492974000819e-08 6.602186730122e-04 0.000000000000e+00 2.589549805112e+07 3.084872284965e+07  6.582755280865e-04
3.580000000000e+02 4.354403696138e+06 1.000000000000e+00 5.491482445313e+01 -1.084459409550e-05 1.132602080179e-02 -4.417520203039e+07 -1.429889512862e+04 -9.107107410300e+06 -2.345575374914e+07 5.199130947265e-06 -1.487253981555e-08 6.473739862506e-04 0.000000000000e+00 2.557935439661e+07 3.053646734537e+07  6.447901422740e-04
4.440000000000e+02 4.426532453567e+06 1.000000000000e+00 5.428887039692e+01 -1.599650083944e-05 1.116143203697e-02 -4.381511955241e+07 -1.429839424255e+04 -9.072247246265e+06 -2.311760696582e+07 6.013885320016e-06 -1.483533113601e-08 6.361090546770e-04 0.000000000000e+00 2.533499125483e+07 3.027150111631e+07  6.331235345595e-04
5.300000000000e+02 4.465496893892e+06 1.000000000000e+00 5.377624848081e+01 -1.945824388469e-05 1.101878556782e-02 -4.353094983310e+07 -1.429805658498e+04 -9.056776980007e+06 -2.284789199772e+07 6.550776079417e-06 -1.481024800235e-08 6.266656800372e-04 0.000000000000e+00 2.514520627027e+07 3.005373151012e+07  6.234161060762e-04
6.160000000000e+02 4.488012313614e+06 1.000000000000e+00 5.336720510232e+01 -2.201959383208e-05 1.090489043971e-02 -4.330820296038e+07 -2.460082425326e+04 -9.052367609525e+06 -2.263629528917e+07 6.964925034264e-06 -7.801587033603e-07 6.189701503377e-04 0.000000000000e+00 2.499895528636e+07 2.987738898198e+07  6.155187263090e-04
7.020000000000e+02 4.501822582807e+06 1.000000000000e+00 5.305912792032e+01 -2.340230516117e-05 1.080987431834e-02 -4.314632759774e+07 -1.429768139356e+04 -9.051098503390e+06 -2.247932547213e+07 7.147131013803e-06 -1.478237663931e-08 6.131869810756e-04 0.000000000000e+00 2.489225052442e+07 2.974834558360e+07  6.096448377606e-04
7.880000000000e+02 4.511441109809e+06 1.000000000000e+00 5.280009929580e+01 -2.437362737532e-05 1.072815284758e-02 -4.301540696153e+07 -1.429759493129e+04 -9.060579484700e+06 -2.235210005566e+07 7.284382032753e-06 -1.477595372788e-08 6.081093148723e-04 0.000000000000e+00 2.480936216730e+07 2.963585924925e+07  6.045000423026e-04
8.740000000000e+02 4.519827167085e+06 1.000000000000e+00 5.241137392618e+01 -2.639038834669e-05 1.061262584682e-02 -4.280842995985e+07 -1.429739385411e+04 -9.059153884965e+06 -2.215327282997e+07 7.587087997992e-06 -1.476101656604e-08 6.007772544797e-04 0.000000000000e+00 2.467361889160e+07 2.947122604404e+07  5.970198691511e-04
9.370000000000e+02 4.525201002568e+06 1.000000000000e+00 5.210907651675e+01 -2.731083663389e-05 1.052111753206e-02 -4.265486900901e+07 -2.073526683109e+04 -9.065240389289e+06 -2.200309333400e+07 7.712684893523e-06 -4.930030091417e-07 5.949730887545e-04 0.000000000000e+00 2.457440091077e+07 2.934407613018e+07  5.911550989821e-04
1.000000000000e+03 4.529391019573e+06 1.000000000000e+00 5.185429707453e+01 -2.772348559406e-05 1.043816911379e-02 -4.252651595979e+07 -1.429724360564e+04 -9.066838872010e+06 -2.187580919736e+07 7.752387360576e-06 -1.474985525159e-08 5.901860200353e-04 0.000000000000e+00 2.448972134305e+07 2.924100398301e+07  5.863482649122e-04
1.100000000000e+03 4.533536315693e+06 1.000000000000e+00 5.158773659091e+01 -2.801749577540e-05 1.035499655880e-02 -4.239254349222e+07 -1.429721140988e+04 -9.067266240569e+06 -2.174237759322e+07 7.772476573536e-06 -1.474746356644e-08 5.852141153351e-04 0.000000000000e+00 2.440072910867e+07 2.913471408663e+07  5.813668461738e-04
1.200000000000e+03 4.536797687465e+06 1.000000000000e+00 5.136659203582e+01 -2.839109148937e-05 1.028587752300e-02 -4.228093123290e+07 -1.429717675356e+04 -9.068580379161e+06 -2.163181564220e+07 7.811488024763e-06 -1.474488909692e-08 5.810587177210e-04 0.000000000000e+00 2.432710908476e+07 2.904550163657e+07  5.771926196876e-04
1.300000000000e+03 4.539703052341e+06 1.000000000000e+00 5.115655246698e+01 -2.878529796200e-05 1.022008944910e-02 -4.217484571015e+07 -1.429713597020e+04 -9.070264690450e+06 -2.152690928569e+07 7.855285627729e-06 -1.474185947607e-08 5.770996357739e-04 0.000000000000e+00 2.425733989543e+07 2.896048846359e+07  5.732123631779e-04
1.400000000000e+03 4.542442565750e+06 1.000000000000e+00 5.094021038042e+01 -2.916772603293e-05 1.015211225877e-02 -4.206578304489e+07 -1.429709505678e+04 -9.072107917308e+06 -2.141895146460e+07 7.896322697303e-06 -1.473882019323e-08 5.730213111361e-04 0.000000000000e+00 2.418561414227e+07 2.887317115206e+07  5.691142366826e-04
1.500000000000e+03 4.545082446510e+06 1.000000000000e+00 5.070749561259e+01 -2.951961085797e-05 1.007872608561e-02 -4.194884265257e+07 -1.429705351795e+04 -9.074031300225e+06 -2.130292386687e+07 7.930226496369e-06 -1.473573445115e-08 5.686402747120e-04 0.000000000000e+00 2.410859927322e+07 2.877980388917e+07  5.647169246577e-04
1.600000000000e+03 4.547643484557e+06 1.000000000000e+00 5.045226628177e+01 -2.982950231278e-05 9.997957142447e-03 -4.182104448867e+07 -1.429700953093e+04 -9.076007356363e+06 -2.117577460181e+07 7.954328453355e-06 -1.473246684399e-08 5.638441913533e-04 0.000000000000e+00 2.402427548228e+07 2.867812946583e+07  5.599094053689e-04
1.700000000000e+03 4.550130780696e+06 1.000000000000e+00 5.017073127073e+01 -3.009032549076e-05 9.908584235951e-03 -4.168055212993e+07 -1.429696566039e+04 -9.078026029946e+06 -2.103562285023e+07 7.966979576228e-06 -1.472920788975e-08 5.585635755614e-04 0.000000000000e+00 2.393140033670e+07 2.856679156993e+07  5.546230041747e-04
1.800000000000e+03 4.552544173059e+06 1.000000000000e+00 4.986060252698e+01 -3.029782711333e-05 9.809870939959e-03 -4.152625685251e+07 -1.429692209462e+04 -9.080080700169e+06 -2.088133320051e+07 7.967188604939e-06 -1.472597157538e-08 5.527565008207e-04 0.000000000000e+00 2.382922358440e+07 2.844501719541e+07  5.488162813271e-04
1.900000000000e+03 4.554883463617e+06 1.000000000000e+00 4.952059327311e+01 -3.044960047097e-05 9.701399489329e-03 -4.135754022963e+07 -1.429687849970e+04 -9.082179245213e+06 -2.071227212243e+07 7.954394554804e-06 -1.472273309595e-08 5.463991433904e-04 0.000000000000e+00 2.371733053242e+07 2.831242049551e+07  5.424656879194e-04