 TITLE = "Time curves in points"
 VARIABLES = "TIME"  "PRESSURE1"  "SATURATION1"  "TEMPERATURE1"  "DISPLACEMENT_X1"  "DISPLACEMENT_Y1"  "STRESS_XX"  "STRESS_XY"  "STRESS_YY"  "STRESS_ZZ"  "STRAIN_XX"  "STRAIN_XY"  "STRAIN_YY"  "STRAIN_PLS"  p_(1st_Invariant)  q_(2nd_Invariant)   Effective_Strain
 ZONE T="POINT=POINT1"
0.000000000000e+00 -7.000000000000e+07 8.894919982500e-01 2.500000000000e+01 0.000000000000e+00 0.000000000000e+00 0.000000000000e+00 0.000000000000e+00 0.000000000000e+00 0.000000000000e+00 0.000000000000e+00 0.000000000000e+00 0.000000000000e+00 0.000000000000e+00 -0.000000000000e+00 0.000000000000e+00  0.000000000000e+00
1.000000000000e-03 -7.000000000000e+07 6.684759947500e-01 3.310905024514e+01 -3.312349781708e-05 6.352741841696e-05 -2.219767427895e+07 -8.298967883245e+01 -2.221386231377e+07 -1.350811913111e+07 -4.538393234302e-03 -2.430327785512e-07 1.949647863997e-05 0.000000000000e+00 1.930655190794e+07 8.697660464847e+06  4.548172833764e-03
2.000000000000e-03 -7.015907454864e+07 6.678662387817e-01 3.680324652000e+01 -3.355112226788e-05 6.329235276959e-05 -2.252017920949e+07 -1.306337907997e+02 -2.240167314441e+07 -1.367328887339e+07 -4.708679401557e-03 -3.800191406132e-07 1.763737871263e-05 0.000000000000e+00 1.953171374243e+07 8.788236580550e+06  4.717522864688e-03
3.000000000000e-03 -7.037130608275e+07 6.670521908508e-01 3.937002890421e+01 -3.398570276121e-05 6.295877211434e-05 -2.288182513321e+07 -1.506302679290e+02 -2.261822474520e+07 -1.385864087389e+07 -4.905554543029e-03 -4.373565893832e-07 1.610079487160e-05 0.000000000000e+00 1.978623025077e+07 8.894314169084e+06  4.913624783345e-03
4.000000000000e-03 -7.061820315145e+07 6.661049302029e-01 4.139950772454e+01 -3.442470680331e-05 6.250567355124e-05 -2.326902085853e+07 -1.589442133869e+02 -2.285368473621e+07 -1.405769416113e+07 -5.116908441950e-03 -4.611126451821e-07 1.473475535721e-05 0.000000000000e+00 2.006013325195e+07 9.010840525975e+06  5.124291770408e-03
1.000000000000e-02 -7.212935444296e+07 6.602938296806e-01 4.814735038606e+01 -3.520949990953e-05 5.975814589319e-05 -2.472378418791e+07 -1.650384481704e+02 -2.394982182209e+07 -1.486362874106e+07 -5.869675789354e-03 -4.779205006730e-07 1.946683634463e-05 0.000000000000e+00 2.117907825035e+07 9.496857060337e+06  5.879433436400e-03
2.000000000000e-02 -7.524730980454e+07 6.482622395933e-01 5.436283958315e+01 -3.634942390611e-05 5.796391018902e-05 -2.747545409883e+07 -1.672281839050e+02 -2.601533010083e+07 -1.637926708382e+07 -7.310808121784e-03 -4.831858946594e-07 3.181210226617e-05 0.000000000000e+00 2.329001709449e+07 1.044296507217e+07  7.326766017788e-03
3.000000000000e-02 -7.893054977839e+07 6.339986451978e-01 5.830139727141e+01 -3.757931679876e-05 5.833789180031e-05 -3.066402014713e+07 -1.688648612356e+02 -2.833455478418e+07 -1.811527692673e+07 -8.974095775480e-03 -4.870508097877e-07 4.610315147504e-05 0.000000000000e+00 2.570461728601e+07 1.156137979196e+07  8.997235980933e-03
4.000000000000e-02 -8.274830413487e+07 6.191580485947e-01 6.102917500602e+01 -3.883702361558e-05 6.104123278998e-05 -3.396700488849e+07 -1.704437141823e+02 -3.065203467795e+07 -1.989382990071e+07 -1.067534192998e-02 -4.909132353603e-07 5.996360154679e-05 0.000000000000e+00 2.817095648905e+07 1.274327767760e+07  1.070544971631e-02
5.000000000000e-02 -8.646458726794e+07 6.110473852968e-01 6.303907960401e+01 -4.009175314099e-05 6.111791455495e-05 -3.721245980282e+07 1.450473852549e+03 -3.282201281739e+07 -2.161449444229e+07 -1.232549362073e-02 4.478513365468e-06 7.147707795979e-05 0.000000000000e+00 3.054965568750e+07 1.393163717715e+07  1.236138958237e-02
6.000000000000e-02 -8.999223159030e+07 6.035636093635e-01 6.459149100424e+01 -4.136981470102e-05 6.023979996182e-05 -4.032372458450e+07 -1.713048594927e+04 -3.480908599897e+07 -2.324085295491e+07 -1.388075854225e-02 -5.205534878909e-05 8.085480347273e-05 0.000000000000e+00 3.279122117946e+07 1.510068737385e+07  1.392165401414e-02
7.000000000000e-02 -9.331716927526e+07 5.965377377979e-01 6.584443306560e+01 -4.257146196802e-05 7.680011223284e-05 -4.327843674695e+07 -1.749292869000e+02 -3.662514479885e+07 -2.476862634365e+07 -1.532567367603e-02 -5.023710555776e-07 8.832905238651e-05 0.000000000000e+00 3.489073596315e+07 1.623971066514e+07  1.537002858279e-02
8.000000000000e-02 -9.644615881122e+07 5.900016052562e-01 6.688977752464e+01 -4.376571781043e-05 8.362610981778e-05 -4.607398679651e+07 -1.772068988365e+02 -3.829942381708e+07 -2.620508211816e+07 -1.665329405561e-02 -5.085180311016e-07 9.437858582147e-05 0.000000000000e+00 3.685949757725e+07 1.734200541974e+07  1.670068337938e-02
9.000000000000e-02 -9.940042086474e+07 5.839014870544e-01 6.778635190768e+01 -4.492449528392e-05 8.358919794262e-05 -4.872339222524e+07 -1.769254285668e+02 -3.985432419198e+07 -2.756064205476e+07 -1.786956742550e-02 -4.577812007737e-07 9.915841838058e-05 0.000000000000e+00 3.871278615733e+07 1.840729452195e+07  1.791935241682e-02
1.000000000000e-01 -1.021958375290e+08 5.772939348522e-01 6.856669367068e+01 -4.606566181747e-05 9.540177982582e-05 -5.123665603536e+07 -1.848833189452e+02 -4.130721696739e+07 -2.884330645285e+07 -1.897967881026e-02 -5.292832783616e-07 1.028478474861e-04 0.000000000000e+00 4.046239315187e+07 1.943456883042e+07  1.903131118374e-02
2.000000000000e-01 -1.187516576162e+08 5.380454471038e-01 7.279261234412e+01 -5.140535256260e-05 1.902981452252e-04 -6.484951089388e+07 -1.625972199356e+02 -4.903330513234e+07 -3.551929349747e+07 -2.504990114942e-02 -4.649287683394e-07 1.485369570492e-04 0.000000000000e+00 4.980070317456e+07 2.542678241381e+07  2.512449895148e-02
3.000000000000e-01 -1.341076557070e+08 5.086722764506e-01 7.558238752077e+01 -5.618327641294e-05 3.001472532570e-04 -7.723311216340e+07 -1.786058371177e+02 -5.643612737469e+07 -4.171234530457e+07 -3.043818125406e-02 -5.059618640820e-07 2.072764855080e-04 0.000000000000e+00 5.846052828089e+07 3.091139929848e+07  3.054234702180e-02
4.000000000000e-01 -1.471562298174e+08 4.912841749613e-01 7.759060036889e+01 -6.039005509248e-05 4.057472937481e-04 -8.762415796173e+07 -2.004054266054e+02 -6.262711547671e+07 -4.689614287318e+07 -3.448698957566e-02 -5.521542855105e-07 2.427780607943e-04 0.000000000000e+00 6.571580543721e+07 3.557447712437e+07  3.460901727216e-02
5.000000000000e-01 -1.578188093458e+08 4.765742391103e-01 7.913407170411e+01 -6.401296652612e-05 5.083170207339e-04 -9.606385139023e+07 -2.310084968630e+02 -6.766833044589e+07 -5.110995387452e+07 -3.745321812613e-02 -6.050714050646e-07 2.671534975936e-04 0.000000000000e+00 7.161404523688e+07 3.937853696211e+07  3.758750694462e-02
6.000000000000e-01 -1.664470021284e+08 4.628553817443e-01 8.036202840344e+01 -6.706897594482e-05 6.082501125137e-04 -1.028749078640e+08 -2.640449832065e+02 -7.172851693887e+07 -5.451165608607e+07 -3.962228968982e-02 -6.431152112033e-07 2.827431514570e-04 0.000000000000e+00 7.637169362963e+07 4.245893361964e+07  3.976441520064e-02
7.000000000000e-01 -1.732705663414e+08 4.540722615735e-01 8.135405414516e+01 -6.967497637396e-05 7.057512507885e-04 -1.083086508779e+08 -3.168845350149e+02 -7.492125695883e+07 -5.721690363255e+07 -4.120666977155e-02 -7.179339005682e-07 2.899449386366e-04 0.000000000000e+00 8.014893715642e+07 4.493622612432e+07  4.135240462916e-02
8.000000000000e-01 -1.785574878916e+08 4.487369268304e-01 8.216210405306e+01 -7.183936610603e-05 8.009498399668e-04 -1.125743581735e+08 -3.624771193693e+02 -7.742553539698e+07 -5.934685059983e+07 -4.234107187584e-02 -7.556927174881e-07 2.913145639252e-04 0.000000000000e+00 8.311558139011e+07 4.687987921202e+07  4.248747820680e-02
9.000000000000e-01 -1.825455354867e+08 4.447347654650e-01 8.283348418777e+01 -7.361042635931e-05 8.938405492596e-04 -1.159380351715e+08 -4.039410462425e+02 -7.944571454745e+07 -6.105608462256e+07 -4.334370057699e-02 -7.680663205059e-07 2.963264772114e-04 0.000000000000e+00 8.547994478051e+07 4.838334656854e+07  4.349262094839e-02
1.000000000000e+00 -1.854867315876e+08 4.417945844378e-01 8.339527886944e+01 -7.508431930970e-05 9.844832778237e-04 -1.185316458806e+08 -4.537808409985e+02 -8.102224133599e+07 -6.239168730616e+07 -4.408689010120e-02 -7.944318940854e-07 2.991748374271e-04 0.000000000000e+00 8.731519150760e+07 4.952649756812e+07  4.423723628856e-02
2.000000000000e+00 -1.860998029159e+08 4.410419437588e-01 8.535753332227e+01 -7.956729334492e-05 1.735924453797e-03 -1.224322483157e+08 -5.984480978412e+02 -8.398049537812e+07 -6.459713136781e+07 -4.635639988091e-02 -7.212245621137e-07 3.152003215565e-04 0.000000000000e+00 9.033662502055e+07 5.098604151559e+07  4.651480103011e-02
3.000000000000e+00 -1.774891017735e+08 4.495795733857e-01 8.593561676212e+01 -8.116907827012e-05 2.373574746408e-03 -1.193915433764e+08 -7.181151209284e+02 -8.271107632801e+07 -6.336843578844e+07 -4.627812178730e-02 4.949139254115e-08 3.023255383270e-04 0.000000000000e+00 8.849035183097e+07 4.928581435285e+07  4.643002277601e-02
4.000000000000e+00 -1.655179159865e+08 4.640228387899e-01 8.594181061173e+01 -8.147499924974e-05 2.928424743915e-03 -1.136499821714e+08 -9.384753793017e+02 -7.985619373093e+07 -6.082805680376e+07 -4.536929126759e-02 6.742124484008e-07 2.865180087523e-04 0.000000000000e+00 8.477807756868e+07 4.633705826280e+07  4.551322668246e-02
5.000000000000e+00 -1.531383074777e+08 4.825992399877e-01 8.575846067509e+01 -8.145156376010e-05 3.420223431437e-03 -1.072079337921e+08 -1.309783162165e+03 -7.648188710179e+07 -5.789982453780e+07 -4.377522996745e-02 8.757739407967e-07 2.608510468355e-04 0.000000000000e+00 8.052988181056e+07 4.313161626274e+07  4.390623667356e-02
6.000000000000e+00 -1.414940107229e+08 4.976938476537e-01 8.561855142323e+01 -8.138649989280e-05 3.863819588163e-03 -1.009316401863e+08 -1.478138139918e+03 -7.312115406803e+07 -5.501407216621e+07 -4.185060753013e-02 1.501285491241e-06 2.295882813037e-04 0.000000000000e+00 7.635562214018e+07 4.006065787731e+07  4.196587276867e-02
7.000000000000e+00 -1.312343109060e+08 5.110276238020e-01 8.535781905150e+01 -8.135585726282e-05 4.267256824875e-03 -9.536068271585e+07 -1.426165942470e+03 -7.007021274045e+07 -5.243053017810e+07 -3.988821344216e-02 2.593268487637e-06 1.878231814672e-04 0.000000000000e+00 7.262047521147e+07 3.737488649879e+07  3.998245615869e-02
8.000000000000e+00 -1.218124760646e+08 5.294013446845e-01 8.528219685681e+01 -8.128615055244e-05 4.639904173776e-03 -9.023019481873e+07 -1.707351401188e+03 -6.731349160757e+07 -5.007657127182e+07 -3.811544040730e-02 2.410738633989e-06 1.540356041142e-04 0.000000000000e+00 6.920675256604e+07 3.488982810338e+07  3.819269140469e-02
9.000000000000e+00 -1.135309101324e+08 5.485280291582e-01 8.520333330349e+01 -8.130607907926e-05 4.985845804388e-03 -8.581835981764e+07 -2.058000769161e+03 -6.496414920393e+07 -4.807752459250e+07 -3.667988696270e-02 2.007358951297e-06 1.302618169154e-04 0.000000000000e+00 6.628667787136e+07 3.274467025327e+07  3.674519120301e-02
1.000000000000e+01 -1.060027444630e+08 5.654957297385e-01 8.512020196399e+01 -8.136925269158e-05 5.307637916812e-03 -8.172501182111e+07 -2.021246931463e+03 -6.281174466515e+07 -4.622905573898e+07 -3.511526078729e-02 2.552194842997e-06 1.078552540858e-04 0.000000000000e+00 6.358860407508e+07 3.076247851875e+07  3.516931272901e-02
1.100000000000e+01 -9.920712252554e+07 5.774470280681e-01 8.508992033788e+01 -8.143659762920e-05 5.611259927504e-03 -7.796776883668e+07 -1.844219442444e+03 -6.084327316953e+07 -4.453451796236e+07 -3.349512488447e-02 3.067533107952e-06 8.424972088264e-05 0.000000000000e+00 6.111518665619e+07 2.895691741790e+07  3.353732953283e-02
1.200000000000e+01 -9.310164044586e+07 5.881956850848e-01 8.506072886397e+01 -8.156254494543e-05 5.895107716751e-03 -7.457085075295e+07 -1.613261928655e+03 -5.904907518607e+07 -4.300099297682e+07 -3.189449806288e-02 3.801707855828e-06 6.046536556897e-05 0.000000000000e+00 5.887363963861e+07 2.734156538097e+07  3.192477437019e-02
1.300000000000e+01 -8.749469814547e+07 5.980313957598e-01 8.501131572012e+01 -8.171643538325e-05 6.162526186672e-03 -7.143717017125e+07 -1.468657116386e+03 -5.740529738187e+07 -4.159248907980e+07 -3.031280878260e-02 4.343983398482e-06 3.644156993069e-05 0.000000000000e+00 5.681165221098e+07 2.586158698502e+07  3.033104691946e-02
1.400000000000e+01 -8.219117514658e+07 6.142796240256e-01 8.492254158400e+01 -8.187121700019e-05 6.415006575870e-03 -6.843035364006e+07 -1.483169905543e+03 -5.583075348920e+07 -4.024168653660e+07 -2.869266273372e-02 4.434245407444e-06 1.191747085630e-05 0.000000000000e+00 5.483426455529e+07 2.445781979942e+07  2.869862435268e-02
1.500000000000e+01 -7.715797096520e+07 6.332700080361e-01 8.481756096154e+01 -8.205040559659e-05 6.655609997541e-03 -6.554531351761e+07 -1.945090504964e+03 -5.424885151364e+07 -3.892435113290e+07 -2.704479192194e-02 3.186467541941e-06 -1.434484726267e-05 0.000000000000e+00 5.290617205472e+07 2.314223440719e+07  2.703762291561e-02
1.600000000000e+01 -7.243872988318e+07 6.510621264106e-01 8.470075328159e+01 -8.222760625591e-05 6.715373256719e-03 -6.282341296136e+07 5.205866863386e+05 -5.273394299660e+07 -3.767457580003e+07 -2.542822795200e-02 1.597462562339e-03 -4.208539100156e-05 0.000000000000e+00 5.107731058600e+07 2.193937120893e+07  2.555742653237e-02
1.700000000000e+01 -6.798215592651e+07 6.678476559818e-01 8.456897559063e+01 -8.239745527803e-05 7.094759622858e-03 -6.023594242997e+07 -1.299229513427e+03 -5.129725908335e+07 -3.648572734562e+07 -2.384834554888e-02 4.710482776763e-06 -7.026483955800e-05 0.000000000000e+00 4.933964295298e+07 2.077684118279e+07  2.381329227467e-02
1.800000000000e+01 -6.374879119478e+07 6.837835317301e-01 8.442126256027e+01 -8.253676474100e-05 7.096585112282e-03 -5.778006720955e+07 8.837774488343e+04 -4.996385447572e+07 -3.536915527268e+07 -2.237885054063e-02 2.796680549107e-04 -9.506384872593e-05 0.000000000000e+00 4.770435898598e+07 1.970271889771e+07  2.233672338674e-02
1.900000000000e+01 -5.970229355424e+07 6.990164998827e-01 8.425635705087e+01 -8.266452406094e-05 7.488066854121e-03 -5.541576114882e+07 -8.969305806341e+02 -4.870417368477e+07 -3.430249110231e+07 -2.094665183792e-02 5.514380589666e-06 -1.180958725832e-04 0.000000000000e+00 4.614080864530e+07 1.868453965685e+07  2.088785647099e-02
2.000000000000e+01 -5.591167187784e+07 7.132931242039e-01 8.407728923693e+01 -8.277419053658e-05 7.488158167207e-03 -5.317073560193e+07 1.336088666803e+04 -4.751989670271e+07 -3.329395108848e+07 -1.952877967737e-02 4.944914036575e-05 -1.401121104794e-04 0.000000000000e+00 4.466152779771e+07 1.773974552464e+07  1.945929043433e-02
2.100000000000e+01 -5.230263574698e+07 7.252707769251e-01 8.398894340829e+01 -8.290156777143e-05 8.118130333404e-03 -5.101627536032e+07 -1.374515000978e+05 -4.638195582052e+07 -3.232655791186e+07 -1.811672448571e-02 -4.137160286300e-04 -1.622910984306e-04 0.000000000000e+00 4.324159636424e+07 1.685897422384e+07  1.805035579239e-02
2.200000000000e+01 -4.892775271562e+07 7.360609189905e-01 8.389868400078e+01 -8.302469443138e-05 8.010096395080e-03 -4.899658466591e+07 -3.102294865068e+02 -4.533480340228e+07 -3.142831949504e+07 -1.674352605788e-02 6.210413980893e-06 -1.833029588253e-04 0.000000000000e+00 4.191990252108e+07 1.605370484307e+07  1.665263470643e-02
2.300000000000e+01 -4.578630808353e+07 7.458698428075e-01 8.379980762046e+01 -8.315365857533e-05 8.169357801455e-03 -4.710218331905e+07 -1.516713122667e+02 -4.435976931319e+07 -3.059056491970e+07 -1.539748666679e-02 6.297046651442e-06 -2.036542656415e-04 0.000000000000e+00 4.068417251731e+07 1.532555653986e+07  1.529668022260e-02
2.400000000000e+01 -4.273737163287e+07 7.561677634042e-01 8.368693074610e+01 -8.326410758763e-05 8.321004889198e-03 -4.523104738504e+07 -9.109060607726e+01 -4.339981863851e+07 -2.976385935173e+07 -1.402286586767e-02 6.448893937177e-06 -2.240536268610e-04 0.000000000000e+00 3.946490845843e+07 1.463773701943e+07  1.391219673446e-02
2.500000000000e+01 -3.972039245920e+07 7.706768433851e-01 8.355718496852e+01 -8.335577844275e-05 8.321848561820e-03 -4.334061475707e+07 5.318885674174e+04 -4.242032573070e+07 -2.892408868781e+07 -1.259266429069e-02 1.698696162057e-04 -2.447195315142e-04 0.000000000000e+00 3.822834305853e+07 1.397942317198e+07  1.247557524689e-02
2.600000000000e+01 -3.674690229707e+07 7.856724758628e-01 8.341465113958e+01 -8.344434069461e-05 8.604784997223e-03 -4.144660918331e+07 1.423189453922e+01 -4.142603860888e+07 -2.807760470263e+07 -1.112074847940e-02 6.406559521282e-06 -2.657848378415e-04 0.000000000000e+00 3.698341749827e+07 1.335873107193e+07  1.099027229520e-02
2.700000000000e+01 -3.382536532298e+07 8.010888071460e-01 8.325927499574e+01 -8.351703558003e-05 8.736927988374e-03 -3.955140383576e+07 2.052023955148e+02 -4.042992761217e+07 -2.722714164302e+07 -9.620561061237e-03 6.718821664458e-06 -2.867725633728e-04 0.000000000000e+00 3.573615769699e+07 1.278618004372e+07  9.480435438690e-03
2.800000000000e+01 -3.094423991961e+07 8.170103654571e-01 8.309101810110e+01 -8.356848556473e-05 8.737119203652e-03 -3.764625819559e+07 2.090911680690e+04 -3.942964737658e+07 -2.636879756539e+07 -8.089211297849e-03 7.050376113506e-05 -3.076068998875e-04 0.000000000000e+00 3.448156771252e+07 1.226682550977e+07  7.940817121509e-03
2.900000000000e+01 -2.809010245870e+07 8.334581909846e-01 8.290988092746e+01 -8.361928147011e-05 8.983426994089e-03 -3.572643897225e+07 6.138296660015e+02 -3.841658335537e+07 -2.549803739655e+07 -6.526418071697e-03 7.404671225608e-06 -3.285197189578e-04 0.000000000000e+00 3.321368657472e+07 1.180563229029e+07  6.368529305033e-03
3.000000000000e+01 -2.525050507953e+07 8.504808420255e-01 8.271590736688e+01 -8.364207323858e-05 9.097936477045e-03 -3.377466485025e+07 8.671241255870e+02 -3.738665814080e+07 -2.460751187381e+07 -4.924256677957e-03 7.882268051774e-06 -3.492384167428e-04 0.000000000000e+00 3.192294495495e+07 1.141029738984e+07  4.759277055051e-03
3.100000000000e+01 -2.240930440885e+07 8.681657776464e-01 8.259379692803e+01 -8.364616897194e-05 9.208585002252e-03 -3.178308206247e+07 1.086136362738e+03 -3.633307981655e+07 -2.369217596274e+07 -3.280795445045e-03 8.239876542237e-06 -3.698587205992e-04 0.000000000000e+00 3.060277928059e+07 1.108958291362e+07  3.112424634634e-03
3.200000000000e+01 -1.960626543805e+07 8.861325861022e-01 8.247041848989e+01 -8.364043201835e-05 9.315233518116e-03 -2.979057896420e+07 1.330335647239e+03 -3.528160519650e+07 -2.277184875965e+07 -1.630086973886e-03 8.655159987460e-06 -3.899547454766e-04 0.000000000000e+00 2.928134430678e+07 1.086066203084e+07  1.474385577225e-03
3.300000000000e+01 -1.677025540403e+07 9.047373350457e-01 8.234022756780e+01 -8.361210211419e-05 9.417859181435e-03 -2.773539702640e+07 1.611965065628e+03 -3.419147357216e+07 -2.181358958925e+07 6.766404032522e-05 9.150941488060e-06 -4.099416016304e-04 0.000000000000e+00 2.791348672927e+07 1.072289035597e+07  4.479063109116e-04
3.400000000000e+01 -1.387183993088e+07 9.239741117902e-01 8.220176811050e+01 -8.355275982333e-05 9.491472875443e-03 -2.559006410532e+07 2.166909086091e+04 -3.304524305130e+07 -2.080253792012e+07 1.825511604937e-03 7.001931417005e-05 -4.297716724902e-04 0.000000000000e+00 2.647928169225e+07 1.068612994297e+07  2.077608625056e-03
3.500000000000e+01 -1.087324600839e+07 9.437517633713e-01 8.205443786184e+01 -8.346341818538e-05 9.611657111235e-03 -2.332980304736e+07 2.171273394244e+03 -3.182792885421e+07 -1.972537510513e+07 3.654945370792e-03 9.938227225684e-06 -4.495413988398e-04 0.000000000000e+00 2.496103566890e+07 1.076294287255e+07  3.899238219511e-03
3.600000000000e+01 -7.735473979596e+06 9.636979340718e-01 8.189801256125e+01 -8.334456709152e-05 9.702796262904e-03 -2.092896160930e+07 2.465826699104e+03 -3.052604513736e+07 -1.856902924137e+07 5.567575260290e-03 1.018615499815e-05 -4.692026825832e-04 0.000000000000e+00 2.334134532934e+07 1.096912846685e+07  5.816414527629e-03
3.700000000000e+01 -4.373865261297e+06 9.829980540760e-01 8.173237003973e+01 -8.322108487703e-05 9.786460742693e-03 -1.834701426168e+07 3.604698552573e+03 -2.912442178042e+07 -1.731524935707e+07 7.589974929673e-03 1.287651837870e-05 -4.891747629281e-04 0.000000000000e+00 2.159556179972e+07 1.132858514844e+07  7.846039318203e-03
3.800000000000e+01 1.969316168150e+06 1.000000000000e+00 8.155815870310e+01 -8.382014686029e-05 9.776796017813e-03 -1.414718482085e+07 7.716882835691e+03 -2.709252527182e+07 -1.533019627562e+07 1.086057164008e-02 3.419750800154e-05 -5.257117625950e-04 0.000000000000e+00 1.885663545610e+07 1.239625137310e+07  1.113289844896e-02
3.900000000000e+01 2.143157947716e+06 1.000000000000e+00 8.137922522631e+01 -8.385475243045e-05 9.967756915344e-03 -1.407746612740e+07 3.729317257433e+03 -2.711220469717e+07 -1.531270201696e+07 1.091746362545e-02 7.593584367815e-06 -5.257189229275e-04 0.000000000000e+00 1.883412428051e+07 1.246311687003e+07  1.118959707071e-02
4.000000000000e+01 2.172544096268e+06 1.000000000000e+00 8.118933107933e+01 -8.388947790104e-05 9.968674579781e-03 -1.408112444327e+07 3.319194643194e+04 -2.711855538369e+07 -1.531552217794e+07 1.091533923327e-02 9.794249312575e-05 -5.259083575955e-04 0.000000000000e+00 1.883840066830e+07 1.246628546082e+07  1.118885411929e-02
4.200000000000e+01 2.229827785101e+06 1.000000000000e+00 8.091450156651e+01 -8.395691637328e-05 1.018304660684e-02 -1.408848208312e+07 3.729244855162e+03 -2.713164361521e+07 -1.532141508293e+07 1.091172133127e-02 7.593339856288e-06 -5.262699129389e-04 0.000000000000e+00 1.884718026042e+07 1.247248507642e+07  1.118415423910e-02
4.400000000000e+01 2.285593823194e+06 1.000000000000e+00 8.061916130710e+01 -8.402156454665e-05 1.031388635072e-02 -1.409513821274e+07 3.729252017646e+03 -2.714421021675e+07 -1.532690231361e+07 1.090833554678e-02 7.593349606028e-06 -5.266099254301e-04 0.000000000000e+00 1.885541691437e+07 1.247886958998e+07  1.118095314186e-02
5.000000000000e+01 2.437116675730e+06 1.000000000000e+00 7.942409671582e+01 -8.418439068903e-05 1.058758688443e-02 -1.410720609722e+07 3.729207772779e+03 -2.717678581370e+07 -1.533892872212e+07 1.090029435357e-02 7.593192279547e-06 -5.273601397490e-04 0.000000000000e+00 1.887430687768e+07 1.249931995255e+07  1.117331998266e-02
6.500000000000e+01 2.768502561932e+06 1.000000000000e+00 7.676123281614e+01 -8.451157322809e-05 1.059046704039e-02 -1.412152548547e+07 1.551967021802e+05 -2.724697552031e+07 -1.536092213226e+07 1.089027496608e-02 4.724952907426e-04 -5.287005114738e-04 0.000000000000e+00 1.890980771268e+07 1.255460720028e+07  1.119397437962e-02
8.000000000000e+01 3.023555602508e+06 1.000000000000e+00 7.431444530304e+01 -8.475015393201e-05 1.127229255490e-02 -1.412423908865e+07 3.728992078634e+03 -2.729832328569e+07 -1.537388043801e+07 1.088529078357e-02 7.592490092171e-06 -5.295087332287e-04 0.000000000000e+00 1.893214760412e+07 1.259584293711e+07  1.115947868015e-02
1.000000000000e+02 3.324236306499e+06 1.000000000000e+00 7.184336441492e+01 -8.501762666612e-05 1.127340755714e-02 -1.412616122721e+07 6.325507718023e+04 -2.736412409451e+07 -1.539079544320e+07 1.088302735243e-02 1.902882500820e-04 -5.302866562094e-04 0.000000000000e+00 1.896036025497e+07 1.265360752508e+07  1.116249261277e-02
1.860000000000e+02 3.922717717333e+06 1.000000000000e+00 6.661921411040e+01 -8.552964474941e-05 1.167610442308e-02 -1.411577544296e+07 3.728980837972e+03 -2.748980235186e+07 -1.541788723264e+07 1.088591095848e-02 7.592457684591e-06 -5.315979453720e-04 0.000000000000e+00 1.900782167582e+07 1.277284833055e+07  1.116121653794e-02
2.720000000000e+02 4.213038134357e+06 1.000000000000e+00 6.336129399570e+01 -8.574662714548e-05 1.167576260312e-02 -1.409832544843e+07 -3.055406908798e+04 -2.755173525189e+07 -1.542644119258e+07 1.089024871476e-02 -9.822714629631e-05 -5.317138932555e-04 0.000000000000e+00 1.902550063097e+07 1.284107635873e+07  1.116690104698e-02
3.580000000000e+02 4.354403716316e+06 1.000000000000e+00 6.123180620840e+01 -8.582315152485e-05 1.133212059089e-02 -1.407669264587e+07 3.729082842283e+03 -2.757792068631e+07 -1.542450976036e+07 1.089710139675e-02 7.592774595571e-06 -5.314620559492e-04 0.000000000000e+00 1.902637436418e+07 1.288031929234e+07  1.117232471919e-02
4.440000000000e+02 4.426533293700e+06 1.000000000000e+00 5.967385395555e+01 -8.585128364626e-05 1.133101659443e-02 -1.405930010735e+07 -5.073641046420e+04 -2.758828283577e+07 -1.542001275207e+07 1.090146538099e-02 -1.596126699342e-04 -5.311986410255e-04 0.000000000000e+00 1.902253189840e+07 1.290285151619e+07  1.117995490411e-02
5.300000000000e+02 4.465496547504e+06 1.000000000000e+00 5.850929470648e+01 -8.585562337373e-05 1.102488485357e-02 -1.404442769484e+07 3.729133338565e+03 -2.759190654151e+07 -1.541483538906e+07 1.090513616336e-02 7.592925462416e-06 -5.309270537839e-04 0.000000000000e+00 1.901705654181e+07 1.291691421432e+07  1.118006632582e-02
6.160000000000e+02 4.488010743679e+06 1.000000000000e+00 5.764205152257e+01 -8.585177119099e-05 1.090666068624e-02 -1.403267029821e+07 3.729120688436e+03 -2.759292180863e+07 -1.541026597346e+07 1.090795982139e-02 7.592883989762e-06 -5.306914496615e-04 0.000000000000e+00 1.901195269344e+07 1.292662712208e+07  1.118276150358e-02
7.020000000000e+02 4.501813772138e+06 1.000000000000e+00 5.701255832344e+01 -8.584609470605e-05 1.081597350761e-02 -1.402383267087e+07 3.729141572264e+03 -2.759301863206e+07 -1.540666350473e+07 1.091006829359e-02 7.592945489205e-06 -5.305056213031e-04 0.000000000000e+00 1.900783826922e+07 1.293333606408e+07  1.118476874602e-02
7.880000000000e+02 4.511438488774e+06 1.000000000000e+00 5.653877467782e+01 -8.583996120290e-05 1.073425200128e-02 -1.401694571507e+07 3.729172908559e+03 -2.759337082793e+07 -1.540396052104e+07 1.091175697531e-02 7.593038783046e-06 -5.303371594102e-04 0.000000000000e+00 1.900475902135e+07 1.293879700720e+07  1.118636585099e-02
8.740000000000e+02 4.519827439821e+06 1.000000000000e+00 5.574293719044e+01 -8.582415085012e-05 1.073117061041e-02 -1.400503802896e+07 -5.358071900034e+04 -2.759059552773e+07 -1.539831627646e+07 1.091441723088e-02 -1.679296649585e-04 -5.300854312701e-04 0.000000000000e+00 1.899798327772e+07 1.294560727678e+07  1.119266137861e-02
9.370000000000e+02 4.525196511729e+06 1.000000000000e+00 5.522755797772e+01 -8.580933637943e-05 1.072820465349e-02 -1.399608863886e+07 -8.364070626948e+04 -2.758928852965e+07 -1.539440478481e+07 1.091691646934e-02 -2.601588192130e-04 -5.298659946303e-04 0.000000000000e+00 1.899326065111e+07 1.295159325086e+07  1.120032918301e-02
1.000000000000e+03 4.529388462290e+06 1.000000000000e+00 5.483601786019e+01 -8.580134046446e-05 1.044426827176e-02 -1.398989200923e+07 3.729165838093e+03 -2.758825768284e+07 -1.539161709471e+07 1.091846765004e-02 7.593010311841e-06 -5.297176728742e-04 0.000000000000e+00 1.898992226226e+07 1.295450707832e+07  1.119273938204e-02
1.100000000000e+03 4.533537198826e+06 1.000000000000e+00 5.445290444344e+01 -8.579043166094e-05 1.036109573309e-02 -1.398292150688e+07 3.729187266511e+03 -2.758730745292e+07 -1.538861143018e+07 1.092056065365e-02 7.593072760850e-06 -5.295454298149e-04 0.000000000000e+00 1.898628012999e+07 1.295884927811e+07  1.119473846509e-02
1.200000000000e+03 4.536797507112e+06 1.000000000000e+00 5.411538600356e+01 -8.578104299097e-05 1.029197674457e-02 -1.397699689393e+07 3.729186713286e+03 -2.758633395991e+07 -1.538599396789e+07 1.092224130047e-02 7.593068541352e-06 -5.294006441450e-04 0.000000000000e+00 1.898310827391e+07 1.296240154238e+07  1.119634023294e-02
1.300000000000e+03 4.539702921102e+06 1.000000000000e+00 5.378897487977e+01 -8.577214288444e-05 1.029137549306e-02 -1.397138580779e+07 -1.969766855570e+04 -2.758529097928e+07 -1.538347138182e+07 1.092377737765e-02 -6.429343252242e-05 -5.292651157381e-04 0.000000000000e+00 1.898004938963e+07 1.296570725346e+07  1.119834849403e-02
1.400000000000e+03 4.542442575659e+06 1.000000000000e+00 5.345626160711e+01 -8.576226040689e-05 1.015821156736e-02 -1.396548156719e+07 3.729188366242e+03 -2.758422180304e+07 -1.538083844361e+07 1.092544815367e-02 7.593069137332e-06 -5.291190344163e-04 0.000000000000e+00 1.897684727128e+07 1.296911657664e+07  1.119939372702e-02
1.500000000000e+03 4.545082263658e+06 1.000000000000e+00 5.310717618857e+01 -8.575168291955e-05 1.008482540706e-02 -1.395924558838e+07 3.729195977396e+03 -2.758302128515e+07 -1.537803937376e+07 1.092721726730e-02 7.593090162287e-06 -5.289647873189e-04 0.000000000000e+00 1.897343541577e+07 1.297270031528e+07  1.120107883536e-02
1.600000000000e+03 4.547643486592e+06 1.000000000000e+00 5.273557688192e+01 -8.573986253989e-05 1.000405645879e-02 -1.395246480757e+07 3.729217842907e+03 -2.758169043329e+07 -1.537499790059e+07 1.092918025617e-02 7.593155033190e-06 -5.287954265316e-04 0.000000000000e+00 1.896971771382e+07 1.297657153465e+07  1.120294957491e-02
1.700000000000e+03 4.550130703290e+06 1.000000000000e+00 5.233767163116e+01 -8.572660710747e-05 9.914683600689e-03 -1.394504871870e+07 3.729206359067e+03 -2.758021237126e+07 -1.537167509125e+07 1.093136991368e-02 7.593118373279e-06 -5.286084581446e-04 0.000000000000e+00 1.896564539374e+07 1.298078226838e+07  1.120503737850e-02
1.800000000000e+03 4.552544125330e+06 1.000000000000e+00 5.191117277764e+01 -8.571179789721e-05 9.815970357192e-03 -1.393694215347e+07 3.729197662545e+03 -2.757857582259e+07 -1.536804694976e+07 1.093380627057e-02 7.593089120501e-06 -5.284023751900e-04 0.000000000000e+00 1.896118830861e+07 1.298536347000e+07  1.120736145579e-02
1.900000000000e+03 4.554883180082e+06 1.000000000000e+00 5.145479350818e+01 -8.569536782284e-05 9.707498959056e-03 -1.392811461268e+07 3.729189277003e+03 -2.757677495596e+07 -1.536410030696e+07 1.093650018956e-02 7.593061382620e-06 -5.281763150726e-04 0.000000000000e+00 1.895632995854e+07 1.299033274408e+07  1.120993220094e-02