 TITLE = "Time curves in points"
 VARIABLES = "TIME"  "PRESSURE1"  "SATURATION1"  "TEMPERATURE1"  "DISPLACEMENT_X1"  "DISPLACEMENT_Y1"  "STRESS_XX"  "STRESS_XY"  "STRESS_YY"  "STRESS_ZZ"  "STRAIN_XX"  "STRAIN_XY"  "STRAIN_YY"  "STRAIN_PLS"  p_(1st_Invariant)  q_(2nd_Invariant)   Effective_Strain
 ZONE T="POINT=POINT1"
0.000000000000e+00 -7.000000000000e+07 8.894919982500e-01 2.500000000000e+01 0.000000000000e+00 0.000000000000e+00 0.000000000000e+00 0.000000000000e+00 0.000000000000e+00 0.000000000000e+00 0.000000000000e+00 0.000000000000e+00 0.000000000000e+00 0.000000000000e+00 -0.000000000000e+00 0.000000000000e+00  0.000000000000e+00
1.000000000000e-03 -7.000000000000e+07 6.684759947500e-01 3.310905024514e+01 3.398015631014e-05 6.368714026825e-05 -5.906039614226e+06 -1.222174207677e+02 6.402298308242e+06 7.221810538595e+03 -7.199686924825e-03 -3.547697461138e-07 1.662443321848e-04 0.000000000000e+00 -1.678268348517e+05 1.066205530356e+07  7.284232047088e-03
2.000000000000e-03 -7.015907454864e+07 6.678662387817e-01 3.680324652000e+01 3.394319455797e-05 6.351683238736e-05 -5.981786550167e+06 -1.862642955429e+02 6.334002544796e+06 -4.190175415628e+04 -7.225647723801e-03 -5.384707802158e-07 1.664079254889e-04 0.000000000000e+00 -1.034380801577e+05 1.066801406680e+07  7.310272398756e-03
3.000000000000e-03 -7.037130608275e+07 6.670521908508e-01 3.937002890421e+01 3.390391227954e-05 6.320917691934e-05 -6.074161016791e+06 -2.129685913060e+02 6.255684090930e+06 -9.802476261701e+04 -7.272230167597e-03 -6.149406013970e-07 1.667975085009e-04 0.000000000000e+00 -2.783277050722e+04 1.067962783473e+07  7.357047235611e-03
4.000000000000e-03 -7.061820315145e+07 6.661049302029e-01 4.139950772454e+01 3.386338793756e-05 6.276620200887e-05 -6.176990482570e+06 -2.239836095138e+02 6.170916948939e+06 -1.588069470624e+05 -7.330514041451e-03 -6.464351319501e-07 1.673159720861e-04 0.000000000000e+00 5.496016023100e+04 1.069473599265e+07  7.415587912148e-03
1.000000000000e-02 -7.212935460053e+07 6.602938290913e-01 4.814735038689e+01 3.363930392677e-05 6.002141597882e-05 -6.778987113205e+06 -2.314173350420e+02 5.697813338343e+06 -5.018427314975e+05 -7.714070146122e-03 -6.674129227582e-07 1.707775136290e-04 0.000000000000e+00 5.276721687866e+05 1.080529561840e+07  7.800861121331e-03
2.000000000000e-02 -7.524730992553e+07 6.482622391394e-01 5.436283958387e+01 3.325122405568e-05 5.822060820448e-05 -7.925062271452e+06 -2.331638415266e+02 4.857930426452e+06 -1.129212238525e+06 -8.510941011791e-03 -6.719900583051e-07 1.777946090610e-04 0.000000000000e+00 1.398781361175e+06 1.107777860407e+07  8.601216693808e-03
3.000000000000e-02 -7.893054986713e+07 6.339986448635e-01 5.830139727203e+01 3.284111619321e-05 5.858735397825e-05 -9.176153279186e+06 -2.340866689938e+02 4.005163721192e+06 -1.791748393794e+06 -9.424029280959e-03 -6.743534528474e-07 1.853372367929e-04 0.000000000000e+00 2.320912650596e+06 1.144291797955e+07  9.518051412467e-03
4.000000000000e-02 -8.274830419889e+07 6.191580483522e-01 6.102917500655e+01 3.243464724823e-05 6.128346342900e-05 -1.038292767809e+07 -2.347788520090e+02 3.244717012176e+06 -2.411132342129e+06 -1.033519431670e-02 -6.762131935465e-07 1.922246147583e-04 0.000000000000e+00 3.183114336013e+06 1.185855920700e+07  1.043263494925e-02
5.000000000000e-02 -8.646458731301e+07 6.110473851967e-01 6.303907960436e+01 3.198434028037e-05 6.128590133566e-05 -1.190857363033e+07 1.350023357192e+02 2.154211122756e+06 -3.235255480735e+06 -1.142555477133e-02 4.777613136123e-07 2.027634871885e-04 0.000000000000e+00 4.329872662769e+06 1.228891193546e+07  1.152827397651e-02
6.000000000000e-02 -8.999223162203e+07 6.035636092908e-01 6.459149100451e+01 3.153890207780e-05 7.099413185134e-05 -1.335999057498e+07 -2.364010388282e+02 1.212476415836e+06 -3.991642475775e+06 -1.249546685465e-02 -6.802525783441e-07 2.117901417707e-04 0.000000000000e+00 5.379718878307e+06 1.279073090327e+07  1.260269673779e-02
7.000000000000e-02 -9.331716929778e+07 5.965377377464e-01 6.584443306584e+01 3.110629381154e-05 7.702433363812e-05 -1.472044151011e+07 -2.373969703089e+02 4.081101929006e+05 -4.678074154200e+06 -1.352670365972e-02 -6.826666007157e-07 2.195029983141e-04 0.000000000000e+00 6.330135157136e+06 1.333400709263e+07  1.363778012995e-02
8.000000000000e-02 -9.644615882763e+07 5.900016052189e-01 6.688977752487e+01 3.069155603353e-05 8.384541535141e-05 -1.599360274416e+07 -2.395197863372e+02 -2.948649138650e+05 -5.306227194844e+06 -1.451087865444e-02 -6.885858458525e-07 2.260791189033e-04 0.000000000000e+00 7.198231617623e+06 1.388855856185e+07  1.462522885889e-02
9.000000000000e-02 -9.940042087716e+07 5.839014870264e-01 6.778635190790e+01 3.029532620790e-05 9.005349647966e-05 -1.717927063674e+07 -2.414410580752e+02 -9.344631391767e+05 -5.886772250436e+06 -1.543188851457e-02 -6.941568636191e-07 2.319996361555e-04 0.000000000000e+00 8.000168675452e+06 1.442115904359e+07  1.554918650359e-02
1.000000000000e-01 -1.021958375388e+08 5.772939348282e-01 6.856669367088e+01 2.993097335744e-05 9.561209529975e-05 -1.820459552645e+07 -2.456110671057e+02 -1.450593906407e+06 -6.377351489789e+06 -1.624226865140e-02 -7.058325694538e-07 2.377014744187e-04 0.000000000000e+00 8.677513640882e+06 1.491397352208e+07  1.636241441952e-02
2.000000000000e-01 -1.187516576213e+08 5.380454470917e-01 7.279261234533e+01 2.764517577987e-05 1.904519182957e-04 -2.374039929769e+07 -2.137947801303e+02 -4.120214641646e+06 -8.988352413879e+06 -2.060732262178e-02 -6.174541446094e-07 2.729010034896e-04 0.000000000000e+00 1.228298878441e+07 1.769566753252e+07  2.074511944439e-02
3.000000000000e-01 -1.341076557064e+08 5.086722764511e-01 7.558238752096e+01 2.565456957527e-05 3.002700994053e-04 -2.847853865264e+07 -2.238426841947e+02 -6.827150443274e+06 -1.134379375711e+07 -2.416346194409e-02 -6.459034423838e-07 3.101720390020e-04 0.000000000000e+00 1.554982761767e+07 1.978360635921e+07  2.432003148291e-02
4.000000000000e-01 -1.471562298168e+08 4.912841749620e-01 7.759060036906e+01 2.383692531153e-05 4.058360784146e-04 -3.290137459401e+07 -2.332010638484e+02 -9.412667403220e+06 -1.356524019216e+07 -2.745602328954e-02 -6.684879580787e-07 3.431389131913e-04 0.000000000000e+00 1.862642739646e+07 2.171231586214e+07  2.762919091328e-02
5.000000000000e-01 -1.578188093455e+08 4.765742391107e-01 7.913407170219e+01 2.229974675876e-05 5.083764680778e-04 -3.626139506005e+07 -2.390518087719e+02 -1.129662070299e+07 -1.522901598346e+07 -2.997973301181e-02 -6.796458028174e-07 3.646506026071e-04 0.000000000000e+00 2.092901058217e+07 2.324935118778e+07  3.016371148609e-02
6.000000000000e-01 -1.664470021273e+08 4.628553817461e-01 8.036202840840e+01 2.106453939720e-05 6.083222464770e-04 -3.858882895562e+07 -2.447007743942e+02 -1.253779856707e+07 -1.636100722059e+07 -3.174696059649e-02 -6.892746110575e-07 3.800668332393e-04 0.000000000000e+00 2.249587824776e+07 2.436543831082e+07  3.193869011273e-02
7.000000000000e-01 -1.732705663452e+08 4.540722615699e-01 8.135405414553e+01 1.996903709804e-05 7.058107061826e-04 -4.065319780425e+07 -2.530658621673e+02 -1.376537573312e+07 -1.740307418197e+07 -3.326498366158e-02 -6.935530752242e-07 3.944893197107e-04 0.000000000000e+00 2.394054923978e+07 2.526614409214e+07  3.346397229928e-02
8.000000000000e-01 -1.785574878993e+08 4.487369268225e-01 8.216210405303e+01 1.900559046057e-05 3.813695307119e-02 -4.245756483391e+07 -1.865433630982e+07 -1.491917443105e+07 -1.833832201108e+07 -3.456224969774e-02 -5.707811586005e-02 4.088106309963e-04 0.000000000000e+00 2.523835375868e+07 4.147105598764e+07  1.047978032967e-01
9.000000000000e-01 -1.825455354909e+08 4.447347654608e-01 8.283348418804e+01 1.815762370060e-05 8.939111846105e-04 -4.388533387785e+07 -2.342037364359e+02 -1.584463838341e+07 -1.908212101575e+07 -3.558272660891e-02 -6.029299253828e-07 4.189574368263e-04 0.000000000000e+00 2.627069775901e+07 2.657029606739e+07  3.579404429908e-02
1.000000000000e+00 -1.854867315906e+08 4.417945844349e-01 8.339527886974e+01 1.741600175971e-05 9.845732294361e-04 -4.503504796630e+07 -2.302026872058e+02 -1.656600672814e+07 -1.967458769182e+07 -3.641378844819e-02 -5.587534284899e-07 4.255603267529e-04 0.000000000000e+00 2.709188079542e+07 2.704905294349e+07  3.662842278052e-02
2.000000000000e+00 -1.860998029172e+08 4.410419437576e-01 8.535753332301e+01 1.343121554235e-05 1.736066630913e-03 -4.834112332386e+07 -1.359151248949e+02 -1.916539988893e+07 -2.153509145280e+07 -3.865545829293e-02 -1.833978861768e-07 4.424992748904e-04 0.000000000000e+00 2.968053822186e+07 2.806600809558e+07  3.887859660290e-02
3.000000000000e+00 -1.774891017758e+08 4.495795733837e-01 8.593561672871e+01 1.080647093779e-05 2.373764606313e-03 -4.884894182508e+07 2.368301790362e+02 -2.006307199747e+07 -2.197082512481e+07 -3.886345949036e-02 1.074586367626e-06 4.410646151314e-04 0.000000000000e+00 3.029427964912e+07 2.788098797941e+07  3.908585833548e-02
4.000000000000e+00 -1.655179158846e+08 4.640228389502e-01 8.594181060190e+01 8.869153916677e-06 2.377266967028e-03 -4.830399162200e+07 1.728580716481e+05 -2.033994014927e+07 -2.187742296620e+07 -3.828989003691e-02 5.312183963522e-04 4.290440382885e-04 0.000000000000e+00 3.017378491249e+07 2.722953211662e+07  3.851719597564e-02
5.000000000000e+00 -1.531383074252e+08 4.825992400561e-01 8.575846066721e+01 7.297448331841e-06 3.420668904153e-03 -4.749250170522e+07 8.145486912334e+02 -2.053901448665e+07 -2.167360738818e+07 -3.747236776264e-02 3.510220427626e-06 4.157337082614e-04 0.000000000000e+00 2.990170786002e+07 2.640447956341e+07  3.768195514603e-02
6.000000000000e+00 -1.414940106912e+08 4.976938476946e-01 8.561855139597e+01 6.059212236100e-06 3.864341193412e-03 -4.598213880160e+07 1.024581280271e+03 -2.017158187316e+07 -2.106982611934e+07 -3.618465671369e-02 4.653050987623e-06 3.966303975412e-04 0.000000000000e+00 2.907451559803e+07 2.537336222457e+07  3.638459422462e-02
7.000000000000e+00 -1.312343108271e+08 5.110276239027e-01 8.535781904298e+01 5.021940777912e-06 4.267688275736e-03 -4.443322975439e+07 1.419524099061e+03 -1.959484169403e+07 -2.039258258951e+07 -3.494998039129e-02 5.704124161996e-06 3.785834779872e-04 0.000000000000e+00 2.814021801264e+07 2.444928056375e+07  3.514080302931e-02
8.000000000000e+00 -1.218124760191e+08 5.294013447894e-01 8.528219684749e+01 4.000577207212e-06 4.640813415174e-03 -4.343030912390e+07 1.471074003813e+03 -1.940618148530e+07 -2.001328303996e+07 -3.408174387477e-02 5.961406442765e-06 3.651152888462e-04 0.000000000000e+00 2.761659121639e+07 2.372640306382e+07  3.426576202412e-02
9.000000000000e+00 -1.135309100987e+08 5.485280292358e-01 8.520333329591e+01 3.059438982170e-06 4.986362655416e-03 -4.259154501496e+07 1.343700018521e+03 -1.942488891818e+07 -1.974864148470e+07 -3.328973915867e-02 6.243424578041e-06 3.546898266841e-04 0.000000000000e+00 2.725502513928e+07 2.300648846475e+07  3.346849543794e-02
1.000000000000e+01 -1.060027444346e+08 5.654957297874e-01 8.512020195793e+01 2.232845980690e-06 5.308114654893e-03 -4.156126330983e+07 1.354302819134e+03 -1.929549421907e+07 -1.937520609945e+07 -3.235912544466e-02 6.885596010288e-06 3.442136344585e-04 0.000000000000e+00 2.674398787612e+07 2.222602047976e+07  3.253260021857e-02
1.100000000000e+01 -9.920712250194e+07 5.774470281089e-01 8.508992033321e+01 1.565212353565e-06 5.611559196820e-03 -4.016521638201e+07 1.221666463635e+03 -1.881799564778e+07 -1.877566122226e+07 -3.120587161164e-02 6.869655080028e-06 3.336985851198e-04 0.000000000000e+00 2.591962441735e+07 2.136841950364e+07  3.137405416213e-02
1.200000000000e+01 -9.310164042445e+07 5.881956851216e-01 8.506072886026e+01 9.433173146157e-07 5.895624618309e-03 -3.882750082248e+07 1.416545600137e+03 -1.833302995550e+07 -1.819294556368e+07 -3.010991328644e-02 7.272799310992e-06 3.223735244212e-04 0.000000000000e+00 2.511782544722e+07 2.056487104898e+07  3.027239006674e-02
1.300000000000e+01 -8.749469812578e+07 5.980313957934e-01 8.501131571921e+01 3.455698651827e-07 6.163147595631e-03 -3.757441926917e+07 1.655924529365e+03 -1.773444828627e+07 -1.760633153525e+07 -2.914047205813e-02 7.768010815549e-06 3.085979261755e-04 0.000000000000e+00 2.430506636357e+07 1.990433880724e+07  2.929599315131e-02
1.400000000000e+01 -8.219117512962e+07 6.142796240892e-01 8.492254158185e+01 -2.794497957586e-07 6.416354669042e-03 -3.677354408847e+07 1.771893116896e+03 -1.750581856337e+07 -1.728163808713e+07 -2.845729172139e-02 7.664093565489e-06 2.978071511036e-04 0.000000000000e+00 2.385366691299e+07 1.938078845403e+07  2.860736098290e-02
1.500000000000e+01 -7.715797094868e+07 6.332700080980e-01 8.481756095972e+01 -8.653978372857e-07 6.655380301172e-03 -3.608271692742e+07 1.543567377427e+03 -1.739500846700e+07 -1.702928980909e+07 -2.783197985387e-02 7.409972844731e-06 2.884700557933e-04 0.000000000000e+00 2.350233840117e+07 1.887322570319e+07  2.797733323717e-02
1.600000000000e+01 -7.243872986770e+07 6.510621264686e-01 8.470075328020e+01 -1.378521749785e-06 6.657234771971e-03 -3.527820646711e+07 7.529911176102e+04 -1.719585528394e+07 -1.671262527025e+07 -2.713129954081e-02 2.342116027280e-04 2.781636996027e-04 0.000000000000e+00 2.306222900710e+07 1.832920839088e+07  2.727446237228e-02
1.700000000000e+01 -6.798215591219e+07 6.678476560354e-01 8.456897558945e+01 -1.844166368070e-06 7.094530534245e-03 -3.438150390639e+07 1.305489697255e+03 -1.692895660670e+07 -1.634474618333e+07 -2.636779388244e-02 7.295933397037e-06 2.683939183898e-04 0.000000000000e+00 2.255173556548e+07 1.775186396485e+07  2.650301312556e-02
1.800000000000e+01 -6.374879118138e+07 6.837835317803e-01 8.442126255931e+01 -2.262733130097e-06 7.296649282580e-03 -3.341159758379e+07 1.174728711496e+03 -1.660743384650e+07 -1.593598198444e+07 -2.555292945014e-02 7.309076677470e-06 2.572501517584e-04 0.000000000000e+00 2.198500447158e+07 1.714975095109e+07  2.568252394861e-02
1.900000000000e+01 -5.970229354164e+07 6.990164999299e-01 8.425635705140e+01 -2.636899857140e-06 7.488107990742e-03 -3.236264545945e+07 1.039718388116e+03 -1.624529903601e+07 -1.548839638305e+07 -2.467772542440e-02 7.234812439330e-06 2.462011835869e-04 0.000000000000e+00 2.136544695950e+07 1.650881651933e+07  2.480174569219e-02
2.000000000000e+01 -5.591167188109e+07 7.132931241927e-01 8.407728923581e+01 -2.971183624127e-06 7.670996165382e-03 -3.127724199823e+07 8.154444490627e+02 -1.584896033809e+07 -1.501793465510e+07 -2.377729703454e-02 6.623767460173e-06 2.350875372505e-04 0.000000000000e+00 2.071471233047e+07 1.586013174502e+07  2.389571087547e-02
2.100000000000e+01 -5.230263574478e+07 7.252707769324e-01 8.398894340751e+01 -3.250188144256e-06 7.844334324853e-03 -3.007758347194e+07 6.134131742575e+02 -1.535419346273e+07 -1.447948503530e+07 -2.280659540063e-02 6.344624788112e-06 2.237446790478e-04 0.000000000000e+00 1.997042065666e+07 1.517965752732e+07  2.291928948681e-02
2.200000000000e+01 -4.892775271031e+07 7.360609190071e-01 8.389868400017e+01 -3.513153131611e-06 8.010288701267e-03 -2.888578844715e+07 4.509310954107e+02 -1.485446417033e+07 -1.394152267680e+07 -2.184689677268e-02 6.038002706856e-06 2.124177531644e-04 0.000000000000e+00 1.922725843143e+07 1.450935222135e+07  2.195387888271e-02
2.300000000000e+01 -4.578630807690e+07 7.458698428277e-01 8.379980761998e+01 -3.754887319883e-06 8.169721303171e-03 -2.772080322507e+07 4.364071443663e+02 -1.433332501070e+07 -1.340593774777e+07 -2.092057068054e-02 5.688647125862e-06 2.009746451884e-04 0.000000000000e+00 1.848668866118e+07 1.387443683274e+07  2.102178084177e-02
2.400000000000e+01 -4.273737125012e+07 7.561677651720e-01 8.368693073806e+01 -3.971588958432e-06 8.170524656162e-03 -2.655977333376e+07 4.926003442144e+04 -1.380013057485e+07 -1.286858416957e+07 -2.000114477508e-02 1.553287894290e-04 1.892905060044e-04 0.000000000000e+00 1.774282935939e+07 1.325027324390e+07  2.009825940531e-02
2.500000000000e+01 -3.972039211528e+07 7.706768450691e-01 8.355718496177e+01 -4.175473565358e-06 8.466553660282e-03 -2.548327854163e+07 2.056339623845e+02 -1.334789292104e+07 -1.238522700669e+07 -1.912300944681e-02 5.129554406093e-06 1.783474716369e-04 0.000000000000e+00 1.707213282312e+07 1.264423315367e+07  1.921280607942e-02
2.600000000000e+01 -3.674690197054e+07 7.856724775477e-01 8.341465113383e+01 -4.352551818676e-06 8.467108127042e-03 -2.435516461315e+07 3.714024053487e+04 -1.286126195272e+07 -1.187487281678e+07 -1.820574148002e-02 1.188602323413e-04 1.671477384802e-04 0.000000000000e+00 1.636376646088e+07 1.201766869244e+07  1.829104679847e-02
2.700000000000e+01 -3.382536535967e+07 8.010888069317e-01 8.325927499564e+01 -4.508922298987e-06 8.737200258809e-03 -2.318154526250e+07 -8.227090679191e+01 -1.234374784495e+07 -1.134052247043e+07 -1.725313015147e-02 4.579396667989e-06 1.554968991748e-04 0.000000000000e+00 1.562193852596e+07 1.137264557654e+07  1.733140359178e-02
2.800000000000e+01 -3.094423989943e+07 8.170103655850e-01 8.309101810095e+01 -4.638739993716e-06 8.863396548061e-03 -2.195486989525e+07 -2.352830402590e+02 -1.179371361639e+07 -1.077923728363e+07 -1.625912995369e-02 4.284129427338e-06 1.435162647023e-04 0.000000000000e+00 1.484260693176e+07 1.070450895079e+07  1.633136272418e-02
2.900000000000e+01 -2.809010199935e+07 8.334581936615e-01 8.290988092229e+01 -4.741170214339e-06 8.863591038770e-03 -2.066475536490e+07 2.000301241937e+04 -1.120497949009e+07 -1.018576104697e+07 -1.521584936743e-02 6.706823802921e-05 1.311668346670e-04 0.000000000000e+00 1.401849863398e+07 1.000844364710e+07  1.528229648825e-02
3.000000000000e+01 -2.525050456300e+07 8.504808452035e-01 8.271590736143e+01 -4.825287933160e-06 9.098387048238e-03 -1.930254519873e+07 -5.333796928302e+02 -1.056954611648e+07 -9.554860760370e+06 -1.411612393311e-02 3.735955408233e-06 1.182567090338e-04 0.000000000000e+00 1.314231735853e+07 9.282031376790e+06  1.417562371738e-02
3.100000000000e+01 -2.240930402332e+07 8.681657800615e-01 8.259379692318e+01 -4.878506347441e-06 9.209117559021e-03 -1.785376045650e+07 -7.205855420433e+02 -9.883196697300e+06 -8.880651406704e+06 -1.294836684111e-02 3.352394336012e-06 1.049056029298e-04 0.000000000000e+00 1.220586952017e+07 8.516210214476e+06  1.300113837261e-02
3.200000000000e+01 -1.960626494335e+07 8.861325893062e-01 8.247041848592e+01 -4.914020036896e-06 9.315858765944e-03 -1.634372562093e+07 -8.846926244608e+02 -9.160036068074e+06 -8.175403789773e+06 -1.173326109589e-02 3.017252255366e-06 9.132660782265e-05 0.000000000000e+00 1.122638849293e+07 7.723224150210e+06  1.177919109021e-02
3.300000000000e+01 -1.677025590971e+07 9.047373317237e-01 8.234022757066e+01 -4.921661222304e-06 9.418685561691e-03 -1.471982505642e+07 -1.043058268945e+03 -8.366401620103e+06 -7.411907437327e+06 -1.043039543973e-02 2.675170327512e-06 7.712270537389e-05 0.000000000000e+00 1.016604470462e+07 6.880505612280e+06  1.046917087093e-02
3.400000000000e+01 -1.387184056146e+07 9.239741076197e-01 8.220176811395e+01 -4.893691709641e-06 9.517452088379e-03 -1.294945815312e+07 -1.144474595164e+03 -7.480918508635e+06 -6.573042489747e+06 -9.016053440050e-03 2.438042902758e-06 6.221891417759e-05 0.000000000000e+00 9.001139717167e+06 5.974439274108e+06  9.047324340073e-03
3.500000000000e+01 -1.087324579975e+07 9.437517647392e-01 8.205443786152e+01 -4.831848827176e-06 9.612599148832e-03 -1.100075908941e+07 -1.272820535130e+03 -6.482931827739e+06 -5.642102151290e+06 -7.467277899818e-03 2.054581321124e-06 4.638523391907e-05 0.000000000000e+00 7.708597689480e+06 4.991641594305e+06  7.490579077687e-03
3.600000000000e+01 -7.735473849123e+06 9.636979349323e-01 8.189801256073e+01 -4.735800878974e-06 9.685398221854e-03 -8.836725661887e+06 -2.565527976289e+03 -5.349689909238e+06 -4.599919966944e+06 -5.758675290016e-03 -1.947385791128e-06 2.951965205818e-05 0.000000000000e+00 6.262111846023e+06 3.916129166340e+06  5.773492701434e-03
3.700000000000e+01 -4.373865148840e+06 9.829980546451e-01 8.173237003940e+01 -4.629492160994e-06 9.787586477096e-03 -6.405515729104e+06 -5.103831802013e+02 -4.056096995529e+06 -3.421441370617e+06 -3.853333915420e-03 3.785447704542e-06 1.108099743014e-05 0.000000000000e+00 4.627684698416e+06 2.722797962375e+06  3.858891916637e-03
3.800000000000e+01 1.969316349009e+06 1.000000000000e+00 8.155815870313e+01 -5.238569145675e-06 9.777939012554e-03 -2.262549810698e+06 3.445735092718e+03 -2.063872343260e+06 -1.466876376049e+06 -6.125819920302e-04 2.486513688526e-05 -2.520844969919e-05 0.000000000000e+00 1.931099510002e+06 7.173020194036e+05  6.019175571955e-04
3.900000000000e+01 2.143157949484e+06 1.000000000000e+00 8.137922522639e+01 -5.273174733142e-06 9.968899755899e-03 -2.192831209165e+06 -5.418204448802e+02 -2.083551740681e+06 -1.449382139436e+06 -5.556900789166e-04 -1.738740706809e-06 -2.521561063447e-05 0.000000000000e+00 1.908588363094e+06 6.952810101222e+05  5.435294801760e-04
4.000000000000e+01 2.172544116640e+06 1.000000000000e+00 8.118933107960e+01 -5.307862596876e-06 1.004384352428e-02 -2.196478859506e+06 -5.418619522895e+02 -2.089907685403e+06 -1.452200394157e+06 -5.578077211622e-04 -1.738876486747e-06 -2.540453778099e-05 0.000000000000e+00 1.912862313022e+06 6.971299018573e+05  5.455575753993e-04
4.200000000000e+01 2.229827572217e+06 1.000000000000e+00 8.091450156677e+01 -5.372695282300e-06 1.004418812355e-02 -2.203047759154e+06 3.080613663981e+04 -2.103146851403e+06 -1.457881185915e+06 -5.609245624582e-04 9.487646223963e-05 -2.573582086858e-05 0.000000000000e+00 1.921358598824e+06 7.026077499674e+05  5.725971292679e-04
4.400000000000e+01 2.285594083360e+06 1.000000000000e+00 8.061916130709e+01 -5.439986926311e-06 1.031502928867e-02 -2.210503173668e+06 -5.419362916554e+02 -2.115557222566e+06 -1.463582384831e+06 -5.648180617763e-04 -1.739130859729e-06 -2.610661447742e-05 0.000000000000e+00 1.929880927022e+06 7.042649890613e+05  5.522359863029e-04
5.000000000000e+01 2.437116118607e+06 1.000000000000e+00 7.942409671599e+01 -5.602812817600e-06 1.058872978591e-02 -2.222571438894e+06 -5.419593534957e+02 -2.148132936435e+06 -1.475608954293e+06 -5.728595576585e-04 -1.739224212592e-06 -2.685682448109e-05 0.000000000000e+00 1.948771109874e+06 7.126655291666e+05  5.599225374390e-04
6.500000000000e+01 2.768502594006e+06 1.000000000000e+00 7.676123280458e+01 -5.934217664279e-06 1.105306915287e-02 -2.237410387835e+06 -5.420014648806e+02 -2.217562038442e+06 -1.497542418177e+06 -5.831625637306e-04 -1.739380639121e-06 -2.822830843754e-05 0.000000000000e+00 1.984171614818e+06 7.301467611584e+05  5.695812468392e-04
8.000000000000e+01 3.023556444793e+06 1.000000000000e+00 7.431444553665e+01 -6.168576505152e-06 1.127343528412e-02 -2.239603788792e+06 -5.420886281526e+02 -2.269670215254e+06 -1.510560400357e+06 -5.878626144403e-04 -1.739660824708e-06 -2.900542544101e-05 0.000000000000e+00 2.006611468134e+06 7.445326475234e+05  5.739178008986e-04
1.000000000000e+02 3.324235832813e+06 1.000000000000e+00 7.184336443743e+01 -6.435944500503e-06 1.127385445068e-02 -2.240942533919e+06 4.024932577171e+04 -2.335365641455e+06 -1.527252379524e+06 -5.897188250814e-04 1.240862443427e-04 -2.977075822543e-05 0.000000000000e+00 2.034520184966e+06 7.684518375198e+05  6.142396944544e-04
1.860000000000e+02 3.922713870163e+06 1.000000000000e+00 6.661921379737e+01 -6.948065854496e-06 1.167724715384e-02 -2.231142299106e+06 -5.421013133299e+02 -2.461149925221e+06 -1.554568100482e+06 -5.872441634432e-04 -1.739697684820e-06 -3.109461249238e-05 0.000000000000e+00 2.082286774936e+06 8.162562472975e+05  5.723386518204e-04
2.720000000000e+02 4.213038202676e+06 1.000000000000e+00 6.336129421753e+01 -7.158183944675e-06 1.150915657192e-02 -2.211498285789e+06 -5.420209050847e+02 -2.523065208148e+06 -1.562401377030e+06 -5.815078782796e-04 -1.739447186085e-06 -3.114490473691e-05 0.000000000000e+00 2.098988290322e+06 8.489044419738e+05  5.665858162265e-04
3.580000000000e+02 4.354403861108e+06 1.000000000000e+00 6.123180620702e+01 -7.241573870639e-06 1.133326342043e-02 -2.192057661398e+06 -5.420467292511e+02 -2.549267709632e+06 -1.561189854866e+06 -5.760522546980e-04 -1.739526412035e-06 -3.095874443689e-05 0.000000000000e+00 2.100838408632e+06 8.665716409633e+05  5.612217630497e-04
4.440000000000e+02 4.426531523583e+06 1.000000000000e+00 5.967385407749e+01 -7.269781779225e-06 1.133442089679e-02 -2.174572291401e+06 -4.760320661038e+04 -2.559620933727e+06 -1.556659664440e+06 -5.716220361396e-04 -1.464358774922e-04 -3.069359005454e-05 0.000000000000e+00 2.096950963190e+06 8.802289960238e+05  6.119469869835e-04
5.300000000000e+02 4.465496889896e+06 1.000000000000e+00 5.850929465576e+01 -7.274045777601e-06 1.102602774377e-02 -2.159792617174e+06 -5.420296712067e+02 -2.563253536761e+06 -1.551515444281e+06 -5.680174143930e-04 -1.739477415578e-06 -3.042374331265e-05 0.000000000000e+00 2.091520532738e+06 8.821557581426e+05  5.534412783153e-04
6.160000000000e+02 4.488011946988e+06 1.000000000000e+00 5.764205152593e+01 -7.270193853376e-06 1.090780342374e-02 -2.148034814628e+06 -5.419677174422e+02 -2.564268676722e+06 -1.546945856406e+06 -5.651934333674e-04 -1.739290109682e-06 -3.018814385107e-05 0.000000000000e+00 2.086416449252e+06 8.858628693988e+05  5.507284956046e-04
7.020000000000e+02 4.501822580439e+06 1.000000000000e+00 5.701255831117e+01 -7.264519750166e-06 1.081711630669e-02 -2.139193693713e+06 -5.419748504104e+02 -2.564364460543e+06 -1.543341920409e+06 -5.630821728058e-04 -1.739314836143e-06 -3.000235617166e-05 0.000000000000e+00 2.082300024888e+06 8.883406741221e+05  5.487048008295e-04
7.880000000000e+02 4.511441036964e+06 1.000000000000e+00 5.653877482221e+01 -7.258779343133e-06 1.081646420505e-02 -2.132396221511e+06 -2.866434355085e+04 -2.564666636870e+06 -1.540653117372e+06 -5.614488038017e-04 -8.805733122780e-05 -2.983838537588e-05 0.000000000000e+00 2.079238658584e+06 8.917822517168e+05  5.680005664649e-04
8.740000000000e+02 4.519827029726e+06 1.000000000000e+00 5.574293726885e+01 -7.242611368825e-06 1.061986783903e-02 -2.120407232754e+06 -5.419820594567e+02 -2.561938999773e+06 -1.534996660352e+06 -5.587386529757e-04 -1.739342314778e-06 -2.958239267477e-05 0.000000000000e+00 2.072447630959e+06 8.922634618011e+05  5.445587663288e-04
9.370000000000e+02 4.525201046061e+06 1.000000000000e+00 5.522755797721e+01 -7.230192062023e-06 1.052491239473e-02 -2.112066214908e+06 -5.419948118948e+02 -2.560607660791e+06 -1.531275763220e+06 -5.566156828925e-04 -1.739383379770e-06 -2.938052990776e-05 0.000000000000e+00 2.067983212973e+06 8.938771994393e+05  5.425307794262e-04
1.000000000000e+03 4.529391005612e+06 1.000000000000e+00 5.483601786355e+01 -7.219763552453e-06 1.044541110129e-02 -2.105255915427e+06 -5.419667582947e+02 -2.559604375471e+06 -1.528296723166e+06 -5.546851165463e-04 -1.739299777181e-06 -2.921437419086e-05 0.000000000000e+00 2.064385671354e+06 8.952406572397e+05  5.406786061197e-04
1.100000000000e+03 4.533536332609e+06 1.000000000000e+00 5.445290444458e+01 -7.208853720062e-06 1.036223861305e-02 -2.098286994979e+06 -5.419703639527e+02 -2.558654618317e+06 -1.525291723556e+06 -5.525933737257e-04 -1.739313736767e-06 -2.904211296235e-05 0.000000000000e+00 2.060744445618e+06 8.966890666082e+05  5.386682443450e-04
1.200000000000e+03 4.536795852775e+06 1.000000000000e+00 5.411538603500e+01 -7.199464777511e-06 1.029311959071e-02 -2.092362739946e+06 -5.419556507293e+02 -2.557681232761e+06 -1.522674411927e+06 -5.509130132397e-04 -1.739271094580e-06 -2.889732298540e-05 0.000000000000e+00 2.057572794878e+06 8.978605048411e+05  5.370562050139e-04
1.300000000000e+03 4.539699605881e+06 1.000000000000e+00 5.378897489293e+01 -7.190315038245e-06 1.022733156107e-02 -2.086685941021e+06 -5.419541640129e+02 -2.556663416461e+06 -1.520137940827e+06 -5.493359180837e-04 -1.739268926037e-06 -2.875883496976e-05 0.000000000000e+00 2.054495766103e+06 8.989555850733e+05  5.355444291968e-04
1.400000000000e+03 4.542435752120e+06 1.000000000000e+00 5.345626158998e+01 -7.180680588099e-06 1.015935438669e-02 -2.080849801411e+06 -5.419396296720e+02 -2.555569792732e+06 -1.517519892391e+06 -5.477080648824e-04 -1.739226693811e-06 -2.861568558322e-05 0.000000000000e+00 2.051313162178e+06 9.000691679936e+05  5.339840959720e-04
1.500000000000e+03 4.545078337275e+06 1.000000000000e+00 5.310717619147e+01 -7.170104005713e-06 1.008596826291e-02 -2.074612493137e+06 -5.419499732219e+02 -2.554368886084e+06 -1.514720266252e+06 -5.459378898269e-04 -1.739260584553e-06 -2.846145376877e-05 0.000000000000e+00 2.047900548491e+06 9.012537149095e+05  5.322866924595e-04
1.600000000000e+03 4.547643434336e+06 1.000000000000e+00 5.273557688246e+01 -7.158284838561e-06 1.000519930188e-02 -2.067829915401e+06 -5.419220636667e+02 -2.553037486927e+06 -1.511678034680e+06 -5.439734680488e-04 -1.739177004181e-06 -2.829211400053e-05 0.000000000000e+00 2.044181812336e+06 9.025415704435e+05  5.304021988023e-04
1.700000000000e+03 4.550129261428e+06 1.000000000000e+00 5.233767161291e+01 -7.145028949367e-06 9.915826408545e-03 -2.060414467828e+06 -5.419160190841e+02 -2.551559614507e+06 -1.508355494310e+06 -5.417843231901e-04 -1.739160607806e-06 -2.810513813098e-05 0.000000000000e+00 2.040109858881e+06 9.039549943944e+05  5.283013367788e-04
1.800000000000e+03 4.552544129901e+06 1.000000000000e+00 5.191117280021e+01 -7.130220205236e-06 9.817113204119e-03 -2.052307234150e+06 -5.419441359533e+02 -2.549922867183e+06 -1.504727072207e+06 -5.393474324357e-04 -1.739248798727e-06 -2.789906291595e-05 0.000000000000e+00 2.035652391180e+06 9.055112821076e+05  5.259617833975e-04
1.900000000000e+03 4.554883811319e+06 1.000000000000e+00 5.145479350019e+01 -7.113790343595e-06 9.708641776882e-03 -2.043479412656e+06 -5.419374026126e+02 -2.548121923417e+06 -1.500780313331e+06 -5.366532876284e-04 -1.739230394884e-06 -2.767300620975e-05 0.000000000000e+00 2.030793883135e+06 9.072244999088e+05  5.233744466451e-04