 TITLE = "Time curves in points"
 VARIABLES = "TIME"  "PRESSURE1"  "SATURATION1"  "TEMPERATURE1"  "DISPLACEMENT_X1"  "DISPLACEMENT_Y1"  "STRESS_XX"  "STRESS_XY"  "STRESS_YY"  "STRESS_ZZ"  "STRAIN_XX"  "STRAIN_XY"  "STRAIN_YY"  "STRAIN_PLS"  p_(1st_Invariant)  q_(2nd_Invariant)   Effective_Strain
 ZONE T="POINT=POINT18"
0.000000000000e+00 1.000000000000e+05 1.000000000000e+00 2.500000000000e+01 0.000000000000e+00 0.000000000000e+00 -3.130685851467e+07 -1.409868786187e+04 -1.352808692198e+07 -1.044743363099e+07 0.000000000000e+00 0.000000000000e+00 0.000000000000e+00 0.000000000000e+00 1.842745968921e+07 1.950246065449e+07  0.000000000000e+00
1.000000000000e-03 3.083650903743e+05 1.000000000000e+00 2.500000000002e+01 -8.779694041945e-05 6.303347829373e-05 -3.054845023765e+07 -1.351250306103e+04 -1.355000699907e+07 -1.022648717103e+07 1.996286749047e-05 4.354515663433e-08 -9.020757090828e-06 0.000000000000e+00 1.810831480258e+07 1.888089159693e+07  2.568999813047e-05
2.000000000000e-03 3.159689360387e+05 1.000000000000e+00 2.499999999996e+01 -8.723839100838e-05 6.240421511314e-05 -3.055254930020e+07 -1.356056644275e+04 -1.354935899864e+07 -1.022752248964e+07 1.984907128734e-05 3.997473399214e-08 -8.958233811900e-06 0.000000000000e+00 1.810981026283e+07 1.888452933497e+07  2.553532845839e-05
3.000000000000e-03 3.211298787378e+05 1.000000000000e+00 2.499999999991e+01 -8.675265898079e-05 6.190705581451e-05 -3.055640260843e+07 -1.358868404800e+04 -1.354921133728e+07 -1.022863418369e+07 1.974723990320e-05 3.788599760191e-08 -8.911457753923e-06 0.000000000000e+00 1.811141604313e+07 1.888769526187e+07  2.540371160470e-05
4.000000000000e-03 3.246441762047e+05 1.000000000000e+00 2.499999999985e+01 -8.630967319946e-05 6.138365999540e-05 -3.056027844835e+07 -1.360818425832e+04 -1.354971060119e+07 -1.022994671482e+07 1.965203129108e-05 3.643741054998e-08 -8.881250685994e-06 0.000000000000e+00 1.811331192145e+07 1.889052342096e+07  2.529066126168e-05
1.000000000000e-02 3.282972246330e+05 1.000000000000e+00 2.499999999990e+01 -8.496094834124e-05 5.856325224243e-05 -3.057527460785e+07 -1.367048018749e+04 -1.355793547429e+07 -1.023691302461e+07 1.935377973020e-05 3.180971295397e-08 -8.927997323257e-06 0.000000000000e+00 1.812337436892e+07 1.889800378983e+07  2.504139483433e-05
2.000000000000e-02 3.209720129974e+05 1.000000000000e+00 2.499999999908e+01 -8.227735361439e-05 5.672189688881e-05 -3.060185340837e+07 -1.373063386550e+04 -1.356519374832e+07 -1.024706414716e+07 1.874360883447e-05 2.734115401645e-08 -8.820548663613e-06 0.000000000000e+00 1.813803710128e+07 1.891528923216e+07  2.438147057376e-05
3.000000000000e-02 3.083467012268e+05 1.000000000000e+00 2.499999998944e+01 -7.913412753298e-05 5.706017901788e-05 -3.062985911078e+07 -1.377144537388e+04 -1.356608856701e+07 -1.025573430715e+07 1.802543154429e-05 2.430944196485e-08 -8.531750272488e-06 0.000000000000e+00 1.815056066165e+07 1.893722273628e+07  2.348397748267e-05
4.000000000000e-02 2.935043081212e+05 1.000000000000e+00 2.499999996589e+01 -7.569465951713e-05 5.973257095912e-05 -3.065758381563e+07 -1.380198182053e+04 -1.356016083510e+07 -1.026227343584e+07 1.723853871538e-05 2.204102021389e-08 -8.068695450534e-06 0.000000000000e+00 1.816000602886e+07 1.896269709627e+07  2.239118218500e-05
5.000000000000e-02 2.781875990810e+05 1.000000000000e+00 2.500000002203e+01 -7.207556085376e-05 6.335257822169e-05 -3.068556133693e+07 -1.373565963528e+04 -1.355110288850e+07 -1.026794951358e+07 1.641019938350e-05 2.696781111822e-08 -7.521431689097e-06 0.000000000000e+00 1.816820457967e+07 1.899011278249e+07  2.119662600311e-05
6.000000000000e-02 2.628169348885e+05 1.000000000000e+00 2.500000066194e+01 -6.798127695650e-05 6.695211033419e-05 -3.071485554018e+07 -7.453603321040e+03 -1.353485917216e+07 -1.027186545539e+07 1.546757824436e-05 4.936348516047e-07 -6.772644386354e-06 0.000000000000e+00 1.817386005591e+07 1.902256002941e+07  1.976365658973e-05
7.000000000000e-02 2.482548179441e+05 1.000000000000e+00 2.500000344140e+01 -6.453410341347e-05 7.541253769967e-05 -3.073844204520e+07 -1.385964699350e+04 -1.351950834036e+07 -1.027433855693e+07 1.468336611477e-05 1.775732165023e-08 -6.110612576828e-06 0.000000000000e+00 1.817742964750e+07 1.904998017024e+07  1.851124345210e-05
8.000000000000e-02 2.351205277283e+05 1.000000000000e+00 2.500001194545e+01 -6.065774371426e-05 8.220962414467e-05 -3.076479469377e+07 -1.387183852724e+04 -1.350132429967e+07 -1.027679515253e+07 1.379579843333e-05 1.685166485843e-08 -5.343960371395e-06 0.000000000000e+00 1.818097138199e+07 1.908119857396e+07  1.710575981708e-05
9.000000000000e-02 2.243279757791e+05 1.000000000000e+00 2.500003296199e+01 -5.667130514015e-05 8.765593387858e-05 -3.079268993283e+07 -1.266362537088e+04 -1.348459574082e+07 -1.028015822272e+07 1.288460358942e-05 1.066046421883e-07 -4.597699864212e-06 0.000000000000e+00 1.818581463212e+07 1.911286822706e+07  1.569794532800e-05
1.000000000000e-01 2.168958645022e+05 1.000000000000e+00 2.500007760983e+01 -5.279457272655e-05 9.392745412110e-05 -3.082048326123e+07 -1.389109821635e+04 -1.346961477854e+07 -1.028402728818e+07 1.199598810921e-05 1.542094509624e-08 -3.897555976787e-06 0.000000000000e+00 1.819137510932e+07 1.914350786129e+07  1.434748834736e-05
2.000000000000e-01 2.305342198042e+05 1.000000000000e+00 2.502667784582e+01 -1.581374256994e-05 1.887324208554e-04 -3.104005998290e+07 -1.394684584733e+04 -1.322252675721e+07 -1.028625365318e+07 3.922974861051e-06 1.127969250858e-08 5.362692658112e-06 0.000000000000e+00 1.818294679776e+07 1.945260694931e+07  4.807377405081e-06
3.000000000000e-01 2.539215354566e+05 1.000000000000e+00 2.509252326897e+01 1.929618768171e-05 2.983914718774e-04 -3.123816130878e+07 -1.396830973799e+04 -1.295748045734e+07 -1.029133449759e+07 -3.246357307665e-06 9.685232059969e-09 1.539598658892e-05 0.000000000000e+00 1.816232542124e+07 1.974920695637e+07  1.724982300773e-05
4.000000000000e-01 2.778424050118e+05 1.000000000000e+00 2.519884265382e+01 5.159191420526e-05 4.038126815617e-04 -3.143329562187e+07 -1.396516593729e+04 -1.272885373589e+07 -1.032117803393e+07 -9.385729015527e-06 9.918771540483e-09 2.499631044943e-05 0.000000000000e+00 1.816110913057e+07 2.001718921020e+07  3.078175330694e-05
5.000000000000e-01 3.006476895386e+05 1.000000000000e+00 2.534048619113e+01 8.076226343665e-05 5.062272694056e-04 -3.162350691734e+07 -1.395304279069e+04 -1.253194200447e+07 -1.037162784801e+07 -1.457686975279e-05 1.081934814514e-08 3.418402499650e-05 0.000000000000e+00 1.817569225661e+07 2.025831113615e+07  4.335122983176e-05
6.000000000000e-01 3.220253445303e+05 1.000000000000e+00 2.551037587093e+01 1.066195955790e-04 6.060825360305e-04 -3.180685270127e+07 -1.394301580879e+04 -1.236239244465e+07 -1.043807458956e+07 -1.891883418431e-05 1.156420965777e-08 4.294960190458e-05 0.000000000000e+00 1.820243991182e+07 2.047456810671e+07  5.491035775300e-05
7.000000000000e-01 3.420511571212e+05 1.000000000000e+00 2.570176343613e+01 1.292912761345e-04 7.035622675432e-04 -3.198315290225e+07 -1.394017973564e+04 -1.221608350416e+07 -1.051672553785e+07 -2.254580642696e-05 1.177488937757e-08 5.130525491647e-05 0.000000000000e+00 1.823865398142e+07 2.066922252831e+07  6.555349976518e-05
8.000000000000e-01 3.610103636756e+05 1.000000000000e+00 2.590902641467e+01 1.490224027741e-04 7.988315933317e-04 -3.215262986814e+07 -1.394554930613e+04 -1.208928049657e+07 -1.060449151372e+07 -2.558078605653e-05 1.137600699802e-08 5.927496001618e-05 0.000000000000e+00 1.828213395948e+07 2.084545537690e+07  7.539362014861e-05
9.000000000000e-01 3.788546174178e+05 1.000000000000e+00 2.612776099000e+01 1.661202658070e-04 8.918572253919e-04 -3.231599391255e+07 -1.395809584640e+04 -1.197923377949e+07 -1.069919706827e+07 -2.813095853673e-05 1.044397829195e-08 6.688004439123e-05 0.000000000000e+00 1.833147492010e+07 2.100606318982e+07  8.453219060750e-05
1.000000000000e+00 3.956972549986e+05 1.000000000000e+00 2.635461476982e+01 1.808790625785e-04 9.826965657659e-04 -3.247372301248e+07 -1.397605538155e+04 -1.188347744475e+07 -1.079907602006e+07 -3.027967832507e-05 9.109841395672e-09 7.414649789092e-05 0.000000000000e+00 1.838542549243e+07 2.115331691741e+07  9.305747913517e-05
2.000000000000e+00 5.150057620619e+05 1.000000000000e+00 2.862803377283e+01 2.340592348887e-04 1.735802179280e-03 -3.372633923209e+07 -1.415003633190e+04 -1.147674084044e+07 -1.185545635622e+07 -3.756843970997e-05 -3.814457773736e-09 1.284908413944e-04 0.000000000000e+00 1.901951214292e+07 2.206269218775e+07  1.508260072280e-04
3.000000000000e+00 6.107955937441e+05 1.000000000000e+00 3.070915687643e+01 2.503656216623e-04 2.378438369201e-03 -3.476836819367e+07 -1.424919385078e+04 -1.128815912016e+07 -1.284200594834e+07 -3.962910200452e-05 -1.118044489000e-08 1.721385758547e-04 0.000000000000e+00 1.963284442072e+07 2.274314443577e+07  1.949970578738e-04
4.000000000000e+00 6.926709896845e+05 1.000000000000e+00 3.256538026627e+01 2.524106024685e-04 2.938759034169e-03 -3.565829974029e+07 -1.429640782690e+04 -1.119022067368e+07 -1.372955856639e+07 -3.971746220818e-05 -1.468776883077e-08 2.087425296803e-04 0.000000000000e+00 2.019269299345e+07 2.330242525939e+07  2.311744896882e-04
5.000000000000e+00 7.655249436311e+05 1.000000000000e+00 3.421390812661e+01 2.493129213513e-04 3.436085854829e-03 -3.643345803751e+07 -1.431739745478e+04 -1.113065226227e+07 -1.452083069499e+07 -3.911894847176e-05 -1.624699833036e-08 2.403451783090e-04 0.000000000000e+00 2.069498033159e+07 2.378959601260e+07  2.621033160865e-04
6.000000000000e+00 8.320077995269e+05 1.000000000000e+00 3.568672736535e+01 2.448908226977e-04 3.884839713295e-03 -3.712139643991e+07 -1.432493830264e+04 -1.108635970702e+07 -1.522883773681e+07 -3.837354186452e-05 -1.680717560009e-08 2.682877347716e-04 0.000000000000e+00 2.114553129458e+07 2.423085450105e+07  2.893889922121e-04
7.000000000000e+00 8.939780185342e+05 1.000000000000e+00 3.700928531274e+01 2.396146588306e-04 4.292070545311e-03 -3.773353920338e+07 -1.432671605282e+04 -1.105290406575e+07 -1.586470021276e+07 -3.749252397251e-05 -1.693923704196e-08 2.931481219826e-04 0.000000000000e+00 2.155038116063e+07 2.462982971759e+07  3.135799333942e-04
8.000000000000e+00 9.520385371790e+05 1.000000000000e+00 3.821072859464e+01 2.350096434307e-04 4.667502101611e-03 -3.829096316539e+07 -1.432612606442e+04 -1.102071281696e+07 -1.644219408187e+07 -3.674707028008e-05 -1.689540933214e-08 3.157935692189e-04 0.000000000000e+00 2.191795668807e+07 2.500428918270e+07  3.356790354976e-04
9.000000000000e+00 1.007090272486e+06 1.000000000000e+00 3.931176312092e+01 2.307285996005e-04 5.015626791730e-03 -3.880109726656e+07 -1.432461224822e+04 -1.099070348301e+07 -1.697106677968e+07 -3.605106526193e-05 -1.678295441436e-08 3.365520446842e-04 0.000000000000e+00 2.225428917642e+07 2.535482409504e+07  3.559494608221e-04
1.000000000000e+01 1.059630028864e+06 1.000000000000e+00 4.032707779274e+01 2.266532655462e-04 5.339804389424e-03 -3.927061602670e+07 -1.432286519441e+04 -1.096304782152e+07 -1.745849379716e+07 -3.538590141790e-05 -1.665317327449e-08 3.556836870458e-04 0.000000000000e+00 2.256405254846e+07 2.568344937052e+07  3.746321341896e-04
1.100000000000e+01 1.109950425312e+06 1.000000000000e+00 4.126965474906e+01 2.228727479419e-04 5.643646913190e-03 -3.970600125799e+07 -1.432300309252e+04 -1.093622600790e+07 -1.791051395170e+07 -3.476803284003e-05 -1.666341713410e-08 3.734692458633e-04 0.000000000000e+00 2.285091373920e+07 2.599408738610e+07  3.920113334474e-04
1.200000000000e+01 1.158414524274e+06 1.000000000000e+00 4.214857091185e+01 2.192064490268e-04 5.929133391661e-03 -4.011077323532e+07 -1.432006307217e+04 -1.091093404518e+07 -1.833155309354e+07 -3.416382387240e-05 -1.644501562189e-08 3.900472583186e-04 0.000000000000e+00 2.311775345802e+07 2.628718182080e+07  4.082028138436e-04
1.300000000000e+01 1.205265988208e+06 1.000000000000e+00 4.297047291097e+01 2.155945835142e-04 6.197855225760e-03 -4.048804088541e+07 -1.431871196064e+04 -1.088734233415e+07 -1.872490913489e+07 -3.356625505413e-05 -1.634464733682e-08 4.055338891213e-04 0.000000000000e+00 2.336676411815e+07 2.656373412965e+07  4.233162924587e-04
1.400000000000e+01 1.251210412290e+06 1.000000000000e+00 4.374060737579e+01 2.119999817789e-04 6.451325211689e-03 -4.083997393800e+07 -1.426180965184e+04 -1.086486465107e+07 -1.909288738518e+07 -3.297029056849e-05 -1.211761868311e-08 4.200365380747e-04 0.000000000000e+00 2.359924199142e+07 2.682484416364e+07  4.374545239544e-04
1.500000000000e+01 1.295786605127e+06 1.000000000000e+00 4.446330203910e+01 2.083459810111e-04 6.690557584071e-03 -4.116833296571e+07 -1.431642299325e+04 -1.084400263770e+07 -1.943767843282e+07 -3.235995839948e-05 -1.617460975913e-08 4.336179374841e-04 0.000000000000e+00 2.381667134541e+07 2.707063768830e+07  4.506701030895e-04
1.600000000000e+01 1.339131722121e+06 1.000000000000e+00 4.514222095896e+01 2.045819262422e-04 7.003009414346e-03 -4.147450775450e+07 -1.766675180027e+05 -1.082466683056e+07 -1.976095350973e+07 -3.172480484055e-05 -1.207654166760e-05 4.463434846059e-04 0.000000000000e+00 2.402004269826e+07 2.730325689993e+07  4.634939676082e-04
1.700000000000e+01 1.381371180158e+06 1.000000000000e+00 4.578051570998e+01 2.009727139578e-04 7.130022977473e-03 -4.176214615879e+07 -1.431474313996e+04 -1.080639200327e+07 -2.006476979280e+07 -3.112391220038e-05 -1.604982065772e-08 4.583068687046e-04 0.000000000000e+00 2.421110265162e+07 2.752048005821e+07  4.746347936337e-04
1.800000000000e+01 1.422623256448e+06 1.000000000000e+00 4.638092712946e+01 1.971822981547e-04 7.329424912880e-03 -4.202997267997e+07 -1.006504567767e+04 -1.078978945412e+07 -2.034988691694e+07 -3.048168980469e-05 2.996419908262e-07 4.695135994270e-04 0.000000000000e+00 2.438988301701e+07 2.772518023392e+07  4.854729556969e-04
1.900000000000e+01 1.462974445897e+06 1.000000000000e+00 4.694585953511e+01 1.936171684203e-04 7.522983056727e-03 -4.228208664525e+07 -1.431343134999e+04 -1.077317857022e+07 -2.061787173400e+07 -2.989220102411e-05 -1.595237340312e-08 4.800842968913e-04 0.000000000000e+00 2.455771231649e+07 2.792014244713e+07  4.957068214966e-04
2.000000000000e+01 1.502507803805e+06 1.000000000000e+00 4.747743644133e+01 1.904943721167e-04 7.694261954617e-03 -4.252238337099e+07 1.008098232985e+04 -1.075701467766e+07 -2.087077245240e+07 -2.942405272548e-05 1.796204071385e-06 4.900781252982e-04 0.000000000000e+00 2.471672350035e+07 2.810800250530e+07  5.054424867580e-04
2.100000000000e+01 1.541141802716e+06 1.000000000000e+00 4.798108162280e+01 1.864088560217e-04 7.876796157099e-03 -4.273821114800e+07 -1.497421637047e+04 -1.074122602670e+07 -2.110670491457e+07 -2.867730727675e-05 -6.503926063865e-08 4.994277666430e-04 0.000000000000e+00 2.486204736309e+07 2.827696603879e+07  5.143663463559e-04
2.200000000000e+01 1.579012601247e+06 1.000000000000e+00 4.845978692331e+01 1.835818281216e-04 8.041534141682e-03 -4.295199298603e+07 -1.431239268601e+04 -1.072351711135e+07 -2.133274286627e+07 -2.822208019745e-05 -1.587521550710e-08 5.084812217051e-04 0.000000000000e+00 2.500275098788e+07 2.844840534311e+07  5.231634899449e-04
2.300000000000e+01 1.616195875671e+06 1.000000000000e+00 4.891513181229e+01 1.805718745183e-04 8.199308797648e-03 -4.315251611887e+07 -1.431213960729e+04 -1.070633677433e+07 -2.154679712120e+07 -2.771949566264e-05 -1.585641537395e-08 5.170699351205e-04 0.000000000000e+00 2.513521667147e+07 2.861012458048e+07  5.314721129311e-04
2.400000000000e+01 1.652744296754e+06 1.000000000000e+00 4.934819136568e+01 1.775847419837e-04 8.350021675328e-03 -4.334218607835e+07 -1.431181536998e+04 -1.068960496966e+07 -2.174993514015e+07 -2.721925345358e-05 -1.583232917355e-08 5.252365285691e-04 0.000000000000e+00 2.526057539605e+07 2.876411380597e+07  5.393615166547e-04
2.500000000000e+01 1.688706439351e+06 1.000000000000e+00 4.975985594796e+01 1.745646889857e-04 8.490084560166e-03 -4.352119030628e+07 -7.019757227024e+03 -1.067336333278e+07 -2.194253454652e+07 -2.671428968329e-05 5.258634185888e-07 5.329934816038e-04 0.000000000000e+00 2.537902939519e+07 2.891031508636e+07  5.468409975205e-04
2.600000000000e+01 1.724115300496e+06 1.000000000000e+00 5.015093060187e+01 1.716279961724e-04 8.631284178318e-03 -4.369055519567e+07 -1.431130704715e+04 -1.065766470165e+07 -2.212519977692e+07 -2.622027701713e-05 -1.579456804925e-08 5.403612821752e-04 0.000000000000e+00 2.549113989141e+07 2.904945781173e+07  5.539370374485e-04
2.700000000000e+01 1.758998238253e+06 1.000000000000e+00 5.052216683782e+01 1.686543669147e-04 8.762316591406e-03 -4.385002829410e+07 -1.431107689972e+04 -1.064244299971e+07 -2.229809785925e+07 -2.572163475798e-05 -1.577747138266e-08 5.473485884481e-04 0.000000000000e+00 2.559685638436e+07 2.918120067440e+07  5.606521033537e-04
2.800000000000e+01 1.793391627654e+06 1.000000000000e+00 5.087427315564e+01 1.661915740364e-04 8.879299003761e-03 -4.400426134884e+07 8.321145007612e+02 -1.062712367644e+07 -2.246269974312e+07 -2.533650681896e-05 1.109145318367e-06 5.540313761417e-04 0.000000000000e+00 2.569802825614e+07 2.931000734050e+07  5.671275118321e-04
2.900000000000e+01 1.827319646778e+06 1.000000000000e+00 5.120791821718e+01 1.627348897439e-04 9.006286277752e-03 -4.414146821474e+07 -1.431070345157e+04 -1.061340433489e+07 -2.261621280940e+07 -2.473084794775e-05 -1.574972952057e-08 5.602428655755e-04 0.000000000000e+00 2.579036178634e+07 2.942393862020e+07  5.730086955143e-04
3.000000000000e+01 1.860795157955e+06 1.000000000000e+00 5.152373279860e+01 1.597889163205e-04 9.119634092894e-03 -4.427406281842e+07 -1.431051103941e+04 -1.059953439483e+07 -2.276205678563e+07 -2.423872839568e-05 -1.573543604568e-08 5.661750967521e-04 0.000000000000e+00 2.587855133296e+07 2.953530470265e+07  5.786753159362e-04
3.100000000000e+01 1.893730302058e+06 1.000000000000e+00 5.182511086886e+01 1.572022427176e-04 9.228840049576e-03 -4.440137315664e+07 -1.431039452452e+04 -1.058403902620e+07 -2.290080297428e+07 -2.381396823709e-05 -1.572678065366e-08 5.719040688794e-04 0.000000000000e+00 2.596207171904e+07 2.964448101025e+07  5.841752092968e-04
3.200000000000e+01 1.926193299663e+06 1.000000000000e+00 5.211364605694e+01 1.547954998871e-04 9.334011279680e-03 -4.452321972604e+07 -1.431030440782e+04 -1.056802804098e+07 -2.303327911208e+07 -2.341915569628e-05 -1.572008627007e-08 5.774193048772e-04 0.000000000000e+00 2.604150895970e+07 2.975026304871e+07  5.894778908854e-04
3.300000000000e+01 1.958214427055e+06 1.000000000000e+00 5.238991562677e+01 1.524721130366e-04 9.435201229369e-03 -4.463944472590e+07 -1.430006763247e+04 -1.055196568025e+07 -2.315976908691e+07 -2.303788519747e-05 -1.495964010156e-08 5.827141059126e-04 0.000000000000e+00 2.611705983102e+07 2.985205710614e+07  5.945678890843e-04
3.400000000000e+01 1.989824626573e+06 1.000000000000e+00 5.265418163189e+01 1.501721840446e-04 9.533179937969e-03 -4.474988921075e+07 -1.610856491646e+04 -1.053612497129e+07 -2.328039376828e+07 -2.265976361222e-05 -1.493051526261e-07 5.877828204105e-04 0.000000000000e+00 2.618880265011e+07 2.994944775845e+07  5.994340626780e-04
3.500000000000e+01 2.021048805477e+06 1.000000000000e+00 5.290663242468e+01 1.479494992148e-04 9.625812101428e-03 -4.485515034357e+07 -1.431010787970e+04 -1.052048403596e+07 -2.339538955226e+07 -2.229819085519e-05 -1.570548703859e-08 5.926350414135e-04 0.000000000000e+00 2.625700797726e+07 3.004292815626e+07  6.040928667246e-04
3.600000000000e+01 2.051915338273e+06 1.000000000000e+00 5.314745065230e+01 1.457675325487e-04 9.715335510386e-03 -4.495507922591e+07 -1.431004230321e+04 -1.050515627376e+07 -2.350480889020e+07 -2.194568821865e-05 -1.570061564235e-08 5.972685051328e-04 0.000000000000e+00 2.632168146329e+07 3.013223760108e+07  6.085382071743e-04
3.700000000000e+01 2.082462268159e+06 1.000000000000e+00 5.337683015380e+01 1.437168326975e-04 9.801090465261e-03 -4.505054073139e+07 -1.430954047550e+04 -1.049006645527e+07 -2.360895621679e+07 -2.162307200575e-05 -1.566333701215e-08 6.016973133788e-04 0.000000000000e+00 2.638318780115e+07 3.021816031660e+07  6.127950385235e-04
3.800000000000e+01 2.113406986777e+06 1.000000000000e+00 5.359501613291e+01 1.441708179920e-04 9.883172700139e-03 -4.516160823168e+07 -1.429708080900e+04 -1.047310178381e+07 -2.371330577320e+07 -2.187259563566e-05 -1.473776178653e-08 6.062032704138e-04 0.000000000000e+00 2.644933859623e+07 3.032017798475e+07  6.174302026615e-04
3.900000000000e+01 2.143157947255e+06 1.000000000000e+00 5.380215920335e+01 1.413423788729e-04 9.961652621903e-03 -4.523964109097e+07 -1.431160113440e+04 -1.045926283359e+07 -2.380481743810e+07 -2.137195428450e-05 -1.581641453068e-08 6.101162932614e-04 0.000000000000e+00 2.650124045422e+07 3.039104665350e+07  6.210781190891e-04
4.000000000000e+01 2.172544102772e+06 1.000000000000e+00 5.399845057479e+01 1.383646200691e-04 1.003503496276e-02 -4.531111358311e+07 -1.137860042892e+04 -1.044580469878e+07 -2.389067701713e+07 -2.083757677124e-05 2.020636378766e-07 6.138052369182e-04 0.000000000000e+00 2.654919843301e+07 3.045644623695e+07  6.244849155183e-04
4.200000000000e+01 2.229827603565e+06 1.000000000000e+00 5.435968904660e+01 1.331916575297e-04 1.017694186049e-02 -4.544269633841e+07 -1.431099541126e+04 -1.041580861060e+07 -2.404715561922e+07 -1.991287389055e-05 -1.577141795469e-08 6.207314396994e-04 0.000000000000e+00 2.663522018941e+07 3.058158658948e+07  6.309236010823e-04
4.400000000000e+01 2.285593807875e+06 1.000000000000e+00 5.469219717116e+01 1.282727935804e-04 1.030778147285e-02 -4.556147819675e+07 -1.431060588411e+04 -1.038550900175e+07 -2.418967145434e+07 -1.903132618163e-05 -1.574248165169e-08 6.271502990474e-04 0.000000000000e+00 2.671221955095e+07 3.069738638729e+07  6.368792598452e-04
5.000000000000e+01 2.437116678549e+06 1.000000000000e+00 5.537543881087e+01 1.142903470660e-04 1.058148194362e-02 -4.578032322668e+07 -1.430947268213e+04 -1.032561338616e+07 -2.447528796680e+07 -1.655124254488e-05 -1.565830093306e-08 6.399836066600e-04 0.000000000000e+00 2.686040819321e+07 3.091242061538e+07  6.484176779341e-04
6.500000000000e+01 2.768502505123e+06 1.000000000000e+00 5.631568923656e+01 8.764034341800e-05 1.103065395310e-02 -4.597561316160e+07 1.525561378077e+04 -1.011186825043e+07 -2.479653449847e+07 -1.187285466557e-05 2.180605264882e-06 6.598547257351e-04 0.000000000000e+00 2.696133863684e+07 3.122821153453e+07  6.658812567792e-04
8.000000000000e+01 3.023556376191e+06 1.000000000000e+00 5.663857088950e+01 6.837255074093e-05 1.126618828499e-02 -4.594088327269e+07 -1.430558315074e+04 -9.960648600183e+06 -2.485198447969e+07 -8.523316632159e-06 -1.536936431606e-08 6.675310263325e-04 0.000000000000e+00 2.691783878419e+07 3.131351187239e+07  6.718332360421e-04
1.000000000000e+02 3.324236305565e+06 1.000000000000e+00 5.678970353973e+01 5.012987629870e-05 1.144364604876e-02 -4.581434918715e+07 -2.017250532450e+03 -9.777074013490e+06 -2.481018523495e+07 -5.376022545294e-06 8.974782016143e-07 6.727969676049e-04 0.000000000000e+00 2.680053614519e+07 3.135167110925e+07  6.755028122105e-04
1.860000000000e+02 3.922717203253e+06 1.000000000000e+00 5.651434056397e+01 1.690945374510e-05 1.167000293340e-02 -4.525006347115e+07 -1.430103467934e+04 -9.302215931273e+06 -2.439895020510e+07 3.087172257949e-07 -1.503147786914e-08 6.751601095501e-04 0.000000000000e+00 2.631707653584e+07 3.126443090827e+07  6.750058043868e-04
2.720000000000e+02 4.213038208736e+06 1.000000000000e+00 5.565863463808e+01 1.461198445821e-06 1.151117763819e-02 -4.466650476211e+07 -3.154696401103e+04 -9.176254034340e+06 -2.388508702584e+07 2.897408332151e-06 -1.296157656794e-06 6.607523476353e-04 0.000000000000e+00 2.590928194077e+07 3.088511744423e+07  6.593122405940e-04
3.580000000000e+02 4.354403692560e+06 1.000000000000e+00 5.491482482712e+01 -5.872986432142e-06 1.132602073702e-02 -4.421727620030e+07 -1.429889147017e+04 -9.101519155463e+06 -2.346669965569e+07 4.042938307829e-06 -1.487226804530e-08 6.479881122448e-04 0.000000000000e+00 2.559516500382e+07 3.057828034177e+07  6.459761324247e-04
4.440000000000e+02 4.426532454154e+06 1.000000000000e+00 5.428887025688e+01 -1.106157915599e-05 1.116695023943e-02 -4.385690168641e+07 -2.469086426126e+04 -9.066702334521e+06 -2.312847808357e+07 4.865761859451e-06 -7.868473896688e-07 6.367187929155e-04 0.000000000000e+00 2.535069403483e+07 3.031305585925e+07  6.343013733699e-04
5.300000000000e+02 4.465496890038e+06 1.000000000000e+00 5.377624843668e+01 -1.448663689390e-05 1.101878550464e-02 -4.357302371039e+07 -1.429805424861e+04 -9.051188476646e+06 -2.285883759440e+07 5.394582799932e-06 -1.481007444300e-08 6.272798037533e-04 0.000000000000e+00 2.516101659381e+07 3.009557288970e+07  6.245999852212e-04
6.160000000000e+02 4.488012316304e+06 1.000000000000e+00 5.336720480959e+01 -1.682797100030e-05 1.090056137164e-02 -4.335228838486e+07 -1.429782876236e+04 -9.046248580216e+06 -2.264768510495e+07 5.750516711307e-06 -1.479332403628e-08 6.196204788695e-04 0.000000000000e+00 2.501540735667e+07 2.992144102613e+07  6.167653273450e-04
7.020000000000e+02 4.501822567795e+06 1.000000000000e+00 5.305912778210e+01 -1.843070077385e-05 1.080987425458e-02 -4.318840138637e+07 -1.429767869872e+04 -9.045509955502e+06 -2.249027099581e+07 5.990938315632e-06 -1.478217645181e-08 6.138011037337e-04 0.000000000000e+00 2.490806077923e+07 2.979020361543e+07  6.108276699624e-04
7.880000000000e+02 4.511441110127e+06 1.000000000000e+00 5.280009950185e+01 -1.940201184577e-05 1.072815278433e-02 -4.305748108594e+07 -1.429759265127e+04 -9.054991122721e+06 -2.236304585694e+07 6.128187173634e-06 -1.477578435509e-08 6.087234409360e-04 0.000000000000e+00 2.482517268853e+07 2.967772329948e+07  6.056825997954e-04
8.740000000000e+02 4.519827158621e+06 1.000000000000e+00 5.241137378788e+01 -2.141728390559e-05 1.061255646902e-02 -4.285051591354e+07 -1.416551700359e+04 -9.053563546046e+06 -2.216422146600e+07 6.430559056403e-06 -4.964450527659e-09 6.013915592633e-04 0.000000000000e+00 2.468943364186e+07 2.951310998833e+07  5.982022030878e-04
9.370000000000e+02 4.525201000816e+06 1.000000000000e+00 5.210907666811e+01 -2.238095187898e-05 1.052244291666e-02 -4.269678236300e+07 -2.195890991078e+04 -9.059557772757e+06 -2.201396260861e+07 6.559619087943e-06 -5.839022093471e-07 5.955878732827e-04 0.000000000000e+00 2.459010091479e+07 2.938589295002e+07  5.923361686130e-04
1.000000000000e+03 4.529391016030e+06 1.000000000000e+00 5.185429705450e+01 -2.275186287769e-05 1.043816905146e-02 -4.256858997774e+07 -1.429724232873e+04 -9.061250376214e+06 -2.188675484762e+07 6.596190846171e-06 -1.474976039536e-08 5.908001454602e-04 0.000000000000e+00 2.450553173386e+07 2.928288666555e+07  5.875298220097e-04
1.100000000000e+03 4.533536312294e+06 1.000000000000e+00 5.158773666140e+01 -2.304587953557e-05 1.035499649407e-02 -4.243461753418e+07 -1.429720772767e+04 -9.061677796725e+06 -2.175332329711e+07 6.616281159347e-06 -1.474719003032e-08 5.858282408221e-04 0.000000000000e+00 2.441653954267e+07 2.917660132717e+07  5.825482805924e-04
1.200000000000e+03 4.536797684023e+06 1.000000000000e+00 5.136659200274e+01 -2.341946825735e-05 1.028587745483e-02 -4.232300525610e+07 -1.429716948580e+04 -9.062991872693e+06 -2.164276128563e+07 6.655291062010e-06 -1.474434920580e-08 5.816728432886e-04 0.000000000000e+00 2.434291947147e+07 2.908739250843e+07  5.783739171987e-04
1.300000000000e+03 4.539703052678e+06 1.000000000000e+00 5.115655277031e+01 -2.383130742230e-05 1.022191558141e-02 -4.221677673250e+07 -1.775313350649e+04 -9.064700056230e+06 -2.153781930888e+07 6.703077087659e-06 -2.714731050288e-07 5.777115516208e-04 0.000000000000e+00 2.427309869920e+07 2.900224183585e+07  5.743895404223e-04
1.400000000000e+03 4.542442560716e+06 1.000000000000e+00 5.094021066403e+01 -2.419609872649e-05 1.015211219467e-02 -4.210785732025e+07 -1.429709157861e+04 -9.066519606085e+06 -2.142989735407e+07 6.740125506812e-06 -1.473856181481e-08 5.736354385901e-04 0.000000000000e+00 2.420142476013e+07 2.891506840805e+07  5.702952494093e-04
1.500000000000e+03 4.545082448939e+06 1.000000000000e+00 5.070749549443e+01 -2.454799004061e-05 1.007872601670e-02 -4.199091659378e+07 -1.429704555037e+04 -9.068442744976e+06 -2.131386944118e+07 6.774030011424e-06 -1.473514257433e-08 5.692543995242e-04 0.000000000000e+00 2.412440959331e+07 2.882170418869e+07  5.658977938861e-04
1.600000000000e+03 4.547643487145e+06 1.000000000000e+00 5.045226663419e+01 -2.485787255274e-05 9.997957076468e-03 -4.186311883458e+07 -1.429700427967e+04 -9.070419073829e+06 -2.118672054480e+07 6.798130630470e-06 -1.473207675046e-08 5.644583197298e-04 0.000000000000e+00 2.404008615107e+07 2.872003300484e+07  5.610901429810e-04
1.700000000000e+03 4.550130779120e+06 1.000000000000e+00 5.017073122020e+01 -2.511870605557e-05 9.908584166279e-03 -4.172262610833e+07 -1.429695713895e+04 -9.072437514692e+06 -2.104656847142e+07 6.810783451458e-06 -1.472857486883e-08 5.591777006294e-04 0.000000000000e+00 2.394721069815e+07 2.860869809334e+07  5.558036074670e-04
1.800000000000e+03 4.552544175310e+06 1.000000000000e+00 4.986060268505e+01 -2.532620638421e-05 9.809870871522e-03 -4.156833098952e+07 -1.429691485367e+04 -9.074492299655e+06 -2.089227897674e+07 6.810992347576e-06 -1.472543367620e-08 5.533706273855e-04 0.000000000000e+00 2.384503408864e+07 2.848692672081e+07  5.499967621830e-04
1.900000000000e+03 4.554883461242e+06 1.000000000000e+00 4.952059342245e+01 -2.547798214086e-05 9.701399421860e-03 -4.139961434377e+07 -1.429687223553e+04 -9.076590842681e+06 -2.072321788805e+07 6.798198752585e-06 -1.472226775770e-08 5.470132696359e-04 0.000000000000e+00 2.373314102483e+07 2.835433270757e+07  5.436460506497e-04
2.000000000000e+03 4.557147803019e+06 1.000000000000e+00 4.915010143150e+01 -2.557291146019e-05 9.582979888635e-03 -4.121618152403e+07 -1.429682933418e+04 -9.078724539186e+06 -2.053908353454e+07 6.772141783831e-06 -1.471908079959e-08 5.400947420639e-04 0.000000000000e+00 2.361132986592e+07 2.821080978471e+07  5.367407146746e-04