 TITLE = "Time curves in points"
 VARIABLES = "TIME"  "PRESSURE1"  "SATURATION1"  "TEMPERATURE1"  "DISPLACEMENT_X1"  "DISPLACEMENT_Y1"  "STRESS_XX"  "STRESS_XY"  "STRESS_YY"  "STRESS_ZZ"  "STRAIN_XX"  "STRAIN_XY"  "STRAIN_YY"  "STRAIN_PLS"  p_(1st_Invariant)  q_(2nd_Invariant)   Effective_Strain
 ZONE T="POINT=POINT9"
0.000000000000e+00 1.000000000000e+05 1.000000000000e+00 2.500000000000e+01 0.000000000000e+00 0.000000000000e+00 -6.854419775061e+07 7.586938602830e+05 -6.954707405871e+06 -1.965222756120e+07 0.000000000000e+00 0.000000000000e+00 0.000000000000e+00 0.000000000000e+00 3.171704423923e+07 5.633990941714e+07  0.000000000000e+00
1.000000000000e-03 1.375363519008e+05 1.000000000000e+00 2.500341801932e+01 0.000000000000e+00 -1.439985152618e-03 -1.002878322705e+08 1.578239270520e+06 2.517704695525e+07 -1.953687841245e+07 -1.183333679123e-03 6.088051618907e-05 1.189180765031e-03 0.000000000000e+00 3.154922124258e+07 1.101735735671e+08  2.057363956534e-03
2.000000000000e-03 1.596543390698e+05 1.000000000000e+00 2.501822523887e+01 0.000000000000e+00 -1.439928452430e-03 -1.002727219267e+08 1.578021287609e+06 2.517610945858e+07 -1.953738606852e+07 -1.182753581985e-03 6.086432317280e-05 1.189164799523e-03 0.000000000000e+00 3.154466617889e+07 1.101586159623e+08  2.056847412871e-03
3.000000000000e-03 1.750698786591e+05 1.000000000000e+00 2.505296830634e+01 0.000000000000e+00 -1.439701559118e-03 -1.002667575512e+08 1.577946506005e+06 2.516914153098e+07 -1.954895874079e+07 -1.182102205924e-03 6.085876796795e-05 1.189335832896e-03 0.000000000000e+00 3.154885825368e+07 1.101457575359e+08  2.056432160133e-03
4.000000000000e-03 1.857698477107e+05 1.000000000000e+00 2.511280761999e+01 0.000000000000e+00 -1.439476796945e-03 -1.002724183280e+08 1.578072759302e+06 2.515741304828e+07 -1.957374352575e+07 -1.181391885618e-03 6.086814678428e-05 1.189820781266e-03 0.000000000000e+00 3.156291626848e+07 1.101379520514e+08  2.056239210098e-03
1.000000000000e-02 2.016789187856e+05 1.000000000000e+00 2.596897994581e+01 0.000000000000e+00 -1.436931615431e-03 -1.005468348406e+08 1.582047513365e+06 2.503099289373e+07 -1.998161674109e+07 -1.176434922375e-03 6.116341422894e-05 1.200274752095e-03 0.000000000000e+00 3.183248622931e+07 1.102308882710e+08  2.061049885769e-03
2.000000000000e-02 1.999775654908e+05 1.000000000000e+00 2.761199733326e+01 0.000000000000e+00 -1.430690737045e-03 -1.011367879145e+08 1.589369230758e+06 2.482075770720e+07 -2.078142576156e+07 -1.168640272930e-03 6.170731323528e-05 1.222173208784e-03 0.000000000000e+00 3.236581865627e+07 1.104920884729e+08  2.073434746884e-03
3.000000000000e-02 1.899417003253e+05 1.000000000000e+00 2.912015439710e+01 0.000000000000e+00 -1.422146460322e-03 -1.016825506123e+08 1.595196320442e+06 2.461806739049e+07 -2.152362783588e+07 -1.161343953233e-03 6.214018275470e-05 1.242212216924e-03 0.000000000000e+00 3.286270368591e+07 1.107285486104e+08  2.084713607017e-03
4.000000000000e-02 1.766791337413e+05 1.000000000000e+00 3.042921113057e+01 0.000000000000e+00 -1.411451540180e-03 -1.021482461658e+08 1.599500878843e+06 2.442966034779e+07 -2.217131682938e+07 -1.154584196890e-03 6.245994995015e-05 1.259271260811e-03 0.000000000000e+00 3.329663421581e+07 1.109172600087e+08  2.093911939263e-03
5.000000000000e-02 1.624755355969e+05 1.000000000000e+00 3.155419082157e+01 0.000000000000e+00 -1.400188299205e-03 -1.025400302931e+08 1.602652018858e+06 2.425635166397e+07 -2.273006413417e+07 -1.148382707440e-03 6.269403463702e-05 1.273587552447e-03 0.000000000000e+00 3.367124758778e+07 1.110632419080e+08  2.101229555302e-03
6.000000000000e-02 1.480496713842e+05 1.000000000000e+00 3.252596107649e+01 0.000000000000e+00 -1.386739431156e-03 -1.028701153686e+08 1.604868879297e+06 2.409648674368e+07 -2.321402188623e+07 -1.142667436594e-03 6.285871569816e-05 1.285625286199e-03 0.000000000000e+00 3.399588350371e+07 1.111740732643e+08  2.106992418540e-03
7.000000000000e-02 1.342905955311e+05 1.000000000000e+00 3.337380847169e+01 0.000000000000e+00 -1.373755903391e-03 -1.031521548661e+08 1.606412403899e+06 2.394738463180e+07 -2.363784981307e+07 -1.137401009220e-03 6.297337752576e-05 1.295829387897e-03 0.000000000000e+00 3.428087334912e+07 1.112579335389e+08  2.111546696314e-03
8.000000000000e-02 1.218339395737e+05 1.000000000000e+00 3.412173941680e+01 0.000000000000e+00 -1.360194132026e-03 -1.033936087221e+08 1.607402603378e+06 2.380635254023e+07 -2.401269669951e+07 -1.132446410948e-03 6.304693520132e-05 1.304513937421e-03 0.000000000000e+00 3.453331762714e+07 1.113178405909e+08  2.115043347351e-03
9.000000000000e-02 1.115908111593e+05 1.000000000000e+00 3.478854342154e+01 0.000000000000e+00 -1.347652415858e-03 -1.036029845559e+08 1.607987106305e+06 2.367163831190e+07 -2.434803069457e+07 -1.127767964957e-03 6.309035541879e-05 1.311965528757e-03 0.000000000000e+00 3.475979231285e+07 1.113588336963e+08  2.117698752119e-03
1.000000000000e-01 1.045672281264e+05 1.000000000000e+00 3.538879861076e+01 0.000000000000e+00 -1.336190765061e-03 -1.037874934043e+08 1.608285320263e+06 2.354362903243e+07 -2.465088185656e+07 -1.123372393310e-03 6.311250845565e-05 1.318459655821e-03 0.000000000000e+00 3.496491540948e+07 1.113868223762e+08  2.119757567104e-03
2.000000000000e-01 1.257459071619e+05 1.000000000000e+00 3.885749486382e+01 0.000000000000e+00 -1.191988538437e-03 -1.047447783532e+08 1.604069646371e+06 2.266933172953e+07 -2.641112248365e+07 -1.093548325263e-03 6.279934410941e-05 1.351366122149e-03 0.000000000000e+00 3.616218970244e+07 1.113437162852e+08  2.124065387018e-03
3.000000000000e-01 1.562400343154e+05 1.000000000000e+00 4.116519315835e+01 0.000000000000e+00 -1.035398233340e-03 -1.052404971673e+08 1.595618938542e+06 2.192776146286e+07 -2.758868939554e+07 -1.068222538774e-03 6.217157724211e-05 1.367560283257e-03 0.000000000000e+00 3.696714170000e+07 1.110601732343e+08  2.117492657235e-03
4.000000000000e-01 1.873099578952e+05 1.000000000000e+00 4.284986289600e+01 0.000000000000e+00 -8.881990755935e-04 -1.055414571520e+08 1.586120147496e+06 2.128208765643e+07 -2.846172305839e+07 -1.046974087871e-03 6.146595276438e-05 1.376005077924e-03 0.000000000000e+00 3.757369751799e+07 1.107136809362e+08  2.107491534160e-03
5.000000000000e-01 2.167971566577e+05 1.000000000000e+00 4.415870671355e+01 0.000000000000e+00 -7.473841256682e-04 -1.057289566815e+08 1.576517607408e+06 2.069892127695e+07 -2.915074556536e+07 -1.028346091563e-03 6.075262121499e-05 1.379936876945e-03 0.000000000000e+00 3.806026032329e+07 1.103361510877e+08  2.095673353686e-03
6.000000000000e-01 2.441751628283e+05 1.000000000000e+00 4.522029182443e+01 0.000000000000e+00 -6.117713780713e-04 -1.058507665018e+08 1.567184901514e+06 2.016259640903e+07 -2.971962097805e+07 -1.011740798131e-03 6.005933449144e-05 1.381145897179e-03 0.000000000000e+00 3.846926369026e+07 1.099506502331e+08  2.083114604438e-03
7.000000000000e-01 2.695236780075e+05 1.000000000000e+00 4.610823858821e+01 0.000000000000e+00 -4.810637729611e-04 -1.059391917155e+08 1.558394764302e+06 1.967051969268e+07 -3.020451752377e+07 -9.970147200858e-04 5.940635286997e-05 1.380879205127e-03 0.000000000000e+00 3.882439651552e+07 1.095801792702e+08  2.070799355243e-03
8.000000000000e-01 2.931001257939e+05 1.000000000000e+00 4.686835873218e+01 0.000000000000e+00 -3.553986487435e-04 -1.060215848752e+08 1.550457530392e+06 1.922955336511e+07 -3.062757695833e+07 -9.843614013047e-04 5.881672977952e-05 1.380214091958e-03 0.000000000000e+00 3.913986948946e+07 1.092525995472e+08  2.059846112889e-03
9.000000000000e-01 3.149678579273e+05 1.000000000000e+00 4.753046136078e+01 0.000000000000e+00 -2.338234920898e-04 -1.060944991326e+08 1.543482993492e+06 1.882469905600e+07 -3.100268476755e+07 -9.731370693811e-04 5.829862132406e-05 1.379109221962e-03 0.000000000000e+00 3.942416161472e+07 1.089510185311e+08  2.049682047603e-03
1.000000000000e+00 3.353127070912e+05 1.000000000000e+00 4.811530496687e+01 0.000000000000e+00 -1.158817334010e-04 -1.061623739617e+08 1.537297911264e+06 1.844567069039e+07 -3.134151575003e+07 -9.630729836835e-04 5.783915807286e-05 1.377616176303e-03 0.000000000000e+00 3.968607300711e+07 1.086698423170e+08  2.040126693864e-03
2.000000000000e+00 4.697379129063e+05 1.000000000000e+00 5.129669006099e+01 0.000000000000e+00 8.451363295739e-04 -1.065861282255e+08 1.496576272801e+06 1.562933655354e+07 -3.342826526161e+07 -9.013045887651e-04 5.481412207278e-05 1.350517318793e-03 0.000000000000e+00 4.146168564451e+07 1.065569788509e+08  1.965321401364e-03
3.000000000000e+00 5.733073288015e+05 1.000000000000e+00 5.334711570139e+01 0.000000000000e+00 1.661071065482e-03 -1.068585894919e+08 1.465558962739e+06 1.330783073380e+07 -3.492556218069e+07 -8.558106930946e-04 5.250997903961e-05 1.319903845340e-03 0.000000000000e+00 4.282544031292e+07 1.047704069346e+08  1.900636162382e-03
4.000000000000e+00 6.596594516996e+05 1.000000000000e+00 5.484331777325e+01 0.000000000000e+00 2.370022019033e-03 -1.070508345733e+08 1.440073967401e+06 1.132653571676e+07 -3.610277856386e+07 -8.192260447432e-04 5.061680795733e-05 1.290038067511e-03 0.000000000000e+00 4.394235914013e+07 1.032201801481e+08  1.843867808540e-03
5.000000000000e+00 7.354601082007e+05 1.000000000000e+00 5.604440422175e+01 0.000000000000e+00 2.996711914649e-03 -1.072119368615e+08 1.418660428904e+06 9.611495771234e+06 -3.708738474821e+07 -7.886387571728e-04 4.902608795471e-05 1.262907670667e-03 0.000000000000e+00 4.489594194616e+07 1.018774465901e+08  1.794456876513e-03
6.000000000000e+00 8.041390166721e+05 1.000000000000e+00 5.709454643934e+01 0.000000000000e+00 3.561079252694e-03 -1.073434463329e+08 1.399727130786e+06 8.075524504196e+06 -3.795634928448e+07 -7.612475690494e-04 4.761961438020e-05 1.238133134953e-03 0.000000000000e+00 4.574142370439e+07 1.006647825375e+08  1.749800058125e-03
7.000000000000e+00 8.678837868230e+05 1.000000000000e+00 5.796631025365e+01 0.000000000000e+00 4.071271477658e-03 -1.074473229053e+08 1.382789248452e+06 6.711335906354e+06 -3.870313834736e+07 -7.373679622600e-04 4.636137169256e-05 1.215201152226e-03 0.000000000000e+00 4.647970844877e+07 9.957888681992e+07  1.709656070631e-03
8.000000000000e+00 9.273815368563e+05 1.000000000000e+00 5.880767266509e+01 0.000000000000e+00 4.540246116657e-03 -1.075705531712e+08 1.368021075549e+06 5.474757860293e+06 -3.940648601755e+07 -7.158207443853e-04 4.526430741976e-05 1.195395452550e-03 0.000000000000e+00 4.716742710948e+07 9.861829784357e+07  1.674277474413e-03
9.000000000000e+00 9.837160274533e+05 1.000000000000e+00 5.957121473187e+01 0.000000000000e+00 4.973958866142e-03 -1.076816972787e+08 1.354653826337e+06 4.347677453707e+06 -4.004609207182e+07 -6.961921577918e-04 4.427131176398e-05 1.177289262321e-03 0.000000000000e+00 4.779337063227e+07 9.774193877055e+07  1.642008808370e-03
1.000000000000e+01 1.037379885209e+06 1.000000000000e+00 6.026073646909e+01 0.000000000000e+00 5.377328541113e-03 -1.077701850926e+08 1.342195282302e+06 3.304662185972e+06 -4.062775611051e+07 -6.778741837282e-04 4.334581992144e-05 1.160153359528e-03 0.000000000000e+00 4.836442633904e+07 9.691902231761e+07  1.611689740147e-03
1.100000000000e+01 1.088673730198e+06 1.000000000000e+00 6.090878593693e+01 0.000000000000e+00 5.754324653939e-03 -1.078648231163e+08 1.330910553259e+06 2.345351243548e+06 -4.117154320351e+07 -6.611915040099e-04 4.250752576392e-05 1.144719616550e-03 0.000000000000e+00 4.889700502541e+07 9.617334391000e+07  1.584252744882e-03
1.200000000000e+01 1.137991996983e+06 1.000000000000e+00 6.149982009876e+01 0.000000000000e+00 6.107505441871e-03 -1.079562283898e+08 1.320679594935e+06 1.464907376601e+06 -4.167074313964e+07 -6.460448451145e-04 4.174751171703e-05 1.130559127691e-03 0.000000000000e+00 4.938735471762e+07 9.549319352781e+07  1.559217221509e-03
1.300000000000e+01 1.185597007327e+06 1.000000000000e+00 6.203604875521e+01 0.000000000000e+00 6.439492189173e-03 -1.080361987348e+08 1.311051034586e+06 6.427834759271e+05 -4.212983496685e+07 -6.319631900593e-04 4.103224723394e-05 1.117075079248e-03 0.000000000000e+00 4.984108340857e+07 9.485404571447e+07  1.535654737506e-03
1.400000000000e+01 1.232205373293e+06 1.000000000000e+00 6.252137199809e+01 0.000000000000e+00 6.752141300607e-03 -1.081078543616e+08 1.302037530750e+06 -1.229444093763e+05 -4.255169781495e+07 -6.189554932698e-04 4.036267266326e-05 1.104302949294e-03 0.000000000000e+00 5.026083219531e+07 9.425688665690e+07  1.513602563159e-03
1.500000000000e+01 1.277367066613e+06 1.000000000000e+00 6.295962034474e+01 0.000000000000e+00 7.046551041640e-03 -1.081728551578e+08 1.293677406410e+06 -8.332073520002e+05 -4.293844908072e+07 -6.070047615408e-04 3.974163485513e-05 1.092286801297e-03 0.000000000000e+00 5.064817053016e+07 9.370224307805e+07  1.493086306548e-03
1.600000000000e+01 1.321228592648e+06 1.000000000000e+00 6.335431159999e+01 0.000000000000e+00 7.324388846927e-03 -1.082245769525e+08 1.285708107533e+06 -1.500242861593e+06 -4.329300378675e+07 -5.957566819790e-04 3.914962979574e-05 1.080680371450e-03 0.000000000000e+00 5.100594120028e+07 9.317388534000e+07  1.473504910842e-03
1.700000000000e+01 1.363922198479e+06 1.000000000000e+00 6.370850794100e+01 0.000000000000e+00 7.587128759765e-03 -1.082568463603e+08 1.278005586558e+06 -2.133990460064e+06 -4.361756375607e+07 -5.849001754088e-04 3.857744252331e-05 1.069196259511e-03 0.000000000000e+00 5.133613352548e+07 9.265793016008e+07  1.454347480313e-03
1.800000000000e+01 1.405587800504e+06 1.000000000000e+00 6.402490207898e+01 0.000000000000e+00 7.835839586801e-03 -1.082690860131e+08 1.270474680043e+06 -2.739041396293e+06 -4.391427569069e+07 -5.743340620816e-04 3.801800375356e-05 1.057743668022e-03 0.000000000000e+00 5.164080103335e+07 9.214992263458e+07  1.435449617866e-03
1.900000000000e+01 1.446313787569e+06 1.000000000000e+00 6.430589191152e+01 0.000000000000e+00 8.071374152900e-03 -1.082619596995e+08 1.263063670268e+06 -3.317253069131e+06 -4.418473495674e+07 -5.640237405537e-04 3.746747159889e-05 1.046312864342e-03 0.000000000000e+00 5.192131590846e+07 9.164880041582e+07  1.416774547984e-03
2.000000000000e+01 1.486183575894e+06 1.000000000000e+00 6.455355182100e+01 0.000000000000e+00 8.307597474209e-03 -1.082639293710e+08 1.253302803031e+06 -3.898785451054e+06 -4.444725444651e+07 -5.543461758754e-04 3.674237860416e-05 1.034463814062e-03 0.000000000000e+00 5.220332308953e+07 9.115441352241e+07  1.398183153909e-03
2.100000000000e+01 1.525125193141e+06 1.000000000000e+00 6.481651445571e+01 0.000000000000e+00 8.506265688857e-03 -1.082513992720e+08 1.249719950530e+06 -4.367262914325e+06 -4.467671689901e+07 -5.453578811031e-04 3.647622384695e-05 1.025586113662e-03 0.000000000000e+00 5.243179302843e+07 9.074105164110e+07  1.382947977897e-03
2.200000000000e+01 1.563296833502e+06 1.000000000000e+00 6.506310018598e+01 0.000000000000e+00 8.709599294166e-03 -1.082423644424e+08 1.243433812097e+06 -4.861762618297e+06 -4.490929642339e+07 -5.363836336719e-04 3.600925356335e-05 1.015857649848e-03 0.000000000000e+00 5.267114116137e+07 9.030976710180e+07  1.366913890401e-03
2.300000000000e+01 1.600764539633e+06 1.000000000000e+00 6.528885309721e+01 0.000000000000e+00 8.903392797361e-03 -1.082372143412e+08 1.237583264979e+06 -5.323197528923e+06 -4.512582991086e+07 -5.281496718074e-04 3.557464149173e-05 1.006761311274e-03 0.000000000000e+00 5.289541392701e+07 8.991045801163e+07  1.352045759284e-03
2.400000000000e+01 1.637574352716e+06 1.000000000000e+00 6.549323259146e+01 0.000000000000e+00 9.078057924247e-03 -1.082410980299e+08 1.233601937936e+06 -5.686778370596e+06 -4.530823654554e+07 -5.215188195267e-04 3.527888576852e-05 1.000031983585e-03 0.000000000000e+00 5.307870431534e+07 8.960168560286e+07  1.340639827182e-03
2.500000000000e+01 1.673781468325e+06 1.000000000000e+00 6.567656835799e+01 0.000000000000e+00 9.265135174463e-03 -1.082096140360e+08 1.226460881448e+06 -6.182052091925e+06 -4.551217548006e+07 -5.127745393273e-04 3.474840728653e-05 9.892109772185e-04 0.000000000000e+00 5.330128053599e+07 8.915289126329e+07  1.323760040264e-03
2.600000000000e+01 1.709418523521e+06 1.000000000000e+00 6.583945705201e+01 0.000000000000e+00 9.433884445106e-03 -1.081830352788e+08 1.221122384531e+06 -6.583912654932e+06 -4.568240568379e+07 -5.054644922071e-04 3.435183322983e-05 9.806075638737e-04 0.000000000000e+00 5.348311787250e+07 8.878724405594e+07  1.310071752567e-03
2.700000000000e+01 1.744518246852e+06 1.000000000000e+00 6.598257470199e+01 0.000000000000e+00 9.595022442946e-03 -1.081462885250e+08 1.215860878429e+06 -6.970156649459e+06 -4.583798079363e+07 -4.983211087027e-04 3.396097849088e-05 9.720398624424e-04 0.000000000000e+00 5.365147532270e+07 8.842655860489e+07  1.296546739494e-03
2.800000000000e+01 1.779123735101e+06 1.000000000000e+00 6.610660142050e+01 0.000000000000e+00 9.764753580397e-03 -1.081444536422e+08 1.207766297719e+06 -7.324634045958e+06 -4.598781779384e+07 -4.926875816178e-04 3.335966678096e-05 9.644389334375e-04 0.000000000000e+00 5.381896849399e+07 8.812399610067e+07  1.285063888391e-03
2.900000000000e+01 1.813258578397e+06 1.000000000000e+00 6.621219521872e+01 0.000000000000e+00 9.895844144220e-03 -1.080368414585e+08 1.205383857556e+06 -7.705066244992e+06 -4.610725663568e+07 -4.842542578142e-04 3.318268551167e-05 9.547448944560e-04 0.000000000000e+00 5.394972144641e+07 8.770742420714e+07  1.269520599211e-03
3.000000000000e+01 1.846933382054e+06 1.000000000000e+00 6.629998133860e+01 0.000000000000e+00 1.003605774041e-02 -1.079642283325e+08 1.200153270500e+06 -8.055508622392e+06 -4.622196568719e+07 -4.772965769340e-04 3.279412761609e-05 9.459890852088e-04 0.000000000000e+00 5.408056754737e+07 8.734752407136e+07  1.255966197114e-03
3.100000000000e+01 1.880068620973e+06 1.000000000000e+00 6.640753135166e+01 0.000000000000e+00 1.017148059037e-02 -1.078967239340e+08 1.195112558360e+06 -8.399856328050e+06 -4.634318025632e+07 -4.702870152797e-04 3.241967471426e-05 9.377012829948e-04 0.000000000000e+00 5.421325350613e+07 8.699635336488e+07  1.242817531418e-03
3.200000000000e+01 1.912746244715e+06 1.000000000000e+00 6.650903883698e+01 0.000000000000e+00 1.030234865499e-02 -1.078199309762e+08 1.190004631469e+06 -8.740591801940e+06 -4.645840441939e+07 -4.631549507910e-04 3.204022871667e-05 9.293251485929e-04 0.000000000000e+00 5.433964239919e+07 8.664029792016e+07  1.229495430038e-03
3.300000000000e+01 1.944992532746e+06 1.000000000000e+00 6.660028932336e+01 0.000000000000e+00 1.042872999272e-02 -1.077317961591e+08 1.184795461629e+06 -9.077881005307e+06 -4.656560157739e+07 -4.558997631432e-04 3.165326181427e-05 9.207788726219e-04 0.000000000000e+00 5.445842624727e+07 8.627760419190e+07  1.215922276787e-03
3.400000000000e+01 1.976830064391e+06 1.000000000000e+00 6.668024542382e+01 0.000000000000e+00 1.055061462752e-02 -1.076327266430e+08 1.179502055545e+06 -9.410896204416e+06 -4.666428291734e+07 -4.485547313470e-04 3.126003736234e-05 9.120750435677e-04 0.000000000000e+00 5.456930192159e+07 8.590937456767e+07  1.202135340990e-03
3.500000000000e+01 2.008299345392e+06 1.000000000000e+00 6.674866244849e+01 0.000000000000e+00 1.066839731752e-02 -1.075162908044e+08 1.174015797147e+06 -9.746130788676e+06 -4.675438143386e+07 -4.408834552998e-04 3.085248673846e-05 9.029699896229e-04 0.000000000000e+00 5.467226767565e+07 8.552454125637e+07  1.187726054352e-03
3.600000000000e+01 2.039444673900e+06 1.000000000000e+00 6.680556864174e+01 0.000000000000e+00 1.078253411142e-02 -1.073738216240e+08 1.168078573530e+06 -1.009289860386e+07 -4.683610107679e+07 -4.325564418627e-04 3.041143584118e-05 8.931253432251e-04 0.000000000000e+00 5.476760710156e+07 8.510770519173e+07  1.172126119921e-03
3.700000000000e+01 2.070350557385e+06 1.000000000000e+00 6.685110782847e+01 0.000000000000e+00 1.089441761015e-02 -1.071777802453e+08 1.161082026444e+06 -1.047878734169e+07 -4.690950683519e+07 -4.225484053411e-04 2.989169234342e-05 8.815188325608e-04 0.000000000000e+00 5.485535814073e+07 8.461160085964e+07  1.153597643811e-03
3.800000000000e+01 2.103243220621e+06 1.000000000000e+00 6.688581963967e+01 0.000000000000e+00 1.104587633334e-02 -1.060424585121e+08 1.132280205937e+06 -1.179426808558e+07 -4.697621561665e+07 -3.779015576525e-04 2.775212853427e-05 8.351358739559e-04 0.000000000000e+00 5.493764740477e+07 8.251364805691e+07  1.076183629674e-03
3.900000000000e+01 2.133056549715e+06 1.000000000000e+00 6.690898301710e+01 0.000000000000e+00 1.113543432980e-02 -1.061341573623e+08 1.132198086600e+06 -1.186864827293e+07 -4.703466020954e+07 -3.791367157809e-04 2.774602824072e-05 8.345439804474e-04 0.000000000000e+00 5.501248861492e+07 8.253204346843e+07  1.076533369072e-03
4.000000000000e+01 2.162442328737e+06 1.000000000000e+00 6.692120015160e+01 0.000000000000e+00 1.121788453251e-02 -1.062662567154e+08 1.133176762726e+06 -1.187758564386e+07 -4.708176102612e+07 -3.822938042792e-04 2.781872989579e-05 8.359614798574e-04 0.000000000000e+00 5.507520112844e+07 8.264098335097e+07  1.080224369361e-03
4.200000000000e+01 2.219725190787e+06 1.000000000000e+00 6.697479448038e+01 0.000000000000e+00 1.137242606760e-02 -1.065221492074e+08 1.135133860059e+06 -1.189565306982e+07 -4.718354592667e+07 -3.880178005331e-04 2.796411426906e-05 8.390709860563e-04 0.000000000000e+00 5.520044940128e+07 8.284989488866e+07  1.087436612743e-03
4.400000000000e+01 2.275490823585e+06 1.000000000000e+00 6.700716852230e+01 0.000000000000e+00 1.151652705490e-02 -1.067483921558e+08 1.136802761637e+06 -1.191089743013e+07 -4.726815700945e+07 -3.932784126877e-04 2.808808981484e-05 8.416474643194e-04 0.000000000000e+00 5.530914886513e+07 8.303595157216e+07  1.093803897077e-03
5.000000000000e+01 2.427012684982e+06 1.000000000000e+00 6.679475879046e+01 0.000000000000e+00 1.181764455630e-02 -1.070775501404e+08 1.138428308082e+06 -1.192361313718e+07 -4.729887397502e+07 -4.043633648216e-04 2.820884469364e-05 8.423160824933e-04 0.000000000000e+00 5.543334575087e+07 8.332750759719e+07  1.102721676469e-03
6.500000000000e+01 2.758397043092e+06 1.000000000000e+00 6.601327625573e+01 0.000000000000e+00 1.233000426855e-02 -1.072339261460e+08 1.136325789981e+06 -1.189617714547e+07 -4.706883126184e+07 -4.187160600895e-04 2.805265763472e-05 8.347906899812e-04 0.000000000000e+00 5.539964485109e+07 8.352840248170e+07  1.106390418688e-03
8.000000000000e+01 3.013450382292e+06 1.000000000000e+00 6.501253149894e+01 0.000000000000e+00 1.257353097794e-02 -1.068948362926e+08 1.130136670605e+06 -1.183025518010e+07 -4.660075162185e+07 -4.235071093062e-04 2.759289448108e-05 8.198534049240e-04 0.000000000000e+00 5.510861436485e+07 8.333457237108e+07  1.095908630430e-03
1.000000000000e+02 3.314130014248e+06 1.000000000000e+00 6.391116452698e+01 0.000000000000e+00 1.277795689516e-02 -1.063771336069e+08 1.122121072911e+06 -1.174642101036e+07 -4.603830584330e+07 -4.251689956122e-04 2.699745008091e-05 8.020764023112e-04 0.000000000000e+00 5.472062015351e+07 8.300371739271e+07  1.080416510093e-03
1.860000000000e+02 3.912611211239e+06 1.000000000000e+00 6.127460328122e+01 0.000000000000e+00 1.302630340767e-02 -1.046942826140e+08 1.099335026780e+06 -1.151226460133e+07 -4.454700798165e+07 -4.180541650218e-04 2.530477236835e-05 7.553825769281e-04 0.000000000000e+00 5.358451839898e+07 8.185086628072e+07  1.031059624562e-03
2.720000000000e+02 4.202932549439e+06 1.000000000000e+00 5.927316547929e+01 0.000000000000e+00 1.284768250167e-02 -1.030641704237e+08 1.079957689403e+06 -1.139520882661e+07 -4.332555901034e+07 -4.028752454626e-04 2.386531302035e-05 7.143622581976e-04 0.000000000000e+00 5.259497942023e+07 8.061775650692e+07  9.808819648464e-04
3.580000000000e+02 4.344298244824e+06 1.000000000000e+00 5.786901894565e+01 0.000000000000e+00 1.264819344859e-02 -1.018630824383e+08 1.067041049266e+06 -1.118810848889e+07 -4.241350164488e+07 -3.921398224362e-04 2.290579118161e-05 6.881781400246e-04 0.000000000000e+00 5.182156419070e+07 7.980620337606e+07  9.480500367548e-04
4.440000000000e+02 4.416427122543e+06 1.000000000000e+00 5.679914778213e+01 0.000000000000e+00 1.251440152077e-02 -1.009336295395e+08 1.047669237354e+06 -1.123804981089e+07 -4.177643832515e+07 -3.812796380688e-04 2.146674229673e-05 6.626608247598e-04 0.000000000000e+00 5.131603922517e+07 7.900648433277e+07  9.157156073687e-04
5.300000000000e+02 4.455391649606e+06 1.000000000000e+00 5.597604588066e+01 0.000000000000e+00 1.230919534723e-02 -1.001481726562e+08 1.048329957911e+06 -1.100164743410e+07 -4.118266594218e+07 -3.741599280559e-04 2.151582439524e-05 6.493870816735e-04 0.000000000000e+00 5.077749534415e+07 7.855419082899e+07  8.978099183373e-04
6.160000000000e+02 4.477907107490e+06 1.000000000000e+00 5.534879694888e+01 0.000000000000e+00 1.217853070030e-02 -9.956364860791e+07 1.042067116531e+06 -1.093941872071e+07 -4.076971525241e+07 -3.677872033122e-04 2.105058474988e-05 6.363602654079e-04 0.000000000000e+00 5.042426086034e+07 7.812599675183e+07  8.806794865208e-04
7.020000000000e+02 4.491717416942e+06 1.000000000000e+00 5.488766038942e+01 0.000000000000e+00 1.209984509907e-02 -9.914253762417e+07 1.033301005792e+06 -1.097199625242e+07 -4.049218697565e+07 -3.624541313387e-04 2.039938795210e-05 6.248420496647e-04 0.000000000000e+00 5.020224028408e+07 7.775524394898e+07  8.657514491903e-04
7.880000000000e+02 4.501335963554e+06 1.000000000000e+00 5.452634177556e+01 0.000000000000e+00 1.198767402865e-02 -9.878312393979e+07 1.033827794555e+06 -1.085773937976e+07 -4.022391122341e+07 -3.590690081450e-04 2.043852083163e-05 6.191213484231e-04 0.000000000000e+00 4.995492484765e+07 7.755269012806e+07  8.577891842315e-04
8.740000000000e+02 4.509722049703e+06 1.000000000000e+00 5.394399383732e+01 0.000000000000e+00 1.186006304193e-02 -9.823577625527e+07 1.027994421375e+06 -1.079982978551e+07 -3.983905630011e+07 -3.530335627280e-04 2.000518453827e-05 6.069776647728e-04 0.000000000000e+00 4.962488744697e+07 7.715192463034e+07  8.417474037155e-04
9.370000000000e+02 4.515095893000e+06 1.000000000000e+00 5.354017255543e+01 0.000000000000e+00 1.182725308264e-02 -9.796735553238e+07 1.010645949847e+06 -1.094132085724e+07 -3.965992445821e+07 -3.497171185771e-04 1.871644093903e-05 5.950688136950e-04 0.000000000000e+00 4.952286694928e+07 7.682504101513e+07  8.279889023550e-04
1.000000000000e+03 4.519285936516e+06 1.000000000000e+00 5.322023015441e+01 0.000000000000e+00 1.166743661432e-02 -9.750987047649e+07 1.020443700584e+06 -1.072519466768e+07 -3.934604399149e+07 -3.443832338362e-04 1.944427385091e-05 5.914379405437e-04 0.000000000000e+00 4.919370304522e+07 7.661596281034e+07  8.204963127258e-04
1.100000000000e+03 4.523431227527e+06 1.000000000000e+00 5.289815652568e+01 0.000000000000e+00 1.157577476220e-02 -9.717300229246e+07 1.016961272312e+06 -1.069082316891e+07 -3.912210221383e+07 -3.401888244569e-04 1.918557917930e-05 5.843967587562e-04 0.000000000000e+00 4.899530922507e+07 7.636627919247e+07  8.106525233744e-04
1.200000000000e+03 4.526692603364e+06 1.000000000000e+00 5.262163525331e+01 0.000000000000e+00 1.149955433734e-02 -9.688937624422e+07 1.014019503195e+06 -1.066176607123e+07 -3.893167042972e+07 -3.367273232177e-04 1.896704775920e-05 5.784028418316e-04 0.000000000000e+00 4.882760424839e+07 7.615659303429e+07  8.023580404121e-04
1.300000000000e+03 4.529597974194e+06 1.000000000000e+00 5.235621120815e+01 0.000000000000e+00 1.142699325632e-02 -9.661881350857e+07 1.011210982532e+06 -1.063401965378e+07 -3.874943479732e+07 -3.334466022400e-04 1.875841479564e-05 5.726646709906e-04 0.000000000000e+00 4.866742265323e+07 7.595676935362e+07  7.944433177313e-04
1.400000000000e+03 4.532337486347e+06 1.000000000000e+00 5.208448042747e+01 0.000000000000e+00 1.135202961372e-02 -9.634098965622e+07 1.008329971192e+06 -1.060556267150e+07 -3.856260026551e+07 -3.300669989058e-04 1.854439681040e-05 5.667820762936e-04 0.000000000000e+00 4.850305086441e+07 7.575157439900e+07  7.863166592978e-04
1.500000000000e+03 4.534977374727e+06 1.000000000000e+00 5.179637455662e+01 0.000000000000e+00 1.127112683280e-02 -9.604416740527e+07 1.005257867450e+06 -1.057522789613e+07 -3.836377157251e+07 -3.264272381819e-04 1.831618338952e-05 5.605237307817e-04 0.000000000000e+00 4.832772229130e+07 7.553222525577e+07  7.776363261145e-04
1.600000000000e+03 4.537538416606e+06 1.000000000000e+00 5.148575252557e+01 0.000000000000e+00 1.118211666475e-02 -9.572119307419e+07 1.001922421442e+06 -1.054230923572e+07 -3.814844142075e+07 -3.224290258071e-04 1.806840740035e-05 5.537484468172e-04 0.000000000000e+00 4.813731457689e+07 7.529337822932e+07  7.681938513961e-04
1.700000000000e+03 4.540025684615e+06 1.000000000000e+00 5.114882392891e+01 0.000000000000e+00 1.111390886250e-02 -9.539335845353e+07 9.925804432489e+05 -1.060061888931e+07 -3.794981436990e+07 -3.176298874999e-04 1.737443187746e-05 5.442050835095e-04 0.000000000000e+00 4.798126390425e+07 7.497819425922e+07  7.555192455868e-04
1.800000000000e+03 4.542439112747e+06 1.000000000000e+00 5.078330100009e+01 0.000000000000e+00 1.097493928686e-02 -9.498089663254e+07 9.943012400061e+05 -1.046714186902e+07 -3.765825513553e+07 -3.131392199969e-04 1.750226249371e-05 5.383334584150e-04 0.000000000000e+00 4.770209787903e+07 7.474539592119e+07  7.465597031670e-04
1.900000000000e+03 4.544778403759e+06 1.000000000000e+00 5.038789711405e+01 0.000000000000e+00 1.085550333182e-02 -9.455942055020e+07 9.899736565817e+05 -1.042448133315e+07 -3.738077823009e+07 -3.077906791404e-04 1.718078486790e-05 5.296117075456e-04 0.000000000000e+00 4.745489337115e+07 7.443321625480e+07  7.342470620896e-04
2.000000000000e+03 4.547042742903e+06 1.000000000000e+00 4.996201038478e+01 0.000000000000e+00 1.072514080799e-02 -9.410252426650e+07 9.852892643153e+05 -1.037831777582e+07 -3.708095536127e+07 -3.019565237305e-04 1.683280144240e-05 5.201900759759e-04 0.000000000000e+00 4.718726580120e+07 7.409472888314e+07  7.209024025491e-04