 TITLE = "Time curves in points"
 VARIABLES = "TIME"  "PRESSURE1"  "SATURATION1"  "TEMPERATURE1"  "DISPLACEMENT_X1"  "DISPLACEMENT_Y1"  "STRESS_XX"  "STRESS_XY"  "STRESS_YY"  "STRESS_ZZ"  "STRAIN_XX"  "STRAIN_XY"  "STRAIN_YY"  "STRAIN_PLS"  p_(1st_Invariant)  q_(2nd_Invariant)   Effective_Strain
 ZONE T="POINT=POINT2"
0.000000000000e+00 -7.000000000000e+07 8.894919982500e-01 2.500000000000e+01 0.000000000000e+00 0.000000000000e+00 0.000000000000e+00 0.000000000000e+00 0.000000000000e+00 0.000000000000e+00 0.000000000000e+00 0.000000000000e+00 0.000000000000e+00 0.000000000000e+00 -0.000000000000e+00 0.000000000000e+00  0.000000000000e+00
1.000000000000e-03 -6.999999537629e+07 6.684760111000e-01 3.309918126187e+01 0.000000000000e+00 2.359792850310e-05 -2.180888556519e+07 5.738117050258e+04 -2.480677846100e+07 -1.423635725680e+07 -7.236806896618e-05 -5.652871221520e-04 -6.188831450112e-03 0.000000000000e+00 2.028400709433e+07 9.436209695178e+06  6.230380940642e-03
2.000000000000e-03 -7.015897578459e+07 6.679155799843e-01 3.680473134945e+01 0.000000000000e+00 2.353027161753e-05 -2.202943479807e+07 5.403427533409e+04 -2.488504554912e+07 -1.433084310453e+07 -8.277361168093e-05 -5.528596807339e-04 -6.175334025742e-03 0.000000000000e+00 2.041510781724e+07 9.455991071383e+06  6.208655939845e-03
3.000000000000e-03 -7.037098650729e+07 6.671689082400e-01 3.938013025327e+01 0.000000000000e+00 2.335596582151e-05 -2.227612645917e+07 5.050786162535e+04 -2.500030209246e+07 -1.444369921580e+07 -9.358873923128e-05 -5.416382002539e-04 -6.181422231922e-03 0.000000000000e+00 2.057337592248e+07 9.492766192303e+06  6.206475970145e-03
4.000000000000e-03 -7.061767524146e+07 6.663004329090e-01 4.141323958417e+01 0.000000000000e+00 2.305695558014e-05 -2.253985533357e+07 4.698885698801e+04 -2.513979182811e+07 -1.456888083466e+07 -1.046315779086e-04 -5.310942892703e-04 -6.198518432868e-03 0.000000000000e+00 2.074950933211e+07 9.540794285213e+06  6.215319878949e-03
1.000000000000e-02 -7.212436482483e+07 6.610102021796e-01 4.814029802963e+01 0.000000000000e+00 2.016224983167e-05 -2.360199863132e+07 3.144583422410e+04 -2.626038426221e+07 -1.524717010747e+07 -1.255321404620e-04 -5.360869183993e-04 -6.557786431278e-03 0.000000000000e+00 2.170318433367e+07 9.954069340892e+06  6.561956703710e-03
2.000000000000e-02 -7.521838563687e+07 6.501913437855e-01 5.432126500020e+01 0.000000000000e+00 1.787484951512e-05 -2.552970709191e+07 1.343158077632e+04 -2.857341017824e+07 -1.655826636463e+07 -1.560573472717e-04 -5.654881739777e-04 -7.334441356535e-03 0.000000000000e+00 2.355379454493e+07 1.081932623842e+07  7.323463734531e-03
3.000000000000e-02 -7.885304092398e+07 6.375370043135e-01 5.823714945203e+01 0.000000000000e+00 1.763436785811e-05 -2.764040598448e+07 9.310795111617e+03 -3.127826020736e+07 -1.804437193688e+07 -1.866426432646e-04 -6.065949325149e-04 -8.213920195222e-03 0.000000000000e+00 2.565434604291e+07 1.184175180644e+07  8.189879419712e-03
4.000000000000e-02 -8.260241584029e+07 6.245444252302e-01 6.095064126626e+01 0.000000000000e+00 1.967139962661e-05 -2.969878431474e+07 2.319722282549e+04 -3.407119223129e+07 -1.954061854409e+07 -2.141480435219e-04 -6.533146578447e-04 -9.073467479553e-03 0.000000000000e+00 2.777019836337e+07 1.291214705536e+07  9.039417365340e-03
5.000000000000e-02 -8.623994819307e+07 6.178036288263e-01 6.295230685316e+01 0.000000000000e+00 1.906134951208e-05 -3.157693440516e+07 5.278055241078e+04 -3.679612017416e+07 -2.095818457863e+07 -2.370123544299e-04 -7.036248442508e-04 -9.871276580832e-03 0.000000000000e+00 2.977707971932e+07 1.397953265703e+07  9.830764235405e-03
6.000000000000e-02 -8.968090111042e+07 6.112977131777e-01 6.450102498318e+01 0.000000000000e+00 1.764368673925e-05 -3.333785323276e+07 9.495838374629e+04 -3.947725340667e+07 -2.233233418517e+07 -2.599059090362e-04 -7.671236200479e-04 -1.079823059998e-02 0.000000000000e+00 3.171581360820e+07 1.504686083012e+07  1.075305757341e-02
7.000000000000e-02 -9.292391854210e+07 6.047947279057e-01 6.575111877855e+01 0.000000000000e+00 3.355628041442e-05 -3.494977705016e+07 1.465052925698e+05 -4.196470955419e+07 -2.359918953844e+07 -2.812026946006e-04 -8.247983209691e-04 -1.161482625119e-02 0.000000000000e+00 3.350455871426e+07 1.605406838080e+07  1.156538024332e-02
8.000000000000e-02 -9.597683604977e+07 5.987103802504e-01 6.679366304146e+01 0.000000000000e+00 3.982662931031e-05 -3.641972601275e+07 2.036765469509e+05 -4.433683118762e+07 -2.478652128878e+07 -2.995810924097e-04 -8.823776921877e-04 -1.238143383976e-02 0.000000000000e+00 3.518102616305e+07 1.703636593372e+07  1.232948419274e-02
9.000000000000e-02 -9.886345684560e+07 5.929822638152e-01 6.768828373113e+01 0.000000000000e+00 3.925714366485e-05 -3.778175695256e+07 2.637409057011e+05 -4.658129054283e+07 -2.590037621063e+07 -3.163483322832e-04 -9.367925721838e-04 -1.308757807022e-02 0.000000000000e+00 3.675447456867e+07 1.798216578932e+07  1.303369799732e-02
1.000000000000e-01 -1.016032052367e+08 5.873456081412e-01 6.846871724032e+01 0.000000000000e+00 5.057556579970e-05 -3.905591668486e+07 3.248535230850e+05 -4.870951726788e+07 -2.695041616042e+07 -3.320084015070e-04 -9.876512366134e-04 -1.374026544038e-02 0.000000000000e+00 3.823861670438e+07 1.889215190281e+07  1.368464852604e-02
2.000000000000e-01 -1.181504266330e+08 5.520553472259e-01 7.270597960228e+01 0.000000000000e+00 1.410004076186e-04 -4.612018284103e+07 7.086491927275e+05 -6.197673406940e+07 -3.319308876430e+07 -3.717637617149e-04 -1.360625674400e-03 -1.778610495565e-02 0.000000000000e+00 4.709666855825e+07 2.500051316720e+07  1.776022002062e-02
3.000000000000e-01 -1.336338687182e+08 5.238622948540e-01 7.551347198192e+01 0.000000000000e+00 2.468919852429e-04 -5.299741823046e+07 1.012259480583e+06 -7.411509837465e+07 -3.902667663996e+07 -4.291428458299e-04 -1.655423707382e-03 -2.139206717090e-02 0.000000000000e+00 5.537973108169e+07 3.064705035259e+07  2.137394984076e-02
4.000000000000e-01 -1.468337322116e+08 5.053221804776e-01 7.753845301290e+01 0.000000000000e+00 3.491778277688e-04 -5.892474439849e+07 1.261360494404e+06 -8.440006975704e+07 -4.399673983483e+07 -4.797194083577e-04 -1.891626850150e-03 -2.439848806017e-02 0.000000000000e+00 6.244051799679e+07 3.545287557420e+07  2.438332787986e-02
5.000000000000e-01 -1.576243753576e+08 4.899377916938e-01 7.910019667414e+01 0.000000000000e+00 4.489803425352e-04 -6.379466047294e+07 1.464595079473e+06 -9.275391084158e+07 -4.804225557288e+07 -5.216027314613e-04 -2.064600339736e-03 -2.666170305778e-02 0.000000000000e+00 6.819694229580e+07 3.936228392380e+07  2.664581366554e-02
6.000000000000e-01 -1.663707293409e+08 4.767886005158e-01 8.034131042319e+01 0.000000000000e+00 5.466360052439e-04 -6.780571988383e+07 1.630990101485e+06 -9.957065523098e+07 -5.135597978832e+07 -5.582627628553e-04 -2.203761450275e-03 -2.853449342209e-02 0.000000000000e+00 7.291078496771e+07 4.254539203678e+07  2.851611685735e-02
7.000000000000e-01 -1.732967202213e+08 4.680998996021e-01 8.134433145431e+01 0.000000000000e+00 6.423503387848e-04 -7.105014828275e+07 1.767242095291e+06 -1.050337023367e+08 -5.402358848864e+07 -5.899602266730e-04 -2.318437709189e-03 -3.011388898775e-02 0.000000000000e+00 7.670247970270e+07 4.508634087557e+07  3.009242141298e-02
8.000000000000e-01 -1.786683186338e+08 4.623781821005e-01 8.216159986681e+01 0.000000000000e+00 7.361292024074e-04 -7.362106924548e+07 1.873965341185e+06 -1.092957304553e+08 -5.611541007348e+07 -6.165559775626e-04 -2.403656120669e-03 -3.132865203206e-02 0.000000000000e+00 7.967740325807e+07 4.705500243325e+07  3.130305735834e-02
9.000000000000e-01 -1.827329758634e+08 4.580426491775e-01 8.284030380263e+01 0.000000000000e+00 8.279215873714e-04 -7.564876959294e+07 1.953478734116e+06 -1.125456581897e+08 -5.772985166275e+07 -6.423381010527e-04 -2.462592176631e-03 -3.224515094428e-02 0.000000000000e+00 8.197475981514e+07 4.852904866213e+07  3.221246884849e-02
1.000000000000e+00 -1.857446701905e+08 4.548262814089e-01 8.340750001222e+01 0.000000000000e+00 9.177111371180e-04 -7.723705004872e+07 2.012776015079e+06 -1.150024755485e+08 -5.896681918625e+07 -6.654853627333e-04 -2.504252221728e-03 -3.295016409678e-02 0.000000000000e+00 8.373544826117e+07 4.962021305185e+07  3.290960605107e-02
2.000000000000e+00 -1.865346167221e+08 4.540267026282e-01 8.537368214519e+01 0.000000000000e+00 1.665827153969e-03 -8.027292151381e+07 2.053653584645e+06 -1.185377099096e+08 -6.101908223735e+07 -7.163997489777e-04 -2.648684328555e-03 -3.501108438131e-02 0.000000000000e+00 8.660990455359e+07 5.083601993387e+07  3.496074816291e-02
3.000000000000e+00 -1.779756207739e+08 4.632179882584e-01 8.594055529762e+01 0.000000000000e+00 2.302669134490e-03 -7.909667973622e+07 1.927981601772e+06 -1.148409286981e+08 -5.956782970940e+07 -7.377333908017e-04 -2.644729255717e-03 -3.515867189702e-02 0.000000000000e+00 8.450181271456e+07 4.866438876308e+07  3.509590449599e-02
4.000000000000e+00 -1.659453116109e+08 4.777255360440e-01 8.593358546599e+01 0.000000000000e+00 2.857883428404e-03 -7.620323268668e+07 1.736028441483e+06 -1.081710550629e+08 -5.667132596198e+07 -7.477644399586e-04 -2.557193647596e-03 -3.429112703908e-02 0.000000000000e+00 8.034853790384e+07 4.513170677994e+07  3.421135159440e-02
5.000000000000e+00 -1.534804879174e+08 4.962754144721e-01 8.574019208264e+01 0.000000000000e+00 3.350483361767e-03 -7.296138315410e+07 1.536014473416e+06 -1.009417513289e+08 -5.349715860965e+07 -7.568407000990e-04 -2.450452927858e-03 -3.324323792361e-02 0.000000000000e+00 7.580009769755e+07 4.139385498710e+07  3.314423024724e-02
6.000000000000e+00 -1.417531265737e+08 5.128625748412e-01 8.559243042605e+01 0.000000000000e+00 3.794929703404e-03 -6.981503914810e+07 1.349268903594e+06 -9.401754913444e+07 -5.044058628042e+07 -7.634628241962e-04 -2.337705290306e-03 -3.211470527746e-02 0.000000000000e+00 7.142439152099e+07 3.788803085796e+07  3.199708400816e-02
7.000000000000e+00 -1.313745203331e+08 5.275460236307e-01 8.532214757414e+01 0.000000000000e+00 4.199083222830e-03 -6.692912489642e+07 1.185046419203e+06 -8.781006628212e+07 -4.767242941123e+07 -7.621344216974e-04 -2.227459119868e-03 -3.091568101914e-02 0.000000000000e+00 6.747054019659e+07 3.483023067564e+07  3.078446035699e-02
8.000000000000e+00 -1.218730965058e+08 5.455279984103e-01 8.524103800531e+01 0.000000000000e+00 4.572408685044e-03 -6.425062926933e+07 1.032710527705e+06 -8.201056260078e+07 -4.508420550054e+07 -7.615236807580e-04 -2.107726643581e-03 -2.961478372899e-02 0.000000000000e+00 6.378179912355e+07 3.203686803452e+07  2.946846635530e-02
9.000000000000e+00 -1.135456729218e+08 5.638272280988e-01 8.515896296113e+01 0.000000000000e+00 4.918962330314e-03 -6.202496976222e+07 9.018986517492e+05 -7.704407408880e+07 -4.289897362007e+07 -7.695799030235e-04 -2.014091255414e-03 -2.869725581985e-02 0.000000000000e+00 6.065600582370e+07 2.968287078679e+07  2.853435831101e-02
1.000000000000e+01 -1.059793822877e+08 5.802612859194e-01 8.507174886468e+01 0.000000000000e+00 5.241289572759e-03 -6.000107273186e+07 7.815966413475e+05 -7.248524769680e+07 -4.089479041948e+07 -7.762552214501e-04 -1.917776249757e-03 -2.774763849784e-02 0.000000000000e+00 5.779370361605e+07 2.759100396147e+07  2.756861190450e-02
1.100000000000e+01 -9.909822278868e+07 5.940697227419e-01 8.503712468801e+01 0.000000000000e+00 5.545357224261e-03 -5.812209037788e+07 6.716910739540e+05 -6.828854003116e+07 -3.904008122297e+07 -7.801770639060e-04 -1.820532390977e-03 -2.676017883123e-02 0.000000000000e+00 5.515023721067e+07 2.574547657344e+07  2.656654257031e-02
1.200000000000e+01 -9.295714347300e+07 6.064074935913e-01 8.500709528553e+01 0.000000000000e+00 5.829594769336e-03 -5.642873504498e+07 5.768836075317e+05 -6.451049045379e+07 -3.736567086590e+07 -7.825862136492e-04 -1.726146903943e-03 -2.578169408750e-02 0.000000000000e+00 5.276829878822e+07 2.416146917121e+07  2.557480287799e-02
1.300000000000e+01 -8.732663346282e+07 6.177177513091e-01 8.495626091682e+01 0.000000000000e+00 6.097345508104e-03 -5.487657604986e+07 4.891905588523e+05 -6.102169072909e+07 -3.581961676474e+07 -7.840687552878e-04 -1.633038164496e-03 -2.480801023192e-02 0.000000000000e+00 5.057262784790e+07 2.277619928937e+07  2.458864353145e-02
1.400000000000e+01 -8.200086832566e+07 6.338216838700e-01 8.486705899045e+01 0.000000000000e+00 6.350144435057e-03 -5.339070332939e+07 4.054672065250e+05 -5.767876283836e+07 -3.433549224785e+07 -7.847035271778e-04 -1.538008881288e-03 -2.380710241379e-02 0.000000000000e+00 4.846831947187e+07 2.153349980275e+07  2.357559716502e-02
1.500000000000e+01 -7.695663930580e+07 6.518493209411e-01 8.476324830987e+01 0.000000000000e+00 6.591114795085e-03 -5.200708434527e+07 3.315616197098e+05 -5.457716014378e+07 -3.296608288847e+07 -7.881314228310e-04 -1.459973196484e-03 -2.302387194096e-02 0.000000000000e+00 4.651677579251e+07 2.045560173729e+07  2.278088142598e-02
1.600000000000e+01 -7.222795109157e+07 6.687652472325e-01 8.464730283071e+01 0.000000000000e+00 6.650009858713e-03 -5.072594065666e+07 2.656434067456e+05 -5.092218752256e+07 -3.144263456689e+07 -8.042432697219e-04 -1.323192880156e-03 -2.172158642593e-02 0.000000000000e+00 4.436358758204e+07 1.938763508597e+07  2.145360581813e-02
1.700000000000e+01 -6.776362447091e+07 6.847516250674e-01 8.451638150917e+01 0.000000000000e+00 7.030918463226e-03 -4.941710380970e+07 1.988517832358e+05 -4.885420504894e+07 -3.042403744324e+07 -7.891637109951e-04 -1.307468453167e-03 -2.141439553509e-02 0.000000000000e+00 4.289844876729e+07 1.872113451664e+07  2.115249566635e-02
1.800000000000e+01 -6.352441126970e+07 6.999404084972e-01 8.436963674590e+01 0.000000000000e+00 7.032837734902e-03 -4.819911144769e+07 1.353556779410e+05 -4.602594019556e+07 -2.917920569114e+07 -7.909787373671e-04 -1.216157477002e-03 -2.045284784982e-02 0.000000000000e+00 4.113475244480e+07 1.803332857100e+07  2.017929586952e-02
1.900000000000e+01 -5.947137302226e+07 7.144609255701e-01 8.420550246259e+01 0.000000000000e+00 7.424774512649e-03 -4.702843695642e+07 7.240700060525e+04 -4.353712360981e+07 -2.805544461173e+07 -7.875008760771e-04 -1.143260325921e-03 -1.963842235272e-02 0.000000000000e+00 3.954033505932e+07 1.749110557738e+07  1.935829661526e-02
2.000000000000e+01 -5.570661854689e+07 7.279403863319e-01 8.402769637504e+01 0.000000000000e+00 7.425082738873e-03 -4.592005737639e+07 1.325556766728e+04 -4.105356963768e+07 -2.694719881679e+07 -7.858840990403e-04 -1.058751636325e-03 -1.871992083709e-02 0.000000000000e+00 3.797360861029e+07 1.706814015689e+07  1.843106689601e-02
2.100000000000e+01 -5.208363362654e+07 7.403246127136e-01 8.393963706186e+01 0.000000000000e+00 8.055627302093e-03 -4.485422003719e+07 -4.478659058763e+04 -3.885951540154e+07 -2.594340011065e+07 -7.800536040993e-04 -9.905540637973e-04 -1.793614605622e-02 0.000000000000e+00 3.655237851646e+07 1.673908096645e+07  1.764273946020e-02
2.200000000000e+01 -4.869858971457e+07 7.518073494086e-01 8.385005085335e+01 0.000000000000e+00 7.947495127664e-03 -4.384774828621e+07 -9.861506514188e+04 -3.640369314304e+07 -2.486789445574e+07 -7.809915835848e-04 -8.910115813126e-04 -1.688056869192e-02 0.000000000000e+00 3.503977862833e+07 1.656474885624e+07  1.657593647599e-02
2.300000000000e+01 -4.556372519387e+07 7.623569490620e-01 8.375183854193e+01 0.000000000000e+00 8.106942379906e-03 -4.291467332488e+07 -1.496208375886e+05 -3.428988478423e+07 -2.392262610014e+07 -7.783168198409e-04 -8.096529109580e-04 -1.598912202940e-02 0.000000000000e+00 3.370906140308e+07 1.647269264799e+07  1.567736620870e-02
2.400000000000e+01 -4.249966766860e+07 7.735265803632e-01 8.363904692081e+01 0.000000000000e+00 8.258779806269e-03 -4.198068779754e+07 -1.997082698856e+05 -3.219267766946e+07 -2.298072449214e+07 -7.747737502028e-04 -7.263641070811e-04 -1.507017305320e-02 0.000000000000e+00 3.238469665305e+07 1.646060645258e+07  1.475185514344e-02
2.500000000000e+01 -3.946992333216e+07 7.878662713921e-01 8.350995328388e+01 0.000000000000e+00 8.259713259496e-03 -4.103744948583e+07 -2.481906875259e+05 -3.002485959691e+07 -2.201309436813e+07 -7.721272069365e-04 -6.363049914781e-04 -1.408774530429e-02 0.000000000000e+00 3.102513448362e+07 1.654933831746e+07  1.376218982848e-02
2.600000000000e+01 -3.648795466928e+07 8.025711743269e-01 8.336809727694e+01 0.000000000000e+00 8.542982511889e-03 -4.010557412042e+07 -2.951912122112e+05 -2.804019944340e+07 -2.111042296689e+07 -7.665181370418e-04 -5.602142590902e-04 -1.322748547667e-02 0.000000000000e+00 2.975206551024e+07 1.665733565981e+07  1.289791977851e-02
2.700000000000e+01 -3.356096686395e+07 8.175875719457e-01 8.321341878403e+01 0.000000000000e+00 8.675345983064e-03 -3.917168769421e+07 -3.414199226695e+05 -2.599083913577e+07 -2.018490842357e+07 -7.614528348407e-04 -4.759116284086e-04 -1.228399637583e-02 0.000000000000e+00 2.844914508452e+07 1.686180287824e+07  1.194998615696e-02
2.800000000000e+01 -3.067654729616e+07 8.329529079313e-01 8.304585345929e+01 0.000000000000e+00 8.675712676700e-03 -3.822864666716e+07 -3.871720648425e+05 -2.391870427194e+07 -1.924822361510e+07 -7.557824439586e-04 -3.873710520075e-04 -1.128835967576e-02 0.000000000000e+00 2.713185818473e+07 1.714269105775e+07  1.095065734117e-02
2.900000000000e+01 -2.782238067274e+07 8.487208685209e-01 8.286538398550e+01 0.000000000000e+00 8.922282812966e-03 -3.728801174952e+07 -4.326678181666e+05 -2.190146845347e+07 -1.832934089515e+07 -7.484761007009e-04 -3.007631188908e-04 -1.029631464183e-02 0.000000000000e+00 2.583960703271e+07 1.746511120926e+07  9.956864044627e-03
3.000000000000e+01 -2.498527441125e+07 8.648790508043e-01 8.267204417553e+01 0.000000000000e+00 9.037010402756e-03 -3.632622992429e+07 -4.780209394198e+05 -1.984113704013e+07 -1.738920747864e+07 -7.404070478121e-04 -2.089578587098e-04 -9.239143708069e-03 0.000000000000e+00 2.451885814769e+07 1.785710067721e+07  8.899451786360e-03
3.100000000000e+01 -2.214935203253e+07 8.814778524463e-01 8.255052625710e+01 0.000000000000e+00 9.147875292974e-03 -3.534320784975e+07 -5.233908948918e+05 -1.775639117176e+07 -1.643405602893e+07 -7.311459947807e-04 -1.136423062814e-04 -8.129727103380e-03 0.000000000000e+00 2.317788501681e+07 1.830634236885e+07  7.792417054557e-03
3.200000000000e+01 -1.935151508592e+07 8.982243707391e-01 8.242766310301e+01 0.000000000000e+00 9.254722822280e-03 -3.435902878455e+07 -5.683072555823e+05 -1.568241323424e+07 -1.548090699724e+07 -7.208966320432e-04 -1.638391758820e-05 -6.986244178303e-03 0.000000000000e+00 2.184078300534e+07 1.880396094198e+07  6.655204359932e-03
3.300000000000e+01 -1.652325634416e+07 9.153678345734e-01 8.229794235195e+01 0.000000000000e+00 9.357543419587e-03 -3.333816027290e+07 -6.133411145373e+05 -1.356066737602e+07 -1.450036585219e+07 -7.092361790343e-04 8.537455297786e-05 -5.775091378706e-03 0.000000000000e+00 2.046639783370e+07 1.935396446579e+07  5.457165847758e-03
3.400000000000e+01 -1.363663852466e+07 9.328905560143e-01 8.215991185165e+01 0.000000000000e+00 9.431309329060e-03 -3.226380940527e+07 -6.584629905588e+05 -1.133667546941e+07 -1.346952374507e+07 -6.964397057713e-04 1.952137652533e-04 -4.458342520854e-03 0.000000000000e+00 1.902333620658e+07 1.997899635959e+07  4.167877731653e-03
3.500000000000e+01 -1.065695042838e+07 9.506820782492e-01 8.201296691195e+01 0.000000000000e+00 9.551733209951e-03 -3.112073707154e+07 -7.040530252727e+05 -9.069250898725e+06 -1.240285994361e+07 -6.808373067823e-04 3.075256397667e-04 -3.077710188667e-03 0.000000000000e+00 1.753094930463e+07 2.062418555780e+07  2.850286930322e-03
3.600000000000e+01 -7.548471815086e+06 9.684051310537e-01 8.185688150224e+01 0.000000000000e+00 9.643056921047e-03 -2.989611935952e+07 -7.497757670678e+05 -6.651997081194e+06 -1.126133645724e+07 -6.635463792366e-04 4.300473525982e-04 -1.557520099857e-03 0.000000000000e+00 1.593648429932e+07 2.135606876269e+07  1.545153070876e-03
3.700000000000e+01 -4.219404164602e+06 9.854150811584e-01 8.169151112141e+01 0.000000000000e+00 9.726878413131e-03 -2.856974749061e+07 -7.975941888786e+05 -4.053760824997e+06 -1.002817353338e+07 -6.440409004395e-04 5.640921376240e-04 1.236211610937e-04 0.000000000000e+00 1.421722728300e+07 2.218483843925e+07  1.210077590901e-03
3.800000000000e+01 2.090572323719e+06 1.000000000000e+00 8.151767971102e+01 0.000000000000e+00 9.716738728095e-03 -2.662774747343e+07 -9.056935455514e+05 3.342861672248e+05 -8.021283418513e+06 -6.105883524101e-04 7.999971591683e-04 3.090158253812e-03 0.000000000000e+00 1.143824824157e+07 2.395713871229e+07  3.705225657179e-03
3.900000000000e+01 2.140131954939e+06 1.000000000000e+00 8.133875654839e+01 0.000000000000e+00 9.907520615964e-03 -2.668308770824e+07 -9.060760830693e+05 2.604648926616e+05 -8.061698358823e+06 -6.102515499801e-04 7.949032191619e-04 3.040675876248e-03 0.000000000000e+00 1.149477372480e+07 2.394676817918e+07  3.656406335272e-03
4.000000000000e+01 2.169517858748e+06 1.000000000000e+00 8.114888591526e+01 0.000000000000e+00 9.908358530596e-03 -2.669069145358e+07 -9.064632567492e+05 3.069942810553e+05 -8.048530602947e+06 -6.112440629242e-04 7.987691733610e-04 3.073058526634e-03 0.000000000000e+00 1.147740925849e+07 2.399114467996e+07  3.689145343970e-03
4.200000000000e+01 2.226801110672e+06 1.000000000000e+00 8.087411890793e+01 0.000000000000e+00 1.012275798467e-02 -2.670885507398e+07 -9.074389405542e+05 2.710976767814e+05 -8.065366855002e+06 -6.109091356515e-04 7.959560205686e-04 3.047132735891e-03 0.000000000000e+00 1.150104141740e+07 2.397847802592e+07  3.663384646484e-03
4.400000000000e+01 2.282566763235e+06 1.000000000000e+00 8.057884092811e+01 0.000000000000e+00 1.025356318373e-02 -2.672522708743e+07 -9.083158514784e+05 2.776779693140e+05 -8.067753888813e+06 -6.113115062563e-04 7.965979202753e-04 3.051123078728e-03 0.000000000000e+00 1.150510100231e+07 2.399848585511e+07  3.667689352170e-03
5.000000000000e+01 2.434088944890e+06 1.000000000000e+00 7.938389004357e+01 0.000000000000e+00 1.052716305659e-02 -2.676550543865e+07 -9.106830237178e+05 2.946377580474e+05 -8.072831905325e+06 -6.122175627515e-04 7.978424911703e-04 3.058483221302e-03 0.000000000000e+00 1.151456652864e+07 2.404847192271e+07  3.675764549687e-03
6.500000000000e+01 2.765473840046e+06 1.000000000000e+00 7.672160570615e+01 0.000000000000e+00 1.052948804254e-02 -2.683811597848e+07 -9.155049288633e+05 5.510018488603e+05 -8.007524048297e+06 -6.175872550790e-04 8.180202261916e-04 3.229360286047e-03 0.000000000000e+00 1.143154605930e+07 2.432110430245e+07  3.848644553713e-03
8.000000000000e+01 3.020526535888e+06 1.000000000000e+00 7.427524849798e+01 0.000000000000e+00 1.121144322489e-02 -2.690326177250e+07 -9.198501614012e+05 3.545763770295e+05 -8.088335239561e+06 -6.146403249271e-04 8.008737443922e-04 3.078970842433e-03 0.000000000000e+00 1.154567354501e+07 2.422138211899e+07  3.697904823002e-03
1.000000000000e+02 3.321207027926e+06 1.000000000000e+00 7.180475286864e+01 0.000000000000e+00 1.121219181848e-02 -2.696818228176e+07 -9.243941184830e+05 4.646369102275e+05 -8.068780238002e+06 -6.169662098956e-04 8.087097419166e-04 3.146736379336e-03 0.000000000000e+00 1.152410853651e+07 2.436896798775e+07  3.766438835651e-03
1.860000000000e+02 3.919688640947e+06 1.000000000000e+00 6.658180939414e+01 0.000000000000e+00 1.161453010657e-02 -2.709785126655e+07 -9.338903621236e+05 4.244347170783e+05 -8.114423839538e+06 -6.166846238112e-04 8.024980814227e-04 3.095374583739e-03 0.000000000000e+00 1.159594679634e+07 2.445395423384e+07  3.715174714827e-03
2.720000000000e+02 4.210009317830e+06 1.000000000000e+00 6.332445494308e+01 0.000000000000e+00 1.161399082492e-02 -2.715805099210e+07 -9.384135322717e+05 3.872011067917e+05 -8.140717780795e+06 -6.159556292259e-04 7.972754922410e-04 3.052903371556e-03 0.000000000000e+00 1.163718922204e+07 2.447865392500e+07  3.672467560375e-03
3.580000000000e+02 4.351375004859e+06 1.000000000000e+00 6.119532556628e+01 0.000000000000e+00 1.127014427672e-02 -2.716932769157e+07 -9.405462153457e+05 4.454258983838e+05 -8.122522969155e+06 -6.163619508619e-04 8.000715989257e-04 3.082134851912e-03 0.000000000000e+00 1.161547492078e+07 2.453643104512e+07  3.701285133600e-03
4.440000000000e+02 4.423504654173e+06 1.000000000000e+00 5.963761514343e+01 0.000000000000e+00 1.126907936327e-02 -2.717634012333e+07 -9.417699920015e+05 3.705578665382e+05 -8.147279999553e+06 -6.146453803200e-04 7.925327294798e-04 3.019577137671e-03 0.000000000000e+00 1.165102075212e+07 2.448276806530e+07  3.638121569433e-03
5.300000000000e+02 4.462467967361e+06 1.000000000000e+00 5.847322562843e+01 0.000000000000e+00 1.096279030555e-02 -2.717125231504e+07 -9.422300684973e+05 4.526077565839e+05 -8.117570363282e+06 -6.156923627216e-04 7.981073679237e-04 3.070186758349e-03 0.000000000000e+00 1.161207164058e+07 2.454480779303e+07  3.688677333151e-03
6.160000000000e+02 4.484982194127e+06 1.000000000000e+00 5.760610189971e+01 0.000000000000e+00 1.084453795063e-02 -2.716785218121e+07 -9.425628398107e+05 4.541037474121e+05 -8.115058313644e+06 -6.154105897478e-04 7.973612825321e-04 3.065489759834e-03 0.000000000000e+00 1.160960224915e+07 2.454325253663e+07  3.683727401319e-03
7.020000000000e+02 4.498785226281e+06 1.000000000000e+00 5.697669349298e+01 0.000000000000e+00 1.075383203396e-02 -2.716460041476e+07 -9.427639671021e+05 4.549648274700e+05 -8.113075296340e+06 -6.151906421099e-04 7.967897048799e-04 3.061857516786e-03 0.000000000000e+00 1.160757029454e+07 2.454124210850e+07  3.679901978647e-03
7.880000000000e+02 4.508409989778e+06 1.000000000000e+00 5.650296291044e+01 0.000000000000e+00 1.067209513507e-02 -2.716201193135e+07 -9.428999330459e+05 4.546981875207e+05 -8.111838835817e+06 -6.149967958873e-04 7.962728741887e-04 3.058474190849e-03 0.000000000000e+00 1.160638419321e+07 2.453886398179e+07  3.676355360030e-03
8.740000000000e+02 4.516798931167e+06 1.000000000000e+00 5.570721289740e+01 0.000000000000e+00 1.066912326454e-02 -2.715532648210e+07 -9.431726015551e+05 3.738667732652e+05 -8.135355432911e+06 -6.131807541449e-04 7.887483437498e-04 2.995529050681e-03 0.000000000000e+00 1.163893838058e+07 2.446793912342e+07  3.612804664300e-03
9.370000000000e+02 4.522168025011e+06 1.000000000000e+00 5.519188196368e+01 0.000000000000e+00 1.066620614358e-02 -2.715181303258e+07 -9.433148423969e+05 3.298387814692e+05 -8.148106785537e+06 -6.121551500283e-04 7.845576415550e-04 2.960715810378e-03 0.000000000000e+00 1.165669367888e+07 2.442945615380e+07  3.577650282991e-03
1.000000000000e+03 4.526359979205e+06 1.000000000000e+00 5.480037786924e+01 0.000000000000e+00 1.038207414078e-02 -2.714660504274e+07 -9.431389765261e+05 4.557919997307e+05 -8.104910733269e+06 -6.142666656615e-04 7.945095552949e-04 3.047253422211e-03 0.000000000000e+00 1.159857459209e+07 2.452652791084e+07  3.664510807075e-03
1.100000000000e+03 4.530508736538e+06 1.000000000000e+00 5.441729858152e+01 0.000000000000e+00 1.029889110893e-02 -2.714275217574e+07 -9.431935746274e+05 4.553999148916e+05 -8.103442986122e+06 -6.140583845348e-04 7.940272405848e-04 3.044272231605e-03 0.000000000000e+00 1.159693174899e+07 2.452289511614e+07  3.661346717361e-03
1.200000000000e+03 4.533769006331e+06 1.000000000000e+00 5.407980818416e+01 0.000000000000e+00 1.022976369540e-02 -2.713936461344e+07 -9.432355755379e+05 4.551867735974e+05 -8.102109446796e+06 -6.138851079304e-04 7.936212043178e-04 3.041732353502e-03 0.000000000000e+00 1.159542909555e+07 2.451980657796e+07  3.658656676710e-03
1.300000000000e+03 4.536674468334e+06 1.000000000000e+00 5.375342298412e+01 0.000000000000e+00 1.022920398193e-02 -2.713719474419e+07 -9.433285307133e+05 4.210282957965e+05 -8.112254228175e+06 -6.131247390816e-04 7.904515526478e-04 3.015213086486e-03 0.000000000000e+00 1.160947355885e+07 2.449040773134e+07  3.631883066780e-03
1.400000000000e+03 4.539414117052e+06 1.000000000000e+00 5.342073505839e+01 0.000000000000e+00 1.009598288113e-02 -2.713259156015e+07 -9.433062570811e+05 4.548117982967e+05 -8.099445280711e+06 -6.135494293744e-04 7.928336642770e-04 3.036784473207e-03 0.000000000000e+00 1.159240834752e+07 2.451366716444e+07  3.653419751042e-03
1.500000000000e+03 4.542053790366e+06 1.000000000000e+00 5.307167403444e+01 0.000000000000e+00 1.002258850004e-02 -2.712884728106e+07 -9.433381037258e+05 4.545332725665e+05 -8.098013408917e+06 -6.133652126060e-04 7.924048972385e-04 3.034097289941e-03 0.000000000000e+00 1.159077580580e+07 2.451021109703e+07  3.650573864706e-03
1.600000000000e+03 4.544615031972e+06 1.000000000000e+00 5.270009877011e+01 0.000000000000e+00 9.941810753077e-03 -2.712472744133e+07 -9.433680105145e+05 4.541531611723e+05 -8.096476327725e+06 -6.131624217667e-04 7.919363065106e-04 3.031169901502e-03 0.000000000000e+00 1.158901686929e+07 2.450634529673e+07  3.647471445473e-03
1.700000000000e+03 4.547102251321e+06 1.000000000000e+00 5.230221775356e+01 0.000000000000e+00 9.852428405714e-03 -2.712017403955e+07 -9.433959274431e+05 4.536544180260e+05 -8.094817856031e+06 -6.129379754700e-04 7.914212375293e-04 3.027962357042e-03 0.000000000000e+00 1.158711249252e+07 2.450200550152e+07  3.644069818211e-03
1.800000000000e+03 4.549515667578e+06 1.000000000000e+00 5.187574274695e+01 0.000000000000e+00 9.753704917068e-03 -2.711515097622e+07 -9.434217882414e+05 4.530273407262e+05 -8.093027711396e+06 -6.126900068193e-04 7.908557032697e-04 3.024450872035e-03 0.000000000000e+00 1.158505044896e+07 2.449715242833e+07  3.640343552112e-03
1.900000000000e+03 4.551854727380e+06 1.000000000000e+00 5.141938716692e+01 0.000000000000e+00 9.645222480389e-03 -2.710963830994e+07 -9.434455407213e+05 4.522654995185e+05 -8.091100537414e+06 -6.124174617975e-04 7.902373966395e-04 3.020621405583e-03 0.000000000000e+00 1.158282444928e+07 2.449176352141e+07  3.636277704849e-03