 TITLE = "Time curves in points"
 VARIABLES = "TIME"  "PRESSURE1"  "SATURATION1"  "TEMPERATURE1"  "DISPLACEMENT_X1"  "DISPLACEMENT_Y1"  "STRESS_XX"  "STRESS_XY"  "STRESS_YY"  "STRESS_ZZ"  "STRAIN_XX"  "STRAIN_XY"  "STRAIN_YY"  "STRAIN_PLS"  p_(1st_Invariant)  q_(2nd_Invariant)   Effective_Strain
 ZONE T="POINT=POINT2"
0.000000000000e+00 -7.000000000000e+07 8.894919982500e-01 2.500000000000e+01 0.000000000000e+00 0.000000000000e+00 0.000000000000e+00 0.000000000000e+00 0.000000000000e+00 0.000000000000e+00 0.000000000000e+00 0.000000000000e+00 0.000000000000e+00 0.000000000000e+00 -0.000000000000e+00 0.000000000000e+00  0.000000000000e+00
1.000000000000e-03 -6.999999537629e+07 6.684760111000e-01 3.309920026860e+01 0.000000000000e+00 1.043973838035e-04 2.100098682015e+07 -6.397360242786e+05 1.484832186219e+07 1.064879427951e+07 1.702074886690e-05 -4.540968088702e-04 -5.779119089555e-03 0.000000000000e+00 -1.549936765395e+07 9.086109769473e+06  5.840846156793e-03
2.000000000000e-03 -7.015897607413e+07 6.679155789141e-01 3.680474815993e+01 0.000000000000e+00 1.041210986858e-04 2.095065239435e+07 -6.448833189462e+05 1.479821615467e+07 1.061284740213e+07 1.718136088144e-05 -4.552552113174e-04 -5.806198811010e-03 0.000000000000e+00 -1.545390531705e+07 9.075660920987e+06  5.868029494775e-03
3.000000000000e-03 -7.037098642507e+07 6.671689085523e-01 3.938015743566e+01 0.000000000000e+00 1.037585337840e-04 2.089602131867e+07 -6.511619504191e+05 1.474003948730e+07 1.057405574563e+07 1.728042763786e-05 -4.578142313010e-04 -5.852906575456e-03 0.000000000000e+00 -1.540337218387e+07 9.064727724788e+06  5.914958692492e-03
4.000000000000e-03 -7.061767538446e+07 6.663004324712e-01 4.141326107397e+01 0.000000000000e+00 1.032819454989e-04 2.083855797596e+07 -6.581455040124e+05 1.467678794570e+07 1.053326183117e+07 1.735833132563e-05 -4.611839210036e-04 -5.911072987934e-03 0.000000000000e+00 -1.534953591761e+07 9.053570572600e+06  5.973421412453e-03
1.000000000000e-02 -7.212436535164e+07 6.610102006695e-01 4.814031306241e+01 0.000000000000e+00 1.004299895798e-04 2.052263433288e+07 -6.964120179931e+05 1.430941970059e+07 1.030709033324e+07 1.772652914304e-05 -4.853635132180e-04 -6.294778028918e-03 0.000000000000e+00 -1.504638145557e+07 8.996942642727e+06  6.359470296279e-03
2.000000000000e-02 -7.521838927306e+07 6.501913312996e-01 5.432127347824e+01 0.000000000000e+00 9.849241648303e-05 1.997569684051e+07 -7.600747991084e+05 1.361576083543e+07 9.901463277772e+06 1.954629627240e-05 -5.414555649548e-04 -7.098529216827e-03 0.000000000000e+00 -1.449764031790e+07 8.921918415158e+06  7.169921299531e-03
3.000000000000e-02 -7.885304567777e+07 6.375369879652e-01 5.823716234590e+01 0.000000000000e+00 9.873606416267e-05 1.941631838182e+07 -8.171404284206e+05 1.284227289801e+07 9.467244358546e+06 2.355112506360e-05 -6.134100767152e-04 -8.036579678796e-03 0.000000000000e+00 -1.390861187946e+07 8.876916031608e+06  8.118205087880e-03
4.000000000000e-02 -8.260242274945e+07 6.245444013950e-01 6.095065593317e+01 0.000000000000e+00 1.013140992204e-04 1.889750796451e+07 -8.573178445236e+05 1.206167568847e+07 9.044094811223e+06 2.974698657518e-05 -6.941189496584e-04 -8.997766830625e-03 0.000000000000e+00 -1.333442615474e+07 8.869445060024e+06  9.092510798423e-03
5.000000000000e-02 -8.623995729545e+07 6.178036151044e-01 6.295231972479e+01 0.000000000000e+00 1.048976841410e-04 1.829648534805e+07 -8.839505881284e+05 1.120645678817e+07 8.566216271968e+06 2.450789379482e-05 -7.806981507070e-04 -1.006754796557e-02 0.000000000000e+00 -1.268971946940e+07 8.848890413766e+06  1.017011926576e-02
6.000000000000e-02 -8.968091162548e+07 6.112976919410e-01 6.450103373035e+01 0.000000000000e+00 1.107815374823e-04 1.777904259533e+07 -8.957010343381e+05 1.038297771901e+07 8.125455280782e+06 2.119940393013e-05 -8.693620354914e-04 -1.108936603723e-02 0.000000000000e+00 -1.209582519838e+07 8.882668892599e+06  1.120164932136e-02
7.000000000000e-02 -9.292392863052e+07 6.047947078570e-01 6.575112424602e+01 0.000000000000e+00 1.166718044437e-04 1.733342103152e+07 -8.963727722399e+05 9.594638610874e+06 7.719504200849e+06 1.971259197872e-05 -9.581400784849e-04 -1.205682747868e-02 0.000000000000e+00 -1.154918794775e+07 8.962510365900e+06  1.218028103073e-02
8.000000000000e-02 -9.597684616128e+07 5.987103601914e-01 6.679366694607e+01 0.000000000000e+00 1.233464745765e-04 1.692964565624e+07 -8.900809355995e+05 8.837509408316e+06 7.337507298505e+06 1.824222150959e-05 -1.044880920428e-03 -1.297566154457e-02 0.000000000000e+00 -1.103488745435e+07 9.069047857680e+06  1.311030734207e-02
9.000000000000e-02 -9.886346673557e+07 5.929822442230e-01 6.768828995956e+01 0.000000000000e+00 1.294083914773e-04 1.655924980781e+07 -8.782091359000e+05 8.122314700800e+06 6.980244414208e+06 1.702121710789e-05 -1.128253663188e-03 -1.384004318185e-02 0.000000000000e+00 -1.055393630761e+07 9.188880524537e+06  1.398576162969e-02
1.000000000000e-01 -1.016032157368e+08 5.873455859496e-01 6.846872321336e+01 0.000000000000e+00 1.348269903997e-04 1.621956890757e+07 -8.618587413535e+05 7.450683257414e+06 6.647368058342e+06 1.682602244714e-05 -1.208254918821e-03 -1.465363541586e-02 0.000000000000e+00 -1.010587340777e+07 9.317255574811e+06  1.481065549734e-02
2.000000000000e-01 -1.181504397069e+08 5.520553191261e-01 7.270598278299e+01 0.000000000000e+00 2.287165714961e-04 1.422410613063e+07 -7.036301916427e+05 3.541215863176e+06 4.708040437205e+06 5.812058513807e-06 -1.665936767172e-03 -1.933861960491e-02 0.000000000000e+00 -7.491120810336e+06 1.022281035269e+07  1.955557913049e-02
3.000000000000e-01 -1.336338807803e+08 5.238622779198e-01 7.551347400682e+01 0.000000000000e+00 3.377381818327e-04 1.234412756809e+07 -6.109770234066e+05 2.891841922888e+05 3.027298624224e+06 -1.216648852221e-05 -2.026254776371e-03 -2.327188533400e-02 0.000000000000e+00 -5.220203461535e+06 1.099686295141e+07  2.352902002109e-02
4.000000000000e-01 -1.468337430373e+08 5.053221652465e-01 7.753845423661e+01 0.000000000000e+00 4.425282019405e-04 1.069056850863e+07 -5.602280779819e+05 -2.513808913373e+06 1.568619539723e+06 -4.223122240831e-05 -2.312365570977e-03 -2.658478843011e-02 0.000000000000e+00 -3.248459711661e+06 1.174978491644e+07  2.686393781334e-02
5.000000000000e-01 -1.576243848365e+08 4.899377774359e-01 7.910019767538e+01 0.000000000000e+00 5.443633801666e-04 9.381312865082e+06 -5.213415486200e+05 -4.719378923360e+06 4.220974384743e+05 -6.523563945909e-05 -2.530737468932e-03 -2.911540001719e-02 0.000000000000e+00 -1.694677126732e+06 1.239279248624e+07  2.941131259433e-02
6.000000000000e-01 -1.663707379123e+08 4.767885875890e-01 8.034131136815e+01 0.000000000000e+00 6.437024423186e-04 8.330905049611e+06 -4.874957893460e+05 -6.432939590935e+06 -4.763733133193e+05 -8.101717952086e-05 -2.697140198342e-03 -3.104228548871e-02 0.000000000000e+00 -4.738640484522e+05 1.289274709710e+07  3.135185464177e-02
7.000000000000e-01 -1.732967281440e+08 4.680998911429e-01 8.134433193235e+01 0.000000000000e+00 7.405749756819e-04 7.397718954343e+06 -4.594727813422e+05 -7.878590096415e+06 -1.249200632963e+06 -9.930753749159e-05 -2.830477221405e-03 -3.264383395731e-02 0.000000000000e+00 5.766905916783e+05 1.329192109220e+07  3.296092812039e-02
8.000000000000e-01 -1.786683255247e+08 4.623781747353e-01 8.216160035805e+01 0.000000000000e+00 8.352121418375e-04 6.594922023561e+06 -4.396899877081e+05 -9.077233889682e+06 -1.898762441173e+06 -1.184745948294e-04 -2.934998653408e-03 -3.394658740084e-02 0.000000000000e+00 1.460358102431e+06 1.360973112894e+07  3.426668462940e-02
9.000000000000e-01 -1.827329822501e+08 4.580426423379e-01 8.284030403697e+01 0.000000000000e+00 9.275985279139e-04 5.920516948653e+06 -4.250183198867e+05 -1.003793714910e+07 -2.427266387759e+06 -1.347988770405e-04 -3.014110960688e-03 -3.494942278650e-02 0.000000000000e+00 2.181562196068e+06 1.384492500328e+07  3.527072122246e-02
1.000000000000e+00 -1.857446759461e+08 4.548262752410e-01 8.340750001181e+01 0.000000000000e+00 1.017767599262e-03 5.350256971385e+06 -4.156797135169e+05 -1.083996718489e+07 -2.869146567436e+06 -1.489192835267e-04 -3.075579143670e-03 -3.574233582427e-02 0.000000000000e+00 2.786285593646e+06 1.404016865684e+07  3.606371563347e-02
2.000000000000e+00 -1.865346205152e+08 4.540266985667e-01 8.537368197274e+01 0.000000000000e+00 1.765506836883e-03 2.570654796493e+06 -3.905459214009e+05 -1.412245747912e+07 -4.778152898482e+06 -1.871886884514e-04 -3.251297567682e-03 -3.796491255761e-02 0.000000000000e+00 5.443318527037e+06 1.450682868135e+07  3.828806381294e-02
3.000000000000e+00 -1.779756228079e+08 4.632179860869e-01 8.594055505504e+01 0.000000000000e+00 2.399975914114e-03 9.028099271573e+05 -3.878215258558e+05 -1.568286702937e+07 -5.763218082996e+06 -1.982262444022e-04 -3.269990030312e-03 -3.821048940576e-02 0.000000000000e+00 6.847758395068e+06 1.447104830296e+07  3.853031244170e-02
4.000000000000e+00 -1.659453125523e+08 4.777255346227e-01 8.593358510485e+01 0.000000000000e+00 2.952403992855e-03 -1.999508314386e+05 -4.006731170362e+05 -1.639278761807e+07 -6.290061174772e+06 -2.014240186233e-04 -3.211449351130e-03 -3.754084829628e-02 0.000000000000e+00 7.627599874761e+06 1.418318938852e+07  3.785147889736e-02
5.000000000000e+00 -1.534804881408e+08 4.962754141607e-01 8.574019153179e+01 0.000000000000e+00 3.441795827472e-03 -1.079202237551e+06 -4.212245926756e+05 -1.672388047639e+07 -6.627545180582e+06 -2.108283172553e-04 -3.118636175099e-03 -3.658332830778e-02 0.000000000000e+00 8.143542631508e+06 1.375755490559e+07  3.687613363526e-02
6.000000000000e+00 -1.417531262717e+08 5.128625752747e-01 8.559242984753e+01 0.000000000000e+00 3.883389512261e-03 -1.697375753415e+06 -4.326928312150e+05 -1.676148051149e+07 -6.787452186046e+06 -2.038706188360e-04 -3.016692313791e-03 -3.538181739721e-02 0.000000000000e+00 8.415436150318e+06 1.329362083494e+07  3.566514475085e-02
7.000000000000e+00 -1.313745199797e+08 5.275460241331e-01 8.532214685712e+01 0.000000000000e+00 4.284707181844e-03 -2.150896937092e+06 -4.434527831432e+05 -1.672773718068e+07 -6.875308741290e+06 -1.924284747618e-04 -2.919988081282e-03 -3.419117971516e-02 0.000000000000e+00 8.584647619686e+06 1.290454545424e+07  3.446844112597e-02
8.000000000000e+00 -1.218730959231e+08 5.455279997025e-01 8.524103741090e+01 0.000000000000e+00 3.354023084868e-03 -2.597747177150e+06 -4.582667317583e+05 -1.591619113793e+07 -6.713990248317e+06 -2.081374958368e-04 -2.757883027312e-03 -3.256333918023e-02 0.000000000000e+00 8.409309521131e+06 1.183775650524e+07  3.280936580137e-02
9.000000000000e+00 -1.135456722305e+08 5.638272296239e-01 8.515896221460e+01 0.000000000000e+00 5.000104741817e-03 -3.084368720019e+06 -4.726327368035e+05 -1.676172828396e+07 -7.110861915378e+06 -1.962223863788e-04 -2.740045105582e-03 -3.221336494793e-02 0.000000000000e+00 8.985652973117e+06 1.220168685021e+07  3.246447200697e-02
1.000000000000e+01 -1.059793812831e+08 5.802612879421e-01 8.507174833752e+01 0.000000000000e+00 5.320527346257e-03 -3.479952505764e+06 -4.837647493151e+05 -1.667694797080e+07 -7.176058969750e+06 -1.953655936083e-04 -2.651486482741e-03 -3.123188084047e-02 0.000000000000e+00 9.110986482106e+06 1.182144141177e+07  3.147154358008e-02
1.100000000000e+01 -9.909822210168e+07 5.940697241255e-01 8.503712416840e+01 0.000000000000e+00 5.622814557066e-03 -3.781492647008e+06 -4.910025283151e+05 -1.648672217924e+07 -7.178109436897e+06 -1.897494158747e-04 -2.561802098207e-03 -3.020608553082e-02 0.000000000000e+00 9.148774754381e+06 1.142489901854e+07  3.043682819910e-02
1.200000000000e+01 -9.295714279152e+07 6.064074949627e-01 8.500709438187e+01 0.000000000000e+00 5.905838728466e-03 -4.037938508826e+06 -4.959850404336e+05 -1.626566537983e+07 -7.157186642332e+06 -1.855096848428e-04 -2.474127789600e-03 -2.919909915585e-02 0.000000000000e+00 9.153596843661e+06 1.103828349934e+07  2.942055428832e-02
1.300000000000e+01 -8.732663241847e+07 6.177177534092e-01 8.495625989402e+01 0.000000000000e+00 6.172399333839e-03 -4.242915384689e+06 -5.085974644567e+05 -1.606039914191e+07 -7.125950195672e+06 -1.828133936601e-04 -2.388669662868e-03 -2.822570219930e-02 0.000000000000e+00 9.143088240757e+06 1.070843635485e+07  2.843731487409e-02
1.400000000000e+01 -8.200086706701e+07 6.338216884032e-01 8.486705770932e+01 0.000000000000e+00 6.424694208476e-03 -4.498121282767e+06 -5.282557977839e+05 -1.593593273813e+07 -7.141953626122e+06 -1.896923728478e-04 -2.306506795315e-03 -2.737534445618e-02 0.000000000000e+00 9.192002549006e+06 1.041205489080e+07  2.757195121920e-02
1.500000000000e+01 -7.695663775889e+07 6.518493265119e-01 8.476324699187e+01 0.000000000000e+00 6.662851604388e-03 -4.741813850639e+06 -5.448819467302e+05 -1.579185896609e+07 -7.150446146061e+06 -1.993510169615e-04 -2.224435398397e-03 -2.653956689358e-02 0.000000000000e+00 9.228039654263e+06 1.010842223419e+07  2.671969312327e-02
1.600000000000e+01 -7.222794945229e+07 6.687652531351e-01 8.464730142904e+01 0.000000000000e+00 6.887638756152e-03 -4.931107670361e+06 -5.582203546356e+05 -1.559625032514e+07 -7.125079514465e+06 -2.047116210352e-04 -2.143673839884e-03 -2.567229698980e-02 0.000000000000e+00 9.217479169989e+06 9.802784680619e+06  2.583871774379e-02
1.700000000000e+01 -6.776362274640e+07 6.847516312760e-01 8.451638001277e+01 0.000000000000e+00 7.100305776250e-03 -5.084355000012e+06 -5.699134571903e+05 -1.535985025849e+07 -7.075211299913e+06 -2.069002605671e-04 -2.063406174331e-03 -2.478446036999e-02 0.000000000000e+00 9.173138852803e+06 9.490346737074e+06  2.493907190257e-02
1.800000000000e+01 -6.352440965027e+07 6.999404143102e-01 8.436963523088e+01 0.000000000000e+00 7.301700449738e-03 -5.204326136183e+06 -5.812123752371e+05 -1.508585881406e+07 -7.002427494970e+06 -2.065717974390e-04 -1.982885812671e-03 -2.386961465754e-02 0.000000000000e+00 9.097537481736e+06 9.171874546720e+06  2.401386880620e-02
1.900000000000e+01 -5.947137120125e+07 7.144609320822e-01 8.420550107084e+01 0.000000000000e+00 7.491857787244e-03 -5.297655738825e+06 -5.921085725784e+05 -1.477145985019e+07 -6.908094847687e+06 -2.037875581896e-04 -1.901669318187e-03 -2.292964794287e-02 0.000000000000e+00 8.992403478900e+06 8.839755171857e+06  2.306483353019e-02
2.000000000000e+01 -5.570661719977e+07 7.279403911442e-01 8.402769559969e+01 0.000000000000e+00 7.674648951414e-03 -5.366228240973e+06 -6.022303159886e+05 -1.443780434186e+07 -6.800356291300e+06 -1.995848123756e-04 -1.822266530433e-03 -2.200144248518e-02 0.000000000000e+00 8.868129624709e+06 8.510491086440e+06  2.212858146560e-02
2.100000000000e+01 -5.208363291662e+07 7.403246151126e-01 8.393963607309e+01 0.000000000000e+00 7.847340322484e-03 -5.400903369663e+06 -6.110619788826e+05 -1.406069218592e+07 -6.667853565133e+06 -1.930287516742e-04 -1.741904294404e-03 -2.104669312020e-02 0.000000000000e+00 8.709816373571e+06 8.169808702322e+06  2.116697017071e-02
2.200000000000e+01 -4.869858895976e+07 7.518073519384e-01 8.385004960415e+01 0.000000000000e+00 8.012703203447e-03 -5.429973167130e+06 -6.193662235063e+05 -1.368875935044e+07 -6.535609469249e+06 -1.858862225948e-04 -1.664345142635e-03 -2.011584383478e-02 0.000000000000e+00 8.551447328941e+06 7.838980201212e+06  2.022999265718e-02
2.300000000000e+01 -4.556372462724e+07 7.623569509304e-01 8.375183767457e+01 0.000000000000e+00 1.100411721973e-02 -5.504567586697e+06 -6.316903009168e+05 -1.459407187618e+07 -6.835032230106e+06 -1.570515162513e-04 -1.692793561415e-03 -2.011620026780e-02 0.000000000000e+00 8.977890564327e+06 8.572809237431e+06  2.025150732080e-02
2.400000000000e+01 -4.249966755870e+07 7.735265808107e-01 8.363904554352e+01 0.000000000000e+00 8.322886910925e-03 -5.435599281228e+06 -6.422059264560e+05 -1.293740471802e+07 -6.253954856226e+06 -1.727171629948e-04 -1.511630801581e-03 -1.830244698002e-02 0.000000000000e+00 8.208986285157e+06 7.214217331959e+06  1.840389450626e-02
2.500000000000e+01 -3.946992266371e+07 7.878662745748e-01 8.350995276642e+01 0.000000000000e+00 8.467304795539e-03 -5.431926348300e+06 -6.559506563415e+05 -1.255047042696e+07 -6.109694174052e+06 -1.689823557536e-04 -1.432315976681e-03 -1.738967111956e-02 0.000000000000e+00 8.030696983104e+06 6.899212467623e+06  1.748271306928e-02
2.600000000000e+01 -3.648795467008e+07 8.025711742696e-01 8.336809702336e+01 0.000000000000e+00 8.467341108352e-03 -5.401730339820e+06 -6.694391391179e+05 -1.206652820665e+07 -5.925538269620e+06 -1.660128121809e-04 -1.345080032150e-03 -1.639884864406e-02 0.000000000000e+00 7.797932272029e+06 6.522827428560e+06  1.648196283831e-02
2.700000000000e+01 -3.356096776948e+07 8.175875670979e-01 8.321341910093e+01 0.000000000000e+00 8.736972990909e-03 -5.357008245015e+06 -6.834574555450e+05 -1.167295711052e+07 -5.766351754135e+06 -1.605873186782e-04 -1.265126107494e-03 -1.546344985053e-02 0.000000000000e+00 7.598772369890e+06 6.234959646119e+06  1.553906264294e-02
2.800000000000e+01 -3.067654818007e+07 8.329529030742e-01 8.304585358530e+01 0.000000000000e+00 8.738126977723e-03 -5.287614799354e+06 -6.975019154843e+05 -1.111006982586e+07 -5.544086000929e+06 -1.571142524402e-04 -1.171091153685e-03 -1.439683068035e-02 0.000000000000e+00 7.313923542046e+06 5.825203407815e+06  1.446187521409e-02
2.900000000000e+01 -2.782238131944e+07 8.487208648428e-01 8.286538434685e+01 0.000000000000e+00 8.982688094924e-03 -5.199619235612e+06 -7.119559829694e+05 -1.066173405959e+07 -5.353306484685e+06 -1.504512761912e-04 -1.086120633814e-03 -1.339756433502e-02 0.000000000000e+00 7.071553259964e+06 5.526255937300e+06  1.345513504723e-02
3.000000000000e+01 -2.498527561729e+07 8.648790438843e-01 8.267204414140e+01 0.000000000000e+00 9.105888037795e-03 -5.085679136340e+06 -7.262441698524e+05 -1.010695229391e+07 -5.119399334957e+06 -1.443223228650e-04 -9.919903005090e-04 -1.230578801910e-02 0.000000000000e+00 6.770676921737e+06 5.160164205653e+06  1.235432645113e-02
3.100000000000e+01 -2.214935226985e+07 8.814778510493e-01 8.255052623482e+01 0.000000000000e+00 9.207172126925e-03 -4.947335500042e+06 -7.401523518246e+05 -9.489875153284e+06 -4.857227760760e+06 -1.377975867670e-04 -8.920965007066e-04 -1.114827340315e-02 0.000000000000e+00 6.431479471362e+06 4.763987866949e+06  1.118723787959e-02
3.200000000000e+01 -1.935151504853e+07 8.982243709462e-01 8.242766319725e+01 0.000000000000e+00 9.313519094343e-03 -4.793027954070e+06 -7.535494997085e+05 -8.855822197360e+06 -4.584218246443e+06 -1.303320605867e-04 -7.907678503059e-04 -9.965895315032e-03 0.000000000000e+00 6.077689465957e+06 4.370556026518e+06  9.995655135279e-03
3.300000000000e+01 -1.652325712790e+07 9.153678297958e-01 8.229794232476e+01 0.000000000000e+00 9.025926016188e-03 -4.604890400884e+06 -7.652596828998e+05 -7.918602457010e+06 -4.200920486405e+06 -1.263282051804e-04 -6.638257538253e-04 -8.540016990191e-03 0.000000000000e+00 5.574804448100e+06 3.773511150832e+06  8.555173749487e-03
3.400000000000e+01 -1.363663890268e+07 9.328905536890e-01 8.215991188141e+01 0.000000000000e+00 9.514357411820e-03 -4.385493528364e+06 -7.758816152775e+05 -7.420465775391e+06 -3.950507480337e+06 -1.117347371975e-04 -5.725041666915e-04 -7.389951238815e-03 0.000000000000e+00 5.252155594697e+06 3.539267837928e+06  7.401448018234e-03
3.500000000000e+01 -1.065695033380e+07 9.506820787602e-01 8.201296682334e+01 0.000000000000e+00 9.609139450498e-03 -4.121129636265e+06 -7.832525136598e+05 -6.596771230252e+06 -3.578370010447e+06 -1.000969169130e-04 -4.533761640004e-04 -5.963647158476e-03 0.000000000000e+00 4.765423625654e+06 3.099600154693e+06  5.966138949748e-03
3.600000000000e+01 -7.548471699938e+06 9.684051316482e-01 8.185688142982e+01 0.000000000000e+00 9.700004919353e-03 -3.810998553091e+06 -7.865068075735e+05 -5.693678587776e+06 -3.164145434983e+06 -8.614904399734e-05 -3.268504890259e-04 -4.425678161270e-03 0.000000000000e+00 4.222940858617e+06 2.652640080245e+06  4.419646437083e-03
3.700000000000e+01 -4.219403969816e+06 9.854150820266e-01 8.169151100666e+01 0.000000000000e+00 9.783336008813e-03 -3.461334948050e+06 -7.853056160092e+05 -4.694847546117e+06 -2.702846099995e+06 -6.975476556884e-05 -1.895362796010e-04 -2.735830887244e-03 0.000000000000e+00 3.619676198054e+06 2.209655842748e+06  2.721501631930e-03
3.800000000000e+01 2.090572337689e+06 1.000000000000e+00 8.151767926444e+01 0.000000000000e+00 9.772180548159e-03 -3.331687034344e+06 -7.861051907269e+05 -3.287032797788e+06 -2.133028287588e+06 -4.053709837075e-05 5.011112843193e-05 2.258615504303e-04 0.000000000000e+00 2.917249373240e+06 1.799759904391e+06  2.633359902733e-04
3.900000000000e+01 2.140131967499e+06 1.000000000000e+00 8.133875740813e+01 0.000000000000e+00 9.962946009029e-03 -3.394360951201e+06 -7.857001613760e+05 -3.384126852427e+06 -2.182624745836e+06 -4.018324343004e-05 4.504193542850e-05 1.762933183587e-04 0.000000000000e+00 2.987037516488e+06 1.818786015703e+06  2.141597355214e-04
4.000000000000e+01 2.169517423926e+06 1.000000000000e+00 8.114888570428e+01 0.000000000000e+00 1.003786772579e-02 -3.411281198262e+06 -7.856140677208e+05 -3.394040813267e+06 -2.190336243191e+06 -4.042903425709e-05 4.541605152364e-05 1.784000767804e-04 0.000000000000e+00 2.998552751573e+06 1.822504497473e+06  2.164751492200e-04
4.200000000000e+01 2.226800970498e+06 1.000000000000e+00 8.087411848909e+01 0.000000000000e+00 1.017816934992e-02 -3.444751278093e+06 -7.854481441738e+05 -3.414147280800e+06 -2.205875914983e+06 -4.089070516533e-05 4.613855369994e-05 1.826348577964e-04 0.000000000000e+00 3.021591491292e+06 1.829923657771e+06  2.210925317302e-04
4.400000000000e+01 2.282566774781e+06 1.000000000000e+00 8.057884049335e+01 0.000000000000e+00 1.030896565922e-02 -3.476966518033e+06 -7.852859941733e+05 -3.433724645763e+06 -2.220863099231e+06 -4.132516453331e-05 4.680864442123e-05 1.865510128889e-04 0.000000000000e+00 3.043851421009e+06 1.837218460768e+06  2.253695820485e-04
5.000000000000e+01 2.434088971202e+06 1.000000000000e+00 7.938388867998e+01 0.000000000000e+00 1.058254108284e-02 -3.560292819290e+06 -7.848299087751e+05 -3.487838243178e+06 -2.260177203407e+06 -4.231841546225e-05 4.812982021083e-05 1.937095874359e-04 0.000000000000e+00 3.102769421958e+06 1.857208903581e+06  2.333691799114e-04
6.500000000000e+01 2.765473793754e+06 1.000000000000e+00 7.672160528181e+01 0.000000000000e+00 1.104659415613e-02 -3.735591439482e+06 -7.838448887762e+05 -3.607926201345e+06 -2.344579302056e+06 -4.406635460687e-05 5.043985853967e-05 2.075369869336e-04 0.000000000000e+00 3.229365647627e+06 1.901806434078e+06  2.485787219425e-04
8.000000000000e+01 3.020527468843e+06 1.000000000000e+00 7.427524820246e+01 0.000000000000e+00 1.126672647307e-02 -3.864658272723e+06 -7.830701662214e+05 -3.702975495453e+06 -2.408184815165e+06 -4.507864756477e-05 5.145758992203e-05 2.134174390886e-04 0.000000000000e+00 3.325272861114e+06 1.936896031045e+06  2.552318710036e-04
1.000000000000e+02 3.321206982660e+06 1.000000000000e+00 7.180475267663e+01 0.000000000000e+00 1.127347691504e-02 -4.017904673535e+06 -7.819139842469e+05 -3.694069954305e+06 -2.444398858196e+06 -4.842221141777e-05 6.284291638416e-05 3.091261850119e-04 0.000000000000e+00 3.385457828678e+06 1.976209022004e+06  3.531571586744e-04
1.860000000000e+02 3.919688074504e+06 1.000000000000e+00 6.658180885797e+01 0.000000000000e+00 1.106844607706e-02 -4.244430080749e+06 -7.821318277376e+05 -4.616906505460e+06 -2.800130765803e+06 -3.515301050085e-05 5.151635984262e-06 -1.719180680108e-04 0.000000000000e+00 3.887155784004e+06 2.144270792378e+06  1.575681968726e-04
2.720000000000e+02 4.210009356645e+06 1.000000000000e+00 6.332445353062e+01 0.000000000000e+00 1.150126485102e-02 -4.450165632726e+06 -7.794292288538e+05 -4.177664530315e+06 -2.710605120836e+06 -4.776485632528e-05 5.241743329674e-05 2.215230991021e-04 0.000000000000e+00 3.779478427959e+06 2.109223846944e+06  2.649108262740e-04
3.580000000000e+02 4.351374895460e+06 1.000000000000e+00 6.119532455701e+01 0.000000000000e+00 1.132521292165e-02 -4.508822924351e+06 -7.789689989879e+05 -4.236377437727e+06 -2.743074882942e+06 -4.756612782311e-05 5.132824264860e-05 2.148105440637e-04 0.000000000000e+00 3.829425081673e+06 2.128708695119e+06  2.579294043607e-04
4.440000000000e+02 4.423504394423e+06 1.000000000000e+00 5.963761488828e+01 0.000000000000e+00 1.116053813088e-02 -4.533085199385e+06 -7.787234403330e+05 -4.265720390406e+06 -2.757207121124e+06 -4.726509897632e-05 5.030650910598e-05 2.083686692426e-04 0.000000000000e+00 3.852004236972e+06 2.137674010773e+06  2.511817912464e-04
5.300000000000e+02 4.462469390613e+06 1.000000000000e+00 5.847322562551e+01 0.000000000000e+00 1.101784119269e-02 -4.542309690068e+06 -7.785828964457e+05 -4.281305234306e+06 -2.763223571297e+06 -4.696046110673e-05 4.942020745218e-05 2.027151058638e-04 0.000000000000e+00 3.862279498557e+06 2.141843906465e+06  2.452455190442e-04
6.160000000000e+02 4.484984031831e+06 1.000000000000e+00 5.760610235614e+01 0.000000000000e+00 1.101769399775e-02 -4.552169579397e+06 -7.784975700985e+05 -4.320651916026e+06 -2.777762081727e+06 -4.636746709903e-05 4.639959150004e-05 1.766625348494e-04 0.000000000000e+00 3.883527859050e+06 2.146972547206e+06  2.191112817063e-04
7.020000000000e+02 4.498793640891e+06 1.000000000000e+00 5.697669369448e+01 0.000000000000e+00 1.080887700658e-02 -4.545976611116e+06 -7.784401062718e+05 -4.295982983484e+06 -2.766934424044e+06 -4.647961262721e-05 4.812109698068e-05 1.943400289015e-04 0.000000000000e+00 3.869631339548e+06 2.144911584271e+06  2.364490862925e-04
7.880000000000e+02 4.508412036971e+06 1.000000000000e+00 5.650296309815e+01 0.000000000000e+00 1.072713864902e-02 -4.546121686894e+06 -7.783967408727e+05 -4.300764495559e+06 -2.767872563269e+06 -4.629132881489e-05 4.760895559867e-05 1.909416249325e-04 0.000000000000e+00 3.871586248574e+06 2.145639379101e+06  2.328956220265e-04
8.740000000000e+02 4.516799026790e+06 1.000000000000e+00 5.570721323056e+01 0.000000000000e+00 1.061159527292e-02 -4.541560824276e+06 -7.783546392235e+05 -4.303240764638e+06 -2.766299143028e+06 -4.600096010538e-05 4.689607413421e-05 1.863521437123e-04 0.000000000000e+00 3.870366910647e+06 2.145408551113e+06  2.280642730304e-04
9.370000000000e+02 4.522171335170e+06 1.000000000000e+00 5.519188179217e+01 0.000000000000e+00 1.061106787288e-02 -4.540372258828e+06 -7.783935814790e+05 -4.350105596168e+06 -2.780608825547e+06 -4.500856958910e-05 4.271518874630e-05 1.513084526895e-04 0.000000000000e+00 3.890362226848e+06 2.148449238770e+06  1.928832762655e-04
1.000000000000e+03 4.526362634967e+06 1.000000000000e+00 5.480037709648e+01 0.000000000000e+00 1.043711467435e-02 -4.535814536361e+06 -7.783013285977e+05 -4.308090274299e+06 -2.765000211302e+06 -4.557152686644e-05 4.585473262540e-05 1.796972270164e-04 0.000000000000e+00 3.869635007321e+06 2.145144098245e+06  2.210540747862e-04
1.100000000000e+03 4.530505850323e+06 1.000000000000e+00 5.441729927745e+01 0.000000000000e+00 1.035393097696e-02 -4.533139610211e+06 -7.782786246264e+05 -4.310428578246e+06 -2.764469783056e+06 -4.536565563673e-05 4.537436535511e-05 1.767085679660e-04 0.000000000000e+00 3.869345990504e+06 2.145004366309e+06  2.178920830147e-04
1.200000000000e+03 4.533763672334e+06 1.000000000000e+00 5.407980821177e+01 0.000000000000e+00 1.028480307895e-02 -4.530677936715e+06 -7.782598743085e+05 -4.312171079503e+06 -2.763872845609e+06 -4.519426488892e-05 4.496990809941e-05 1.741634732119e-04 0.000000000000e+00 3.868907287275e+06 2.144843058296e+06  2.152057272142e-04
1.300000000000e+03 4.536673050768e+06 1.000000000000e+00 5.375342285692e+01 0.000000000000e+00 1.021900675300e-02 -4.528190212245e+06 -7.782424873422e+05 -4.313705351542e+06 -2.763217486077e+06 -4.503085393242e-05 4.458357322168e-05 1.717236809403e-04 0.000000000000e+00 3.868371016622e+06 2.144657701729e+06  2.126328982034e-04
1.400000000000e+03 4.539413396742e+06 1.000000000000e+00 5.342073481581e+01 0.000000000000e+00 1.015102131183e-02 -4.525509320915e+06 -7.782253756463e+05 -4.315193786216e+06 -2.762484252809e+06 -4.486181640351e-05 4.418535041385e-05 1.692097309030e-04 0.000000000000e+00 3.867729119980e+06 2.144435277857e+06  2.099823970201e-04
1.500000000000e+03 4.542051568529e+06 1.000000000000e+00 5.307167405789e+01 0.000000000000e+00 1.007762655733e-02 -4.522514785705e+06 -7.782080387549e+05 -4.316710576250e+06 -2.761648800461e+06 -4.467912403810e-05 4.375787408821e-05 1.665184795666e-04 0.000000000000e+00 3.866958054139e+06 2.144162776777e+06  2.071443520817e-04
1.600000000000e+03 4.544610084599e+06 1.000000000000e+00 5.270009876932e+01 0.000000000000e+00 9.996848440730e-03 -4.519122222919e+06 -7.781902233466e+05 -4.318292182498e+06 -2.760690384242e+06 -4.447781718245e-05 4.329050195043e-05 1.635867068744e-04 0.000000000000e+00 3.866034929886e+06 2.143830536751e+06  2.040516336777e-04
1.700000000000e+03 4.547101674268e+06 1.000000000000e+00 5.230221776081e+01 0.000000000000e+00 9.907465621944e-03 -4.515276187177e+06 -7.781718239511e+05 -4.319957472330e+06 -2.759594019096e+06 -4.425478362619e-05 4.277681794475e-05 1.603774186483e-04 0.000000000000e+00 3.864942559534e+06 2.143433193200e+06  2.006649912350e-04
1.800000000000e+03 4.549514249243e+06 1.000000000000e+00 5.187574289425e+01 0.000000000000e+00 9.808741741494e-03 -4.510938537953e+06 -7.781526884511e+05 -4.321716549296e+06 -2.758349105441e+06 -4.400820941925e-05 4.221247610362e-05 1.568624332008e-04 0.000000000000e+00 3.863668064230e+06 2.142967811671e+06  1.969554763713e-04
1.900000000000e+03 4.551854615445e+06 1.000000000000e+00 5.141938748703e+01 0.000000000000e+00 9.700258822348e-03 -4.506090582637e+06 -7.781328574135e+05 -4.323575441820e+06 -2.756950435370e+06 -4.373700660727e-05 4.159539341486e-05 1.530303662938e-04 0.000000000000e+00 3.862205486609e+06 2.142435693896e+06  1.929114801060e-04