 TITLE = "Time curves in points"
 VARIABLES = "TIME"  "PRESSURE1"  "SATURATION1"  "TEMPERATURE1"  "DISPLACEMENT_X1"  "DISPLACEMENT_Y1"  "STRESS_XX"  "STRESS_XY"  "STRESS_YY"  "STRESS_ZZ"  "STRAIN_XX"  "STRAIN_XY"  "STRAIN_YY"  "STRAIN_PLS"  p_(1st_Invariant)  q_(2nd_Invariant)   Effective_Strain
 ZONE T="POINT=POINT18"
0.000000000000e+00 1.000000000000e+05 1.000000000000e+00 2.500000000000e+01 0.000000000000e+00 0.000000000000e+00 -3.130685851467e+07 -1.409868786187e+04 -1.352808692198e+07 -1.044743363099e+07 0.000000000000e+00 0.000000000000e+00 0.000000000000e+00 0.000000000000e+00 1.842745968921e+07 1.950246065449e+07  0.000000000000e+00
1.000000000000e-03 3.083650975032e+05 1.000000000000e+00 2.500000000001e+01 -8.227612347186e-05 6.303344146433e-05 -3.059527157640e+07 -1.351244736868e+04 -1.354545951305e+07 -1.023916932685e+07 1.869484069577e-05 4.354929377967e-08 -8.380798965462e-06 0.000000000000e+00 1.812663347210e+07 1.892088317842e+07  2.400871198388e-05
1.000000000000e-03 3.083650975032e+05 1.000000000000e+00 2.500000000001e+01 -8.227612347186e-05 6.303344146433e-05 -3.059527157640e+07 -1.351244736868e+04 -1.354545951305e+07 -1.023916932685e+07 1.869484069577e-05 4.354929377967e-08 -8.380798965462e-06 0.000000000000e+00 1.812663347210e+07 1.892088317842e+07  2.400871198388e-05
1.000000000000e-03 3.083650975032e+05 1.000000000000e+00 2.500000000001e+01 -8.227612347186e-05 6.303344146433e-05 -3.059527157640e+07 -1.351244736868e+04 -1.354545951305e+07 -1.023916932685e+07 1.869484069577e-05 4.354929377967e-08 -8.380798965462e-06 0.000000000000e+00 1.812663347210e+07 1.892088317842e+07  2.400871198388e-05
1.000000000000e-03 3.083650975032e+05 1.000000000000e+00 2.500000000001e+01 -8.227612347186e-05 6.303344146433e-05 -3.059527157640e+07 -1.351244736868e+04 -1.354545951305e+07 -1.023916932685e+07 1.869484069577e-05 4.354929377967e-08 -8.380798965462e-06 0.000000000000e+00 1.812663347210e+07 1.892088317842e+07  2.400871198388e-05
2.000000000000e-03 3.159689439173e+05 1.000000000000e+00 2.499999999999e+01 -8.198378082114e-05 6.240411622810e-05 -3.059711524040e+07 -1.356021375333e+04 -1.354506869008e+07 -1.023960517914e+07 1.864255054714e-05 4.000093377756e-08 -8.350093883912e-06 0.000000000000e+00 1.812726303654e+07 1.892257513853e+07  2.393617777134e-05
2.000000000000e-03 3.159689439173e+05 1.000000000000e+00 2.499999999999e+01 -8.198378082114e-05 6.240411622810e-05 -3.059711524040e+07 -1.356021375333e+04 -1.354506869008e+07 -1.023960517914e+07 1.864255054714e-05 4.000093377756e-08 -8.350093883912e-06 0.000000000000e+00 1.812726303654e+07 1.892257513853e+07  2.393617777134e-05
2.000000000000e-03 3.159689439173e+05 1.000000000000e+00 2.499999999999e+01 -8.198378082114e-05 6.240411622810e-05 -3.059711524040e+07 -1.356021375333e+04 -1.354506869008e+07 -1.023960517914e+07 1.864255054714e-05 4.000093377756e-08 -8.350093883912e-06 0.000000000000e+00 1.812726303654e+07 1.892257513853e+07  2.393617777134e-05
2.000000000000e-03 3.159689439173e+05 1.000000000000e+00 2.499999999999e+01 -8.198378082114e-05 6.240411622810e-05 -3.059711524040e+07 -1.356021375333e+04 -1.354506869008e+07 -1.023960517914e+07 1.864255054714e-05 4.000093377756e-08 -8.350093883912e-06 0.000000000000e+00 1.812726303654e+07 1.892257513853e+07  2.393617777134e-05
3.000000000000e-03 3.211298798470e+05 1.000000000000e+00 2.499999999994e+01 -8.176413063087e-05 6.190698566128e-05 -3.059871404621e+07 -1.358855529751e+04 -1.354517790037e+07 -1.024011758396e+07 1.860219850996e-05 3.789556192376e-08 -8.335118087247e-06 0.000000000000e+00 1.812800317685e+07 1.892379555716e+07  2.388664506405e-05
3.000000000000e-03 3.211298798470e+05 1.000000000000e+00 2.499999999994e+01 -8.176413063087e-05 6.190698566128e-05 -3.059871404621e+07 -1.358855529751e+04 -1.354517790037e+07 -1.024011758396e+07 1.860219850996e-05 3.789556192376e-08 -8.335118087247e-06 0.000000000000e+00 1.812800317685e+07 1.892379555716e+07  2.388664506405e-05
3.000000000000e-03 3.211298798470e+05 1.000000000000e+00 2.499999999994e+01 -8.176413063087e-05 6.190698566128e-05 -3.059871404621e+07 -1.358855529751e+04 -1.354517790037e+07 -1.024011758396e+07 1.860219850996e-05 3.789556192376e-08 -8.335118087247e-06 0.000000000000e+00 1.812800317685e+07 1.892379555716e+07  2.388664506405e-05
3.000000000000e-03 3.211298798470e+05 1.000000000000e+00 2.499999999994e+01 -8.176413063087e-05 6.190698566128e-05 -3.059871404621e+07 -1.358855529751e+04 -1.354517790037e+07 -1.024011758396e+07 1.860219850996e-05 3.789556192376e-08 -8.335118087247e-06 0.000000000000e+00 1.812800317685e+07 1.892379555716e+07  2.388664506405e-05
4.000000000000e-03 3.246441808822e+05 1.000000000000e+00 2.499999999989e+01 -8.158721541067e-05 6.138362419528e-05 -3.060033553323e+07 -1.360811987881e+04 -1.354593388409e+07 -1.024083082516e+07 1.856846366553e-05 3.644219302785e-08 -8.336705666457e-06 0.000000000000e+00 1.812903341416e+07 1.892467786890e+07  2.385565561089e-05
4.000000000000e-03 3.246441808822e+05 1.000000000000e+00 2.499999999989e+01 -8.158721541067e-05 6.138362419528e-05 -3.060033553323e+07 -1.360811987881e+04 -1.354593388409e+07 -1.024083082516e+07 1.856846366553e-05 3.644219302785e-08 -8.336705666457e-06 0.000000000000e+00 1.812903341416e+07 1.892467786890e+07  2.385565561089e-05
4.000000000000e-03 3.246441808822e+05 1.000000000000e+00 2.499999999989e+01 -8.158721541067e-05 6.138362419528e-05 -3.060033553323e+07 -1.360811987881e+04 -1.354593388409e+07 -1.024083082516e+07 1.856846366553e-05 3.644219302785e-08 -8.336705666457e-06 0.000000000000e+00 1.812903341416e+07 1.892467786890e+07  2.385565561089e-05
4.000000000000e-03 3.246441808822e+05 1.000000000000e+00 2.499999999989e+01 -8.158721541067e-05 6.138362419528e-05 -3.060033553323e+07 -1.360811987881e+04 -1.354593388409e+07 -1.024083082516e+07 1.856846366553e-05 3.644219302785e-08 -8.336705666457e-06 0.000000000000e+00 1.812903341416e+07 1.892467786890e+07  2.385565561089e-05
1.000000000000e-02 3.282972316046e+05 1.000000000000e+00 2.499999999994e+01 -8.056285378681e-05 5.856317704617e-05 -3.061258277365e+07 -1.367022340635e+04 -1.355446070356e+07 -1.024706304314e+07 1.834504854601e-05 3.182878812429e-08 -8.421933721988e-06 0.000000000000e+00 1.813803550678e+07 1.892979031825e+07  2.370598228231e-05
1.000000000000e-02 3.282972316046e+05 1.000000000000e+00 2.499999999994e+01 -8.056285378681e-05 5.856317704617e-05 -3.061258277365e+07 -1.367022340635e+04 -1.355446070356e+07 -1.024706304314e+07 1.834504854601e-05 3.182878812429e-08 -8.421933721988e-06 0.000000000000e+00 1.813803550678e+07 1.892979031825e+07  2.370598228231e-05
1.000000000000e-02 3.282972316046e+05 1.000000000000e+00 2.499999999994e+01 -8.056285378681e-05 5.856317704617e-05 -3.061258277365e+07 -1.367022340635e+04 -1.355446070356e+07 -1.024706304314e+07 1.834504854601e-05 3.182878812429e-08 -8.421933721988e-06 0.000000000000e+00 1.813803550678e+07 1.892979031825e+07  2.370598228231e-05
1.000000000000e-02 3.282972316046e+05 1.000000000000e+00 2.499999999994e+01 -8.056285378681e-05 5.856317704617e-05 -3.061258277365e+07 -1.367022340635e+04 -1.355446070356e+07 -1.024706304314e+07 1.834504854601e-05 3.182878812429e-08 -8.421933721988e-06 0.000000000000e+00 1.813803550678e+07 1.892979031825e+07  2.370598228231e-05
2.000000000000e-02 3.209720154730e+05 1.000000000000e+00 2.499999999911e+01 -7.824836476257e-05 5.672188118244e-05 -3.063603293436e+07 -1.373063611090e+04 -1.356205286581e+07 -1.025637574022e+07 1.781994275400e-05 2.734098721539e-08 -8.358028142519e-06 0.000000000000e+00 1.815148718013e+07 1.894439039891e+07  2.315920594087e-05
2.000000000000e-02 3.209720154730e+05 1.000000000000e+00 2.499999999911e+01 -7.824836476257e-05 5.672188118244e-05 -3.063603293436e+07 -1.373063611090e+04 -1.356205286581e+07 -1.025637574022e+07 1.781994275400e-05 2.734098721539e-08 -8.358028142519e-06 0.000000000000e+00 1.815148718013e+07 1.894439039891e+07  2.315920594087e-05
2.000000000000e-02 3.209720154730e+05 1.000000000000e+00 2.499999999911e+01 -7.824836476257e-05 5.672188118244e-05 -3.063603293436e+07 -1.373063611090e+04 -1.356205286581e+07 -1.025637574022e+07 1.781994275400e-05 2.734098721539e-08 -8.358028142519e-06 0.000000000000e+00 1.815148718013e+07 1.894439039891e+07  2.315920594087e-05
2.000000000000e-02 3.209720154730e+05 1.000000000000e+00 2.499999999911e+01 -7.824836476257e-05 5.672188118244e-05 -3.063603293436e+07 -1.373063611090e+04 -1.356205286581e+07 -1.025637574022e+07 1.781994275400e-05 2.734098721539e-08 -8.358028142519e-06 0.000000000000e+00 1.815148718013e+07 1.894439039891e+07  2.315920594087e-05
3.000000000000e-02 3.083467034309e+05 1.000000000000e+00 2.499999998948e+01 -7.546915432817e-05 5.706015874269e-05 -3.066095303431e+07 -1.377141635863e+04 -1.356327424698e+07 -1.026421818821e+07 1.718562996703e-05 2.431159738347e-08 -8.112102803389e-06 0.000000000000e+00 1.816281515650e+07 1.896368003694e+07  2.237332025989e-05
3.000000000000e-02 3.083467034309e+05 1.000000000000e+00 2.499999998948e+01 -7.546915432817e-05 5.706015874269e-05 -3.066095303431e+07 -1.377141635863e+04 -1.356327424698e+07 -1.026421818821e+07 1.718562996703e-05 2.431159738347e-08 -8.112102803389e-06 0.000000000000e+00 1.816281515650e+07 1.896368003694e+07  2.237332025989e-05
3.000000000000e-02 3.083467034309e+05 1.000000000000e+00 2.499999998948e+01 -7.546915432817e-05 5.706015874269e-05 -3.066095303431e+07 -1.377141635863e+04 -1.356327424698e+07 -1.026421818821e+07 1.718562996703e-05 2.431159738347e-08 -8.112102803389e-06 0.000000000000e+00 1.816281515650e+07 1.896368003694e+07  2.237332025989e-05
3.000000000000e-02 3.083467034309e+05 1.000000000000e+00 2.499999998948e+01 -7.546915432817e-05 5.706015874269e-05 -3.066095303431e+07 -1.377141635863e+04 -1.356327424698e+07 -1.026421818821e+07 1.718562996703e-05 2.431159738347e-08 -8.112102803389e-06 0.000000000000e+00 1.816281515650e+07 1.896368003694e+07  2.237332025989e-05
4.000000000000e-02 2.935043100365e+05 1.000000000000e+00 2.499999996592e+01 -7.238610217951e-05 5.973271965162e-05 -3.068565633579e+07 -1.380220358043e+04 -1.355766481010e+07 -1.026994638439e+07 1.648084034189e-05 2.202454662183e-08 -7.690990718356e-06 0.000000000000e+00 1.817108917676e+07 1.898656817299e+07  2.138983127439e-05
4.000000000000e-02 2.935043100365e+05 1.000000000000e+00 2.499999996592e+01 -7.238610217951e-05 5.973271965162e-05 -3.068565633579e+07 -1.380220358043e+04 -1.355766481010e+07 -1.026994638439e+07 1.648084034189e-05 2.202454662183e-08 -7.690990718356e-06 0.000000000000e+00 1.817108917676e+07 1.898656817299e+07  2.138983127439e-05
4.000000000000e-02 2.935043100365e+05 1.000000000000e+00 2.499999996592e+01 -7.238610217951e-05 5.973271965162e-05 -3.068565633579e+07 -1.380220358043e+04 -1.355766481010e+07 -1.026994638439e+07 1.648084034189e-05 2.202454662183e-08 -7.690990718356e-06 0.000000000000e+00 1.817108917676e+07 1.898656817299e+07  2.138983127439e-05
4.000000000000e-02 2.935043100365e+05 1.000000000000e+00 2.499999996592e+01 -7.238610217951e-05 5.973271965162e-05 -3.068565633579e+07 -1.380220358043e+04 -1.355766481010e+07 -1.026994638439e+07 1.648084034189e-05 2.202454662183e-08 -7.690990718356e-06 0.000000000000e+00 1.817108917676e+07 1.898656817299e+07  2.138983127439e-05
5.000000000000e-02 2.781876015460e+05 1.000000000000e+00 2.500000002206e+01 -6.910604990531e-05 6.340834847415e-05 -3.071076370083e+07 -1.382587136536e+04 -1.354891072536e+07 -1.027485257382e+07 1.573051096177e-05 2.026636831270e-08 -7.183609106435e-06 0.000000000000e+00 1.817817566667e+07 1.901152630446e+07  2.029916965994e-05
5.000000000000e-02 2.781876015460e+05 1.000000000000e+00 2.500000002206e+01 -6.910604990531e-05 6.340834847415e-05 -3.071076370083e+07 -1.382587136536e+04 -1.354891072536e+07 -1.027485257382e+07 1.573051096177e-05 2.026636831270e-08 -7.183609106435e-06 0.000000000000e+00 1.817817566667e+07 1.901152630446e+07  2.029916965994e-05
5.000000000000e-02 2.781876015460e+05 1.000000000000e+00 2.500000002206e+01 -6.910604990531e-05 6.340834847415e-05 -3.071076370083e+07 -1.382587136536e+04 -1.354891072536e+07 -1.027485257382e+07 1.573051096177e-05 2.026636831270e-08 -7.183609106435e-06 0.000000000000e+00 1.817817566667e+07 1.901152630446e+07  2.029916965994e-05
5.000000000000e-02 2.781876015460e+05 1.000000000000e+00 2.500000002206e+01 -6.910604990531e-05 6.340834847415e-05 -3.071076370083e+07 -1.382587136536e+04 -1.354891072536e+07 -1.027485257382e+07 1.573051096177e-05 2.026636831270e-08 -7.183609106435e-06 0.000000000000e+00 1.817817566667e+07 1.901152630446e+07  2.029916965994e-05
6.000000000000e-02 2.628169376310e+05 1.000000000000e+00 2.500000066198e+01 -6.569909685584e-05 6.940133027000e-05 -3.073417354584e+07 -1.384477388846e+04 -1.353357685548e+07 -1.027727616210e+07 1.495102142610e-05 1.886218088243e-08 -6.524046374765e-06 0.000000000000e+00 1.818167552114e+07 1.903877387525e+07  1.906930641800e-05
6.000000000000e-02 2.628169376310e+05 1.000000000000e+00 2.500000066198e+01 -6.569909685584e-05 6.940133027000e-05 -3.073417354584e+07 -1.384477388846e+04 -1.353357685548e+07 -1.027727616210e+07 1.495102142610e-05 1.886218088243e-08 -6.524046374765e-06 0.000000000000e+00 1.818167552114e+07 1.903877387525e+07  1.906930641800e-05
6.000000000000e-02 2.628169376310e+05 1.000000000000e+00 2.500000066198e+01 -6.569909685584e-05 6.940133027000e-05 -3.073417354584e+07 -1.384477388846e+04 -1.353357685548e+07 -1.027727616210e+07 1.495102142610e-05 1.886218088243e-08 -6.524046374765e-06 0.000000000000e+00 1.818167552114e+07 1.903877387525e+07  1.906930641800e-05
6.000000000000e-02 2.628169376310e+05 1.000000000000e+00 2.500000066198e+01 -6.569909685584e-05 6.940133027000e-05 -3.073417354584e+07 -1.384477388846e+04 -1.353357685548e+07 -1.027727616210e+07 1.495102142610e-05 1.886218088243e-08 -6.524046374765e-06 0.000000000000e+00 1.818167552114e+07 1.903877387525e+07  1.906930641800e-05
7.000000000000e-02 2.482548207077e+05 1.000000000000e+00 2.500000344145e+01 -6.220446161445e-05 7.541255555460e-05 -3.075821731697e+07 -1.385968044615e+04 -1.351790541024e+07 -1.027979025944e+07 1.415134782817e-05 1.775483659627e-08 -5.848583364500e-06 0.000000000000e+00 1.818530432888e+07 1.906673637079e+07  1.781103186009e-05
7.000000000000e-02 2.482548207077e+05 1.000000000000e+00 2.500000344145e+01 -6.220446161445e-05 7.541255555460e-05 -3.075821731697e+07 -1.385968044615e+04 -1.351790541024e+07 -1.027979025944e+07 1.415134782817e-05 1.775483659627e-08 -5.848583364500e-06 0.000000000000e+00 1.818530432888e+07 1.906673637079e+07  1.781103186009e-05
7.000000000000e-02 2.482548207077e+05 1.000000000000e+00 2.500000344145e+01 -6.220446161445e-05 7.541255555460e-05 -3.075821731697e+07 -1.385968044615e+04 -1.351790541024e+07 -1.027979025944e+07 1.415134782817e-05 1.775483659627e-08 -5.848583364500e-06 0.000000000000e+00 1.818530432888e+07 1.906673637079e+07  1.781103186009e-05
7.000000000000e-02 2.482548207077e+05 1.000000000000e+00 2.500000344145e+01 -6.220446161445e-05 7.541255555460e-05 -3.075821731697e+07 -1.385968044615e+04 -1.351790541024e+07 -1.027979025944e+07 1.415134782817e-05 1.775483659627e-08 -5.848583364500e-06 0.000000000000e+00 1.818530432888e+07 1.906673637079e+07  1.781103186009e-05
8.000000000000e-02 2.351205290081e+05 1.000000000000e+00 2.500001194551e+01 -5.864695006799e-05 8.220943137798e-05 -3.078186760832e+07 -1.387158264768e+04 -1.350001544266e+07 -1.028152436983e+07 1.333731824967e-05 1.687067305443e-08 -5.119689040241e-06 0.000000000000e+00 1.818780247360e+07 1.909563204613e+07  1.650391013941e-05
8.000000000000e-02 2.351205290081e+05 1.000000000000e+00 2.500001194551e+01 -5.864695006799e-05 8.220943137798e-05 -3.078186760832e+07 -1.387158264768e+04 -1.350001544266e+07 -1.028152436983e+07 1.333731824967e-05 1.687067305443e-08 -5.119689040241e-06 0.000000000000e+00 1.818780247360e+07 1.909563204613e+07  1.650391013941e-05
8.000000000000e-02 2.351205290081e+05 1.000000000000e+00 2.500001194551e+01 -5.864695006799e-05 8.220943137798e-05 -3.078186760832e+07 -1.387158264768e+04 -1.350001544266e+07 -1.028152436983e+07 1.333731824967e-05 1.687067305443e-08 -5.119689040241e-06 0.000000000000e+00 1.818780247360e+07 1.909563204613e+07  1.650391013941e-05
8.000000000000e-02 2.351205290081e+05 1.000000000000e+00 2.500001194551e+01 -5.864695006799e-05 8.220943137798e-05 -3.078186760832e+07 -1.387158264768e+04 -1.350001544266e+07 -1.028152436983e+07 1.333731824967e-05 1.687067305443e-08 -5.119689040241e-06 0.000000000000e+00 1.818780247360e+07 1.909563204613e+07  1.650391013941e-05
9.000000000000e-02 2.243279765763e+05 1.000000000000e+00 2.500003296209e+01 -5.504168556237e-05 8.839174916509e-05 -3.080659115317e+07 -1.388214724562e+04 -1.348363688139e+07 -1.028404093105e+07 1.251248742914e-05 1.608587434987e-08 -4.417870204797e-06 0.000000000000e+00 1.819142298854e+07 1.912457035924e+07  1.521049770645e-05
9.000000000000e-02 2.243279765763e+05 1.000000000000e+00 2.500003296209e+01 -5.504168556237e-05 8.839174916509e-05 -3.080659115317e+07 -1.388214724562e+04 -1.348363688139e+07 -1.028404093105e+07 1.251248742914e-05 1.608587434987e-08 -4.417870204797e-06 0.000000000000e+00 1.819142298854e+07 1.912457035924e+07  1.521049770645e-05
9.000000000000e-02 2.243279765763e+05 1.000000000000e+00 2.500003296209e+01 -5.504168556237e-05 8.839174916509e-05 -3.080659115317e+07 -1.388214724562e+04 -1.348363688139e+07 -1.028404093105e+07 1.251248742914e-05 1.608587434987e-08 -4.417870204797e-06 0.000000000000e+00 1.819142298854e+07 1.912457035924e+07  1.521049770645e-05
9.000000000000e-02 2.243279765763e+05 1.000000000000e+00 2.500003296209e+01 -5.504168556237e-05 8.839174916509e-05 -3.080659115317e+07 -1.388214724562e+04 -1.348363688139e+07 -1.028404093105e+07 1.251248742914e-05 1.608587434987e-08 -4.417870204797e-06 0.000000000000e+00 1.819142298854e+07 1.912457035924e+07  1.521049770645e-05
1.000000000000e-01 2.168958664196e+05 1.000000000000e+00 2.500007761001e+01 -5.140484743632e-05 9.392735454396e-05 -3.083229270820e+07 -1.389102292940e+04 -1.346888144972e+07 -1.028735012373e+07 1.168077111302e-05 1.542653784091e-08 -3.746898443208e-06 0.000000000000e+00 1.819617476055e+07 1.915340721219e+07  1.393725363088e-05
1.000000000000e-01 2.168958664196e+05 1.000000000000e+00 2.500007761001e+01 -5.140484743632e-05 9.392735454396e-05 -3.083229270820e+07 -1.389102292940e+04 -1.346888144972e+07 -1.028735012373e+07 1.168077111302e-05 1.542653784091e-08 -3.746898443208e-06 0.000000000000e+00 1.819617476055e+07 1.915340721219e+07  1.393725363088e-05
1.000000000000e-01 2.168958664196e+05 1.000000000000e+00 2.500007761001e+01 -5.140484743632e-05 9.392735454396e-05 -3.083229270820e+07 -1.389102292940e+04 -1.346888144972e+07 -1.028735012373e+07 1.168077111302e-05 1.542653784091e-08 -3.746898443208e-06 0.000000000000e+00 1.819617476055e+07 1.915340721219e+07  1.393725363088e-05
1.000000000000e-01 2.168958664196e+05 1.000000000000e+00 2.500007761001e+01 -5.140484743632e-05 9.392735454396e-05 -3.083229270820e+07 -1.389102292940e+04 -1.346888144972e+07 -1.028735012373e+07 1.168077111302e-05 1.542653784091e-08 -3.746898443208e-06 0.000000000000e+00 1.819617476055e+07 1.915340721219e+07  1.393725363088e-05
2.000000000000e-01 2.305342222078e+05 1.000000000000e+00 2.502667785432e+01 -1.531982638844e-05 1.887325049050e-04 -3.104427039279e+07 -1.394695179588e+04 -1.322250973265e+07 -1.028751167211e+07 3.813314625615e-06 1.127182204522e-08 5.410051416598e-06 0.000000000000e+00 1.818476393252e+07 1.945602177137e+07  4.814579704796e-06
2.000000000000e-01 2.305342222078e+05 1.000000000000e+00 2.502667785432e+01 -1.531982638844e-05 1.887325049050e-04 -3.104427039279e+07 -1.394695179588e+04 -1.322250973265e+07 -1.028751167211e+07 3.813314625615e-06 1.127182204522e-08 5.410051416598e-06 0.000000000000e+00 1.818476393252e+07 1.945602177137e+07  4.814579704796e-06
2.000000000000e-01 2.305342222078e+05 1.000000000000e+00 2.502667785432e+01 -1.531982638844e-05 1.887325049050e-04 -3.104427039279e+07 -1.394695179588e+04 -1.322250973265e+07 -1.028751167211e+07 3.813314625615e-06 1.127182204522e-08 5.410051416598e-06 0.000000000000e+00 1.818476393252e+07 1.945602177137e+07  4.814579704796e-06
2.000000000000e-01 2.305342222078e+05 1.000000000000e+00 2.502667785432e+01 -1.531982638844e-05 1.887325049050e-04 -3.104427039279e+07 -1.394695179588e+04 -1.322250973265e+07 -1.028751167211e+07 3.813314625615e-06 1.127182204522e-08 5.410051416598e-06 0.000000000000e+00 1.818476393252e+07 1.945602177137e+07  4.814579704796e-06
3.000000000000e-01 2.539215366433e+05 1.000000000000e+00 2.509252329441e+01 1.909594927231e-05 2.983913892564e-04 -3.123648355647e+07 -1.396808004518e+04 -1.295802148030e+07 -1.029099348848e+07 -3.196706845713e-06 9.702294954327e-09 1.536322539767e-05 0.000000000000e+00 1.816183284175e+07 1.974753071919e+07  1.718603035845e-05
3.000000000000e-01 2.539215366433e+05 1.000000000000e+00 2.509252329441e+01 1.909594927231e-05 2.983913892564e-04 -3.123648355647e+07 -1.396808004518e+04 -1.295802148030e+07 -1.029099348848e+07 -3.196706845713e-06 9.702294954327e-09 1.536322539767e-05 0.000000000000e+00 1.816183284175e+07 1.974753071919e+07  1.718603035845e-05
3.000000000000e-01 2.539215366433e+05 1.000000000000e+00 2.509252329441e+01 1.909594927231e-05 2.983913892564e-04 -3.123648355647e+07 -1.396808004518e+04 -1.295802148030e+07 -1.029099348848e+07 -3.196706845713e-06 9.702294954327e-09 1.536322539767e-05 0.000000000000e+00 1.816183284175e+07 1.974753071919e+07  1.718603035845e-05
3.000000000000e-01 2.539215366433e+05 1.000000000000e+00 2.509252329441e+01 1.909594927231e-05 2.983913892564e-04 -3.123648355647e+07 -1.396808004518e+04 -1.295802148030e+07 -1.029099348848e+07 -3.196706845713e-06 9.702294954327e-09 1.536322539767e-05 0.000000000000e+00 1.816183284175e+07 1.974753071919e+07  1.718603035845e-05
4.000000000000e-01 2.778424060555e+05 1.000000000000e+00 2.519884269912e+01 5.083633404596e-05 4.038127023487e-04 -3.142690809366e+07 -1.396521344354e+04 -1.272985662420e+07 -1.031956265896e+07 -9.208477609567e-06 9.915242504669e-09 2.489906067024e-05 0.000000000000e+00 1.815877579227e+07 2.001137741528e+07  3.056210103647e-05
4.000000000000e-01 2.778424060555e+05 1.000000000000e+00 2.519884269912e+01 5.083633404596e-05 4.038127023487e-04 -3.142690809366e+07 -1.396521344354e+04 -1.272985662420e+07 -1.031956265896e+07 -9.208477609567e-06 9.915242504669e-09 2.489906067024e-05 0.000000000000e+00 1.815877579227e+07 2.001137741528e+07  3.056210103647e-05
4.000000000000e-01 2.778424060555e+05 1.000000000000e+00 2.519884269912e+01 5.083633404596e-05 4.038127023487e-04 -3.142690809366e+07 -1.396521344354e+04 -1.272985662420e+07 -1.031956265896e+07 -9.208477609567e-06 9.915242504669e-09 2.489906067024e-05 0.000000000000e+00 1.815877579227e+07 2.001137741528e+07  3.056210103647e-05
4.000000000000e-01 2.778424060555e+05 1.000000000000e+00 2.519884269912e+01 5.083633404596e-05 4.038127023487e-04 -3.142690809366e+07 -1.396521344354e+04 -1.272985662420e+07 -1.031956265896e+07 -9.208477609567e-06 9.915242504669e-09 2.489906067024e-05 0.000000000000e+00 1.815877579227e+07 2.001137741528e+07  3.056210103647e-05
5.000000000000e-01 3.006476900648e+05 1.000000000000e+00 2.534048625341e+01 7.950262275488e-05 5.062272825523e-04 -3.161284473764e+07 -1.395306332508e+04 -1.253336698354e+07 -1.036885671093e+07 -1.428377388445e-05 1.081782273298e-08 3.402816925361e-05 0.000000000000e+00 1.817168947737e+07 2.024870084100e+07  4.298829521545e-05
5.000000000000e-01 3.006476900648e+05 1.000000000000e+00 2.534048625341e+01 7.950262275488e-05 5.062272825523e-04 -3.161284473764e+07 -1.395306332508e+04 -1.253336698354e+07 -1.036885671093e+07 -1.428377388445e-05 1.081782273298e-08 3.402816925361e-05 0.000000000000e+00 1.817168947737e+07 2.024870084100e+07  4.298829521545e-05
5.000000000000e-01 3.006476900648e+05 1.000000000000e+00 2.534048625341e+01 7.950262275488e-05 5.062272825523e-04 -3.161284473764e+07 -1.395306332508e+04 -1.253336698354e+07 -1.036885671093e+07 -1.428377388445e-05 1.081782273298e-08 3.402816925361e-05 0.000000000000e+00 1.817168947737e+07 2.024870084100e+07  4.298829521545e-05
5.000000000000e-01 3.006476900648e+05 1.000000000000e+00 2.534048625341e+01 7.950262275488e-05 5.062272825523e-04 -3.161284473764e+07 -1.395306332508e+04 -1.253336698354e+07 -1.036885671093e+07 -1.428377388445e-05 1.081782273298e-08 3.402816925361e-05 0.000000000000e+00 1.817168947737e+07 2.024870084100e+07  4.298829521545e-05
6.000000000000e-01 3.220253449416e+05 1.000000000000e+00 2.551037594353e+01 1.049803306113e-04 6.060825248191e-04 -3.179297168904e+07 -1.394299784912e+04 -1.236414455579e+07 -1.043443594586e+07 -1.853840335312e-05 1.156554380477e-08 4.274937386781e-05 0.000000000000e+00 1.819718406356e+07 2.046205408346e+07  5.443975479476e-05
6.000000000000e-01 3.220253449416e+05 1.000000000000e+00 2.551037594353e+01 1.049803306113e-04 6.060825248191e-04 -3.179297168904e+07 -1.394299784912e+04 -1.236414455579e+07 -1.043443594586e+07 -1.853840335312e-05 1.156554380477e-08 4.274937386781e-05 0.000000000000e+00 1.819718406356e+07 2.046205408346e+07  5.443975479476e-05
6.000000000000e-01 3.220253449416e+05 1.000000000000e+00 2.551037594353e+01 1.049803306113e-04 6.060825248191e-04 -3.179297168904e+07 -1.394299784912e+04 -1.236414455579e+07 -1.043443594586e+07 -1.853840335312e-05 1.156554380477e-08 4.274937386781e-05 0.000000000000e+00 1.819718406356e+07 2.046205408346e+07  5.443975479476e-05
6.000000000000e-01 3.220253449416e+05 1.000000000000e+00 2.551037594353e+01 1.049803306113e-04 6.060825248191e-04 -3.179297168904e+07 -1.394299784912e+04 -1.236414455579e+07 -1.043443594586e+07 -1.853840335312e-05 1.156554380477e-08 4.274937386781e-05 0.000000000000e+00 1.819718406356e+07 2.046205408346e+07  5.443975479476e-05
7.000000000000e-01 3.420511584359e+05 1.000000000000e+00 2.570176351459e+01 1.273661227727e-04 7.035622414996e-04 -3.196684875516e+07 -1.394005603869e+04 -1.221809834808e+07 -1.051243877540e+07 -2.209944642595e-05 1.178407829353e-08 5.107119525153e-05 0.000000000000e+00 1.823246195955e+07 2.065448245236e+07  6.500229285738e-05
7.000000000000e-01 3.420511584359e+05 1.000000000000e+00 2.570176351459e+01 1.273661227727e-04 7.035622414996e-04 -3.196684875516e+07 -1.394005603869e+04 -1.221809834808e+07 -1.051243877540e+07 -2.209944642595e-05 1.178407829353e-08 5.107119525153e-05 0.000000000000e+00 1.823246195955e+07 2.065448245236e+07  6.500229285738e-05
7.000000000000e-01 3.420511584359e+05 1.000000000000e+00 2.570176351459e+01 1.273661227727e-04 7.035622414996e-04 -3.196684875516e+07 -1.394005603869e+04 -1.221809834808e+07 -1.051243877540e+07 -2.209944642595e-05 1.178407829353e-08 5.107119525153e-05 0.000000000000e+00 1.823246195955e+07 2.065448245236e+07  6.500229285738e-05
7.000000000000e-01 3.420511584359e+05 1.000000000000e+00 2.570176351459e+01 1.273661227727e-04 7.035622414996e-04 -3.196684875516e+07 -1.394005603869e+04 -1.221809834808e+07 -1.051243877540e+07 -2.209944642595e-05 1.178407829353e-08 5.107119525153e-05 0.000000000000e+00 1.823246195955e+07 2.065448245236e+07  6.500229285738e-05
8.000000000000e-01 3.610103641588e+05 1.000000000000e+00 2.590902649044e+01 1.468571969017e-04 7.988317172789e-04 -3.213429140618e+07 -1.394577232118e+04 -1.209151953470e+07 -1.059966171379e+07 -2.507903575255e-05 1.135944016557e-08 5.901240317403e-05 0.000000000000e+00 1.827515755156e+07 2.082882362192e+07  7.477563987562e-05
8.000000000000e-01 3.610103641588e+05 1.000000000000e+00 2.590902649044e+01 1.468571969017e-04 7.988317172789e-04 -3.213429140618e+07 -1.394577232118e+04 -1.209151953470e+07 -1.059966171379e+07 -2.507903575255e-05 1.135944016557e-08 5.901240317403e-05 0.000000000000e+00 1.827515755156e+07 2.082882362192e+07  7.477563987562e-05
8.000000000000e-01 3.610103641588e+05 1.000000000000e+00 2.590902649044e+01 1.468571969017e-04 7.988317172789e-04 -3.213429140618e+07 -1.394577232118e+04 -1.209151953470e+07 -1.059966171379e+07 -2.507903575255e-05 1.135944016557e-08 5.901240317403e-05 0.000000000000e+00 1.827515755156e+07 2.082882362192e+07  7.477563987562e-05
8.000000000000e-01 3.610103641588e+05 1.000000000000e+00 2.590902649044e+01 1.468571969017e-04 7.988317172789e-04 -3.213429140618e+07 -1.394577232118e+04 -1.209151953470e+07 -1.059966171379e+07 -2.507903575255e-05 1.135944016557e-08 5.901240317403e-05 0.000000000000e+00 1.827515755156e+07 2.082882362192e+07  7.477563987562e-05
9.000000000000e-01 3.788546175728e+05 1.000000000000e+00 2.612776105972e+01 1.637704236302e-04 8.918571310889e-04 -3.229609104823e+07 -1.395791883869e+04 -1.198165039642e+07 -1.069395121884e+07 -2.758655512670e-05 1.045712743627e-08 6.659543849797e-05 0.000000000000e+00 1.832389755450e+07 2.098795228599e+07  8.386363643356e-05
9.000000000000e-01 3.788546175728e+05 1.000000000000e+00 2.612776105972e+01 1.637704236302e-04 8.918571310889e-04 -3.229609104823e+07 -1.395791883869e+04 -1.198165039642e+07 -1.069395121884e+07 -2.758655512670e-05 1.045712743627e-08 6.659543849797e-05 0.000000000000e+00 1.832389755450e+07 2.098795228599e+07  8.386363643356e-05
9.000000000000e-01 3.788546175728e+05 1.000000000000e+00 2.612776105972e+01 1.637704236302e-04 8.918571310889e-04 -3.229609104823e+07 -1.395791883869e+04 -1.198165039642e+07 -1.069395121884e+07 -2.758655512670e-05 1.045712743627e-08 6.659543849797e-05 0.000000000000e+00 1.832389755450e+07 2.098795228599e+07  8.386363643356e-05
9.000000000000e-01 3.788546175728e+05 1.000000000000e+00 2.612776105972e+01 1.637704236302e-04 8.918571310889e-04 -3.229609104823e+07 -1.395791883869e+04 -1.198165039642e+07 -1.069395121884e+07 -2.758655512670e-05 1.045712743627e-08 6.659543849797e-05 0.000000000000e+00 1.832389755450e+07 2.098795228599e+07  8.386363643356e-05
1.000000000000e+00 3.956972551497e+05 1.000000000000e+00 2.635461483105e+01 1.783750280926e-04 9.826965920202e-04 -3.245251405881e+07 -1.397589105618e+04 -1.188604878070e+07 -1.079348475627e+07 -2.969959270090e-05 9.122048423060e-09 7.384331561493e-05 0.000000000000e+00 1.837734919859e+07 2.113395268833e+07  9.234726695841e-05