 TITLE = "Time curves in points"
 VARIABLES = "TIME"  "PRESSURE1"  "SATURATION1"  "TEMPERATURE1"  "DISPLACEMENT_X1"  "DISPLACEMENT_Y1"  "STRESS_XX"  "STRESS_XY"  "STRESS_YY"  "STRESS_ZZ"  "STRAIN_XX"  "STRAIN_XY"  "STRAIN_YY"  "STRAIN_PLS"  p_(1st_Invariant)  q_(2nd_Invariant)   Effective_Strain
 ZONE T="POINT=POINT18"
0.000000000000e+00 1.000000000000e+05 1.000000000000e+00 2.500000000000e+01 0.000000000000e+00 0.000000000000e+00 -3.130685851467e+07 -1.409868786187e+04 -1.352808692198e+07 -1.044743363099e+07 0.000000000000e+00 0.000000000000e+00 0.000000000000e+00 0.000000000000e+00 1.842745968921e+07 1.950246065449e+07  0.000000000000e+00
1.000000000000e-03 3.083650903810e+05 1.000000000000e+00 2.500000000002e+01 -8.779694048281e-05 6.303347831737e-05 -3.054845023713e+07 -1.351250312600e+04 -1.355000699915e+07 -1.022648717089e+07 1.996286750487e-05 4.354515180755e-08 -9.020757098669e-06 0.000000000000e+00 1.810831480239e+07 1.888089159647e+07  2.568999814997e-05
2.000000000000e-03 3.159689360280e+05 1.000000000000e+00 2.499999999996e+01 -8.723839100863e-05 6.240421511057e-05 -3.055254930020e+07 -1.356056643879e+04 -1.354935899864e+07 -1.022752248964e+07 1.984907128738e-05 3.997473428644e-08 -8.958233812007e-06 0.000000000000e+00 1.810981026283e+07 1.888452933497e+07  2.553532845851e-05
3.000000000000e-03 3.211298787651e+05 1.000000000000e+00 2.499999999991e+01 -8.675265898178e-05 6.190705582544e-05 -3.055640260841e+07 -1.358868405803e+04 -1.354921133726e+07 -1.022863418368e+07 1.974723990339e-05 3.788599685701e-08 -8.911457753722e-06 0.000000000000e+00 1.811141604312e+07 1.888769526187e+07  2.540371160473e-05
4.000000000000e-03 3.246441761979e+05 1.000000000000e+00 2.499999999985e+01 -8.630967319960e-05 6.138365999367e-05 -3.056027844835e+07 -1.360818425746e+04 -1.354971060120e+07 -1.022994671482e+07 1.965203129111e-05 3.643741061316e-08 -8.881250686065e-06 0.000000000000e+00 1.811331192145e+07 1.889052342095e+07  2.529066126175e-05
1.000000000000e-02 3.282972249361e+05 1.000000000000e+00 2.499999999990e+01 -8.496094835188e-05 5.856325224019e-05 -3.057527460771e+07 -1.367048018269e+04 -1.355793547415e+07 -1.023691302452e+07 1.935377973220e-05 3.180971331068e-08 -8.927997321028e-06 0.000000000000e+00 1.812337436879e+07 1.889800378980e+07  2.504139483458e-05
2.000000000000e-02 3.209720129956e+05 1.000000000000e+00 2.499999999908e+01 -8.227735361490e-05 5.672189688973e-05 -3.060185340836e+07 -1.373063386707e+04 -1.356519374832e+07 -1.024706414716e+07 1.874360883458e-05 2.734115389954e-08 -8.820548663685e-06 0.000000000000e+00 1.813803710128e+07 1.891528923215e+07  2.438147057392e-05
3.000000000000e-02 3.083467012302e+05 1.000000000000e+00 2.499999998944e+01 -7.913412753373e-05 5.706017901575e-05 -3.062985911077e+07 -1.377144536981e+04 -1.356608856701e+07 -1.025573430714e+07 1.802543154453e-05 2.430944226731e-08 -8.531750272584e-06 0.000000000000e+00 1.815056066164e+07 1.893722273627e+07  2.348397748297e-05
4.000000000000e-02 2.935043081162e+05 1.000000000000e+00 2.499999996589e+01 -7.569465951736e-05 5.973257095823e-05 -3.065758381563e+07 -1.380198181903e+04 -1.356016083511e+07 -1.026227343584e+07 1.723853871544e-05 2.204102032555e-08 -8.068695450616e-06 0.000000000000e+00 1.816000602886e+07 1.896269709627e+07  2.239118218511e-05
5.000000000000e-02 2.781875990811e+05 1.000000000000e+00 2.500000002203e+01 -7.208043618190e-05 6.340833216838e-05 -3.068552391698e+07 -1.382584318783e+04 -1.355110693615e+07 -1.026793950189e+07 1.641121740441e-05 2.026846150036e-08 -7.521953893125e-06 0.000000000000e+00 1.816819011834e+07 1.899008075214e+07  2.119795981086e-05
6.000000000000e-02 2.628169348885e+05 1.000000000000e+00 2.500000066194e+01 -6.835012940352e-05 6.940140546007e-05 -3.071167435430e+07 -1.384470821619e+04 -1.353547553752e+07 -1.027109600923e+07 1.555715714830e-05 1.886705939354e-08 -6.824117385534e-06 0.000000000000e+00 1.817274863368e+07 1.901967892256e+07  1.986853419584e-05
7.000000000000e-02 2.482548179423e+05 1.000000000000e+00 2.500000344140e+01 -6.453410341365e-05 7.541253769966e-05 -3.073844204520e+07 -1.385964699945e+04 -1.351950834037e+07 -1.027433855693e+07 1.468336611481e-05 1.775732120861e-08 -6.110612576874e-06 0.000000000000e+00 1.817742964750e+07 1.904998017023e+07  1.851124345217e-05
8.000000000000e-02 2.351205277284e+05 1.000000000000e+00 2.500001194545e+01 -6.065774371456e-05 8.220962414413e-05 -3.076479469377e+07 -1.387183852654e+04 -1.350132429967e+07 -1.027679515253e+07 1.379579843340e-05 1.685166491045e-08 -5.343960371426e-06 0.000000000000e+00 1.818097138199e+07 1.908119857396e+07  1.710575981717e-05
9.000000000000e-02 2.243279757792e+05 1.000000000000e+00 2.500003296199e+01 -5.670002893249e-05 8.794942011226e-05 -3.079250842103e+07 -1.290777042294e+04 -1.348459203741e+07 -1.028010265816e+07 1.288928162975e-05 8.846815260656e-08 -4.599626135598e-06 0.000000000000e+00 1.818573437220e+07 1.911272497014e+07  1.570348681069e-05
1.000000000000e-01 2.168958645063e+05 1.000000000000e+00 2.500007760982e+01 -5.279457272727e-05 9.392745412116e-05 -3.082048326122e+07 -1.389109821705e+04 -1.346961477854e+07 -1.028402728818e+07 1.199598810936e-05 1.542094504420e-08 -3.897555976832e-06 0.000000000000e+00 1.819137510931e+07 1.914350786128e+07  1.434748834754e-05
2.000000000000e-01 2.305342196323e+05 1.000000000000e+00 2.502667784583e+01 -1.581374257084e-05 1.887324207006e-04 -3.104005998292e+07 -1.394684544341e+04 -1.322252675732e+07 -1.028625365322e+07 3.922974861713e-06 1.127972251447e-08 5.362692655726e-06 0.000000000000e+00 1.818294679782e+07 1.945260694927e+07  4.807377403775e-06
3.000000000000e-01 2.539215353889e+05 1.000000000000e+00 2.509252326898e+01 1.929618768664e-05 2.983914716728e-04 -3.123816130884e+07 -1.396830927462e+04 -1.295748045739e+07 -1.029133449763e+07 -3.246357308559e-06 9.685266481768e-09 1.539598658849e-05 0.000000000000e+00 1.816232542129e+07 1.974920695639e+07  1.724982300793e-05
4.000000000000e-01 2.778424050117e+05 1.000000000000e+00 2.519884265383e+01 5.159191422561e-05 4.038126815630e-04 -3.143329562203e+07 -1.396516592470e+04 -1.272885373589e+07 -1.032117803399e+07 -9.385729019408e-06 9.918772475339e-09 2.499631045141e-05 0.000000000000e+00 1.816110913064e+07 2.001718921032e+07  3.078175331161e-05
5.000000000000e-01 3.006476895386e+05 1.000000000000e+00 2.534048619115e+01 8.076226345233e-05 5.062272693741e-04 -3.162350691746e+07 -1.395304292676e+04 -1.253194200448e+07 -1.037162784806e+07 -1.457686975572e-05 1.081933803693e-08 3.418402499801e-05 0.000000000000e+00 1.817569225667e+07 2.025831113625e+07  4.335122983533e-05
6.000000000000e-01 3.220253445303e+05 1.000000000000e+00 2.551037587099e+01 1.066195955896e-04 6.060825357012e-04 -3.180685270138e+07 -1.394301514086e+04 -1.236239244473e+07 -1.043807458964e+07 -1.891883418557e-05 1.156425927548e-08 4.294960190453e-05 0.000000000000e+00 1.820243991191e+07 2.047456810674e+07  5.491035775391e-05
7.000000000000e-01 3.420511571217e+05 1.000000000000e+00 2.570176343614e+01 1.292912761414e-04 7.035622672795e-04 -3.198315290232e+07 -1.394017929902e+04 -1.221608350417e+07 -1.051672553787e+07 -2.254580642876e-05 1.177492181160e-08 5.130525491703e-05 0.000000000000e+00 1.823865398145e+07 2.066922252836e+07  6.555349976705e-05
8.000000000000e-01 3.610103636712e+05 1.000000000000e+00 2.590902641469e+01 1.490224027757e-04 7.988315932309e-04 -3.215262986818e+07 -1.394554922598e+04 -1.208928049660e+07 -1.060449151374e+07 -2.558078605686e-05 1.137601295204e-08 5.927496001604e-05 0.000000000000e+00 1.828213395951e+07 2.084545537691e+07  7.539362014873e-05
9.000000000000e-01 3.788546174175e+05 1.000000000000e+00 2.612776099003e+01 1.661202658133e-04 8.918572251255e-04 -3.231599391262e+07 -1.395809546820e+04 -1.197923377952e+07 -1.069919706831e+07 -2.813095853784e-05 1.044400638740e-08 6.688004439173e-05 0.000000000000e+00 1.833147492015e+07 2.100606318985e+07  8.453219060880e-05
1.000000000000e+00 3.956972549986e+05 1.000000000000e+00 2.635461476987e+01 1.808790625839e-04 9.826965654709e-04 -3.247372301255e+07 -1.397605493366e+04 -1.188347744477e+07 -1.079907602010e+07 -3.027967832592e-05 9.109874666913e-09 7.414649789170e-05 0.000000000000e+00 1.838542549247e+07 2.115331691744e+07  9.305747913655e-05
2.000000000000e+00 5.150057620619e+05 1.000000000000e+00 2.862803377208e+01 2.339192957147e-04 1.733781732087e-03 -3.372518697902e+07 -1.057694268362e+04 -1.147693151187e+07 -1.185516788147e+07 -3.753635651532e-05 2.616153560991e-07 1.284730445359e-04 0.000000000000e+00 1.901909545745e+07 2.206157678680e+07  1.507876538807e-04
3.000000000000e+00 6.107955937443e+05 1.000000000000e+00 3.070915686662e+01 2.503656216956e-04 2.378438370544e-03 -3.476836818740e+07 -1.424919659418e+04 -1.128815911385e+07 -1.284200594110e+07 -3.962910204040e-05 -1.118064868566e-08 1.721385758199e-04 0.000000000000e+00 1.963284441411e+07 2.274314443622e+07  1.949970578627e-04
4.000000000000e+00 6.926709896687e+05 1.000000000000e+00 3.256538025870e+01 2.524106113033e-04 2.938759364889e-03 -3.565829980592e+07 -1.429699709639e+04 -1.119022065827e+07 -1.372955857881e+07 -3.971746418481e-05 -1.473154313520e-08 2.087425307136e-04 0.000000000000e+00 2.019269301433e+07 2.330242532957e+07  2.311744919503e-04
5.000000000000e+00 7.655249436283e+05 1.000000000000e+00 3.421390812078e+01 2.493129213409e-04 3.436085855153e-03 -3.643345803308e+07 -1.431739806295e+04 -1.113065225900e+07 -1.452083069064e+07 -3.911894846871e-05 -1.624704350883e-08 2.403451782689e-04 0.000000000000e+00 2.069498032757e+07 2.378959601187e+07  2.621033160449e-04
6.000000000000e+00 8.320077995269e+05 1.000000000000e+00 3.568672735160e+01 2.448908227675e-04 3.884839713044e-03 -3.712139643047e+07 -1.432493494808e+04 -1.108635969819e+07 -1.522883772651e+07 -3.837354189622e-05 -1.680692640400e-08 2.682877347171e-04 0.000000000000e+00 2.114553128505e+07 2.423085450098e+07  2.893889921768e-04
7.000000000000e+00 8.939780185268e+05 1.000000000000e+00 3.700928530232e+01 2.396146588647e-04 4.292070545755e-03 -3.773353919588e+07 -1.432671652920e+04 -1.105290405960e+07 -1.586470020502e+07 -3.749252398104e-05 -1.693927243014e-08 2.931481219235e-04 0.000000000000e+00 2.155038115350e+07 2.462982971680e+07  3.135799333404e-04
8.000000000000e+00 9.520385371765e+05 1.000000000000e+00 3.821072858671e+01 2.350096434761e-04 4.667502101579e-03 -3.829096316003e+07 -1.432612751241e+04 -1.102071281266e+07 -1.644219407620e+07 -3.674707029173e-05 -1.689551689687e-08 3.157935691679e-04 0.000000000000e+00 2.191795668296e+07 2.500428918211e+07  3.356790354537e-04
9.000000000000e+00 1.007090272487e+06 1.000000000000e+00 3.931176311486e+01 2.307083884259e-04 5.002895997454e-03 -3.880096039549e+07 9.487795726891e+03 -1.099073724094e+07 -1.697103584362e+07 -3.604713053309e-05 1.752138780880e-06 3.365496417646e-04 0.000000000000e+00 2.225424449335e+07 2.535467047048e+07  3.559577444445e-04
1.000000000000e+01 1.059630028865e+06 1.000000000000e+00 4.032707778812e+01 2.266532658534e-04 5.339804388227e-03 -3.927061602569e+07 -1.432286381832e+04 -1.096304781862e+07 -1.745849379437e+07 -3.538590148421e-05 -1.665307105040e-08 3.556836870500e-04 0.000000000000e+00 2.256405254623e+07 2.568344937234e+07  3.746321342314e-04
1.100000000000e+01 1.109950425320e+06 1.000000000000e+00 4.126965474554e+01 2.228727479972e-04 5.643646250818e-03 -3.970600125554e+07 -1.432155989613e+04 -1.093622600591e+07 -1.791051394913e+07 -3.476803284444e-05 -1.655620825895e-08 3.734692458420e-04 0.000000000000e+00 2.285091373686e+07 2.599408738344e+07  3.920113334150e-04
1.200000000000e+01 1.158414524275e+06 1.000000000000e+00 4.214857090916e+01 2.210359678139e-04 5.899523990982e-03 -4.012407400669e+07 2.863493032806e+04 -1.091586377874e+07 -1.833702224408e+07 -3.445471264614e-05 3.174497351252e-06 3.900672938064e-04 0.000000000000e+00 2.312565334317e+07 2.629518665031e+07  4.084231993191e-04
1.300000000000e+01 1.205265988209e+06 1.000000000000e+00 4.297047290891e+01 2.155945835263e-04 6.197855224567e-03 -4.048804088404e+07 -1.431871021949e+04 -1.088734233300e+07 -1.872490913342e+07 -3.356625505820e-05 -1.634451799469e-08 4.055338891092e-04 0.000000000000e+00 2.336676411682e+07 2.656373412953e+07  4.233162924489e-04
1.400000000000e+01 1.251210412292e+06 1.000000000000e+00 4.374060737425e+01 2.119999884484e-04 6.451351676554e-03 -4.083997400259e+07 -1.431734961300e+04 -1.086486460424e+07 -1.909288738996e+07 -3.297029278964e-05 -1.624344436942e-08 4.200365399921e-04 0.000000000000e+00 2.359924199893e+07 2.682484434682e+07  4.374545275027e-04
1.500000000000e+01 1.295786605128e+06 1.000000000000e+00 4.446330203793e+01 2.083459810370e-04 6.690557583825e-03 -4.116833296503e+07 -1.431642383887e+04 -1.084400263704e+07 -1.943767843202e+07 -3.235995840402e-05 -1.617467257686e-08 4.336179374783e-04 0.000000000000e+00 2.381667134470e+07 2.707063768830e+07  4.506701030863e-04
1.600000000000e+01 1.339131722122e+06 1.000000000000e+00 4.514222095808e+01 2.046277487803e-04 6.974881913110e-03 -4.147487728135e+07 -1.271444105800e+05 -1.082461065741e+07 -1.976104751554e+07 -3.173503847952e-05 -8.397682259062e-06 4.463490626812e-04 0.000000000000e+00 2.402017848477e+07 2.730280338302e+07  4.632613369419e-04
1.700000000000e+01 1.381371180159e+06 1.000000000000e+00 4.578051570932e+01 2.009727135989e-04 7.130022977290e-03 -4.176214615549e+07 -1.431474240404e+04 -1.080639200323e+07 -2.006476979156e+07 -3.112391212381e-05 -1.604976598987e-08 4.583068686602e-04 0.000000000000e+00 2.421110265009e+07 2.752048005537e+07  4.746347935474e-04
1.800000000000e+01 1.422623256449e+06 1.000000000000e+00 4.638092712895e+01 1.972906116528e-04 7.331958647208e-03 -4.203073652936e+07 -1.431404811761e+04 -1.078930002349e+07 -2.034996924239e+07 -3.050700355092e-05 -1.599819042589e-08 4.695348360813e-04 0.000000000000e+00 2.439000193174e+07 2.772625696309e+07  4.855077149119e-04
1.900000000000e+01 1.462974445898e+06 1.000000000000e+00 4.694585953505e+01 1.936171686701e-04 7.522983056996e-03 -4.228208664712e+07 -1.431343172511e+04 -1.077317856956e+07 -2.061787173435e+07 -2.989220108079e-05 -1.595240126928e-08 4.800842969286e-04 0.000000000000e+00 2.455771231701e+07 2.792014244933e+07  4.957068215647e-04
2.000000000000e+01 1.502507803805e+06 1.000000000000e+00 4.747743644101e+01 1.899167798945e-04 7.703715425717e-03 -4.251690988711e+07 -1.431317059569e+04 -1.075794364660e+07 -2.086940909780e+07 -2.927139078068e-05 -1.593300308334e-08 4.899929818526e-04 0.000000000000e+00 2.471475421051e+07 2.810239482554e+07  5.052649932423e-04
2.100000000000e+01 1.541141802716e+06 1.000000000000e+00 4.798108162243e+01 1.866442863584e-04 7.876430741099e-03 -4.274010502095e+07 -1.431274545196e+04 -1.074093761385e+07 -2.110718655247e+07 -2.872976172137e-05 -1.590142097809e-08 4.994563685278e-04 0.000000000000e+00 2.486274306242e+07 2.827888101036e+07  5.144232950481e-04
2.200000000000e+01 1.579012601248e+06 1.000000000000e+00 4.845978692297e+01 1.835818281187e-04 8.041534141768e-03 -4.295199298581e+07 -1.431239273952e+04 -1.072351711115e+07 -2.133274286603e+07 -2.822208019835e-05 -1.587521948235e-08 5.084812217035e-04 0.000000000000e+00 2.500275098766e+07 2.844840534310e+07  5.231634899438e-04
2.300000000000e+01 1.616195875671e+06 1.000000000000e+00 4.891513181202e+01 1.808365579929e-04 8.199016070666e-03 -4.315466301103e+07 -1.151686247017e+04 -1.070600112019e+07 -2.154734049251e+07 -2.777905500859e-05 1.917927433836e-07 5.171025846372e-04 0.000000000000e+00 2.513600154125e+07 2.861230050293e+07  5.315369135184e-04
2.400000000000e+01 1.652744296674e+06 1.000000000000e+00 4.934819136547e+01 1.775847420753e-04 8.350021675494e-03 -4.334218607905e+07 -1.431181595608e+04 -1.068960496950e+07 -2.174993514024e+07 -2.721925347647e-05 -1.583237271259e-08 5.252365285784e-04 0.000000000000e+00 2.526057539626e+07 2.876411380674e+07  5.393615166763e-04
2.500000000000e+01 1.688706439367e+06 1.000000000000e+00 4.975985594780e+01 1.746064335212e-04 8.493931499232e-03 -4.352141414636e+07 -1.431155856935e+04 -1.067337765079e+07 -2.194260599389e+07 -2.671994998412e-05 -1.581325255558e-08 5.329956035517e-04 0.000000000000e+00 2.537913259701e+07 2.891051019326e+07  5.468453947428e-04
2.600000000000e+01 1.724115300514e+06 1.000000000000e+00 5.015093060175e+01 1.716279966272e-04 8.631284178387e-03 -4.369055519928e+07 -1.431130708736e+04 -1.065766470110e+07 -2.212519977780e+07 -2.622027711853e-05 -1.579457103635e-08 5.403612822281e-04 0.000000000000e+00 2.549113989272e+07 2.904945781538e+07  5.539370375556e-04
2.700000000000e+01 1.758998233454e+06 1.000000000000e+00 5.052216683763e+01 1.691938947943e-04 8.753868546478e-03 -4.385436111167e+07 1.540010586936e+03 -1.064182847167e+07 -2.229921334604e+07 -2.584113561521e-05 1.161731884769e-06 5.474128461419e-04 0.000000000000e+00 2.559846764313e+07 2.918553884974e+07  5.607837434062e-04
2.800000000000e+01 1.793391624997e+06 1.000000000000e+00 5.087427315543e+01 1.656894534258e-04 8.887247727771e-03 -4.400021898640e+07 -1.431087736992e+04 -1.062769690894e+07 -2.246165900406e+07 -2.522501795027e-05 -1.576264916948e-08 5.539714286267e-04 0.000000000000e+00 2.569652496647e+07 2.930596085781e+07  5.670049252359e-04
2.900000000000e+01 1.827319649147e+06 1.000000000000e+00 5.120791821705e+01 1.627348900820e-04 9.006286277478e-03 -4.414146821696e+07 -1.431070365866e+04 -1.061340433370e+07 -2.261621280966e+07 -2.473084802037e-05 -1.574974490388e-08 5.602428656292e-04 0.000000000000e+00 2.579036178678e+07 2.942393862314e+07  5.730086956066e-04
3.000000000000e+01 1.860795158172e+06 1.000000000000e+00 5.152373279853e+01 1.597889164992e-04 9.119634092761e-03 -4.427406281989e+07 -1.431051068343e+04 -1.059953439456e+07 -2.276205678597e+07 -2.423872843789e-05 -1.573540960174e-08 5.661750967746e-04 0.000000000000e+00 2.587855133347e+07 2.953530470418e+07  5.786753159811e-04
3.100000000000e+01 1.893730300302e+06 1.000000000000e+00 5.182511086879e+01 1.572022429336e-04 9.228840049719e-03 -4.440137315880e+07 -1.431039486232e+04 -1.058403902663e+07 -2.290080297503e+07 -2.381396828924e-05 -1.572680574737e-08 5.719040688915e-04 0.000000000000e+00 2.596207172015e+07 2.964448101181e+07  5.841752093365e-04
3.200000000000e+01 1.926193299595e+06 1.000000000000e+00 5.211364605689e+01 1.547719140206e-04 9.326852412826e-03 -4.452302999465e+07 -7.799363030318e+02 -1.056805691672e+07 -2.303323085537e+07 -2.341390092265e-05 9.893929729425e-07 5.774164399575e-04 0.000000000000e+00 2.604143925558e+07 2.975006074565e+07  5.894747355920e-04
3.300000000000e+01 1.958214425336e+06 1.000000000000e+00 5.238991562667e+01 1.524720966288e-04 9.435206217252e-03 -4.463944459340e+07 -1.431023531925e+04 -1.055196570101e+07 -2.315976905335e+07 -2.303788152252e-05 -1.571495397692e-08 5.827141038949e-04 0.000000000000e+00 2.611705978259e+07 2.985205698619e+07  5.945678851831e-04
3.400000000000e+01 1.989824628968e+06 1.000000000000e+00 5.265418163190e+01 1.504140921378e-04 9.527183460049e-03 -4.475177787222e+07 -4.680142478479e+03 -1.053586460412e+07 -2.328088225658e+07 -2.271177004457e-05 6.996633713378e-07 5.878106350420e-04 0.000000000000e+00 2.618950824431e+07 2.995132455912e+07  5.994904967774e-04
3.500000000000e+01 2.021048805028e+06 1.000000000000e+00 5.290663242471e+01 1.479494992342e-04 9.625812101282e-03 -4.485515034365e+07 -1.431010747889e+04 -1.052048403618e+07 -2.339538955236e+07 -2.229819085436e-05 -1.570545726431e-08 5.926350414092e-04 0.000000000000e+00 2.625700797740e+07 3.004292815615e+07  6.040928667198e-04
3.600000000000e+01 2.051915339564e+06 1.000000000000e+00 5.314745065240e+01 1.457675327088e-04 9.715335510268e-03 -4.495507922700e+07 -1.431004221445e+04 -1.050515627327e+07 -2.350480889041e+07 -2.194568825103e-05 -1.570060904890e-08 5.972685051590e-04 0.000000000000e+00 2.632168146356e+07 3.013223760245e+07  6.085382072175e-04
3.700000000000e+01 2.082462264971e+06 1.000000000000e+00 5.337683015383e+01 1.437168326639e-04 9.801090465439e-03 -4.505054073181e+07 -1.430954083706e+04 -1.049006645646e+07 -2.360895621729e+07 -2.162307200291e-05 -1.566336387131e-08 6.016973133529e-04 0.000000000000e+00 2.638318780185e+07 3.021816031598e+07  6.127950384962e-04
3.800000000000e+01 2.113406986873e+06 1.000000000000e+00 5.359501613293e+01 1.441708179993e-04 9.883172700303e-03 -4.516160823173e+07 -1.429708117286e+04 -1.047310178390e+07 -2.371330577325e+07 -2.187259563581e-05 -1.473778881634e-08 6.062032704124e-04 0.000000000000e+00 2.644933859629e+07 3.032017798473e+07  6.174302026602e-04
3.900000000000e+01 2.143157948371e+06 1.000000000000e+00 5.380215920338e+01 1.413423788731e-04 9.961652621998e-03 -4.523964109078e+07 -1.431160115641e+04 -1.045926283316e+07 -2.380481743793e+07 -2.137195428376e-05 -1.581641616589e-08 6.101162932707e-04 0.000000000000e+00 2.650124045396e+07 3.039104665368e+07  6.210781190980e-04
4.000000000000e+01 2.172544102675e+06 1.000000000000e+00 5.399845057485e+01 1.383679793439e-04 1.003659617685e-02 -4.531114066160e+07 -1.431140480139e+04 -1.044580032299e+07 -2.389068382796e+07 -2.083832957014e-05 -1.580182979241e-08 6.138056524212e-04 0.000000000000e+00 2.654920827085e+07 3.045647754788e+07  6.244856284573e-04
4.200000000000e+01 2.229827606147e+06 1.000000000000e+00 5.435968904675e+01 1.331916573602e-04 1.017694186002e-02 -4.544269633656e+07 -1.431099514468e+04 -1.041580860995e+07 -2.404715561852e+07 -1.991287384780e-05 -1.577139815106e-08 6.207314396976e-04 0.000000000000e+00 2.663522018834e+07 3.058158658838e+07  6.309236010582e-04
4.400000000000e+01 2.285593808854e+06 1.000000000000e+00 5.469219717124e+01 1.282727938076e-04 1.030778147293e-02 -4.556147819861e+07 -1.431060598115e+04 -1.038550900124e+07 -2.418967145478e+07 -1.903132623434e-05 -1.574248886068e-08 6.271502990822e-04 0.000000000000e+00 2.671221955154e+07 3.069738638935e+07  6.368792599075e-04
5.000000000000e+01 2.437116681227e+06 1.000000000000e+00 5.537543881103e+01 1.142903465515e-04 1.058148194396e-02 -4.578032322188e+07 -1.430947338177e+04 -1.032561338564e+07 -2.447528796526e+07 -1.655124242374e-05 -1.565835290699e-08 6.399836066223e-04 0.000000000000e+00 2.686040819093e+07 3.091242061157e+07  6.484176778335e-04
6.500000000000e+01 2.768502507727e+06 1.000000000000e+00 5.631568923171e+01 8.790984855998e-05 1.104582161550e-02 -4.597721136773e+07 -1.430727218119e+04 -1.011190013953e+07 -2.479702352534e+07 -1.191405275238e-05 -1.549483514947e-08 6.598717051381e-04 0.000000000000e+00 2.696204501087e+07 3.122959320564e+07  6.659086716059e-04
8.000000000000e+01 3.023556376288e+06 1.000000000000e+00 5.663857106345e+01 6.837255467318e-05 1.126618828517e-02 -4.594088342604e+07 -1.430558286247e+04 -9.960648700457e+06 -2.485198461711e+07 -8.523317223777e-06 -1.536934290181e-08 6.675310277123e-04 0.000000000000e+00 2.691783891454e+07 3.131351191708e+07  6.718332377233e-04
1.000000000000e+02 3.324236306270e+06 1.000000000000e+00 5.678970356682e+01 5.015476233867e-05 1.145067466885e-02 -4.581434998664e+07 -1.430399350666e+04 -9.777023303659e+06 -2.481017027133e+07 -5.376608032197e-06 -1.525127647011e-08 6.727982953215e-04 0.000000000000e+00 2.680051452054e+07 3.135172415790e+07  6.755026480466e-04
1.860000000000e+02 3.922717200628e+06 1.000000000000e+00 5.651434056636e+01 1.690944243843e-05 1.167000293295e-02 -4.525006339414e+07 -1.430103434249e+04 -9.302215938598e+06 -2.439895018415e+07 3.087193080110e-07 -1.503145284581e-08 6.751601084998e-04 0.000000000000e+00 2.631707650563e+07 3.126443083427e+07  6.750058022961e-04
2.720000000000e+02 4.213038211931e+06 1.000000000000e+00 5.565863468720e+01 2.152737762183e-06 1.150191347732e-02 -4.467194496253e+07 -1.429964850964e+04 -9.175491284075e+06 -2.388649027840e+07 2.747464554334e-06 -1.492850526237e-08 6.608327991684e-04 0.000000000000e+00 2.591130884167e+07 3.089051689810e+07  6.594633598577e-04
3.580000000000e+02 4.354403691824e+06 1.000000000000e+00 5.491482482709e+01 -5.872986296555e-06 1.132602073718e-02 -4.421727620166e+07 -1.429889150214e+04 -9.101519155693e+06 -2.346669965615e+07 4.042938274386e-06 -1.487227041963e-08 6.479881122534e-04 0.000000000000e+00 2.559516500450e+07 3.057828034278e+07  6.459761324498e-04
4.440000000000e+02 4.426532454791e+06 1.000000000000e+00 5.428887034456e+01 -1.102489391325e-05 1.116143197736e-02 -4.385719341683e+07 -1.429839567631e+04 -9.066658741392e+06 -2.312855255559e+07 4.857692262131e-06 -1.483543764407e-08 6.367231781926e-04 0.000000000000e+00 2.535080157127e+07 3.031332990009e+07  6.343082832710e-04
5.300000000000e+02 4.465496888394e+06 1.000000000000e+00 5.377624841476e+01 -1.448663751939e-05 1.101878550407e-02 -4.357302368931e+07 -1.429805366427e+04 -9.051188462094e+06 -2.285883757597e+07 5.394582897950e-06 -1.481003103524e-08 6.272798036091e-04 0.000000000000e+00 2.516101657579e+07 3.009557288416e+07  6.245999850286e-04
6.160000000000e+02 4.488012306153e+06 1.000000000000e+00 5.336720481859e+01 -1.682796991685e-05 1.090056137160e-02 -4.335228840295e+07 -1.429782880017e+04 -9.046248588622e+06 -2.264768511606e+07 5.750516451928e-06 -1.479332684528e-08 6.196204789700e-04 0.000000000000e+00 2.501540736921e+07 2.992144103471e+07  6.167653275734e-04
7.020000000000e+02 4.501822574046e+06 1.000000000000e+00 5.305912776015e+01 -1.843069200809e-05 1.080987425459e-02 -4.318840144366e+07 -1.429767883135e+04 -9.045509934030e+06 -2.249027099885e+07 5.990936300342e-06 -1.478218630436e-08 6.138011046440e-04 0.000000000000e+00 2.490806079218e+07 2.979020368495e+07  6.108276718654e-04
7.880000000000e+02 4.511441119130e+06 1.000000000000e+00 5.280009972364e+01 -1.940200902263e-05 1.072815278426e-02 -4.305748126657e+07 -1.429759270161e+04 -9.054991233782e+06 -2.236304602207e+07 6.128186597923e-06 -1.477578809505e-08 6.087234429444e-04 0.000000000000e+00 2.482517284081e+07 2.967772335687e+07  6.056826020872e-04
8.740000000000e+02 4.519827164553e+06 1.000000000000e+00 5.241137385704e+01 -2.141877313251e-05 1.061262578706e-02 -4.285050388640e+07 -1.429739525574e+04 -9.053565359241e+06 -2.216421842606e+07 6.430892866850e-06 -1.476112068712e-08 6.013913790041e-04 0.000000000000e+00 2.468942922390e+07 2.951309802686e+07  5.982018591143e-04
9.370000000000e+02 4.525201014624e+06 1.000000000000e+00 5.210907667166e+01 -2.229874978700e-05 1.051767032084e-02 -4.269726870845e+07 -1.429729243571e+04 -9.059602249133e+06 -2.201412185641e+07 6.547469746112e-06 -1.475348262810e-08 5.955921362210e-04 0.000000000000e+00 2.459033093800e+07 2.938627207781e+07  5.923455421022e-04
1.000000000000e+03 4.529391013695e+06 1.000000000000e+00 5.185429705433e+01 -2.275186038987e-05 1.043816905156e-02 -4.256858999917e+07 -1.429724247501e+04 -9.061250374685e+06 -2.188675485353e+07 6.596190269867e-06 -1.474977126193e-08 5.908001457364e-04 0.000000000000e+00 2.450553174246e+07 2.928288668579e+07  5.875298225692e-04
1.100000000000e+03 4.533536317574e+06 1.000000000000e+00 5.158773666029e+01 -2.304588032705e-05 1.035499649416e-02 -4.243461752587e+07 -1.429720777961e+04 -9.061677794817e+06 -2.175332329366e+07 6.616281339810e-06 -1.474719388925e-08 5.858282407649e-04 0.000000000000e+00 2.441653953812e+07 2.917660132145e+07  5.825482804465e-04
1.200000000000e+03 4.536797685240e+06 1.000000000000e+00 5.136659194752e+01 -2.341946996197e-05 1.028587745419e-02 -4.232300520159e+07 -1.429716907104e+04 -9.062991841091e+06 -2.164276124041e+07 6.655291406851e-06 -1.474431839525e-08 5.816728427826e-04 0.000000000000e+00 2.434291942770e+07 2.908739248909e+07  5.783739165233e-04
1.300000000000e+03 4.539703043561e+06 1.000000000000e+00 5.115655275434e+01 -2.381367755905e-05 1.022008938254e-02 -4.221691993287e+07 -1.429713033503e+04 -9.064676369789e+06 -2.153785515745e+07 6.699089735190e-06 -1.474144086279e-08 5.777137629210e-04 0.000000000000e+00 2.427315048670e+07 2.900238256392e+07  5.743935184040e-04
1.400000000000e+03 4.542442559409e+06 1.000000000000e+00 5.094021066014e+01 -2.419610500764e-05 1.015211219487e-02 -4.210785726407e+07 -1.429709176613e+04 -9.066519610761e+06 -2.142989733729e+07 6.740126970419e-06 -1.473857574446e-08 5.736354377935e-04 0.000000000000e+00 2.420142473738e+07 2.891506835461e+07  5.702952478939e-04
1.500000000000e+03 4.545082455935e+06 1.000000000000e+00 5.070749549464e+01 -2.454799355453e-05 1.007872601684e-02 -4.199091656238e+07 -1.429704595235e+04 -9.068442745720e+06 -2.131386943206e+07 6.774030838961e-06 -1.473517243577e-08 5.692543991579e-04 0.000000000000e+00 2.412440958005e+07 2.882170416025e+07  5.658977931135e-04
1.600000000000e+03 4.547643486762e+06 1.000000000000e+00 5.045226663416e+01 -2.485787258939e-05 9.997957076505e-03 -4.186311883428e+07 -1.429700439007e+04 -9.070419073952e+06 -2.118672054474e+07 6.798130639170e-06 -1.473208495209e-08 5.644583197230e-04 0.000000000000e+00 2.404008615099e+07 2.872003300447e+07  5.610901429698e-04
1.700000000000e+03 4.550130780898e+06 1.000000000000e+00 5.017073121983e+01 -2.516199201469e-05 9.911618456501e-03 -4.172227534710e+07 -2.000822340904e+04 -9.072493160432e+06 -2.104647993668e+07 6.820523292322e-06 -4.389940692185e-07 5.591723453543e-04 0.000000000000e+00 2.394708281474e+07 2.860835152523e+07  5.557939919507e-04
1.800000000000e+03 4.552544175035e+06 1.000000000000e+00 4.986060266177e+01 -2.532620643420e-05 9.809870871438e-03 -4.156833097230e+07 -1.429691476803e+04 -9.074492286500e+06 -2.089227895944e+07 6.810992344478e-06 -1.472542731485e-08 5.533706272313e-04 0.000000000000e+00 2.384503407274e+07 2.848692671766e+07  5.499967620303e-04
1.900000000000e+03 4.554883468630e+06 1.000000000000e+00 4.952059342570e+01 -2.549408893661e-05 9.704699645262e-03 -4.139945479620e+07 -2.051376581666e+04 -9.076616247916e+06 -2.072317764655e+07 6.802630121063e-06 -4.765486480702e-07 5.470108313287e-04 0.000000000000e+00 2.373308289689e+07 2.835418175408e+07  5.436420645108e-04
2.000000000000e+03 4.557147800933e+06 1.000000000000e+00 4.915010152781e+01 -2.557291090615e-05 9.582979887840e-03 -4.121618159947e+07 -1.429682851778e+04 -9.078724587851e+06 -2.053908360535e+07 6.772141612073e-06 -1.471902015286e-08 5.400947428866e-04 0.000000000000e+00 2.361132993089e+07 2.821080980615e+07  5.367407155815e-04