 TITLE = "Time curves in points"
 VARIABLES = "TIME"  "PRESSURE1"  "SATURATION1"  "TEMPERATURE1"  "DISPLACEMENT_X1"  "DISPLACEMENT_Y1"  "STRESS_XX"  "STRESS_XY"  "STRESS_YY"  "STRESS_ZZ"  "STRAIN_XX"  "STRAIN_XY"  "STRAIN_YY"  "STRAIN_PLS"  p_(1st_Invariant)  q_(2nd_Invariant)   Effective_Strain
 ZONE T="POINT=POINT9"
0.000000000000e+00 1.000000000000e+05 1.000000000000e+00 2.500000000000e+01 0.000000000000e+00 0.000000000000e+00 -6.854419775061e+07 7.586938602830e+05 -6.954707405871e+06 -1.965222756120e+07 0.000000000000e+00 0.000000000000e+00 0.000000000000e+00 0.000000000000e+00 3.171704423923e+07 5.633990941714e+07  0.000000000000e+00
1.000000000000e-03 1.375363516703e+05 1.000000000000e+00 2.500341801932e+01 0.000000000000e+00 -1.439985154192e-03 -1.002878322775e+08 1.578239270733e+06 2.517704697404e+07 -1.953687840891e+07 -1.183333679514e-03 6.088051620487e-05 1.189180765597e-03 0.000000000000e+00 3.154922123747e+07 1.101735735887e+08  2.057363957364e-03
2.000000000000e-03 1.596543389367e+05 1.000000000000e+00 2.501822523887e+01 0.000000000000e+00 -1.439928452415e-03 -1.002727219270e+08 1.578021287599e+06 2.517610945826e+07 -1.953738606868e+07 -1.182753581987e-03 6.086432317206e-05 1.189164799517e-03 0.000000000000e+00 3.154466617913e+07 1.101586159622e+08  2.056847412868e-03
3.000000000000e-03 1.750698786130e+05 1.000000000000e+00 2.505296830634e+01 0.000000000000e+00 -1.439701559105e-03 -1.002667575512e+08 1.577946506004e+06 2.516914153076e+07 -1.954895874084e+07 -1.182102205920e-03 6.085876796783e-05 1.189335832890e-03 0.000000000000e+00 3.154885825375e+07 1.101457575357e+08  2.056432160124e-03
4.000000000000e-03 1.857698476363e+05 1.000000000000e+00 2.511280761999e+01 0.000000000000e+00 -1.439476796959e-03 -1.002724183280e+08 1.578072759304e+06 2.515741304850e+07 -1.957374352571e+07 -1.181391885623e-03 6.086814678445e-05 1.189820781272e-03 0.000000000000e+00 3.156291626841e+07 1.101379520517e+08  2.056239210107e-03
1.000000000000e-02 2.016789187738e+05 1.000000000000e+00 2.596897994581e+01 0.000000000000e+00 -1.437317744982e-03 -1.005481802629e+08 1.582122603183e+06 2.503552121100e+07 -1.998066187259e+07 -1.176520361746e-03 6.116899232974e-05 1.200407480192e-03 0.000000000000e+00 3.183110697481e+07 1.102358074911e+08  2.061239204899e-03
2.000000000000e-02 1.999775654951e+05 1.000000000000e+00 2.761199733326e+01 0.000000000000e+00 -1.430690737150e-03 -1.011367879148e+08 1.589369230771e+06 2.482075770843e+07 -2.078142576130e+07 -1.168640272954e-03 6.170731323624e-05 1.222173208820e-03 0.000000000000e+00 3.236581865590e+07 1.104920884742e+08  2.073434746936e-03
3.000000000000e-02 1.899417002927e+05 1.000000000000e+00 2.912015439710e+01 0.000000000000e+00 -1.422146460328e-03 -1.016825506125e+08 1.595196320441e+06 2.461806739055e+07 -2.152362783591e+07 -1.161343953238e-03 6.214018275458e-05 1.242212216928e-03 0.000000000000e+00 3.286270368596e+07 1.107285486106e+08  2.084713607025e-03
4.000000000000e-02 1.766791337347e+05 1.000000000000e+00 3.042921113057e+01 0.000000000000e+00 -1.411451540240e-03 -1.021482461659e+08 1.599500878853e+06 2.442966034852e+07 -2.217131682919e+07 -1.154584196901e-03 6.245994995091e-05 1.259271260831e-03 0.000000000000e+00 3.329663421554e+07 1.109172600094e+08  2.093911939290e-03
5.000000000000e-02 1.624755356040e+05 1.000000000000e+00 3.155419082157e+01 0.000000000000e+00 -1.400188299164e-03 -1.025400302936e+08 1.602652018836e+06 2.425635166337e+07 -2.273006413450e+07 -1.148382707446e-03 6.269403463536e-05 1.273587552437e-03 0.000000000000e+00 3.367124758824e+07 1.110632419079e+08  2.101229555298e-03
6.000000000000e-02 1.480496713839e+05 1.000000000000e+00 3.252596107649e+01 0.000000000000e+00 -1.386739431122e-03 -1.028701153682e+08 1.604868879299e+06 2.409648674332e+07 -2.321402188624e+07 -1.142667436582e-03 6.285871569830e-05 1.285625286186e-03 0.000000000000e+00 3.399588350372e+07 1.111740732637e+08  2.106992418518e-03
7.000000000000e-02 1.342905955250e+05 1.000000000000e+00 3.337380847169e+01 0.000000000000e+00 -1.373755903318e-03 -1.031521548662e+08 1.606412403884e+06 2.394738463107e+07 -2.363784981333e+07 -1.137401009215e-03 6.297337752464e-05 1.295829387880e-03 0.000000000000e+00 3.428087334950e+07 1.112579335384e+08  2.111546696294e-03
8.000000000000e-02 1.218339395709e+05 1.000000000000e+00 3.412173941680e+01 0.000000000000e+00 -1.360194131904e-03 -1.033936087224e+08 1.607402603341e+06 2.380635253866e+07 -2.401269670007e+07 -1.132446410938e-03 6.304693519859e-05 1.304513937383e-03 0.000000000000e+00 3.453331762794e+07 1.113178405899e+08  2.115043347309e-03
9.000000000000e-02 1.115908111548e+05 1.000000000000e+00 3.478854342154e+01 0.000000000000e+00 -1.347652415684e-03 -1.036029845554e+08 1.607987106281e+06 2.367163830991e+07 -2.434803069502e+07 -1.127767964921e-03 6.309035541701e-05 1.311965528699e-03 0.000000000000e+00 3.475979231349e+07 1.113588336942e+08  2.117698752038e-03
1.000000000000e-01 1.045672281260e+05 1.000000000000e+00 3.538879861076e+01 0.000000000000e+00 -1.336190765076e-03 -1.037874934050e+08 1.608285320250e+06 2.354362903247e+07 -2.465088185676e+07 -1.123372393329e-03 6.311250845466e-05 1.318459655831e-03 0.000000000000e+00 3.496491540977e+07 1.113868223768e+08  2.119757567128e-03
2.000000000000e-01 1.257459077061e+05 1.000000000000e+00 3.885749486388e+01 0.000000000000e+00 -1.191988539412e-03 -1.047447783557e+08 1.604069646535e+06 2.266933174120e+07 -2.641112248091e+07 -1.093548325456e-03 6.279934412158e-05 1.351366122480e-03 0.000000000000e+00 3.616218969846e+07 1.113437162971e+08  2.124065387477e-03
3.000000000000e-01 1.562400342334e+05 1.000000000000e+00 4.116519315852e+01 0.000000000000e+00 -1.035398233724e-03 -1.052404971724e+08 1.595618938512e+06 2.192776146679e+07 -2.758868939592e+07 -1.068222538947e-03 6.217157723984e-05 1.367560283417e-03 0.000000000000e+00 3.696714170050e+07 1.110601732420e+08  2.117492657521e-03
4.000000000000e-01 1.873099578947e+05 1.000000000000e+00 4.284986289610e+01 0.000000000000e+00 -8.881990746579e-04 -1.055414571266e+08 1.586120148517e+06 2.128208765766e+07 -2.846172305042e+07 -1.046974087222e-03 6.146595284022e-05 1.376005077674e-03 0.000000000000e+00 3.757369750645e+07 1.107136809148e+08  2.107491533407e-03
5.000000000000e-01 2.167971566593e+05 1.000000000000e+00 4.415870671746e+01 0.000000000000e+00 -7.473841251488e-04 -1.057289566893e+08 1.576517607064e+06 2.069892126813e+07 -2.915074557169e+07 -1.028346091617e-03 6.075262118945e-05 1.379936876852e-03 0.000000000000e+00 3.806026033094e+07 1.103361510870e+08  2.095673353644e-03
6.000000000000e-01 2.441751628291e+05 1.000000000000e+00 4.522029182487e+01 0.000000000000e+00 -6.117713778957e-04 -1.058507664993e+08 1.567184901874e+06 2.016259640877e+07 -2.971962097755e+07 -1.011740798058e-03 6.005933451822e-05 1.381145897151e-03 0.000000000000e+00 3.846926368936e+07 1.099506502307e+08  2.083114604356e-03
7.000000000000e-01 2.695236779936e+05 1.000000000000e+00 4.610823859284e+01 0.000000000000e+00 -4.810637720623e-04 -1.059391916909e+08 1.558394765009e+06 1.967051968683e+07 -3.020451751975e+07 -9.970147193226e-04 5.940635292254e-05 1.380879204761e-03 0.000000000000e+00 3.882439650795e+07 1.095801792434e+08  2.070799354293e-03
8.000000000000e-01 2.931001257873e+05 1.000000000000e+00 4.686835873420e+01 0.000000000000e+00 -3.553986472887e-04 -1.060215848717e+08 1.550457530665e+06 1.922955335029e+07 -3.062757696243e+07 -9.843614010226e-04 5.881672979980e-05 1.380214091560e-03 0.000000000000e+00 3.913986949460e+07 1.092525995317e+08  2.059846112300e-03
9.000000000000e-01 3.149678579272e+05 1.000000000000e+00 4.753046136150e+01 0.000000000000e+00 -2.338234930580e-04 -1.060944991215e+08 1.543482993909e+06 1.882469906992e+07 -3.100268476030e+07 -9.731370692396e-04 5.829862135506e-05 1.379109222210e-03 0.000000000000e+00 3.942416160397e+07 1.089510185330e+08  2.049682047717e-03
1.000000000000e+00 3.353127070913e+05 1.000000000000e+00 4.811530496720e+01 0.000000000000e+00 -1.158817355008e-04 -1.061623739699e+08 1.537297911585e+06 1.844567071465e+07 -3.134151574532e+07 -9.630729841618e-04 5.783915809675e-05 1.377616177029e-03 0.000000000000e+00 3.968607300018e+07 1.086698423445e+08  2.040126694915e-03
2.000000000000e+00 4.697379129060e+05 1.000000000000e+00 5.129669005998e+01 0.000000000000e+00 8.451363290902e-04 -1.065861282133e+08 1.496576272551e+06 1.562933655911e+07 -3.342826525593e+07 -9.013045885231e-04 5.481412205416e-05 1.350517318789e-03 0.000000000000e+00 4.146168563669e+07 1.065569788449e+08  1.965321401165e-03
3.000000000000e+00 5.733073288012e+05 1.000000000000e+00 5.334711570138e+01 0.000000000000e+00 1.661071064894e-03 -1.068585894931e+08 1.465558963252e+06 1.330783074321e+07 -3.492556217822e+07 -8.558106932303e-04 5.250997907772e-05 1.319903845598e-03 0.000000000000e+00 4.282544030936e+07 1.047704069436e+08  1.900636162730e-03
4.000000000000e+00 6.596594516993e+05 1.000000000000e+00 5.484331777328e+01 0.000000000000e+00 2.370022018235e-03 -1.070508346318e+08 1.440073971780e+06 1.132653574429e+07 -3.610277857317e+07 -8.192260465713e-04 5.061680828263e-05 1.290038068879e-03 0.000000000000e+00 4.394235915356e+07 1.032201802230e+08  1.843867811280e-03
5.000000000000e+00 7.354601082005e+05 1.000000000000e+00 5.604440422179e+01 0.000000000000e+00 2.996711918755e-03 -1.072119368523e+08 1.418660428290e+06 9.611495732347e+06 -3.708738475713e+07 -7.886387564996e-04 4.902608790913e-05 1.262907669554e-03 0.000000000000e+00 4.489594195902e+07 1.018774465494e+08  1.794456874948e-03
6.000000000000e+00 8.041390166719e+05 1.000000000000e+00 5.709454644138e+01 0.000000000000e+00 3.561079172418e-03 -1.073434464470e+08 1.399727144019e+06 8.075525002002e+06 -3.795634917006e+07 -7.612475775353e-04 4.761961536327e-05 1.238133149193e-03 0.000000000000e+00 4.574142353834e+07 1.006647830552e+08  1.749800078073e-03
7.000000000000e+00 8.678837884386e+05 1.000000000000e+00 5.796631025403e+01 0.000000000000e+00 4.071271484675e-03 -1.074473229658e+08 1.382789247160e+06 6.711335908231e+06 -3.870313836509e+07 -7.373679638494e-04 4.636137159660e-05 1.215201152954e-03 0.000000000000e+00 4.647970847423e+07 9.957888687487e+07  1.709656072548e-03
8.000000000000e+00 9.273815366453e+05 1.000000000000e+00 5.880767266523e+01 0.000000000000e+00 4.353777655545e-03 -1.075466064048e+08 1.415919267673e+06 6.490404058443e+06 -3.909460812825e+07 -7.265153289526e-04 4.882245883467e-05 1.221535418308e-03 0.000000000000e+00 4.671693682488e+07 9.944882634742e+07  1.707216566550e-03
9.000000000000e+00 9.837160272921e+05 1.000000000000e+00 5.957121473990e+01 0.000000000000e+00 4.973958858735e-03 -1.076816973022e+08 1.354653829249e+06 4.347677555323e+06 -4.004609205119e+07 -6.961921594325e-04 4.427131198031e-05 1.177289265329e-03 0.000000000000e+00 4.779337059937e+07 9.774193887608e+07  1.642008812466e-03
1.000000000000e+01 1.037379885079e+06 1.000000000000e+00 6.026073646996e+01 0.000000000000e+00 5.377328524121e-03 -1.077701851169e+08 1.342195286430e+06 3.304662307816e+06 -4.062775608155e+07 -6.778741857064e-04 4.334582022808e-05 1.160153362978e-03 0.000000000000e+00 4.836442629688e+07 9.691902244103e+07  1.611689744924e-03
1.100000000000e+01 1.088673730097e+06 1.000000000000e+00 6.090878593713e+01 0.000000000000e+00 5.754324644314e-03 -1.078648232520e+08 1.330910553477e+06 2.345351281326e+06 -4.117154323298e+07 -6.611915079579e-04 4.250752578010e-05 1.144719619047e-03 0.000000000000e+00 4.889700506789e+07 9.617334406150e+07  1.584252750283e-03
1.200000000000e+01 1.137991996889e+06 1.000000000000e+00 6.149982009879e+01 0.000000000000e+00 6.107505431330e-03 -1.079562284357e+08 1.320679597888e+06 1.464907463259e+06 -4.167074312743e+07 -6.460448472735e-04 4.174751193634e-05 1.130559130456e-03 0.000000000000e+00 4.938735469997e+07 9.549319364088e+07  1.559217225782e-03
1.300000000000e+01 1.185597007244e+06 1.000000000000e+00 6.203604875536e+01 0.000000000000e+00 6.439492171771e-03 -1.080361987861e+08 1.311051039098e+06 6.427835753576e+05 -4.212983495246e+07 -6.319631924987e-04 4.103224756914e-05 1.117075082407e-03 0.000000000000e+00 4.984108338772e+07 9.485404584299e+07  1.535654742371e-03
1.400000000000e+01 1.232205373220e+06 1.000000000000e+00 6.252137199533e+01 0.000000000000e+00 6.752141298930e-03 -1.081078544060e+08 1.302037532077e+06 -1.229443630965e+05 -4.255169781342e+07 -6.189554949752e-04 4.036267276186e-05 1.104302950957e-03 0.000000000000e+00 5.026083219417e+07 9.425688673493e+07  1.513602566039e-03
1.500000000000e+01 1.277367066549e+06 1.000000000000e+00 6.295962034440e+01 0.000000000000e+00 7.046551037293e-03 -1.081728552030e+08 1.293677409977e+06 -8.332072900351e+05 -4.293844907558e+07 -6.070047634121e-04 3.974163512010e-05 1.092286803408e-03 0.000000000000e+00 5.064817052288e+07 9.370224316991e+07  1.493086309987e-03
1.600000000000e+01 1.321228592590e+06 1.000000000000e+00 6.335431159983e+01 0.000000000000e+00 7.324388273546e-03 -1.082245761785e+08 1.285708241443e+06 -1.500241575557e+06 -4.329300316869e+07 -5.957566761878e-04 3.914963974335e-05 1.080680396261e-03 0.000000000000e+00 5.100594030759e+07 9.317388573429e+07  1.473504930382e-03
1.700000000000e+01 1.363922198426e+06 1.000000000000e+00 6.370850794089e+01 0.000000000000e+00 7.587128754217e-03 -1.082568463617e+08 1.278005589254e+06 -2.133990400895e+06 -4.361756373868e+07 -5.849001761046e-04 3.857744272354e-05 1.069196261063e-03 0.000000000000e+00 5.133613350042e+07 9.265793021074e+07  1.454347482318e-03
1.800000000000e+01 1.405587800456e+06 1.000000000000e+00 6.402490207886e+01 0.000000000000e+00 7.835839584685e-03 -1.082690860440e+08 1.270474680762e+06 -2.739041364384e+06 -4.391427569035e+07 -5.743340632425e-04 3.801800380700e-05 1.057743669195e-03 0.000000000000e+00 5.164080103290e+07 9.214992268855e+07  1.435449619861e-03
1.900000000000e+01 1.446313787525e+06 1.000000000000e+00 6.430589191110e+01 0.000000000000e+00 8.073339624313e-03 -1.082646821701e+08 1.262669377208e+06 -3.321090002747e+06 -4.418670277785e+07 -5.640517703906e-04 3.743818125730e-05 1.046243440163e-03 0.000000000000e+00 5.192415831689e+07 9.164799313459e+07  1.416728644694e-03
2.000000000000e+01 1.486183575855e+06 1.000000000000e+00 6.455355182090e+01 0.000000000000e+00 8.293764333224e-03 -1.082511954611e+08 1.256136824455e+06 -3.854276833173e+06 -4.443008168814e+07 -5.545110473894e-04 3.695290590995e-05 1.035479145986e-03 0.000000000000e+00 5.217851799414e+07 9.118035534090e+07  1.399278650236e-03
2.100000000000e+01 1.525125193105e+06 1.000000000000e+00 6.481651445565e+01 0.000000000000e+00 8.506265686393e-03 -1.082513992866e+08 1.249719951679e+06 -4.367262873934e+06 -4.467671689125e+07 -5.453578819334e-04 3.647622393227e-05 1.025586114874e-03 0.000000000000e+00 5.243179301725e+07 9.074105168770e+07  1.382947979677e-03
2.200000000000e+01 1.563296833469e+06 1.000000000000e+00 6.506310018593e+01 0.000000000000e+00 8.709599294478e-03 -1.082423644567e+08 1.243433812602e+06 -4.861762589135e+06 -4.490929641893e+07 -5.363836343697e-04 3.600925360081e-05 1.015857650766e-03 0.000000000000e+00 5.267114115494e+07 9.030976713877e+07  1.366913891799e-03
2.300000000000e+01 1.600764539603e+06 1.000000000000e+00 6.528885309718e+01 0.000000000000e+00 1.001415171246e-02 -1.088177222909e+08 1.029240319794e+06 -8.505362876560e+06 -4.625463190005e+07 -5.077844646265e-04 2.009773699222e-05 9.304935293888e-04 0.000000000000e+00 5.452590568919e+07 8.777264111374e+07  1.263869133457e-03
2.400000000000e+01 1.637574353710e+06 1.000000000000e+00 6.549323259149e+01 0.000000000000e+00 9.088430790036e-03 -1.082271212383e+08 1.231951419261e+06 -5.762352765473e+06 -4.532671582654e+07 -5.203133082592e-04 3.515627580979e-05 9.979113079271e-04 0.000000000000e+00 5.310539661011e+07 8.952635039300e+07  1.337717213167e-03
2.500000000000e+01 1.673781468298e+06 1.000000000000e+00 6.567656835799e+01 0.000000000000e+00 9.265135175609e-03 -1.082096140630e+08 1.226460881987e+06 -6.182052064321e+06 -4.551217547990e+07 -5.127745403386e-04 3.474840732657e-05 9.892109782378e-04 0.000000000000e+00 5.330128053576e+07 8.915289131022e+07  1.323760041996e-03
2.600000000000e+01 1.709418523505e+06 1.000000000000e+00 6.583945705198e+01 0.000000000000e+00 9.378664311094e-03 -1.081375961068e+08 1.230998132564e+06 -6.428759565114e+06 -4.562222800524e+07 -5.060119224515e-04 3.508546022655e-05 9.841352220067e-04 0.000000000000e+00 5.339619455905e+07 8.887654017321e+07  1.313867316381e-03
2.700000000000e+01 1.744518244495e+06 1.000000000000e+00 6.598257470197e+01 0.000000000000e+00 9.595022442177e-03 -1.081462886462e+08 1.215860878501e+06 -6.970156616948e+06 -4.583798082021e+07 -4.983211122149e-04 3.396097849618e-05 9.720398646371e-04 0.000000000000e+00 5.365147536111e+07 8.842655873910e+07  1.296546744228e-03
2.800000000000e+01 1.779123729551e+06 1.000000000000e+00 6.610660141992e+01 0.000000000000e+00 9.726428793694e-03 -1.080958757308e+08 1.214701137964e+06 -7.253442101145e+06 -4.595188683677e+07 -4.922178375997e-04 3.387482634204e-05 9.657486272681e-04 0.000000000000e+00 5.376706822290e+07 8.814049691853e+07  1.285982124012e-03
2.900000000000e+01 1.813258576254e+06 1.000000000000e+00 6.621219521848e+01 0.000000000000e+00 9.895844141853e-03 -1.080368414794e+08 1.205383858144e+06 -7.705066213397e+06 -4.610725663236e+07 -4.842542587104e-04 3.318268555541e-05 9.547448955062e-04 0.000000000000e+00 5.394972144170e+07 8.770742425184e+07  1.269520600883e-03
3.000000000000e+01 1.846933373640e+06 1.000000000000e+00 6.629998133800e+01 0.000000000000e+00 1.003241880989e-02 -1.079582489996e+08 1.200883478355e+06 -8.051753079378e+06 -4.621904522419e+07 -4.771829617643e-04 3.284837162820e-05 9.460201024664e-04 0.000000000000e+00 5.407634910104e+07 8.734538375411e+07  1.255913744733e-03
3.100000000000e+01 1.880068626278e+06 1.000000000000e+00 6.640753135157e+01 0.000000000000e+00 1.017148059036e-02 -1.078967238944e+08 1.195112557983e+06 -8.399856349674e+06 -4.634318025088e+07 -4.702870140086e-04 3.241967468625e-05 9.377012819895e-04 0.000000000000e+00 5.421325349830e+07 8.699635331180e+07  1.242817529507e-03
3.200000000000e+01 1.912746247325e+06 1.000000000000e+00 6.650903883674e+01 0.000000000000e+00 1.030234865357e-02 -1.078199309505e+08 1.190004631508e+06 -8.740591781166e+06 -4.645840440534e+07 -4.631549503557e-04 3.204022871958e-05 9.293251488427e-04 0.000000000000e+00 5.433964237899e+07 8.664029791462e+07  1.229495429945e-03
3.300000000000e+01 1.944992523902e+06 1.000000000000e+00 6.660028932077e+01 0.000000000000e+00 1.037705009369e-02 -1.077336210908e+08 1.195629400509e+06 -8.810729295565e+06 -4.648600354307e+07 -4.589240447374e-04 3.245806870253e-05 9.277451519948e-04 0.000000000000e+00 5.434345130981e+07 8.650148161739e+07  1.224845901409e-03
3.400000000000e+01 1.976830065057e+06 1.000000000000e+00 6.668024540347e+01 0.000000000000e+00 1.055061463593e-02 -1.076327264181e+08 1.179502051639e+06 -9.410896385112e+06 -4.666428289708e+07 -4.485547237460e-04 3.126003707213e-05 9.120750361036e-04 0.000000000000e+00 5.456930190010e+07 8.590937421946e+07  1.202135328192e-03
3.500000000000e+01 2.008299349169e+06 1.000000000000e+00 6.674866244683e+01 0.000000000000e+00 1.066839732572e-02 -1.075162906011e+08 1.174015794249e+06 -9.746130960476e+06 -4.675438142384e+07 -4.408834481210e-04 3.085248652321e-05 9.029699828696e-04 0.000000000000e+00 5.467226766181e+07 8.552454093386e+07  1.187726042554e-03
3.600000000000e+01 2.039444674912e+06 1.000000000000e+00 6.680556864159e+01 0.000000000000e+00 1.078253412389e-02 -1.073738213670e+08 1.168078568018e+06 -1.009289886411e+07 -4.683610107770e+07 -4.325564322815e-04 3.041143543171e-05 8.931253335922e-04 0.000000000000e+00 5.476760710293e+07 8.510770474813e+07  1.172126103585e-03
3.700000000000e+01 2.070350550235e+06 1.000000000000e+00 6.685110782821e+01 0.000000000000e+00 1.089441762417e-02 -1.071777799466e+08 1.161082020445e+06 -1.047878763801e+07 -4.690950683438e+07 -4.225483942755e-04 2.989169189777e-05 8.815188215242e-04 0.000000000000e+00 5.485535813965e+07 8.461160034929e+07  1.153597625040e-03
3.800000000000e+01 2.103243222953e+06 1.000000000000e+00 6.688581964194e+01 0.000000000000e+00 1.104587638520e-02 -1.060424576506e+08 1.132280186803e+06 -1.179426913657e+07 -4.697621567428e+07 -3.779015235124e-04 2.775212711295e-05 8.351358370598e-04 0.000000000000e+00 5.493764748713e+07 8.251364642312e+07  1.076183569219e-03
3.900000000000e+01 2.133056549040e+06 1.000000000000e+00 6.690898301728e+01 0.000000000000e+00 1.113543432906e-02 -1.061341573828e+08 1.132198086166e+06 -1.186864828069e+07 -4.703466021810e+07 -3.791367162268e-04 2.774602820846e-05 8.345439804770e-04 0.000000000000e+00 5.501248862721e+07 8.253204348019e+07  1.076533369427e-03
4.000000000000e+01 2.162442326272e+06 1.000000000000e+00 6.692120015106e+01 0.000000000000e+00 1.121788451378e-02 -1.062662571025e+08 1.133176772235e+06 -1.187758524235e+07 -4.708176102163e+07 -3.822938188264e-04 2.781873060212e-05 8.359614946037e-04 0.000000000000e+00 5.507520112217e+07 8.264098402656e+07  1.080224394213e-03
4.200000000000e+01 2.219725183668e+06 1.000000000000e+00 6.697479447988e+01 0.000000000000e+00 1.137242606555e-02 -1.065221492414e+08 1.135133861606e+06 -1.189565302543e+07 -4.718354592341e+07 -3.880178019204e-04 2.796411438402e-05 8.390709875839e-04 0.000000000000e+00 5.520044939676e+07 8.284989495568e+07  1.087436615233e-03
4.400000000000e+01 2.275490821994e+06 1.000000000000e+00 6.700716852179e+01 0.000000000000e+00 1.151652705213e-02 -1.067483921957e+08 1.136802763759e+06 -1.191089736579e+07 -4.726815700192e+07 -3.932784144471e-04 2.808808997249e-05 8.416474664295e-04 0.000000000000e+00 5.530914885446e+07 8.303595166080e+07  1.093803900401e-03
5.000000000000e+01 2.427012680572e+06 1.000000000000e+00 6.679475873735e+01 0.000000000000e+00 1.181764454845e-02 -1.070775501364e+08 1.138428311064e+06 -1.192361299595e+07 -4.729887391286e+07 -4.043633669826e-04 2.820884491516e-05 8.423160854303e-04 0.000000000000e+00 5.543334568174e+07 8.332750771333e+07  1.102721680885e-03
6.500000000000e+01 2.758397045387e+06 1.000000000000e+00 6.601327625245e+01 0.000000000000e+00 1.233000426493e-02 -1.072339262267e+08 1.136325787519e+06 -1.189617712708e+07 -4.706883127938e+07 -4.187160624350e-04 2.805265745181e-05 8.347906913162e-04 0.000000000000e+00 5.539964487770e+07 8.352840256846e+07  1.106390421707e-03
8.000000000000e+01 3.013450396859e+06 1.000000000000e+00 6.501253149927e+01 0.000000000000e+00 1.257353098134e-02 -1.068948362251e+08 1.130136669168e+06 -1.183025523843e+07 -4.660075161921e+07 -4.235071068963e-04 2.759289437433e-05 8.198534026593e-04 0.000000000000e+00 5.510861436090e+07 8.333457226305e+07  1.095908626457e-03
1.000000000000e+02 3.314130008212e+06 1.000000000000e+00 6.391116452846e+01 0.000000000000e+00 1.277104039772e-02 -1.064002360754e+08 1.123072016764e+06 -1.166575748033e+07 -4.602103752536e+07 -4.266684819679e-04 2.706809162428e-05 8.044310816175e-04 0.000000000000e+00 5.469567702705e+07 8.309067957280e+07  1.083779863151e-03
1.860000000000e+02 3.912611194134e+06 1.000000000000e+00 6.127460327711e+01 0.000000000000e+00 1.168877490356e-02 -1.032958844887e+08 1.354828992748e+06 -8.715047915184e+06 -4.328832353680e+07 -4.128647997495e-04 4.428432412600e-05 8.125280601761e-04 0.000000000000e+00 5.176641864689e+07 8.292396148022e+07  1.082592596682e-03
2.720000000000e+02 4.202932547880e+06 1.000000000000e+00 5.927316549109e+01 0.000000000000e+00 1.284161152159e-02 -1.030832787129e+08 1.080716176037e+06 -1.132496438559e+07 -4.331021816889e+07 -4.041547845992e-04 2.392165774172e-05 7.164015347530e-04 0.000000000000e+00 5.257282042246e+07 8.069222750453e+07  9.837815275776e-04
3.580000000000e+02 4.344298242584e+06 1.000000000000e+00 5.786901894250e+01 0.000000000000e+00 1.264819342503e-02 -1.018630828664e+08 1.067041060541e+06 -1.118810800791e+07 -4.241350162793e+07 -3.921398389640e-04 2.290579201916e-05 6.881781572598e-04 0.000000000000e+00 5.182156416740e+07 7.980620414943e+07  9.480500657258e-04
4.440000000000e+02 4.416427120793e+06 1.000000000000e+00 5.679914781059e+01 0.000000000000e+00 1.246670609447e-02 -1.009028698577e+08 1.056501200033e+06 -1.108297473926e+07 -4.172068790902e+07 -3.822078653452e-04 2.212283095284e-05 6.663500262501e-04 0.000000000000e+00 5.123551083533e+07 7.910597593193e+07  9.199226542863e-04
5.300000000000e+02 4.455391633555e+06 1.000000000000e+00 5.597604588127e+01 0.000000000000e+00 1.230919532885e-02 -1.001481730087e+08 1.048329965926e+06 -1.100164708449e+07 -4.118266594328e+07 -3.741599411104e-04 2.151582499065e-05 6.493870946998e-04 0.000000000000e+00 5.077749534551e+07 7.855419142703e+07  8.978099406781e-04
6.160000000000e+02 4.477907107511e+06 1.000000000000e+00 5.534879697180e+01 0.000000000000e+00 1.225582854713e-02 -9.970246862740e+07 1.024904966055e+06 -1.117796259648e+07 -4.088292442895e+07 -3.687384631932e-04 1.977568214305e-05 6.317049765793e-04 0.000000000000e+00 5.058778521761e+07 7.805451391924e+07  8.769985101134e-04
7.020000000000e+02 4.491717405697e+06 1.000000000000e+00 5.488766039025e+01 0.000000000000e+00 1.207824129854e-02 -9.913022942405e+07 1.037449827207e+06 -1.089358131221e+07 -4.046497003384e+07 -3.630078846013e-04 2.070758611437e-05 6.267436896050e-04 0.000000000000e+00 5.016292692337e+07 7.780823726676e+07  8.679756275732e-04
7.880000000000e+02 4.501335963429e+06 1.000000000000e+00 5.452634175249e+01 0.000000000000e+00 1.198767400449e-02 -9.878312446898e+07 1.033827807201e+06 -1.085773881191e+07 -4.022391120378e+07 -3.590690285297e-04 2.043852177102e-05 6.191213687853e-04 0.000000000000e+00 4.995492482822e+07 7.755269106144e+07  8.577892191465e-04
8.740000000000e+02 4.509722041740e+06 1.000000000000e+00 5.394399381871e+01 0.000000000000e+00 1.186006304825e-02 -9.823577612595e+07 1.027994417951e+06 -1.079982991358e+07 -3.983905629327e+07 -3.530335581787e-04 2.000518428393e-05 6.069776597619e-04 0.000000000000e+00 4.962488744427e+07 7.715192441261e+07  8.417473954849e-04
9.370000000000e+02 4.515095894650e+06 1.000000000000e+00 5.354017255568e+01 0.000000000000e+00 1.178990840598e-02 -9.786693901522e+07 1.017371945799e+06 -1.086288434087e+07 -3.960626854825e+07 -3.479802960240e-04 1.921608635260e-05 5.959892362187e-04 0.000000000000e+00 4.944536396812e+07 7.679975150607e+07  8.275226527897e-04
1.000000000000e+03 4.519285924027e+06 1.000000000000e+00 5.322023015424e+01 0.000000000000e+00 1.166743662068e-02 -9.750987040681e+07 1.020443698086e+06 -1.072519478922e+07 -3.934604400700e+07 -3.443832306721e-04 1.944427366540e-05 5.914379366051e-04 0.000000000000e+00 4.919370306768e+07 7.661596264979e+07  8.204963065786e-04
1.100000000000e+03 4.523431233215e+06 1.000000000000e+00 5.289815657553e+01 0.000000000000e+00 1.157577472125e-02 -9.717300303096e+07 1.016961290781e+06 -1.069082238656e+07 -3.912210221803e+07 -3.401888517311e-04 1.918558055129e-05 5.843967879705e-04 0.000000000000e+00 4.899530921185e+07 7.636628047987e+07  8.106525719386e-04
1.200000000000e+03 4.526692605805e+06 1.000000000000e+00 5.262163521004e+01 0.000000000000e+00 1.149955424678e-02 -9.688937828758e+07 1.014019551383e+06 -1.066176400081e+07 -3.893167040644e+07 -3.367273999786e-04 1.896705133885e-05 5.784029178681e-04 0.000000000000e+00 4.882760423161e+07 7.615659653145e+07  8.023581713162e-04
1.300000000000e+03 4.529597980313e+06 1.000000000000e+00 5.235621120800e+01 0.000000000000e+00 1.142699323117e-02 -9.661881405808e+07 1.011210995096e+06 -1.063401910016e+07 -3.874943479604e+07 -3.334466226982e-04 1.875841572894e-05 5.726646915057e-04 0.000000000000e+00 4.866742265143e+07 7.595677029055e+07  7.944433528511e-04
1.400000000000e+03 4.532337492299e+06 1.000000000000e+00 5.208448040418e+01 0.000000000000e+00 1.135202959100e-02 -9.634099009793e+07 1.008329982496e+06 -1.060556217211e+07 -3.856260024001e+07 -3.300670162590e-04 1.854439765009e-05 5.667820938953e-04 0.000000000000e+00 4.850305083668e+07 7.575157519764e+07  7.863166892774e-04
1.500000000000e+03 4.534977373574e+06 1.000000000000e+00 5.179637447202e+01 0.000000000000e+00 1.127112684566e-02 -9.604416725988e+07 1.005257864319e+06 -1.057522801905e+07 -3.836377153632e+07 -3.264272341256e-04 1.831618315699e-05 5.605237248719e-04 0.000000000000e+00 4.832772227175e+07 7.553222503287e+07  7.776363174332e-04
1.600000000000e+03 4.537538419095e+06 1.000000000000e+00 5.148575252824e+01 0.000000000000e+00 1.118211662005e-02 -9.572119404136e+07 1.001922444179e+06 -1.054230826282e+07 -3.814844141996e+07 -3.224290617598e-04 1.806840908941e-05 5.537484829244e-04 0.000000000000e+00 4.813731457471e+07 7.529337987590e+07  7.681939131688e-04
1.700000000000e+03 4.540025723702e+06 1.000000000000e+00 5.114882393591e+01 0.000000000000e+00 1.108365723034e-02 -9.536765657212e+07 9.982791569401e+05 -1.050636888538e+07 -3.791382880677e+07 -3.180118528208e-04 1.779776489453e-05 5.463691913106e-04 0.000000000000e+00 4.792928475475e+07 7.503175560966e+07  7.578607998218e-04
1.800000000000e+03 4.542439116959e+06 1.000000000000e+00 5.078330097111e+01 0.000000000000e+00 1.097493926569e-02 -9.498089711560e+07 9.943012515892e+05 -1.046714135573e+07 -3.765825511636e+07 -3.131392386508e-04 1.750226335418e-05 5.383334767683e-04 0.000000000000e+00 4.770209786256e+07 7.474539676739e+07  7.465597348607e-04
1.900000000000e+03 4.544778407473e+06 1.000000000000e+00 5.038789710871e+01 0.000000000000e+00 1.085550332577e-02 -9.455942061728e+07 9.899736580550e+05 -1.042448123587e+07 -3.738077821918e+07 -3.077906820375e-04 1.718078497735e-05 5.296117107534e-04 0.000000000000e+00 4.745489335744e+07 7.443321639335e+07  7.342470673427e-04
2.000000000000e+03 4.547042749809e+06 1.000000000000e+00 4.996201039977e+01 0.000000000000e+00 1.072514079711e-02 -9.410252452558e+07 9.852892701943e+05 -1.037831754840e+07 -3.708095537597e+07 -3.019565328077e-04 1.683280187912e-05 5.201900849686e-04 0.000000000000e+00 4.718726581665e+07 7.409472929591e+07  7.209024180292e-04