 TITLE = "Time curves in points"
 VARIABLES = "TIME"  "PRESSURE1"  "SATURATION1"  "TEMPERATURE1"  "DISPLACEMENT_X1"  "DISPLACEMENT_Y1"  "STRESS_XX"  "STRESS_XY"  "STRESS_YY"  "STRESS_ZZ"  "STRAIN_XX"  "STRAIN_XY"  "STRAIN_YY"  "STRAIN_PLS"  p_(1st_Invariant)  q_(2nd_Invariant)   Effective_Strain
 ZONE T="POINT=POINT18"
0.000000000000e+00 1.000000000000e+05 1.000000000000e+00 2.500000000000e+01 0.000000000000e+00 0.000000000000e+00 -3.130685851467e+07 -1.409868786187e+04 -1.352808692198e+07 -1.044743363099e+07 0.000000000000e+00 0.000000000000e+00 0.000000000000e+00 0.000000000000e+00 1.842745968921e+07 1.950246065449e+07  0.000000000000e+00
1.000000000000e-03 3.083650903743e+05 1.000000000000e+00 2.500000000001e+01 -8.662245365916e-05 6.303347336257e-05 -3.055838061540e+07 -1.351249272038e+04 -1.354850571309e+07 -1.022901589856e+07 1.968794905380e-05 4.354592479654e-08 -8.871070874883e-06 0.000000000000e+00 1.811196740902e+07 1.888966678022e+07  2.531738763365e-05
2.000000000000e-03 3.159689363289e+05 1.000000000000e+00 2.499999999998e+01 -8.632252655390e-05 6.240421105455e-05 -3.056028852100e+07 -1.356054669817e+04 -1.354810876725e+07 -1.022946918647e+07 1.963392039705e-05 3.997620073220e-08 -8.839490763712e-06 0.000000000000e+00 1.811262215824e+07 1.889141268916e+07  2.524254502649e-05
3.000000000000e-03 3.211298792220e+05 1.000000000000e+00 2.499999999994e+01 -8.609449682661e-05 6.190705154194e-05 -3.056195846448e+07 -1.358866176158e+04 -1.354821122230e+07 -1.023000090602e+07 1.959164350807e-05 3.788765316426e-08 -8.823546653872e-06 0.000000000000e+00 1.811339019760e+07 1.889269330976e+07  2.519046561385e-05
4.000000000000e-03 3.246441773541e+05 1.000000000000e+00 2.499999999989e+01 -8.590847938864e-05 6.138365570634e-05 -3.056365715792e+07 -1.360816079364e+04 -1.354895988942e+07 -1.023073511417e+07 1.955581976846e-05 3.643915364020e-08 -8.824083701270e-06 0.000000000000e+00 1.811445072050e+07 1.889364137385e+07  2.515672303586e-05
1.000000000000e-02 3.282972274076e+05 1.000000000000e+00 2.499999999993e+01 -8.482968026393e-05 5.858291476696e-05 -3.057637658617e+07 -1.370398127615e+04 -1.355742473595e+07 -1.023709039661e+07 1.931943721003e-05 2.932106065402e-08 -8.902438938984e-06 0.000000000000e+00 1.812363057291e+07 1.889916706763e+07  2.498973314076e-05
2.000000000000e-02 3.209720134625e+05 1.000000000000e+00 2.499999999911e+01 -8.240937326048e-05 5.672189262151e-05 -3.060071390123e+07 -1.373061059485e+04 -1.356495049969e+07 -1.024664932044e+07 1.877052553576e-05 2.734288269303e-08 -8.826921564144e-06 0.000000000000e+00 1.813743790712e+07 1.891451074607e+07  2.441178757710e-05
3.000000000000e-02 3.083467007468e+05 1.000000000000e+00 2.499999998947e+01 -7.952401939235e-05 5.706017488690e-05 -3.062653423014e+07 -1.377142259450e+04 -1.356608635371e+07 -1.025473617898e+07 1.811185377887e-05 2.431113414763e-08 -8.568741396295e-06 0.000000000000e+00 1.814911892094e+07 1.893456119737e+07  2.359364619460e-05
4.000000000000e-02 2.935043077727e+05 1.000000000000e+00 2.499999996592e+01 -7.633502642931e-05 5.973256699743e-05 -3.065213615278e+07 -1.380195961071e+04 -1.356039139409e+07 -1.026070830469e+07 1.738274703579e-05 2.204267008639e-08 -8.135392512614e-06 0.000000000000e+00 1.815774528385e+07 1.895820561176e+07  2.257789701381e-05
5.000000000000e-02 2.781876004411e+05 1.000000000000e+00 2.500000002206e+01 -7.295418186880e-05 6.340832838292e-05 -3.067809834027e+07 -1.382582156236e+04 -1.355155552280e+07 -1.026584640488e+07 1.660928093627e-05 2.027006796394e-08 -7.616359286051e-06 0.000000000000e+00 1.816516675599e+07 1.898388170633e+07  2.145648213745e-05
6.000000000000e-02 2.628169370989e+05 1.000000000000e+00 2.500000066197e+01 -6.945356823829e-05 6.940140183241e-05 -3.070230259561e+07 -1.384468715048e+04 -1.353614624900e+07 -1.026848569509e+07 1.580829651689e-05 1.886862427459e-08 -6.945984051816e-06 0.000000000000e+00 1.816897817990e+07 1.901179308204e+07  2.019787555120e-05
7.000000000000e-02 2.482548195253e+05 1.000000000000e+00 2.500000344144e+01 -6.587153336884e-05 7.541253425404e-05 -3.072708768200e+07 -1.385962654131e+04 -1.352040504054e+07 -1.027120125804e+07 1.498857136081e-05 1.775884095633e-08 -6.260446827947e-06 0.000000000000e+00 1.817289799353e+07 1.904037413852e+07  1.891260336612e-05
8.000000000000e-02 2.351205283323e+05 1.000000000000e+00 2.500001194551e+01 -6.223011482291e-05 8.220962086672e-05 -3.075144971803e+07 -1.387181864382e+04 -1.350244849108e+07 -1.027312891726e+07 1.415529450815e-05 1.685314191242e-08 -5.521890505387e-06 0.000000000000e+00 1.817567570879e+07 1.906986268461e+07  1.757920577833e-05
9.000000000000e-02 2.243279759683e+05 1.000000000000e+00 2.500003296209e+01 -5.854371468014e-05 8.839170391699e-05 -3.077686144422e+07 -1.388206059703e+04 -1.348600557491e+07 -1.027583262642e+07 1.331185387510e-05 1.609231110271e-08 -4.810730136090e-06 0.000000000000e+00 1.817956654852e+07 1.909937493625e+07  1.626004586481e-05
1.000000000000e-01 2.168958661305e+05 1.000000000000e+00 2.500007760999e+01 -5.482771524674e-05 9.392745118563e-05 -3.080323438323e+07 -1.389107950292e+04 -1.347118741068e+07 -1.027932441452e+07 1.246198255546e-05 1.542233523659e-08 -4.130646192416e-06 0.000000000000e+00 1.818458206948e+07 1.912877256676e+07  1.496128341813e-05
2.000000000000e-01 2.305342222157e+05 1.000000000000e+00 2.502667785271e+01 -1.815301513690e-05 1.887324198713e-04 -3.102021456130e+07 -1.394683201428e+04 -1.322435740547e+07 -1.028084922388e+07 4.459354575037e-06 1.128072010719e-08 5.093961206038e-06 0.000000000000e+00 1.817514039689e+07 1.943552435631e+07  4.808210327061e-06
3.000000000000e-01 2.539215367686e+05 1.000000000000e+00 2.509252329034e+01 1.674727290576e-05 2.983914721146e-04 -3.121653808724e+07 -1.396829981590e+04 -1.295949455798e+07 -1.028545176946e+07 -2.661710409487e-06 9.685969129561e-09 1.510267580600e-05 0.000000000000e+00 1.815382813823e+07 1.973045473864e+07  1.659441923247e-05
4.000000000000e-01 2.778424062252e+05 1.000000000000e+00 2.519884269225e+01 4.885300754406e-05 4.038126825963e-04 -3.141006245419e+07 -1.396515865298e+04 -1.273105398190e+07 -1.031486817184e+07 -8.757149093778e-06 9.919312660846e-09 2.468022072023e-05 0.000000000000e+00 1.815199486931e+07 1.999689605090e+07  3.003214315933e-05
5.000000000000e-01 3.006476905570e+05 1.000000000000e+00 2.534048624400e+01 7.779489623565e-05 5.062272716369e-04 -3.159833761249e+07 -1.395304059983e+04 -1.253435885150e+07 -1.036480213027e+07 -1.389553651736e-05 1.081951089480e-08 3.384072973373e-05 0.000000000000e+00 1.816583286476e+07 2.023618614963e+07  4.252665482955e-05
6.000000000000e-01 3.220253455708e+05 1.000000000000e+00 2.551037593212e+01 1.034842076566e-04 6.060825439451e-04 -3.178026006953e+07 -1.394302916807e+04 -1.236497907664e+07 -1.043087281207e+07 -1.819860245475e-05 1.156321725396e-08 4.258603240978e-05 0.000000000000e+00 1.819203731941e+07 2.045105627825e+07  5.403485877457e-05
7.000000000000e-01 3.420511580479e+05 1.000000000000e+00 2.570176350101e+01 1.260309098898e-04 7.035622754019e-04 -3.195550267186e+07 -1.394019465062e+04 -1.221881554567e+07 -1.050925010473e+07 -2.179645681386e-05 1.177378140754e-08 5.092612014455e-05 0.000000000000e+00 1.822785610742e+07 2.064464031972e+07  6.464181801984e-05
8.000000000000e-01 3.610103644092e+05 1.000000000000e+00 2.590902647514e+01 1.456355398793e-04 7.988316012600e-04 -3.212390896586e+07 -1.394556725045e+04 -1.209215541226e+07 -1.059673773941e+07 -2.480200701774e-05 1.137467399121e-08 5.888018010197e-05 0.000000000000e+00 1.827093403918e+07 2.081979457554e+07  7.444704285056e-05
9.000000000000e-01 3.788546181407e+05 1.000000000000e+00 2.612776104278e+01 1.626318049887e-04 8.918572329950e-04 -3.228641334455e+07 -1.395811437683e+04 -1.198222750135e+07 -1.069122103309e+07 -2.732850446056e-05 1.044260174603e-08 6.647259627262e-05 0.000000000000e+00 1.831995395967e+07 2.097951572843e+07  8.355866311854e-05
1.000000000000e+00 3.956972555865e+05 1.000000000000e+00 2.635461481276e+01 1.772982064095e-04 9.826965741128e-04 -3.244336092972e+07 -1.397607848671e+04 -1.188658350744e+07 -1.079089922898e+07 -2.945565320554e-05 9.108125012415e-09 7.372742046500e-05 0.000000000000e+00 1.837361455538e+07 2.112595431826e+07  9.206007610261e-05
2.000000000000e+00 5.150057622499e+05 1.000000000000e+00 2.862803367889e+01 2.303590263716e-04 1.735802182287e-03 -3.369496887123e+07 -1.415005139277e+04 -1.148001640437e+07 -1.184702788360e+07 -3.671631243245e-05 -3.815576581162e-09 1.280561200367e-04 0.000000000000e+00 1.900733771973e+07 2.203375294035e+07  1.498272539738e-04
3.000000000000e+00 6.107955937086e+05 1.000000000000e+00 3.070915667385e+01 2.466365240468e-04 2.378438361318e-03 -3.473675732500e+07 -1.424919424774e+04 -1.129153584728e+07 -1.283353563407e+07 -3.876959569808e-05 -1.118047437837e-08 1.716985428888e-04 0.000000000000e+00 1.962060960212e+07 2.271352583992e+07  1.940107075537e-04
4.000000000000e+00 6.926709895024e+05 1.000000000000e+00 3.256538003711e+01 2.486460756046e-04 2.938759356228e-03 -3.562639315184e+07 -1.429701737375e+04 -1.119370387930e+07 -1.372103147079e+07 -3.884908104553e-05 -1.473304945353e-08 2.082964327776e-04 0.000000000000e+00 2.018037616731e+07 2.327219141647e+07  2.301929205159e-04
5.000000000000e+00 7.655249434077e+05 1.000000000000e+00 3.421390787268e+01 2.454342453602e-04 3.436085849332e-03 -3.640058823235e+07 -1.431744162632e+04 -1.113430760591e+07 -1.451206626718e+07 -3.822360588417e-05 -1.625027964456e-08 2.398838725124e-04 0.000000000000e+00 2.068232070181e+07 2.375818610524e+07  2.611025540500e-04
6.000000000000e+00 8.320077993301e+05 1.000000000000e+00 3.568672709665e+01 2.408992100091e-04 3.884839709728e-03 -3.708757339528e+07 -1.432498030637e+04 -1.109018174793e+07 -1.521983734127e+07 -3.745155775512e-05 -1.681029587697e-08 2.678114728464e-04 0.000000000000e+00 2.113253082816e+07 2.419832162716e+07  2.883670609778e-04
7.000000000000e+00 8.939780183620e+05 1.000000000000e+00 3.700928500162e+01 2.355413296639e-04 4.292070528496e-03 -3.769902747877e+07 -1.432674362319e+04 -1.105686419517e+07 -1.585553462497e+07 -3.655109603326e-05 -1.694128512659e-08 2.926605953431e-04 0.000000000000e+00 2.153714209964e+07 2.459645821974e+07  3.125432339283e-04
8.000000000000e+00 9.520385370316e+05 1.000000000000e+00 3.821072829296e+01 2.308270509848e-04 4.667502102152e-03 -3.825552874801e+07 -1.432621035082e+04 -1.102482549270e+07 -1.643279745351e+07 -3.577995240197e-05 -1.690167060757e-08 3.152917950668e-04 0.000000000000e+00 2.190438389808e+07 2.496988379129e+07  3.346195560746e-04
9.000000000000e+00 1.007090272365e+06 1.000000000000e+00 3.931176279740e+01 2.264782815550e-04 5.015626783090e-03 -3.876509233442e+07 -1.432468354633e+04 -1.099493351143e+07 -1.696153419506e+07 -3.506780663945e-05 -1.678825084524e-08 3.360408619145e-04 0.000000000000e+00 2.224052001364e+07 2.531973956706e+07  3.548766387815e-04
1.000000000000e+01 1.059630028753e+06 1.000000000000e+00 4.032707742522e+01 2.223404646502e-04 5.339804379586e-03 -3.923408462301e+07 -1.432292108022e+04 -1.096738443566e+07 -1.744883523135e+07 -3.438776743963e-05 -1.665732479153e-08 3.551638660766e-04 0.000000000000e+00 2.255010143001e+07 2.564774713140e+07  3.735467622373e-04
1.100000000000e+01 1.109950425197e+06 1.000000000000e+00 4.126965435284e+01 2.185182264918e-04 5.643646240186e-03 -3.966911890752e+07 -1.432159736384e+04 -1.094064343342e+07 -1.790077433516e+07 -3.375987415102e-05 -1.655899157476e-08 3.729434128725e-04 0.000000000000e+00 2.283684555870e+07 2.595795428481e+07  3.909182034829e-04
1.200000000000e+01 1.158414524223e+06 1.000000000000e+00 4.214857048239e+01 2.148165217678e-04 5.929133395018e-03 -4.007359332595e+07 -1.432015238437e+04 -1.091542432571e+07 -1.832174605410e+07 -3.314711727514e-05 -1.645165024270e-08 3.895162150056e-04 0.000000000000e+00 2.310358790192e+07 2.625068104955e+07  4.071031240451e-04
1.300000000000e+01 1.205265988152e+06 1.000000000000e+00 4.297047243316e+01 2.111471970242e-04 6.197855237243e-03 -4.045037626749e+07 -1.431882032382e+04 -1.089192126649e+07 -1.871498326119e+07 -3.253595884048e-05 -1.635269717286e-08 4.049951391822e-04 0.000000000000e+00 2.335242693172e+07 2.652669504790e+07  4.222044023458e-04
1.400000000000e+01 1.251210412243e+06 1.000000000000e+00 4.374060686271e+01 2.074644365905e-04 6.451351712653e-03 -4.080156418744e+07 -1.431751225733e+04 -1.086955593196e+07 -1.908277166359e+07 -3.191936949259e-05 -1.625552651969e-08 4.194865636968e-04 0.000000000000e+00 2.358463059433e+07 2.678702306623e+07  4.363227826821e-04
1.500000000000e+01 1.295786605080e+06 1.000000000000e+00 4.446330149364e+01 2.037558633020e-04 6.690557584039e-03 -4.112946320778e+07 -1.431649348842e+04 -1.084878437531e+07 -1.942745183443e+07 -3.129606961641e-05 -1.617984654315e-08 4.330604850041e-04 0.000000000000e+00 2.380189980584e+07 2.703231005066e+07  4.495263279470e-04
1.600000000000e+01 1.339131722076e+06 1.000000000000e+00 4.514222039467e+01 2.000343363070e-04 6.916484551205e-03 -4.143596428935e+07 -1.431566670062e+04 -1.082942987714e+07 -1.975081918501e+07 -3.066960819600e-05 -1.611842802121e-08 4.457901536717e-04 0.000000000000e+00 2.400540445050e+07 2.726350934614e+07  4.618892682318e-04
1.700000000000e+01 1.381371180110e+06 1.000000000000e+00 4.578051513604e+01 1.963200872874e-04 7.130022975581e-03 -4.172275152813e+07 -1.431478710105e+04 -1.081131003315e+07 -2.005442661000e+07 -3.004485842265e-05 -1.605308633890e-08 4.577400236621e-04 0.000000000000e+00 2.419616272376e+07 2.748153883598e+07  4.734779379847e-04
1.800000000000e+01 1.422623256371e+06 1.000000000000e+00 4.638092658096e+01 1.926152136506e-04 7.331958647729e-03 -4.199115107297e+07 -1.431410055848e+04 -1.079427322246e+07 -2.033958537191e+07 -2.942237321721e-05 -1.600208603360e-08 4.689644306447e-04 0.000000000000e+00 2.437500322245e+07 2.768708813074e+07  4.843463229218e-04
1.900000000000e+01 1.462974445799e+06 1.000000000000e+00 4.694585902077e+01 1.889203635527e-04 7.522983059151e-03 -4.224232173123e+07 -1.431347860131e+04 -1.077820236789e+07 -2.060744921785e+07 -2.880234053185e-05 -1.595588350069e-08 4.795105766639e-04 0.000000000000e+00 2.454265777232e+07 2.788076253326e+07  4.945411971051e-04
2.000000000000e+01 1.502507803705e+06 1.000000000000e+00 4.747743597238e+01 1.851823276802e-04 7.704808522961e-03 -4.247683428308e+07 -1.653554892519e+04 -1.076303542543e+07 -2.085891378524e+07 -2.817269424054e-05 -1.810239647038e-07 4.894140327439e-04 0.000000000000e+00 2.469959449792e+07 2.806267917571e+07  5.040912678851e-04
2.100000000000e+01 1.541141802649e+06 1.000000000000e+00 4.798108119171e+01 1.819068507628e-04 7.876430750919e-03 -4.269999923923e+07 -1.431278892424e+04 -1.074605311957e+07 -2.109668931800e+07 -2.763001568086e-05 -1.590465034700e-08 4.988764667496e-04 0.000000000000e+00 2.484758055893e+07 2.823910914865e+07  5.132495613258e-04
2.200000000000e+01 1.579012601187e+06 1.000000000000e+00 4.845978648261e+01 1.788267725717e-04 8.041534156415e-03 -4.291173940765e+07 -1.431243837404e+04 -1.072867312379e+07 -2.132221344097e+07 -2.711804022587e-05 -1.587860947504e-08 5.078986197318e-04 0.000000000000e+00 2.498754199080e+07 2.840846451697e+07  5.219862181975e-04
2.300000000000e+01 1.616195875612e+06 1.000000000000e+00 4.891513143571e+01 1.757965006810e-04 8.199308818766e-03 -4.311209181376e+07 -1.431220100853e+04 -1.071153413107e+07 -2.153622890423e+07 -2.661055524614e-05 -1.586097660867e-08 5.164843566684e-04 0.000000000000e+00 2.511995161635e+07 2.856999513832e+07  5.302906265392e-04
2.400000000000e+01 1.652744292730e+06 1.000000000000e+00 4.934819097905e+01 1.727858136974e-04 8.349301930308e-03 -4.330156307130e+07 -1.295254215024e+04 -1.069484711757e+07 -2.173932074603e+07 -2.610464783064e-05 8.514225286423e-08 5.246475712938e-04 0.000000000000e+00 2.524524364497e+07 2.872376736886e+07  5.381749608950e-04
2.500000000000e+01 1.688706439295e+06 1.000000000000e+00 4.975985558927e+01 1.697801165789e-04 8.493931522196e-03 -4.348056082326e+07 -1.431161421079e+04 -1.067866451897e+07 -2.193193593117e+07 -2.559885745554e-05 -1.581738591988e-08 5.324029175468e-04 0.000000000000e+00 2.536372042447e+07 2.886992364302e+07  5.456528889882e-04
2.600000000000e+01 1.724115300473e+06 1.000000000000e+00 5.015093029860e+01 1.667818398664e-04 8.631284207613e-03 -4.364953518094e+07 -1.431136358112e+04 -1.066299228823e+07 -2.211449194194e+07 -2.509439605482e-05 -1.579876771526e-08 5.397656808032e-04 0.000000000000e+00 2.547567313704e+07 2.900868984053e+07  5.527402766272e-04
2.700000000000e+01 1.758998234695e+06 1.000000000000e+00 5.052216664287e+01 1.637895027520e-04 8.762316624364e-03 -4.380885113646e+07 -1.431112917024e+04 -1.064780913071e+07 -2.228735448333e+07 -2.459123715093e-05 -1.578135433610e-08 5.467502353340e-04 0.000000000000e+00 2.558133825017e+07 2.914026226687e+07  5.594513510833e-04
2.800000000000e+01 1.793391626321e+06 1.000000000000e+00 5.087427301815e+01 1.607415711991e-04 8.889545250351e-03 -4.395838075462e+07 -1.850113737730e+04 -1.063316841543e+07 -2.245074893861e+07 -2.407625748657e-05 -3.270391068602e-07 5.533629702403e-04 0.000000000000e+00 2.568076603622e+07 2.926435773222e+07  5.657857131693e-04
2.900000000000e+01 1.827319650863e+06 1.000000000000e+00 5.120791815925e+01 1.578365293439e-04 9.006286321108e-03 -4.410000970416e+07 -1.431075157703e+04 -1.061884009712e+07 -2.260540596511e+07 -2.359235748530e-05 -1.575330455432e-08 5.596395687617e-04 0.000000000000e+00 2.577475192213e+07 2.938269642363e+07  5.718008952154e-04
3.000000000000e+01 1.860795164078e+06 1.000000000000e+00 5.152373277065e+01 1.548760140337e-04 9.119634141080e-03 -4.423248217511e+07 -1.431055523295e+04 -1.060500084578e+07 -2.275122251839e+07 -2.309672014166e-05 -1.573871899412e-08 5.655696415050e-04 0.000000000000e+00 2.586290184642e+07 2.949393112715e+07  5.774645290812e-04
3.100000000000e+01 1.893730297076e+06 1.000000000000e+00 5.182511085877e+01 1.522762810071e-04 9.228840102168e-03 -4.435968283403e+07 -1.431043492712e+04 -1.058953320842e+07 -2.288994412876e+07 -2.266879908778e-05 -1.572978198985e-08 5.712966707063e-04 0.000000000000e+00 2.594638672374e+07 2.960298991106e+07  5.829617231022e-04
3.200000000000e+01 1.926193298048e+06 1.000000000000e+00 5.211364607390e+01 1.498582042926e-04 9.334011337548e-03 -4.448143423196e+07 -1.431034141274e+04 -1.057354654428e+07 -2.302239902102e+07 -2.227124072679e-05 -1.572283520731e-08 5.768102142300e-04 0.000000000000e+00 2.602579326575e+07 2.970867042066e+07  5.882621110355e-04
3.300000000000e+01 1.958214426745e+06 1.000000000000e+00 5.238991565069e+01 1.475250798521e-04 9.435206279784e-03 -4.459757746741e+07 -1.431026817819e+04 -1.055750518240e+07 -2.314887076853e+07 -2.188761027902e-05 -1.571739492638e-08 5.821035582927e-04 0.000000000000e+00 2.610131780611e+07 2.981037785947e+07  5.933502141466e-04
3.400000000000e+01 1.989824627156e+06 1.000000000000e+00 5.265418165861e+01 1.452341743775e-04 9.532452152184e-03 -4.470809163043e+07 -1.431017616363e+04 -1.054166101017e+07 -2.326951531549e+07 -2.151133887544e-05 -1.571055955909e-08 5.871731392913e-04 0.000000000000e+00 2.617308931869e+07 2.990783375342e+07  5.982189518260e-04
3.500000000000e+01 2.021048805452e+06 1.000000000000e+00 5.290663245768e+01 1.429880598839e-04 9.625812172210e-03 -4.481316209517e+07 -1.431013333851e+04 -1.052605454376e+07 -2.338446424171e+07 -2.114442459214e-05 -1.570737826477e-08 5.920223395892e-04 0.000000000000e+00 2.624122696021e+07 3.000112301713e+07  6.028727143606e-04
3.600000000000e+01 2.051915338922e+06 1.000000000000e+00 5.314745069514e+01 1.408012758562e-04 9.715335585650e-03 -4.491305048728e+07 -1.431006581237e+04 -1.051073657087e+07 -2.349387437302e+07 -2.079075999303e-05 -1.570236203715e-08 5.966550977449e-04 0.000000000000e+00 2.630588714372e+07 3.009039218815e+07  6.073174417400e-04
3.700000000000e+01 2.082462268392e+06 1.000000000000e+00 5.337683019204e+01 1.387475361768e-04 9.801090544224e-03 -4.500848640887e+07 -1.430956341424e+04 -1.049565247102e+07 -2.359801573816e+07 -2.046741494697e-05 -1.566504103289e-08 6.010834721589e-04 0.000000000000e+00 2.636738487269e+07 3.017629129406e+07  6.115741011159e-04
3.800000000000e+01 2.113406985946e+06 1.000000000000e+00 5.359501617476e+01 1.391995292679e-04 9.883172783074e-03 -4.511953705356e+07 -1.429710624507e+04 -1.047869004541e+07 -2.370236091300e+07 -2.071647525564e-05 -1.473965132320e-08 6.055891830329e-04 0.000000000000e+00 2.643352933732e+07 3.027829596374e+07  6.162086537292e-04
3.900000000000e+01 2.143157951093e+06 1.000000000000e+00 5.380215925707e+01 1.363710666770e-04 9.961652697492e-03 -4.519756971713e+07 -1.431161390985e+04 -1.046485113297e+07 -2.379387253513e+07 -2.021582822346e-05 -1.581736356370e-08 6.095022028881e-04 0.000000000000e+00 2.648543112841e+07 3.034916830638e+07  6.198574091048e-04
4.000000000000e+01 2.172544100508e+06 1.000000000000e+00 5.399845068684e+01 1.333966603949e-04 1.003659625203e-02 -4.526906926714e+07 -1.431141847001e+04 -1.045138864245e+07 -2.387973894534e+07 -1.968220198751e-05 -1.580284517558e-08 6.131915620580e-04 0.000000000000e+00 2.653339895164e+07 3.041460304241e+07  6.232657874334e-04
4.200000000000e+01 2.229827607615e+06 1.000000000000e+00 5.435968914170e+01 1.282203290942e-04 1.017694194131e-02 -4.540062485858e+07 -1.431101734712e+04 -1.042139693331e+07 -2.403621070561e+07 -1.875674428831e-05 -1.577304747530e-08 6.201173480649e-04 0.000000000000e+00 2.661941083250e+07 3.053971972067e+07  6.297052676452e-04
4.400000000000e+01 2.285593809817e+06 1.000000000000e+00 5.469219727680e+01 1.233014570016e-04 1.030778155462e-02 -4.551940665453e+07 -1.431062737033e+04 -1.039109732752e+07 -2.417872652661e+07 -1.787519478608e-05 -1.574407777087e-08 6.265362067742e-04 0.000000000000e+00 2.669641016955e+07 3.065552717041e+07  6.356623305402e-04
5.000000000000e+01 2.437116677583e+06 1.000000000000e+00 5.537543859348e+01 1.093189758588e-04 1.058148201800e-02 -4.573825118019e+07 -1.430948567079e+04 -1.033120155105e+07 -2.446434272501e+07 -1.539510408437e-05 -1.565926580521e-08 6.393695086978e-04 0.000000000000e+00 2.684459848542e+07 3.087057865031e+07  6.472044026061e-04
6.500000000000e+01 2.768502507778e+06 1.000000000000e+00 5.631568882543e+01 8.293845048412e-05 1.104582167963e-02 -4.593513893746e+07 -1.430727544677e+04 -1.011748822898e+07 -2.478607808079e+07 -1.075790756866e-05 -1.549507773551e-08 6.592576024466e-04 0.000000000000e+00 2.694623508241e+07 3.118778313558e+07  6.647018519835e-04
8.000000000000e+01 3.023556371648e+06 1.000000000000e+00 5.663857051803e+01 6.340112368968e-05 1.126618835206e-02 -4.589881062117e+07 -1.430558892813e+04 -9.966236738296e+06 -2.484103899571e+07 -7.367164694721e-06 -1.536979349374e-08 6.669169203691e-04 0.000000000000e+00 2.690202878506e+07 3.127171710807e+07  6.706308532188e-04
1.000000000000e+02 3.324236305755e+06 1.000000000000e+00 5.678970312784e+01 4.518329788325e-05 1.145067473649e-02 -4.577227696625e+07 -1.430400014654e+04 -9.782611426079e+06 -2.479922464837e+07 -4.220447556427e-06 -1.525176971802e-08 6.721841847787e-04 0.000000000000e+00 2.678470434690e+07 3.130994130876e+07  6.743043150107e-04
1.860000000000e+02 3.922717203444e+06 1.000000000000e+00 5.651434017969e+01 1.193790935530e-05 1.167000300458e-02 -4.520798982601e+07 -1.430104452832e+04 -9.307804147995e+06 -2.438800444151e+07 1.464895683555e-06 -1.503220950735e-08 6.745459902814e-04 0.000000000000e+00 2.630126613851e+07 3.122265836807e+07  6.738147372182e-04
2.720000000000e+02 4.213038211866e+06 1.000000000000e+00 5.565863393689e+01 -2.812636394540e-06 1.150217366183e-02 -4.462990468320e+07 -1.472840388764e+04 -9.181101167857e+06 -2.387556089573e+07 3.903012144376e-06 -4.677890477109e-08 6.602184835574e-04 0.000000000000e+00 2.589552224893e+07 3.084873502243e+07  6.582756606013e-04
3.580000000000e+02 4.354403695033e+06 1.000000000000e+00 5.491482443758e+01 -1.084459292692e-05 1.132602080134e-02 -4.417520202919e+07 -1.429889496482e+04 -9.107107400937e+06 -2.345575374052e+07 5.199130671621e-06 -1.487252764752e-08 6.473739862782e-04 0.000000000000e+00 2.557935439022e+07 3.053646735276e+07  6.447901424379e-04
4.440000000000e+02 4.426532454171e+06 1.000000000000e+00 5.428887039408e+01 -1.601483045376e-05 1.116600179905e-02 -4.381497218846e+07 -2.289486572777e+04 -9.072269827736e+06 -2.311756953008e+07 6.017968368256e-06 -6.534303557524e-07 6.361068254666e-04 0.000000000000e+00 2.533493718209e+07 3.027136793165e+07  6.331203041347e-04
5.300000000000e+02 4.465496897816e+06 1.000000000000e+00 5.377624848000e+01 -1.945824280820e-05 1.101878556787e-02 -4.353094984082e+07 -1.429805658025e+04 -9.056776977615e+06 -2.284789199903e+07 6.550775841353e-06 -1.481024765104e-08 6.266656801749e-04 0.000000000000e+00 2.514520627249e+07 3.005373151898e+07  6.234161063310e-04
6.160000000000e+02 4.488012317570e+06 1.000000000000e+00 5.336720510256e+01 -2.179957569942e-05 1.090056143600e-02 -4.331021470281e+07 -1.429783211480e+04 -9.051837223571e+06 -2.263673969619e+07 6.906709718995e-06 -1.479357307445e-08 6.190063569337e-04 0.000000000000e+00 2.499959720752e+07 2.987959000821e+07  6.155820627653e-04
7.020000000000e+02 4.501822583052e+06 1.000000000000e+00 5.305912792041e+01 -2.341495774835e-05 1.081178033225e-02 -4.314622273038e+07 -1.791170743005e+04 -9.051117420841e+06 -2.247929968719e+07 7.150068360916e-06 -2.832528822075e-07 6.131853207009e-04 0.000000000000e+00 2.489221327947e+07 2.974824295732e+07  6.096419315764e-04
7.880000000000e+02 4.511441115793e+06 1.000000000000e+00 5.280009929575e+01 -2.437362605147e-05 1.072815284652e-02 -4.301540697164e+07 -1.429759360333e+04 -9.060579480838e+06 -2.235210005752e+07 7.284381726387e-06 -1.477585507951e-08 6.081093150848e-04 0.000000000000e+00 2.480936217000e+07 2.963585926141e+07  6.045000426655e-04
8.740000000000e+02 4.519827170313e+06 1.000000000000e+00 5.241137392742e+01 -2.639038848054e-05 1.061262584593e-02 -4.280842995824e+07 -1.429739304165e+04 -9.059153884125e+06 -2.215327282969e+07 7.587088047582e-06 -1.476095621189e-08 6.007772545005e-04 0.000000000000e+00 2.467361889069e+07 2.947122604325e+07  5.970198691476e-04
9.370000000000e+02 4.525201003895e+06 1.000000000000e+00 5.210907651755e+01 -2.798199959164e-05 1.052676360277e-02 -4.264963082729e+07 -2.957727363349e+04 -9.065905932303e+06 -2.200172154267e+07 7.856293678848e-06 -1.149837800177e-06 5.948974163358e-04 0.000000000000e+00 2.457241943409e+07 2.933891025622e+07  5.910117891233e-04
1.000000000000e+03 4.529391023270e+06 1.000000000000e+00 5.185429707449e+01 -2.772348558104e-05 1.043816911371e-02 -4.252651595901e+07 -1.429724348120e+04 -9.066838870660e+06 -2.187580919671e+07 7.752387365219e-06 -1.474984600697e-08 5.901860200612e-04 0.000000000000e+00 2.448972134213e+07 2.924100398345e+07  5.863482649357e-04
1.100000000000e+03 4.533536318282e+06 1.000000000000e+00 5.158773659102e+01 -2.801749395236e-05 1.035499656090e-02 -4.239254350737e+07 -1.429721362129e+04 -9.067266238166e+06 -2.174237759708e+07 7.772476154215e-06 -1.474762784265e-08 5.852141155677e-04 0.000000000000e+00 2.440072911421e+07 2.913471410204e+07  5.813668466119e-04
1.200000000000e+03 4.536797683576e+06 1.000000000000e+00 5.136659202352e+01 -2.839108616941e-05 1.028587752006e-02 -4.228093127012e+07 -1.429717389141e+04 -9.068580369960e+06 -2.163181564628e+07 7.811486793665e-06 -1.474467647986e-08 5.810587182140e-04 0.000000000000e+00 2.432710909545e+07 2.904550167776e+07  5.771926207835e-04
1.300000000000e+03 4.539703053277e+06 1.000000000000e+00 5.115655246742e+01 -2.878529663014e-05 1.022008944899e-02 -4.217484572171e+07 -1.429713585392e+04 -9.070264689072e+06 -2.152690928890e+07 7.855285317647e-06 -1.474185083784e-08 5.770996359444e-04 0.000000000000e+00 2.425733989989e+07 2.896048847495e+07  5.732123635002e-04
1.400000000000e+03 4.542442559548e+06 1.000000000000e+00 5.094021040401e+01 -2.916772470133e-05 1.015211225896e-02 -4.206578307437e+07 -1.429709521661e+04 -9.072107931851e+06 -2.141895148609e+07 7.896322400408e-06 -1.473883206647e-08 5.730213113940e-04 0.000000000000e+00 2.418561416410e+07 2.887317116493e+07  5.691142370858e-04
1.500000000000e+03 4.545082447112e+06 1.000000000000e+00 5.070749561335e+01 -2.951961112550e-05 1.007872608223e-02 -4.194884265067e+07 -1.429705010947e+04 -9.074031300361e+06 -2.130292386662e+07 7.930226557240e-06 -1.473548125039e-08 5.686402746974e-04 0.000000000000e+00 2.410859927255e+07 2.877980388734e+07  5.647169246133e-04
1.600000000000e+03 4.547643483985e+06 1.000000000000e+00 5.045226628069e+01 -2.982949969996e-05 9.997957142441e-03 -4.182104451009e+07 -1.429700945917e+04 -9.076007354005e+06 -2.117577460715e+07 7.954327855940e-06 -1.473246151331e-08 5.638441916390e-04 0.000000000000e+00 2.402427549041e+07 2.867812948682e+07  5.599094059470e-04
1.700000000000e+03 4.550130762187e+06 1.000000000000e+00 5.017073126110e+01 -3.012683046184e-05 9.911475720036e-03 -4.168025449831e+07 -1.974563314582e+04 -9.078074498178e+06 -2.103554809783e+07 7.975257947215e-06 -4.194873639507e-07 5.585589987952e-04 0.000000000000e+00 2.393129236478e+07 2.856649748700e+07  5.546148534697e-04
1.800000000000e+03 4.552544178096e+06 1.000000000000e+00 4.986060253076e+01 -3.029782602117e-05 9.809870938528e-03 -4.152625686316e+07 -1.429692106732e+04 -9.080080697443e+06 -2.088133320422e+07 7.967188346892e-06 -1.472589526206e-08 5.527565010595e-04 0.000000000000e+00 2.382922358827e+07 2.844501720690e+07  5.488162816921e-04
1.900000000000e+03 4.554883463012e+06 1.000000000000e+00 4.952059327245e+01 -3.044960041416e-05 9.701399489277e-03 -4.135754022976e+07 -1.429687849054e+04 -9.082179244785e+06 -2.071227212211e+07 7.954394538149e-06 -1.472273241499e-08 5.463991433945e-04 0.000000000000e+00 2.371733053222e+07 2.831242049602e+07  5.424656879316e-04