 TITLE = "Time curves in points"
 VARIABLES = "TIME"  "PRESSURE1"  "SATURATION1"  "TEMPERATURE1"  "DISPLACEMENT_X1"  "DISPLACEMENT_Y1"  "STRESS_XX"  "STRESS_XY"  "STRESS_YY"  "STRESS_ZZ"  "STRAIN_XX"  "STRAIN_XY"  "STRAIN_YY"  "STRAIN_PLS"  p_(1st_Invariant)  q_(2nd_Invariant)   Effective_Strain
 ZONE T="POINT=POINT1"
0.000000000000e+00 -7.000000000000e+07 8.894919982500e-01 2.500000000000e+01 0.000000000000e+00 0.000000000000e+00 0.000000000000e+00 0.000000000000e+00 0.000000000000e+00 0.000000000000e+00 0.000000000000e+00 0.000000000000e+00 0.000000000000e+00 0.000000000000e+00 -0.000000000000e+00 0.000000000000e+00  0.000000000000e+00
1.000000000000e-03 -7.000000000000e+07 6.684759947500e-01 3.310906198127e+01 3.398015630871e-05 6.368715578957e-05 -5.906039639242e+06 -1.222257993480e+02 6.402298252378e+06 7.221772298311e+03 -7.199686859358e-03 -3.547952939794e-07 1.662443320033e-04 0.000000000000e+00 -1.678267951445e+05 1.066205527680e+07  7.284231981544e-03
2.000000000000e-03 -7.015907468557e+07 6.678662382825e-01 3.680326466676e+01 3.394319450707e-05 6.351683271086e-05 -5.981786646602e+06 -1.862643021969e+02 6.334002418726e+06 -4.190184365363e+04 -7.225647656747e-03 -5.384708018387e-07 1.664079247061e-04 0.000000000000e+00 -1.034379761568e+05 1.066801404070e+07  7.310272331310e-03
3.000000000000e-03 -7.037130641980e+07 6.670521896015e-01 3.937002790478e+01 3.390391229424e-05 6.320917707284e-05 -6.074161138354e+06 -2.129684623021e+02 6.255683920706e+06 -9.802485112959e+04 -7.272230250092e-03 -6.149402082444e-07 1.667975127733e-04 0.000000000000e+00 -2.783264374092e+04 1.067962779158e+07  7.357047320298e-03
4.000000000000e-03 -7.061820306147e+07 6.661049305177e-01 4.139950255385e+01 3.386338797414e-05 6.276620234223e-05 -6.176990470325e+06 -2.239835235066e+02 6.170916937697e+06 -1.588069408629e+05 -7.330514075982e-03 -6.464348721980e-07 1.673159764614e-04 0.000000000000e+00 5.496015783042e+04 1.069473597223e+07  7.415587948933e-03
1.000000000000e-02 -7.212935213468e+07 6.602938382220e-01 4.814735692673e+01 3.363930391309e-05 6.002141749319e-05 -6.778986415998e+06 -2.314178430846e+02 5.697814122313e+06 -5.018422833857e+05 -7.714069655876e-03 -6.674144827964e-07 1.707775097317e-04 0.000000000000e+00 5.276715256901e+05 1.080529569249e+07  7.800860629160e-03
2.000000000000e-02 -7.524730887248e+07 6.482622428692e-01 5.436284629791e+01 3.325122385568e-05 5.822060954508e-05 -7.925062087017e+06 -2.331642717377e+02 4.857930849757e+06 -1.129212062753e+06 -8.510940874252e-03 -6.719913805573e-07 1.777946062375e-04 0.000000000000e+00 1.398781100004e+06 1.107777880613e+07  8.601216554836e-03
3.000000000000e-02 -7.893055024811e+07 6.339986431016e-01 5.830140956728e+01 3.284111587038e-05 5.858735456813e-05 -9.176153557137e+06 -2.340867299523e+02 4.005163782946e+06 -1.791748480863e+06 -9.424029436828e-03 -6.743536410459e-07 1.853372359279e-04 0.000000000000e+00 2.320912751685e+06 1.144291827449e+07  9.518051567869e-03
4.000000000000e-02 -8.274830749169e+07 6.191580354209e-01 6.102918881716e+01 3.243464674356e-05 6.128346449367e-05 -1.038292874308e+07 -2.347791445555e+02 3.244716525208e+06 -2.411132847205e+06 -1.033519505534e-02 -6.762140922309e-07 1.922246186009e-04 0.000000000000e+00 3.183115021691e+06 1.185855973164e+07  1.043263568977e-02
5.000000000000e-02 -8.646459287078e+07 6.110473741565e-01 6.303909205742e+01 3.198361216916e-05 6.498053703911e-05 -1.190869692727e+07 -2.353722261124e+02 2.154229277823e+06 -3.235289663224e+06 -1.142561588965e-02 -6.777996429416e-07 2.027572641687e-04 0.000000000000e+00 4.329919104223e+06 1.228903579957e+07  1.152833192459e-02
6.000000000000e-02 -8.999223897662e+07 6.035635936297e-01 6.459149961390e+01 3.153890118197e-05 7.099413209240e-05 -1.335999346147e+07 -2.364009199265e+02 1.212474770084e+06 -3.991643918473e+06 -1.249546896134e-02 -6.802522094914e-07 2.117901586357e-04 0.000000000000e+00 5.379720869953e+06 1.279073209749e+07  1.260269885290e-02
7.000000000000e-02 -9.331717724394e+07 5.965377210412e-01 6.584443827577e+01 3.110629287319e-05 7.702433748845e-05 -1.472044460148e+07 -2.373986489901e+02 4.081086226369e+05 -4.678075640804e+06 -1.352670602718e-02 -6.826717519266e-07 2.195030140036e-04 0.000000000000e+00 6.330137206551e+06 1.333400854390e+07  1.363778250521e-02
8.000000000000e-02 -9.644616664931e+07 5.900015889661e-01 6.688978125050e+01 3.069155512070e-05 8.384541530600e-05 -1.599360572825e+07 -2.395195272922e+02 -2.948663580219e+05 -5.306228607787e+06 -1.451088097243e-02 -6.885850502504e-07 2.260791334105e-04 0.000000000000e+00 7.198233564688e+06 1.388856003105e+07  1.462523118410e-02
9.000000000000e-02 -9.940042842152e+07 5.839014715254e-01 6.778635860755e+01 3.029532533416e-05 9.005349534679e-05 -1.717927346715e+07 -2.414402606042e+02 -9.344644725409e+05 -5.886773583674e+06 -1.543189069904e-02 -6.941544146813e-07 2.319996479696e-04 0.000000000000e+00 8.000170507787e+06 1.442116047292e+07  1.554918869392e-02
1.000000000000e-01 -1.021958459431e+08 5.772939146897e-01 6.856670078143e+01 2.993097248712e-05 9.561209796373e-05 -1.820459829205e+07 -2.456121477789e+02 -1.450595139689e+06 -6.377352770146e+06 -1.624227081497e-02 -7.058358753185e-07 2.377014889008e-04 0.000000000000e+00 8.677515400628e+06 1.491397497946e+07  1.636241659032e-02
2.000000000000e-01 -1.187516710670e+08 5.380454154885e-01 7.279261529147e+01 2.764517496736e-05 1.904601918371e-04 -2.374040256552e+07 -2.179258755019e+02 -4.120216167716e+06 -8.988353935059e+06 -2.060732519023e-02 -6.301064355409e-07 2.729010231445e-04 0.000000000000e+00 1.228299088943e+07 1.769566922564e+07  2.074512202384e-02
3.000000000000e-01 -1.341076676642e+08 5.086722603772e-01 7.558238921836e+01 2.565456881836e-05 3.002700872760e-04 -2.847854210382e+07 -2.238383851519e+02 -6.827152443505e+06 -1.134379548308e+07 -2.416346450131e-02 -6.458882239084e-07 3.101720680688e-04 0.000000000000e+00 1.554983001013e+07 1.978360786898e+07  2.432003405477e-02
4.000000000000e-01 -1.471562399833e+08 4.912841615116e-01 7.759060143924e+01 2.383692469696e-05 4.058361329818e-04 -3.290137728130e+07 -2.332321558383e+02 -9.412668708150e+06 -1.356524146322e+07 -2.745602536387e-02 -6.685794444402e-07 3.431389301726e-04 0.000000000000e+00 1.862642915089e+07 2.171231723725e+07  2.762919299614e-02
5.000000000000e-01 -1.578188180374e+08 4.765742252800e-01 7.913407266982e+01 2.229974630673e-05 5.083764779243e-04 -3.626139679197e+07 -2.390606211696e+02 -1.129662137927e+07 -1.522901675188e+07 -2.997973438935e-02 -6.796689550523e-07 3.646506141824e-04 0.000000000000e+00 2.092901164104e+07 2.324935219815e+07  3.016371286944e-02
6.000000000000e-01 -1.664470098918e+08 4.628553694168e-01 8.036202916563e+01 2.106453906635e-05 6.083222442724e-04 -3.858883030205e+07 -2.447049229434e+02 -1.253779903224e+07 -1.636100779914e+07 -3.174696167166e-02 -6.892839542897e-07 3.800668386599e-04 0.000000000000e+00 2.249587904448e+07 2.436543914109e+07  3.193869119060e-02
7.000000000000e-01 -1.732705733319e+08 4.540722545021e-01 8.135405466211e+01 1.996903675377e-05 7.058107364921e-04 -4.065319941576e+07 -2.530909796841e+02 -1.376537653743e+07 -1.740307494958e+07 -3.326498486763e-02 -6.936250010981e-07 3.944893323038e-04 0.000000000000e+00 2.394055030092e+07 2.526614490728e+07  3.346397351167e-02
8.000000000000e-01 -1.785574940279e+08 4.487369206620e-01 8.216210460697e+01 1.900555729592e-05 8.010132296527e-04 -4.245763059697e+07 -2.417279086029e+02 -1.491812891587e+07 -1.833803799940e+07 -3.456244752388e-02 -6.502111042132e-07 4.087581198314e-04 0.000000000000e+00 2.523793250408e+07 2.599879495675e+07  3.476862873880e-02
9.000000000000e-01 -1.825455412918e+08 4.447347596458e-01 8.283348455068e+01 1.815762350791e-05 8.939111203330e-04 -4.388533507364e+07 -2.341853514008e+02 -1.584463893382e+07 -1.908212157140e+07 -3.558272750919e-02 -6.028681528876e-07 4.189574436803e-04 0.000000000000e+00 2.627069852629e+07 2.657029670705e+07  3.579404520279e-02
1.000000000000e+00 -1.854867369496e+08 4.417945790757e-01 8.339527909978e+01 1.741600157382e-05 9.845731428619e-04 -4.503504903855e+07 -2.301757916699e+02 -1.656600717244e+07 -1.967458817590e+07 -3.641378927428e-02 -5.586646406216e-07 4.255603318747e-04 0.000000000000e+00 2.709188146230e+07 2.704905355196e+07  3.662842360916e-02
2.000000000000e+00 -1.860998069573e+08 4.410419397069e-01 8.535753337621e+01 1.343121550961e-05 1.736066170899e-03 -4.834112404903e+07 -1.357315920698e+02 -1.916540016906e+07 -2.153509177396e+07 -3.865545885942e-02 -1.828240881829e-07 4.424992788060e-04 0.000000000000e+00 2.968053866402e+07 2.806600852156e+07  3.887859717134e-02
3.000000000000e+00 -1.774891045591e+08 4.495795705967e-01 8.593561654880e+01 1.080647104278e-05 2.373764879127e-03 -4.884894225472e+07 2.366445018920e+02 -2.006307219474e+07 -2.197082532356e+07 -3.886345981965e-02 1.074024575272e-06 4.410646198893e-04 0.000000000000e+00 3.029427992434e+07 2.788098821071e+07  3.908585866712e-02
4.000000000000e+00 -1.655179175177e+08 4.640228363747e-01 8.594181031554e+01 8.866789861356e-06 2.928910073784e-03 -4.829983316517e+07 5.466215097698e+02 -2.033274922859e+07 -2.187391356254e+07 -3.828700254989e-02 2.234760301506e-06 4.288530686549e-04 0.000000000000e+00 3.016883198543e+07 2.722923245390e+07  3.850322055004e-02
5.000000000000e+00 -1.531383082038e+08 4.825992390655e-01 8.575846034184e+01 7.313522678874e-06 1.562250507626e-02 -4.748861989605e+07 -5.834825431980e+06 -2.054156751571e+07 -2.167310593625e+07 -3.746995325757e-02 -1.787362826138e-02 4.159444922352e-04 0.000000000000e+00 2.990109778267e+07 2.826778996601e+07  4.876633664020e-02
6.000000000000e+00 -1.414940110981e+08 4.976938471865e-01 8.561855106412e+01 6.059212432723e-06 3.864341293142e-03 -4.598213875646e+07 1.024504171086e+03 -2.017158182745e+07 -2.106982609049e+07 -3.618465669331e-02 4.652796130586e-06 3.966303983626e-04 0.000000000000e+00 2.907451555813e+07 2.537336221716e+07  3.638459420455e-02
7.000000000000e+00 -1.312343112477e+08 5.110276234051e-01 8.535781864288e+01 5.021941067598e-06 4.267688181574e-03 -4.443322963997e+07 1.419525647870e+03 -1.959484158363e+07 -2.039258251852e+07 -3.494998032211e-02 5.704136177340e-06 3.785834781648e-04 0.000000000000e+00 2.814021791404e+07 2.444928054100e+07  3.514080296023e-02
8.000000000000e+00 -1.218124764483e+08 5.294013438150e-01 8.528219645955e+01 4.000577464921e-06 4.640813011507e-03 -4.343030902084e+07 1.471203530412e+03 -1.940618137664e+07 -2.001328297305e+07 -3.408174381768e-02 5.961813436883e-06 3.651152891938e-04 0.000000000000e+00 2.761659112351e+07 2.372640304938e+07  3.426576196742e-02
9.000000000000e+00 -1.135309103382e+08 5.485280286890e-01 8.520333285370e+01 3.059439145060e-06 4.986362516447e-03 -4.259154492438e+07 1.343698861656e+03 -1.942488881128e+07 -1.974864142254e+07 -3.328973910771e-02 6.243434643916e-06 3.546898259834e-04 0.000000000000e+00 2.725502505274e+07 2.300648845917e+07  3.346849538662e-02
1.000000000000e+01 -1.060027445315e+08 5.654957296450e-01 8.512020156231e+01 2.232846132058e-06 5.308114350731e-03 -4.156126321406e+07 1.354352457195e+03 -1.929549412277e+07 -1.937520603894e+07 -3.235912538595e-02 6.885769107048e-06 3.442136337878e-04 0.000000000000e+00 2.674398779192e+07 2.222602046250e+07  3.253260015962e-02
1.100000000000e+01 -9.920712270919e+07 5.774470277640e-01 8.508991990004e+01 1.565212443828e-06 5.611558996062e-03 -4.016521637136e+07 1.221681709002e+03 -1.881799561230e+07 -1.877566120772e+07 -3.120587161448e-02 6.869719997922e-06 3.336985850037e-04 0.000000000000e+00 2.591962439713e+07 2.136841951796e+07  3.137405416496e-02
1.200000000000e+01 -9.310164047655e+07 5.881956850364e-01 8.506072825299e+01 9.433174039160e-07 5.895624471999e-03 -3.882750076437e+07 1.416550390180e+03 -1.833302989891e+07 -1.819294552708e+07 -3.010991325295e-02 7.272827628428e-06 3.223735240400e-04 0.000000000000e+00 2.511782539679e+07 2.056487103737e+07  3.027239003308e-02
1.300000000000e+01 -8.749469803634e+07 5.980313959578e-01 8.501131501078e+01 3.455699540668e-07 6.163147415994e-03 -3.757441916639e+07 1.655932319324e+03 -1.773444820447e+07 -1.760633147643e+07 -2.914047199174e-02 7.768050835656e-06 3.085979254268e-04 0.000000000000e+00 2.430506628243e+07 1.990433877465e+07  2.929599308457e-02
1.400000000000e+01 -8.219117501004e+07 6.142796245438e-01 8.492254068530e+01 -2.794497155309e-07 6.416354464317e-03 -3.677354399627e+07 1.771904305599e+03 -1.750581849613e+07 -1.728163803603e+07 -2.845729166170e-02 7.664143589007e-06 2.978071505580e-04 0.000000000000e+00 2.385366684281e+07 1.938078842086e+07  2.860736092298e-02
1.500000000000e+01 -7.715797079714e+07 6.332700086739e-01 8.481755996686e+01 -8.614424779092e-07 6.417294756896e-03 -3.608150906569e+07 6.398268872886e+04 -1.739551509950e+07 -1.702904955688e+07 -2.783127236122e-02 1.995101230072e-04 2.885263894039e-04 0.000000000000e+00 2.350202457402e+07 1.887222090189e+07  2.797878550109e-02
1.600000000000e+01 -7.243872962949e+07 6.510621273698e-01 8.470075214783e+01 -1.379775256673e-06 6.880986604279e-03 -3.527886302285e+07 1.468811497279e+03 -1.719544365431e+07 -1.671271711188e+07 -2.713173592577e-02 7.484525458242e-06 2.781311442145e-04 0.000000000000e+00 2.306234126302e+07 1.832955083882e+07  2.727186829117e-02
1.700000000000e+01 -6.798215553438e+07 6.678476574629e-01 8.456897407415e+01 -1.844166282109e-06 7.094530191776e-03 -3.438150372733e+07 1.305541951732e+03 -1.692895650754e+07 -1.634474609382e+07 -2.636779375747e-02 7.296119135010e-06 2.683939173129e-04 0.000000000000e+00 2.255173544290e+07 1.775186387993e+07  2.650301300020e-02
1.800000000000e+01 -6.374879025665e+07 6.837835352598e-01 8.442126090808e+01 -2.262733066236e-06 7.296649039686e-03 -3.341159720271e+07 1.174736476818e+03 -1.660743360945e+07 -1.593598178804e+07 -2.555292916719e-02 7.309123711623e-06 2.572501475852e-04 0.000000000000e+00 2.198500420006e+07 1.714975078564e+07  2.568252366360e-02
1.900000000000e+01 -5.970229216432e+07 6.990165051390e-01 8.425635538595e+01 -2.636899891232e-06 7.488099138415e-03 -3.236264491376e+07 9.586507726138e+02 -1.624529867254e+07 -1.548839609490e+07 -2.467772499700e-02 6.987722790940e-06 2.462011760433e-04 0.000000000000e+00 2.136544656040e+07 1.650881628231e+07  2.480174504844e-02
2.000000000000e+01 -5.591167071265e+07 7.132931286141e-01 8.407728790692e+01 -2.971183488695e-06 7.670996074368e-03 -3.127724146067e+07 8.154491051981e+02 -1.584896005808e+07 -1.501793439499e+07 -2.377729662570e-02 6.623782453355e-06 2.350875327943e-04 0.000000000000e+00 2.071471197125e+07 1.586013147701e+07  2.389571046440e-02
2.100000000000e+01 -5.230263440728e+07 7.252707812851e-01 8.398894203317e+01 -3.238466281497e-06 7.671163821817e-03 -3.007458188054e+07 2.252087678728e+04 -1.535588475480e+07 -1.447901241576e+07 -2.280471096430e-02 7.440657752297e-05 2.238916809894e-04 0.000000000000e+00 1.996982635037e+07 1.517619484996e+07  2.291783942126e-02
2.200000000000e+01 -4.892775116033e+07 7.360609239684e-01 8.389868230616e+01 -3.513153041945e-06 8.010288659089e-03 -2.888578768293e+07 4.509866875458e+02 -1.485446372975e+07 -1.394152229379e+07 -2.184689619474e-02 6.038155819734e-06 2.124177459987e-04 0.000000000000e+00 1.922725790216e+07 1.450935186675e+07  2.195387830128e-02
2.300000000000e+01 -4.578630615739e+07 7.458698488471e-01 8.379980679486e+01 -3.754887344007e-06 8.169721367321e-03 -2.772080229780e+07 4.364086342057e+02 -1.433332439453e+07 -1.340593726037e+07 -2.092056997657e-02 5.688638134484e-06 2.009746339916e-04 0.000000000000e+00 1.848668798423e+07 1.387443645143e+07  2.102178013214e-02
2.400000000000e+01 -4.273737073394e+07 7.561677676796e-01 8.368692950605e+01 -3.969962069986e-06 8.321603751250e-03 -2.655998205128e+07 3.497660481167e+02 -1.379954391093e+07 -1.286847855418e+07 -2.000132354190e-02 5.375806871362e-06 1.892721552660e-04 0.000000000000e+00 1.774266817213e+07 1.325052702682e+07  2.009663025707e-02
2.500000000000e+01 -3.972039158849e+07 7.706768477826e-01 8.355718401152e+01 -4.175473366886e-06 8.466553761223e-03 -2.548327818738e+07 2.056323749842e+02 -1.334789273939e+07 -1.238522683617e+07 -1.912300918346e-02 5.129534128241e-06 1.783474700156e-04 0.000000000000e+00 1.707213258765e+07 1.264423297526e+07  1.921280581524e-02
2.600000000000e+01 -3.674690124019e+07 7.856724813805e-01 8.341465053006e+01 -4.355799682178e-06 8.488121588919e-03 -2.435617786730e+07 8.406057588764e+04 -1.286136088946e+07 -1.187523311324e+07 -1.820636951711e-02 2.617244739507e-04 1.670936246810e-04 0.000000000000e+00 1.636425729000e+07 1.201914398743e+07  1.829610555961e-02
2.700000000000e+01 -3.382536455472e+07 8.010888112752e-01 8.325927530749e+01 -4.508922412878e-06 8.737200323801e-03 -2.318154488000e+07 -8.225878452690e+01 -1.234374753637e+07 -1.134052225472e+07 -1.725312984701e-02 4.579422745062e-06 1.554968930013e-04 0.000000000000e+00 1.562193822370e+07 1.137264545039e+07  1.733140328423e-02
2.800000000000e+01 -3.094423927768e+07 8.170103691295e-01 8.309101801184e+01 -4.638740165740e-06 8.863396618100e-03 -2.195486959218e+07 -2.352823374854e+02 -1.179371333112e+07 -1.077923709997e+07 -1.625912970780e-02 4.284122258690e-06 1.435162589868e-04 0.000000000000e+00 1.484260667442e+07 1.070450887519e+07  1.633136247539e-02
2.900000000000e+01 -2.809010172549e+07 8.334581952813e-01 8.290988131333e+01 -4.746550507366e-06 8.877845752778e-03 -2.066620179090e+07 9.180068303424e+04 -1.120434043217e+07 -1.018604151495e+07 -1.521676103005e-02 2.858262527652e-04 1.311008693502e-04 0.000000000000e+00 1.401886124601e+07 1.001119564934e+07  1.529074962923e-02
3.000000000000e+01 -2.525050444036e+07 8.504808458058e-01 8.271590725045e+01 -4.825288313274e-06 9.098387000665e-03 -1.930254530980e+07 -5.333449158971e+02 -1.056954602601e+07 -9.554860769931e+06 -1.411612401249e-02 3.736062992603e-06 1.182567060295e-04 0.000000000000e+00 1.314231736858e+07 9.282031519426e+06  1.417562379532e-02
3.100000000000e+01 -2.240930336434e+07 8.681657841571e-01 8.259379694597e+01 -4.878506514982e-06 9.209117540983e-03 -1.785376009976e+07 -7.205833899562e+02 -9.883196290023e+06 -8.880651170224e+06 -1.294836658040e-02 3.352412737064e-06 1.049055977434e-04 0.000000000000e+00 1.220586918667e+07 8.516210164712e+06  1.300113810928e-02
3.200000000000e+01 -1.960626441026e+07 8.861325927307e-01 8.247041877047e+01 -4.914020228176e-06 9.315858740372e-03 -1.634372533140e+07 -8.846968119644e+02 -9.160035750962e+06 -8.175403601666e+06 -1.173326086538e-02 3.017257255493e-06 9.132660178523e-05 0.000000000000e+00 1.122638822801e+07 7.723224101182e+06  1.177919085665e-02
3.300000000000e+01 -1.677025586447e+07 9.047373319876e-01 8.234022763556e+01 -4.921661390144e-06 9.418685515163e-03 -1.471982503873e+07 -1.043063440317e+03 -8.366401476233e+06 -7.411907388689e+06 -1.043039542604e-02 2.675180180795e-06 7.712270269197e-05 0.000000000000e+00 1.016604463455e+07 6.880505680370e+06  1.046917085590e-02
3.400000000000e+01 -1.387183936673e+07 9.239741155197e-01 8.220176821192e+01 -4.893691819379e-06 9.517452112641e-03 -1.294945741212e+07 -1.144474681611e+03 -7.480918035510e+06 -6.573042107928e+06 -9.016052842041e-03 2.438047273730e-06 6.221890356567e-05 0.000000000000e+00 9.001139185185e+06 5.974438952899e+06  9.047323736718e-03
3.500000000000e+01 -1.087324520762e+07 9.437517685567e-01 8.205443793115e+01 -4.831848929555e-06 9.612599163626e-03 -1.100075869965e+07 -1.272824876031e+03 -6.482931512540e+06 -5.642101930627e+06 -7.467277592157e-03 2.054577186254e-06 4.638522863124e-05 0.000000000000e+00 7.708597380938e+06 4.991641461836e+06  7.490578767358e-03
3.600000000000e+01 -7.735473393132e+06 9.636979376660e-01 8.189801272900e+01 -4.735726813887e-06 9.703837949640e-03 -8.836699066674e+06 -1.347224520867e+03 -5.349704123692e+06 -4.599915530301e+06 -5.758658057693e-03 1.636370496589e-06 2.952092573945e-05 0.000000000000e+00 6.262106240222e+06 3.916098970361e+06  5.773475821418e-03
3.700000000000e+01 -4.373864827505e+06 9.829980562499e-01 8.173237003409e+01 -4.629492217718e-06 9.787586421643e-03 -6.405515494263e+06 -5.103621475463e+02 -4.056096806218e+06 -3.421441237442e+06 -3.853333733380e-03 3.785525583585e-06 1.108099461386e-05 0.000000000000e+00 4.627684512641e+06 2.722797880467e+06  3.858891733413e-03
3.800000000000e+01 1.969316288603e+06 1.000000000000e+00 8.155815882168e+01 -5.238569172522e-06 9.777938952874e-03 -2.262549834741e+06 3.445746474165e+03 -2.063872304495e+06 -1.466876372588e+06 -6.125820115560e-04 2.486517698789e-05 -2.520845023349e-05 0.000000000000e+00 1.931099503941e+06 7.173020288293e+05  6.019175813787e-04
3.900000000000e+01 2.143157955406e+06 1.000000000000e+00 8.137922592332e+01 -5.273174750084e-06 9.968899760906e-03 -2.192831220488e+06 -5.418197708728e+02 -2.083551753885e+06 -1.449382147862e+06 -5.556900811624e-04 -1.738739027877e-06 -2.521561061607e-05 0.000000000000e+00 1.908588374078e+06 6.952810137008e+05  5.435294824124e-04
4.000000000000e+01 2.172543662218e+06 1.000000000000e+00 8.118933148663e+01 -5.307862494772e-06 1.004384350180e-02 -2.196479079817e+06 -5.418452772994e+02 -2.089907753103e+06 -1.452200487722e+06 -5.578078922164e-04 -1.738825381762e-06 -2.540453553977e-05 0.000000000000e+00 1.912862440214e+06 6.971299693121e+05  5.455577468645e-04
4.200000000000e+01 2.229827642243e+06 1.000000000000e+00 8.091450170479e+01 -5.375338633541e-06 1.018418947682e-02 -2.203847236370e+06 -5.418922229071e+02 -2.102990684688e+06 -1.458095236954e+06 -5.614324283722e-04 -1.738983456695e-06 -2.576659982323e-05 0.000000000000e+00 1.921644386004e+06 7.007888373262e+05  5.490110716325e-04
4.400000000000e+01 2.285593828988e+06 1.000000000000e+00 8.061916135758e+01 -5.439986852801e-06 1.031502924672e-02 -2.210503295996e+06 -5.418993644005e+02 -2.115557263562e+06 -1.463582437600e+06 -5.648181579277e-04 -1.739019548992e-06 -2.610661312978e-05 0.000000000000e+00 1.929880999053e+06 7.042650258956e+05  5.522360819461e-04
5.000000000000e+01 2.437116700762e+06 1.000000000000e+00 7.942409551491e+01 -5.602812972217e-06 1.058872971007e-02 -2.222571142492e+06 -5.419180612459e+02 -2.148132830661e+06 -1.475608823306e+06 -5.728593330749e-04 -1.739097187219e-06 -2.685682765867e-05 0.000000000000e+00 1.948770932153e+06 7.126654443252e+05  5.599223103957e-04
6.500000000000e+01 2.768502511615e+06 1.000000000000e+00 7.676123227512e+01 -5.934217494443e-06 1.105306931841e-02 -2.237410405484e+06 -5.420934520947e+02 -2.217562034965e+06 -1.497542422579e+06 -5.831625871810e-04 -1.739664774985e-06 -2.822830789864e-05 0.000000000000e+00 1.984171621009e+06 7.301467644773e+05  5.695812731201e-04
8.000000000000e+01 3.023556526520e+06 1.000000000000e+00 7.431444502711e+01 -6.168576468218e-06 1.127343534824e-02 -2.239603732494e+06 -5.421227684201e+02 -2.269670193605e+06 -1.510560374769e+06 -5.878625761167e-04 -1.739765652615e-06 -2.900542569992e-05 0.000000000000e+00 2.006611433622e+06 7.445326352697e+05  5.739177634460e-04
1.000000000000e+02 3.324236264444e+06 1.000000000000e+00 7.184336420131e+01 -6.438592261126e-06 1.145792105195e-02 -2.241644562758e+06 -5.421743155789e+02 -2.335361412430e+06 -1.527479738528e+06 -5.901578772514e-04 -1.739929273906e-06 -2.979301574494e-05 0.000000000000e+00 2.034828571239e+06 7.653394040634e+05  5.758475866076e-04
1.860000000000e+02 3.922717154583e+06 1.000000000000e+00 6.661921363956e+01 -6.948066846006e-06 1.167724715331e-02 -2.231140762959e+06 -5.420973804877e+02 -2.461149456847e+06 -1.554567451888e+06 -5.872429417210e-04 -1.739685985175e-06 -3.109463009182e-05 0.000000000000e+00 2.082285890564e+06 8.162561299772e+05  5.723374232887e-04
2.720000000000e+02 4.213038212850e+06 1.000000000000e+00 6.336129277135e+01 -7.158183898405e-06 1.150915667948e-02 -2.211498242541e+06 -5.420630288000e+02 -2.523065170673e+06 -1.562401350071e+06 -5.815078602490e-04 -1.739576562045e-06 -3.114490464998e-05 0.000000000000e+00 2.098988254428e+06 8.489044309362e+05  5.665857994480e-04
3.580000000000e+02 4.354403612221e+06 1.000000000000e+00 6.123180507666e+01 -7.241573770739e-06 1.133326337260e-02 -2.192057756424e+06 -5.420291015272e+02 -2.549267726631e+06 -1.561189890200e+06 -5.760523410307e-04 -1.739471799398e-06 -3.095874307596e-05 0.000000000000e+00 2.100838457752e+06 8.665716361245e+05  5.612218493982e-04
4.440000000000e+02 4.426533012997e+06 1.000000000000e+00 5.967385347842e+01 -7.269371929900e-06 1.116867428112e-02 -2.174528824549e+06 -5.419993080633e+02 -2.559632790784e+06 -1.556649218954e+06 -5.715997160335e-04 -1.739382394277e-06 -3.069130452707e-05 0.000000000000e+00 2.096936944762e+06 8.763726603902e+05  5.568968728087e-04
5.300000000000e+02 4.465497970193e+06 1.000000000000e+00 5.850929450882e+01 -7.274046113460e-06 1.102602764566e-02 -2.159792118189e+06 -5.419866070030e+02 -2.563253385871e+06 -1.551515233850e+06 -5.680170177985e-04 -1.739345739264e-06 -3.042374906948e-05 0.000000000000e+00 2.091520245970e+06 8.821557723245e+05  5.534408782971e-04
6.160000000000e+02 4.488012566474e+06 1.000000000000e+00 5.764205174370e+01 -7.270194066244e-06 1.090780341986e-02 -2.148034547077e+06 -5.419719236750e+02 -2.564268604328e+06 -1.546945746374e+06 -5.651932160580e-04 -1.739303283801e-06 -3.018814720162e-05 0.000000000000e+00 2.086416299260e+06 8.858628834258e+05  5.507282771326e-04
7.020000000000e+02 4.501822166731e+06 1.000000000000e+00 5.701255833833e+01 -7.264519631451e-06 1.081711631450e-02 -2.139193889886e+06 -5.419855209099e+02 -2.564364521443e+06 -1.543342003557e+06 -5.630823283796e-04 -1.739347397463e-06 -3.000235395233e-05 0.000000000000e+00 2.082300138296e+06 8.883406668901e+05  5.487049575535e-04
7.880000000000e+02 4.511440545639e+06 1.000000000000e+00 5.653877449925e+01 -7.258384124893e-06 1.073539487511e-02 -2.132309834576e+06 -5.419893948737e+02 -2.564717576356e+06 -1.540640236629e+06 -5.613959644316e-04 -1.739360968735e-06 -2.983385812430e-05 0.000000000000e+00 2.079222549187e+06 8.904452618047e+05  5.470977577600e-04
8.740000000000e+02 4.519827537308e+06 1.000000000000e+00 5.574293736180e+01 -7.242611522244e-06 1.061986777348e-02 -2.120406997686e+06 -5.419597403599e+02 -2.561938928429e+06 -1.534996561341e+06 -5.587384654654e-04 -1.739273927503e-06 -2.958239532184e-05 0.000000000000e+00 2.072447495819e+06 8.922634735579e+05  5.445585771596e-04
9.370000000000e+02 4.525199865194e+06 1.000000000000e+00 5.522755780847e+01 -7.230191663795e-06 1.052491236902e-02 -2.112066736814e+06 -5.419853987437e+02 -2.560607799668e+06 -1.531275977462e+06 -5.566161053157e-04 -1.739354764085e-06 -2.938052345357e-05 0.000000000000e+00 2.067983504648e+06 8.938771598797e+05  5.425312040642e-04
1.000000000000e+03 4.529391087550e+06 1.000000000000e+00 5.483601685492e+01 -7.219763580410e-06 1.044541105234e-02 -2.105255879694e+06 -5.419505070366e+02 -2.559604378173e+06 -1.528296710824e+06 -5.546850898348e-04 -1.739249872492e-06 -2.921437506293e-05 0.000000000000e+00 2.064385656230e+06 8.952406680911e+05  5.406785785561e-04
1.100000000000e+03 4.533534316503e+06 1.000000000000e+00 5.445290499192e+01 -7.208853086759e-06 1.036223856786e-02 -2.098287930891e+06 -5.419536284779e+02 -2.558654908095e+06 -1.525292120564e+06 -5.525941152313e-04 -1.739262420552e-06 -2.904210212000e-05 0.000000000000e+00 2.060744986516e+06 8.966890111090e+05  5.386689895100e-04
1.200000000000e+03 4.536792191496e+06 1.000000000000e+00 5.411538595189e+01 -7.199463626361e-06 1.029311957325e-02 -2.092364419628e+06 -5.419477966156e+02 -2.557681708607e+06 -1.522675110376e+06 -5.509143628925e-04 -1.739246990221e-06 -2.889730258948e-05 0.000000000000e+00 2.057573746203e+06 8.978603758728e+05  5.370575623088e-04
1.300000000000e+03 4.539701378245e+06 1.000000000000e+00 5.378897448315e+01 -7.190315653191e-06 1.022733151746e-02 -2.086685170008e+06 -5.419350583078e+02 -2.556663278813e+06 -1.520137643038e+06 -5.493352765830e-04 -1.739210374082e-06 -2.875884643592e-05 0.000000000000e+00 2.054495363953e+06 8.989556938058e+05  5.355437825649e-04
1.400000000000e+03 4.542441856371e+06 1.000000000000e+00 5.345626143746e+01 -7.180682474204e-06 1.015935443141e-02 -2.080846972161e+06 -5.419670076619e+02 -2.555568937784e+06 -1.517518700179e+06 -5.477058107566e-04 -1.739310579736e-06 -2.861571834033e-05 0.000000000000e+00 2.051311536708e+06 9.000693708874e+05  5.339818300866e-04
1.500000000000e+03 4.545080037729e+06 1.000000000000e+00 5.310717615767e+01 -7.170104525156e-06 1.008596823308e-02 -2.074611699631e+06 -5.419361159568e+02 -2.554368641485e+06 -1.514719930472e+06 -5.459372582418e-04 -1.739218101381e-06 -2.846146297867e-05 0.000000000000e+00 2.047900090529e+06 9.012537713956e+05  5.322860569150e-04
1.600000000000e+03 4.547638542918e+06 1.000000000000e+00 5.273557662307e+01 -7.161728314571e-06 1.008582669200e-02 -2.068700222721e+06 -1.463561606298e+04 -2.552449150809e+06 -1.511785826174e+06 -5.445175616159e-04 -4.528128554833e-05 -2.834036741013e-05 0.000000000000e+00 2.044311733235e+06 9.023391915721e+05  5.366767258213e-04
1.700000000000e+03 4.550130380914e+06 1.000000000000e+00 5.233767161028e+01 -7.145029305009e-06 9.915826509797e-03 -2.060413952946e+06 -5.419661430664e+02 -2.551559463956e+06 -1.508355278844e+06 -5.417839118054e-04 -1.739314231739e-06 -2.810514405364e-05 0.000000000000e+00 2.040109565249e+06 9.039550394891e+05  5.283009246331e-04
1.800000000000e+03 4.552542703729e+06 1.000000000000e+00 5.191117290378e+01 -7.130219752446e-06 9.817113188635e-03 -2.052307891570e+06 -5.419376273560e+02 -2.549923065563e+06 -1.504727349253e+06 -5.393479564540e-04 -1.739228856204e-06 -2.789905520008e-05 0.000000000000e+00 2.035652768796e+06 9.055112255743e+05  5.259623102030e-04
1.900000000000e+03 4.554883063139e+06 1.000000000000e+00 5.145479378253e+01 -7.113790100795e-06 9.708641779104e-03 -2.043479750090e+06 -5.419411912726e+02 -2.548122020513e+06 -1.500780454435e+06 -5.366535567178e-04 -1.739241825350e-06 -2.767300208693e-05 0.000000000000e+00 2.030794075013e+06 9.072244663913e+05  5.233747174575e-04