 TITLE = "Time curves in points"
 VARIABLES = "TIME"  "PRESSURE1"  "SATURATION1"  "TEMPERATURE1"  "DISPLACEMENT_X1"  "DISPLACEMENT_Y1"  "STRESS_XX"  "STRESS_XY"  "STRESS_YY"  "STRESS_ZZ"  "STRAIN_XX"  "STRAIN_XY"  "STRAIN_YY"  "STRAIN_PLS"  p_(1st_Invariant)  q_(2nd_Invariant)   Effective_Strain
 ZONE T="POINT=POINT1"
0.000000000000e+00 -7.000000000000e+07 8.894919982500e-01 2.500000000000e+01 0.000000000000e+00 0.000000000000e+00 0.000000000000e+00 0.000000000000e+00 0.000000000000e+00 0.000000000000e+00 0.000000000000e+00 0.000000000000e+00 0.000000000000e+00 0.000000000000e+00 -0.000000000000e+00 0.000000000000e+00  0.000000000000e+00
1.000000000000e-03 -7.000000000000e+07 6.684759947500e-01 3.310906198127e+01 4.122283119484e-05 6.348407920203e-05 1.506477534352e+07 -9.393929477280e+01 2.097110977914e+07 1.071406009024e+07 -5.962720398730e-03 -2.734149436925e-07 1.679174787499e-04 0.000000000000e+00 -1.558331507097e+07 8.916854211379e+06  6.048427566997e-03
2.000000000000e-03 -7.015907468557e+07 6.678662382825e-01 3.680326466676e+01 4.119110961006e-05 6.323224329553e-05 1.500799482428e+07 -1.456732526841e+02 2.091875953162e+07 1.067507478450e+07 -5.996645768299e-03 -4.218234102218e-07 1.675859405526e-04 0.000000000000e+00 -1.553394304680e+07 8.906301500125e+06  6.082170630044e-03
3.000000000000e-03 -7.037130641980e+07 6.670521896015e-01 3.937002790478e+01 4.116012244381e-05 6.289216774720e-05 1.494174816911e+07 -1.672902259547e+02 2.086191988117e+07 1.063281007199e+07 -6.053268162079e-03 -4.837460562036e-07 1.673344729500e-04 0.000000000000e+00 -1.547882604076e+07 8.895225356372e+06  6.138646219439e-03
4.000000000000e-03 -7.061820306147e+07 6.661049305177e-01 4.139950255385e+01 4.112983843971e-05 6.243659011680e-05 1.486957910802e+07 -1.762521035905e+02 2.080207539841e+07 1.058822067913e+07 -6.122967938938e-03 -5.093894935009e-07 1.671189493901e-04 0.000000000000e+00 -1.541995839519e+07 8.883900344030e+06  6.208214708920e-03
1.000000000000e-02 -7.212935213468e+07 6.602938382220e-01 4.814735692673e+01 4.096652078609e-05 5.968819025947e-05 1.444927377796e+07 -1.826912753379e+02 2.047318285574e+07 1.033992108940e+07 -6.578699304518e-03 -5.276783945010e-07 1.662233580522e-04 0.000000000000e+00 -1.508745924103e+07 8.827719250236e+06  6.663366196554e-03
2.000000000000e-02 -7.524730887248e+07 6.482622428692e-01 5.436284629791e+01 4.070947833025e-05 5.789502369120e-05 1.366019608758e+07 -1.847940482232e+02 1.990374566837e+07 9.894515260094e+06 -7.525175307242e-03 -5.335110646278e-07 1.646099001019e-04 0.000000000000e+00 -1.448615233868e+07 8.756339333112e+06  7.608815875904e-03
3.000000000000e-02 -7.893055024811e+07 6.339986431016e-01 5.830140956728e+01 4.045112219406e-05 5.827061284035e-05 1.279066616484e+07 -1.863349334449e+02 1.932432353323e+07 9.420838119700e+06 -8.620742019870e-03 -5.378267835421e-07 1.622100694934e-04 0.000000000000e+00 -1.384527593926e+07 8.721337145349e+06  8.702980932399e-03
4.000000000000e-02 -8.274830749169e+07 6.191580354209e-01 6.102918881716e+01 4.018882692931e-05 6.097590680665e-05 1.192686709219e+07 -1.878902277497e+02 1.879375142212e+07 8.965010792309e+06 -9.731853846644e-03 -5.422520143618e-07 1.589250097481e-04 0.000000000000e+00 -1.322854310221e+07 8.733007377804e+06  9.812281707163e-03
5.000000000000e-02 -8.646459287078e+07 6.110473741565e-01 6.303909205742e+01 3.992608970939e-05 6.468161461263e-05 1.098747229349e+07 -1.893348711773e+02 1.818680570544e+07 8.455429979739e+06 -1.098133113631e-02 -5.463263193976e-07 1.681345455092e-04 0.000000000000e+00 -1.254323599289e+07 8.744750241858e+06  1.106635643587e-02
6.000000000000e-02 -8.999223897662e+07 6.035635936297e-01 6.459149961390e+01 3.966354652855e-05 7.070313113516e-05 1.007738365055e+07 -1.909478461739e+02 1.765379275749e+07 7.978471735038e+06 -1.218914530407e-02 -5.509193189851e-07 1.750830910137e-04 0.000000000000e+00 -1.190321604769e+07 8.815306100497e+06  1.227762320157e-02
7.000000000000e-02 -9.331717724394e+07 5.965377210412e-01 6.584443827577e+01 3.940343838004e-05 7.674160689788e-05 9.206629177431e+06 -1.926975996557e+02 1.718372909777e+07 7.534435731281e+06 -1.333781386387e-02 -5.559654312356e-07 1.798668864189e-04 0.000000000000e+00 -1.130826466883e+07 8.931383340663e+06  1.342865081617e-02
8.000000000000e-02 -9.644616664931e+07 5.900015889661e-01 6.688978125050e+01 3.914921190135e-05 8.356972156763e-05 8.379983515583e+06 -1.950783662157e+02 1.676014769288e+07 7.119958329099e+06 -1.442131260488e-02 -5.628256382926e-07 1.831766994074e-04 0.000000000000e+00 -1.075336317919e+07 9.076014166662e+06  1.451376795822e-02
9.000000000000e-02 -9.940042842152e+07 5.839014715254e-01 6.778635860755e+01 3.889870965248e-05 8.978396622808e-05 7.604667820625e+06 -1.975937118669e+02 1.637417791173e+07 6.734825528009e+06 -1.543407834913e-02 -5.701289658914e-07 1.861399607156e-04 0.000000000000e+00 -1.023789042012e+07 9.235205668086e+06  1.552798513281e-02
1.000000000000e-01 -1.021958459431e+08 5.772939146897e-01 6.856670078143e+01 3.865450608162e-05 9.534967643786e-05 6.901273195854e+06 -2.025997059486e+02 1.604154898506e+07 6.391496603126e+06 -1.635046950680e-02 -5.840937240259e-07 1.874940701980e-04 0.000000000000e+00 -9.778106261347e+06 9.405530949861e+06  1.644501821890e-02
2.000000000000e-01 -1.187516710670e+08 5.380454154885e-01 7.279261529147e+01 3.692159262726e-05 1.902727000003e-04 2.954044999877e+06 -1.876379926619e+02 1.422243665366e+07 4.487532046346e+06 -2.131536548160e-02 -5.434029708583e-07 1.993105636839e-04 0.000000000000e+00 -7.221337899959e+06 1.058528698027e+07  2.141571639497e-02
3.000000000000e-01 -1.341076676642e+08 5.086722603772e-01 7.558238921836e+01 3.540508981881e-05 3.001368282528e-04 -3.351478265116e+05 -2.032255837600e+02 1.251104799007e+07 2.843019083415e+06 -2.542297533707e-02 -5.882470127390e-07 2.227040469910e-04 0.000000000000e+00 -5.006306415657e+06 1.158870732767e+07  2.553505575898e-02
4.000000000000e-01 -1.471562399833e+08 4.912841615116e-01 7.759060143924e+01 3.409683774365e-05 4.057415924047e-04 -3.243825870959e+06 -2.186592605144e+02 1.092718214956e+07 1.364985844416e+06 -2.899196362090e-02 -6.302675225536e-07 2.497359449867e-04 0.000000000000e+00 -3.016114041004e+06 1.251986845398e+07  2.911763485006e-02
5.000000000000e-01 -1.578188180374e+08 4.765742252800e-01 7.913407266982e+01 3.293365503602e-05 5.083200481361e-04 -5.538839428525e+06 -2.268433383080e+02 9.690730262430e+06 2.073251055960e+05 -3.169911102171e-02 -6.489239522249e-07 2.643826185092e-04 0.000000000000e+00 -1.453071979834e+06 1.332090788014e+07  3.183212580045e-02
6.000000000000e-01 -1.664470098918e+08 4.628553694168e-01 8.036202916563e+01 3.193229641308e-05 6.083322235778e-04 -7.266123260201e+06 -2.493231654395e+02 8.759526520868e+06 -6.594296300517e+05 -3.365327582807e-02 -7.037527479926e-07 2.701827784848e-04 0.000000000000e+00 -2.779912102050e+05 1.394967001355e+07  3.378917740561e-02
7.000000000000e-01 -1.732705733319e+08 4.540722545021e-01 8.135405466211e+01 3.105522433774e-05 7.058255432124e-04 -8.733807888283e+06 -2.615278122144e+02 7.914019081637e+06 -1.413096184995e+06 -3.529816817164e-02 -7.239452996968e-07 2.807617833735e-04 0.000000000000e+00 7.442949972137e+05 1.445230158609e+07  3.543938320104e-02
8.000000000000e-01 -1.785574940279e+08 4.487369206620e-01 8.216210460697e+01 3.029177147947e-05 8.010155973952e-04 -9.970418421870e+06 -2.536770754636e+02 7.167230676983e+06 -2.059051695883e+06 -3.667222116096e-02 -6.856909472276e-07 2.943924752059e-04 0.000000000000e+00 1.620746480257e+06 1.485619444741e+07  3.682030009624e-02
9.000000000000e-01 -1.825455412918e+08 4.447347596458e-01 8.283348455068e+01 2.959151266285e-05 8.938949536495e-04 -1.097841321013e+07 -2.421462090914e+02 6.541800180477e+06 -2.588872534351e+06 -3.774086571130e-02 -6.332608804518e-07 3.044925661226e-04 0.000000000000e+00 2.341828521336e+06 1.517747433831e+07  3.789402953781e-02
1.000000000000e+00 -1.854867369496e+08 4.417945790757e-01 8.339527909978e+01 2.896633474408e-05 9.845415143489e-04 -1.182191463879e+07 -2.381689959131e+02 6.008052412009e+06 -3.033916962259e+06 -3.858909593615e-02 -5.992629405190e-07 3.109908472418e-04 0.000000000000e+00 2.949259729679e+06 1.544172656636e+07  3.874552744761e-02
2.000000000000e+00 -1.860998069573e+08 4.410419397069e-01 8.535753337621e+01 2.501318456506e-05 1.735886697830e-03 -1.518267941222e+07 -1.259864777622e+02 3.314157272255e+06 -4.942814770173e+06 -4.092246362599e-02 -1.826703409337e-07 3.265055466652e-04 0.000000000000e+00 5.603778970045e+06 1.604938289505e+07  4.108668940849e-02
3.000000000000e+00 -1.774891045591e+08 4.495795705967e-01 8.593561654880e+01 2.205161588052e-05 2.373388165342e-03 -1.672413700633e+07 2.514985146970e+02 1.651027133266e+06 -5.918648442072e+06 -4.114418323547e-02 1.122374731155e-06 3.246546342472e-04 0.000000000000e+00 6.997252771712e+06 1.599539353947e+07  4.130746746394e-02
4.000000000000e+00 -1.655179175177e+08 4.640228363747e-01 8.594181031554e+01 1.964409130502e-05 2.928422571787e-03 -1.744074503116e+07 5.524824014511e+02 4.864326014325e+05 -6.465999249785e+06 -4.047895229314e-02 2.270032548153e-06 3.182112405769e-04 0.000000000000e+00 7.806770559839e+06 1.565511183789e+07  4.063899248541e-02
5.000000000000e+00 -1.531383082038e+08 4.825992390655e-01 8.575846034184e+01 1.760010709209e-05 3.420061856454e-03 -1.779127810929e+07 8.784768722461e+02 -4.504587073134e+05 -6.826079169142e+06 -3.952464198375e-02 3.546860798977e-06 3.176141805788e-04 0.000000000000e+00 8.355938661914e+06 1.519190814599e+07  3.968440282060e-02
6.000000000000e+00 -1.414940110981e+08 4.976938471865e-01 8.561855106412e+01 1.578839319687e-05 3.863643148455e-03 -1.775989744838e+07 1.138943892352e+03 -1.072225479043e+06 -6.959664176832e+06 -3.817106407437e-02 4.617489080115e-06 3.049763026933e-04 0.000000000000e+00 8.597262368086e+06 1.465921854465e+07  3.832446316740e-02
7.000000000000e+00 -1.312343112477e+08 5.110276234051e-01 8.535781864288e+01 1.421496618605e-05 4.266774053819e-03 -1.767059011306e+07 1.513307303064e+03 -1.568752721323e+06 -7.039114477253e+06 -3.686284395031e-02 5.854314176538e-06 2.875564779607e-04 0.000000000000e+00 8.759485770545e+06 1.418136652558e+07  3.700746148044e-02
8.000000000000e+00 -1.218124764483e+08 5.294013438150e-01 8.528219645955e+01 1.277301265268e-05 3.338975703008e-03 -1.771687126075e+07 5.764841890326e+05 -2.134434162635e+06 -7.194539310694e+06 -3.584575679941e-02 1.768887194649e-03 2.821842131772e-04 0.000000000000e+00 9.015281578026e+06 1.380453700445e+07  3.611786124417e-02
9.000000000000e+00 -1.135309103382e+08 5.485280286890e-01 8.520333285370e+01 1.144312948523e-05 4.985322883952e-03 -1.775879497925e+07 1.508102035405e+03 -2.687168803020e+06 -7.349003749599e+06 -3.493272365660e-02 6.303844928694e-06 2.824195043690e-04 0.000000000000e+00 9.264989177289e+06 1.336507365779e+07  3.507478787622e-02
1.000000000000e+01 -1.060027445315e+08 5.654957296450e-01 8.512020156231e+01 1.020255894607e-05 5.307097401002e-03 -1.768814493389e+07 1.558925295205e+03 -3.141105556647e+06 -7.435243607534e+06 -3.393264571773e-02 6.693724580474e-06 2.804166633722e-04 0.000000000000e+00 9.421498032692e+06 1.294561656378e+07  3.407372143778e-02
1.100000000000e+01 -9.920712270919e+07 5.774470277640e-01 8.508991990004e+01 9.076639987725e-06 5.610609354777e-03 -1.745480487107e+07 1.500564731876e+03 -3.432838184280e+06 -7.415235334028e+06 -3.278498542941e-02 6.621980222195e-06 2.716149123256e-04 0.000000000000e+00 9.434292796459e+06 1.251535071069e+07  3.292163523827e-02
1.200000000000e+01 -9.310164047655e+07 5.881956850364e-01 8.506072825299e+01 8.020745792978e-06 5.894740846979e-03 -1.720973665871e+07 1.638015314634e+03 -3.675533587901e+06 -7.377856822538e+06 -3.167673790989e-02 7.061953406268e-06 2.625302298008e-04 0.000000000000e+00 9.421042356382e+06 1.211502635794e+07  3.180881792254e-02
1.300000000000e+01 -8.749469803634e+07 5.980313959578e-01 8.501131501078e+01 7.028031828556e-06 6.162366373637e-03 -1.700714117316e+07 1.834838975546e+03 -3.880182675449e+06 -7.344266937420e+06 -3.063314078968e-02 7.627203156712e-06 2.485972856938e-04 0.000000000000e+00 9.410530262009e+06 1.178321004375e+07  3.075819574400e-02
1.400000000000e+01 -8.219117501004e+07 6.142796245438e-01 8.492254068530e+01 6.091499889818e-06 6.415687140388e-03 -1.693400100339e+07 1.786057596912e+03 -4.176318102841e+06 -7.389247401635e+06 -2.980429596233e-02 7.477553621586e-06 2.438272931694e-04 0.000000000000e+00 9.499855502622e+06 1.149312246799e+07  2.992695738143e-02
1.500000000000e+01 -7.715797079714e+07 6.332700086739e-01 8.481755996686e+01 5.215021054035e-06 6.654792916579e-03 -1.685660542102e+07 1.640905972653e+03 -4.470972434804e+06 -7.435713291131e+06 -2.901544962200e-02 7.193414115758e-06 2.431001214217e-04 0.000000000000e+00 9.587763715652e+06 1.120149136260e+07  2.913776293742e-02
1.600000000000e+01 -7.243872962949e+07 6.510621273698e-01 8.470075214783e+01 4.395351797186e-06 6.880466762084e-03 -1.671485986658e+07 1.637609764785e+03 -4.705839658817e+06 -7.442219247123e+06 -2.817521043033e-02 7.258378124797e-06 2.399435667758e-04 0.000000000000e+00 9.620972924173e+06 1.090151869580e+07  2.829594801815e-02
1.700000000000e+01 -6.798215553438e+07 6.678476574629e-01 8.456897407415e+01 3.614608937866e-06 7.093969907282e-03 -1.652702604941e+07 1.576267495692e+03 -4.902011594181e+06 -7.421385210643e+06 -2.730446163625e-02 7.133671345787e-06 2.355711199110e-04 0.000000000000e+00 9.616807618079e+06 1.059247172515e+07  2.742300884790e-02
1.800000000000e+01 -6.374879025665e+07 6.837835352598e-01 8.442126090808e+01 2.868710125508e-06 7.296159617641e-03 -1.629657042505e+07 1.501787234891e+03 -5.060793270673e+06 -7.374565439130e+06 -2.639630296757e-02 7.013791273006e-06 2.295058671113e-04 0.000000000000e+00 9.577309711617e+06 1.027614753717e+07  2.651180373494e-02
1.900000000000e+01 -5.970229216432e+07 6.990165051390e-01 8.425635538595e+01 2.156420935761e-06 7.487071666531e-03 -1.601892451968e+07 2.707082054291e+03 -5.187570143744e+06 -7.301948269452e+06 -2.544960734273e-02 1.078414046158e-05 2.226608625404e-04 0.000000000000e+00 9.502814310957e+06 9.944208148271e+06  2.556167193621e-02
2.000000000000e+01 -5.591167071265e+07 7.132931286141e-01 8.407728790692e+01 1.484643690828e-06 7.670546497604e-03 -1.571001764377e+07 1.257602429267e+03 -5.280220129510e+06 -7.208694000988e+06 -2.449395714501e-02 6.286759536462e-06 2.152073596646e-04 0.000000000000e+00 9.399643924757e+06 9.611768849443e+06  2.460226918892e-02
2.100000000000e+01 -5.230263440728e+07 7.252707812851e-01 8.398894203317e+01 8.563202816824e-07 7.843886252095e-03 -1.534662280096e+07 1.123678764266e+03 -5.323821353098e+06 -7.081258276898e+06 -2.349362919261e-02 5.976728014403e-06 2.057430000485e-04 0.000000000000e+00 9.250567476985e+06 9.269881112934e+06  2.359717567290e-02
2.200000000000e+01 -4.892775116033e+07 7.360609239684e-01 8.389868230616e+01 2.502000560382e-07 8.009872567844e-03 -1.498302807711e+07 1.010054724709e+03 -5.357436404165e+06 -6.950734869385e+06 -2.251287350702e-02 5.674673877096e-06 1.959423300396e-04 0.000000000000e+00 9.097066450218e+06 8.936116476118e+06  2.261148355231e-02
2.300000000000e+01 -4.578630615739e+07 7.458698488471e-01 8.379980679486e+01 -2.953219085188e-07 1.100012726140e-02 -1.461816350130e+07 -8.638737009194e+05 -5.375563190887e+06 -6.815586546710e+06 -2.155602663413e-02 -2.651800514297e-03 1.856701271131e-04 0.000000000000e+00 8.936437746300e+06 8.742345266649e+06  2.213131730728e-02
2.400000000000e+01 -4.273737073394e+07 7.561677676796e-01 8.368692950605e+01 -8.584900883374e-07 8.321204257702e-03 -1.425437900946e+07 8.328803135177e+02 -5.371406166275e+06 -6.674678863946e+06 -2.060399737971e-02 5.092881545123e-06 1.746274749980e-04 0.000000000000e+00 8.766821346561e+06 8.308356778429e+06  2.069186566329e-02
2.500000000000e+01 -3.972039158849e+07 7.706768477826e-01 8.355718401152e+01 -1.376810747564e-06 8.466170586761e-03 -1.389780246008e+07 7.359315132959e+02 -5.387918758089e+06 -6.545466338582e+06 -1.966899331479e-02 4.866212260851e-06 1.663509832469e-04 0.000000000000e+00 8.610395852250e+06 7.994213116860e+06  1.975269597002e-02
2.600000000000e+01 -3.674690124019e+07 7.856724813805e-01 8.341465053006e+01 -1.876885093486e-06 8.466815106424e-03 -1.350650180197e+07 4.251116947534e+04 -5.379132979623e+06 -6.397058299436e+06 -1.869490984881e-02 1.332262998348e-04 1.576881689312e-04 0.000000000000e+00 8.427564360344e+06 7.669593406570e+06  1.877566866071e-02
2.700000000000e+01 -3.382536455472e+07 8.010888112752e-01 8.325927530749e+01 -2.358809669603e-06 8.736861416177e-03 -1.308356225927e+07 5.354385091979e+02 -5.348177546218e+06 -6.231393374716e+06 -1.768464887250e-02 4.356356947869e-06 1.485671663416e-04 0.000000000000e+00 8.221044393402e+06 7.333773483048e+06  1.775940013206e-02
2.800000000000e+01 -3.094423927768e+07 8.170103691295e-01 8.309101801184e+01 -2.826044664849e-06 8.738610166631e-03 -1.262775454087e+07 5.290219738184e+04 -5.295657036165e+06 -6.048177460878e+06 -1.663395945109e-02 1.649500120665e-04 1.389506134476e-04 0.000000000000e+00 7.990529679303e+06 6.986900858554e+06  1.670631134280e-02
2.900000000000e+01 -2.809010172549e+07 8.334581952813e-01 8.290988131333e+01 -3.282247808992e-06 8.983521875401e-03 -1.213513575081e+07 3.110141225354e+02 -5.219011029806e+06 -5.845196477760e+06 -1.553554653625e-02 3.780556461889e-06 1.287516070143e-04 0.000000000000e+00 7.733114419458e+06 6.625263240457e+06  1.560032219592e-02
3.000000000000e+01 -2.525050444036e+07 8.504808458058e-01 8.271590725045e+01 -3.723034737524e-06 9.107154544249e-03 -1.159879496296e+07 -6.442389859792e+03 -5.115687029877e+06 -5.619288419871e+06 -1.438020555860e-02 -1.682009267078e-05 1.179308981466e-04 0.000000000000e+00 7.444590137569e+06 6.246561068184e+06  1.443956158988e-02
3.100000000000e+01 -2.240930336434e+07 8.681657841571e-01 8.259379694597e+01 -4.155131196394e-06 9.208887511780e-03 -1.101604473940e+07 9.023164060523e+01 -4.984572062659e+06 -5.369174120651e+06 -1.315965406245e-02 3.221374522318e-06 1.063740050751e-04 0.000000000000e+00 7.123263640905e+06 5.848663489513e+06  1.321316338778e-02
3.200000000000e+01 -1.960626441026e+07 8.861325927307e-01 8.247041877047e+01 -4.581717890498e-06 9.315661748123e-03 -1.040225230969e+07 -3.071919642077e+01 -4.835006824908e+06 -5.102761820969e+06 -1.189587956218e-02 2.905317415997e-06 9.426334211712e-05 0.000000000000e+00 6.780006985189e+06 5.438313822842e+06  1.194329128938e-02
3.300000000000e+01 -1.677025586447e+07 9.047373319876e-01 8.234022763556e+01 -5.003119781138e-06 9.028861851768e-03 -9.730433003691e+06 1.745386923041e+05 -4.650841592407e+06 -4.805767131336e+06 -1.054812207600e-02 5.380224501937e-04 8.117634106356e-05 0.000000000000e+00 6.395680575811e+06 5.013051331933e+06  1.062986977129e-02
3.400000000000e+01 -1.387183936673e+07 9.239741155197e-01 8.220176821192e+01 -5.417201875672e-06 9.517327322477e-03 -8.983832745293e+06 -2.197360128133e+02 -4.422072147779e+06 -4.469286557092e+06 -9.093957498617e-03 2.366467646843e-06 6.695380656808e-05 0.000000000000e+00 5.958397150054e+06 4.538337609995e+06  9.127619496379e-03
3.500000000000e+01 -1.087324520762e+07 9.437517685567e-01 8.205443793115e+01 -5.832818164393e-06 9.612513550719e-03 -8.151352718288e+06 -3.332890397301e+02 -4.143214969983e+06 -4.087457612253e+06 -7.512019609766e-03 2.000239703406e-06 5.126166976278e-05 0.000000000000e+00 5.460675100175e+06 4.036305314992e+06  7.537781971354e-03
3.600000000000e+01 -7.735473393132e+06 9.636979376660e-01 8.189801272900e+01 -6.256787318205e-06 9.703791798857e-03 -7.219027660897e+06 -4.248401146370e+02 -3.808649501352e+06 -3.653241456212e+06 -5.778866166828e-03 1.595975123688e-06 3.387644908084e-05 0.000000000000e+00 4.893639539487e+06 3.490677813266e+06  5.795879302985e-03
3.700000000000e+01 -4.373864827505e+06 9.829980562499e-01 8.173237003409e+01 -6.727104578080e-06 9.787575103433e-03 -6.177218972440e+06 3.930400940572e+02 -3.422040821970e+06 -3.162947493584e+06 -3.859535608191e-03 3.756606299074e-06 1.411877219866e-05 0.000000000000e+00 4.254069095998e+06 2.893438220247e+06  3.866619801705e-03
3.800000000000e+01 1.969316288603e+06 1.000000000000e+00 8.155815882168e+01 -8.430506747687e-06 9.777983022831e-03 -4.782491091785e+06 6.141430211991e+03 -3.213643249656e+06 -2.567728881353e+06 -6.196625723432e-04 2.480181688961e-05 -2.610976473184e-05 0.000000000000e+00 3.521287740931e+06 1.972800911734e+06  6.085470974077e-04
3.900000000000e+01 2.143157955406e+06 1.000000000000e+00 8.137922592332e+01 -8.496128146273e-06 9.968899295867e-03 -4.788364575784e+06 -5.718479807940e+02 -3.274223486614e+06 -2.585181947826e+06 -5.629995067215e-04 -1.738069563713e-06 -2.617629086754e-05 0.000000000000e+00 3.549256670075e+06 1.952103626129e+06  5.503866518943e-04
4.000000000000e+01 2.172543662218e+06 1.000000000000e+00 8.118933148663e+01 -8.535757149732e-06 1.004384303534e-02 -4.804788098015e+06 -5.718748986492e+02 -3.288774655761e+06 -2.594291467998e+06 -5.651510022819e-04 -1.738152792117e-06 -2.638428223157e-05 0.000000000000e+00 3.562618073925e+06 1.957919938192e+06  5.524398118410e-04
4.200000000000e+01 2.229827642243e+06 1.000000000000e+00 8.091450170479e+01 -8.612865749488e-06 1.018418893716e-02 -4.837060908423e+06 -5.718894854423e+02 -3.317833109849e+06 -2.612450134589e+06 -5.688412025966e-04 -1.738198900255e-06 -2.678351432614e-05 0.000000000000e+00 3.589114717620e+06 1.969075075150e+06  5.559416947113e-04
4.400000000000e+01 2.285593828988e+06 1.000000000000e+00 8.061916135758e+01 -8.686891188312e-06 1.031502878488e-02 -4.867961749018e+06 -5.719391473448e+02 -3.345951923882e+06 -2.629876308113e+06 -5.722908563907e-04 -1.738351885594e-06 -2.715971063643e-05 0.000000000000e+00 3.614596660338e+06 1.979685151582e+06  5.592139892140e-04
5.000000000000e+01 2.437116700762e+06 1.000000000000e+00 7.942409551491e+01 -8.875196242861e-06 1.058872930621e-02 -4.945905335830e+06 -5.719938076928e+02 -3.420784626552e+06 -2.674342198036e+06 -5.805057207895e-04 -1.738520612571e-06 -2.800823837296e-05 0.000000000000e+00 3.680344053473e+06 2.005389055645e+06  5.670286395264e-04
6.500000000000e+01 2.768502511615e+06 1.000000000000e+00 7.676123227512e+01 -9.262324196685e-06 1.105306900482e-02 -5.104817145846e+06 -5.722240546017e+02 -3.582631666239e+06 -2.767222127873e+06 -5.911888393786e-04 -1.739224976684e-06 -2.959473305803e-05 0.000000000000e+00 3.818223646653e+06 2.055029656998e+06  5.769688820490e-04
8.000000000000e+01 3.023556526520e+06 1.000000000000e+00 7.431444502711e+01 -9.539571059128e-06 1.127343477776e-02 -5.217897176792e+06 -5.721284742243e+02 -3.705870021462e+06 -2.834844546684e+06 -5.961811943675e-04 -1.738933733131e-06 -3.053733859157e-05 0.000000000000e+00 3.919537248313e+06 2.088522599593e+06  5.815219946339e-04
1.000000000000e+02 3.324236264444e+06 1.000000000000e+00 7.184336420131e+01 -9.860148396276e-06 1.128066500474e-02 -5.350660888535e+06 8.793293470004e+04 -3.855415732515e+06 -2.916136411010e+06 -5.988211605941e-04 2.692678569224e-04 -3.152002025295e-05 0.000000000000e+00 4.040737677353e+06 2.132053746755e+06  7.471418709033e-04
1.860000000000e+02 3.922717154583e+06 1.000000000000e+00 6.661921363956e+01 -1.047873025605e-05 1.107498696127e-02 -5.602662976719e+06 -4.147155793808e+05 -4.147055062509e+06 -3.071791019553e+06 -5.980471548834e-04 -1.260222657592e-03 -3.331788589808e-05 0.000000000000e+00 4.273836352927e+06 2.314328638747e+06  2.259054725818e-03
2.720000000000e+02 4.213038212850e+06 1.000000000000e+00 6.336129277135e+01 -1.072919270003e-05 1.150915628768e-02 -5.706928049561e+06 -5.721555059131e+02 -4.290991082723e+06 -3.141341441404e+06 -5.911899706458e-04 -1.739017222453e-06 -3.344859387009e-05 0.000000000000e+00 4.379753524563e+06 2.225849096409e+06  5.752034328293e-04
3.580000000000e+02 4.354403612221e+06 1.000000000000e+00 6.123180507666e+01 -1.083635350163e-05 1.133326284461e-02 -5.748947263581e+06 -5.720523426538e+02 -4.356618029211e+06 -3.170394874208e+06 -5.858964969829e-04 -1.738704779840e-06 -3.335415496862e-05 0.000000000000e+00 4.425320055666e+06 2.235468682240e+06  5.699598157392e-04
4.440000000000e+02 4.426533012997e+06 1.000000000000e+00 5.967385347842e+01 -1.087628039716e-05 1.116867397378e-02 -5.762777146595e+06 -5.721326285451e+02 -4.387098748640e+06 -3.181296373330e+06 -5.815265531959e-04 -1.738954530057e-06 -3.313351643265e-05 0.000000000000e+00 4.443724089522e+06 2.237241087775e+06  5.656960440601e-04
5.300000000000e+02 4.465497970193e+06 1.000000000000e+00 5.850929450882e+01 -1.088750663275e-05 1.102602726680e-02 -5.764980756855e+06 -5.720834585139e+02 -4.401586004012e+06 -3.184504389097e+06 -5.779885201878e-04 -1.738807779603e-06 -3.289124278111e-05 0.000000000000e+00 4.450357049988e+06 2.235955406272e+06  5.622729523424e-04
6.160000000000e+02 4.488012566474e+06 1.000000000000e+00 5.764205174370e+01 -1.089516494535e-05 1.102587394938e-02 -5.765505286216e+06 -2.023081946005e+04 -4.409320977745e+06 -3.185699386096e+06 -5.767764129024e-04 -6.268885962885e-05 -3.272351214505e-05 0.000000000000e+00 4.453508550019e+06 2.235435066908e+06  5.715394895716e-04
7.020000000000e+02 4.501822166731e+06 1.000000000000e+00 5.701255833833e+01 -1.088408815352e-05 1.081711586696e-02 -5.760174753727e+06 -5.720470189447e+02 -4.412827335893e+06 -3.184107799294e+06 -5.730954688346e-04 -1.738703385439e-06 -3.249341603097e-05 0.000000000000e+00 4.452369962971e+06 2.231727994303e+06  5.575674652078e-04
7.880000000000e+02 4.511440545639e+06 1.000000000000e+00 5.653877449925e+01 -1.087957000035e-05 1.073539445096e-02 -5.757472363111e+06 -5.720622672446e+02 -4.415862792151e+06 -3.183465229419e+06 -5.714201303661e-04 -1.738752936057e-06 -3.233116093952e-05 0.000000000000e+00 4.452266794894e+06 2.229824508941e+06  5.559682211616e-04
8.740000000000e+02 4.519827537308e+06 1.000000000000e+00 5.574293736180e+01 -1.086520769021e-05 1.061986734145e-02 -5.749215835767e+06 -5.720291310732e+02 -4.415423133713e+06 -3.179617123995e+06 -5.687722453271e-04 -1.738654668311e-06 -3.208513991017e-05 0.000000000000e+00 4.448085364491e+06 2.225877239265e+06  5.534358634470e-04
9.370000000000e+02 4.525199865194e+06 1.000000000000e+00 5.522755780847e+01 -1.085417215913e-05 1.061928966709e-02 -5.743321961063e+06 -3.096469006885e+04 -4.415512432826e+06 -3.177059497567e+06 -5.667244247218e-04 -9.506669235654e-05 -3.189306994239e-05 0.000000000000e+00 4.445297963819e+06 2.223544436240e+06  5.755277471658e-04
1.000000000000e+03 4.529391087550e+06 1.000000000000e+00 5.483601685492e+01 -1.084396788441e-05 1.044541063636e-02 -5.738222545469e+06 -5.720273896643e+02 -4.415755687060e+06 -3.174964730240e+06 -5.647298324208e-04 -1.738654198616e-06 -3.172332476628e-05 0.000000000000e+00 4.442980987590e+06 2.220222216439e+06  5.495635666931e-04
1.100000000000e+03 4.533534316503e+06 1.000000000000e+00 5.445290499192e+01 -1.083375407769e-05 1.036223809853e-02 -5.733055897123e+06 -5.720039891830e+02 -4.415961696808e+06 -3.172847164258e+06 -5.626436070595e-04 -1.738585688106e-06 -3.155374011592e-05 0.000000000000e+00 4.440621586063e+06 2.217514553786e+06  5.475573257347e-04
1.200000000000e+03 4.536792191496e+06 1.000000000000e+00 5.411538595189e+01 -1.082491244898e-05 1.029311915006e-02 -5.728548772450e+06 -5.720211410394e+02 -4.415897071816e+06 -3.170927634686e+06 -5.609675891564e-04 -1.738640795773e-06 -3.141105447077e-05 0.000000000000e+00 4.438457826317e+06 2.215223604306e+06  5.459485099742e-04
1.300000000000e+03 4.539701378245e+06 1.000000000000e+00 5.378897448315e+01 -1.081625366129e-05 1.022733109436e-02 -5.724134314661e+06 -5.720084945118e+02 -4.415689930907e+06 -3.169012984678e+06 -5.593918377513e-04 -1.738604971289e-06 -3.127448565063e-05 0.000000000000e+00 4.436279076749e+06 2.213015712521e+06  5.444370467137e-04
1.400000000000e+03 4.542441856371e+06 1.000000000000e+00 5.345626143746e+01 -1.080708129427e-05 1.015935393276e-02 -5.719487560349e+06 -5.720023876506e+02 -4.415359888253e+06 -3.166980757909e+06 -5.577655132140e-04 -1.738588263911e-06 -3.113313586248e-05 0.000000000000e+00 4.433942735504e+06 2.210711692852e+06  5.428772590970e-04
1.500000000000e+03 4.545080037729e+06 1.000000000000e+00 5.310717615767e+01 -1.079694696284e-05 1.008596782399e-02 -5.714399257620e+06 -5.720163992533e+02 -4.414895335359e+06 -3.164746795920e+06 -5.559999848183e-04 -1.738633321439e-06 -3.098059223975e-05 0.000000000000e+00 4.431347129633e+06 2.208201921621e+06  5.411835547538e-04
1.600000000000e+03 4.547638542918e+06 1.000000000000e+00 5.273557662307e+01 -1.078555593929e-05 1.000519891774e-02 -5.708732046768e+06 -5.720183987292e+02 -4.414278371129e+06 -3.162253591834e+06 -5.540409211753e-04 -1.738641473535e-06 -3.081287691583e-05 0.000000000000e+00 4.428421336577e+06 2.205417290562e+06  5.393034856485e-04
1.700000000000e+03 4.550130380914e+06 1.000000000000e+00 5.233767161028e+01 -1.077272097032e-05 9.915825991733e-03 -5.702397186535e+06 -5.719920473123e+02 -4.413494613708e+06 -3.159463371781e+06 -5.518524274324e-04 -1.738562990564e-06 -3.062755015273e-05 0.000000000000e+00 4.425118390674e+06 2.202314526497e+06  5.372023160757e-04
1.800000000000e+03 4.552542703729e+06 1.000000000000e+00 5.191117290378e+01 -1.075831704648e-05 9.817112745120e-03 -5.695339901074e+06 -5.720004674878e+02 -4.412530969161e+06 -3.156351895414e+06 -5.494192374042e-04 -1.738591338868e-06 -3.042302649003e-05 0.000000000000e+00 4.421407588550e+06 2.198868649682e+06  5.348655261432e-04
1.900000000000e+03 4.554883063139e+06 1.000000000000e+00 5.145479378253e+01 -1.074228093865e-05 9.708641242482e-03 -5.687529249088e+06 -5.719576162789e+02 -4.411382609748e+06 -3.152906047601e+06 -5.467275204837e-04 -1.738461743110e-06 -3.019849189764e-05 0.000000000000e+00 4.417272635479e+06 2.195066085440e+06  5.322796734024e-04