 TITLE = "Time curves in points"
 VARIABLES = "TIME"  "PRESSURE1"  "SATURATION1"  "TEMPERATURE1"  "DISPLACEMENT_X1"  "DISPLACEMENT_Y1"  "STRESS_XX"  "STRESS_XY"  "STRESS_YY"  "STRESS_ZZ"  "STRAIN_XX"  "STRAIN_XY"  "STRAIN_YY"  "STRAIN_PLS"  p_(1st_Invariant)  q_(2nd_Invariant)   Effective_Strain
 ZONE T="POINT=POINT9"
0.000000000000e+00 1.000000000000e+05 1.000000000000e+00 2.500000000000e+01 0.000000000000e+00 0.000000000000e+00 -6.854419775061e+07 7.586938602830e+05 -6.954707405871e+06 -1.965222756120e+07 0.000000000000e+00 0.000000000000e+00 0.000000000000e+00 0.000000000000e+00 3.171704423923e+07 5.633990941714e+07  0.000000000000e+00
1.000000000000e-03 1.375363589691e+05 1.000000000000e+00 2.500341806563e+01 0.000000000000e+00 -1.346031322793e-03 -9.829619223646e+07 1.493518206078e+06 2.294816286911e+07 -1.960805164312e+07 -1.106714900718e-03 5.458695140194e-05 1.109037218970e-03 0.000000000000e+00 3.165202700349e+07 1.065749315937e+08  1.921225818587e-03
1.000000000000e-03 1.375363589691e+05 1.000000000000e+00 2.500341806563e+01 0.000000000000e+00 -1.346031322793e-03 -9.829619223646e+07 1.493518206078e+06 2.294816286911e+07 -1.960805164312e+07 -1.106714900718e-03 5.458695140194e-05 1.109037218970e-03 0.000000000000e+00 3.165202700349e+07 1.065749315937e+08  1.921225818587e-03
1.000000000000e-03 1.375363589691e+05 1.000000000000e+00 2.500341806563e+01 0.000000000000e+00 -1.346031322793e-03 -9.829619223646e+07 1.493518206078e+06 2.294816286911e+07 -1.960805164312e+07 -1.106714900718e-03 5.458695140194e-05 1.109037218970e-03 0.000000000000e+00 3.165202700349e+07 1.065749315937e+08  1.921225818587e-03
1.000000000000e-03 1.375363589691e+05 1.000000000000e+00 2.500341806563e+01 0.000000000000e+00 -1.346031322793e-03 -9.829619223646e+07 1.493518206078e+06 2.294816286911e+07 -1.960805164312e+07 -1.106714900718e-03 5.458695140194e-05 1.109037218970e-03 0.000000000000e+00 3.165202700349e+07 1.065749315937e+08  1.921225818587e-03
2.000000000000e-03 1.596543478277e+05 1.000000000000e+00 2.501822531954e+01 0.000000000000e+00 -1.346092599644e-03 -9.828395041506e+07 1.493427005203e+06 2.294981266358e+07 -1.960864367990e+07 -1.106238214556e-03 5.458017647976e-05 1.109120486988e-03 0.000000000000e+00 3.164759381046e+07 1.065646126811e+08  1.920885133539e-03
2.000000000000e-03 1.596543478277e+05 1.000000000000e+00 2.501822531954e+01 0.000000000000e+00 -1.346092599644e-03 -9.828395041506e+07 1.493427005203e+06 2.294981266358e+07 -1.960864367990e+07 -1.106238214556e-03 5.458017647976e-05 1.109120486988e-03 0.000000000000e+00 3.164759381046e+07 1.065646126811e+08  1.920885133539e-03
2.000000000000e-03 1.596543478277e+05 1.000000000000e+00 2.501822531954e+01 0.000000000000e+00 -1.346092599644e-03 -9.828395041506e+07 1.493427005203e+06 2.294981266358e+07 -1.960864367990e+07 -1.106238214556e-03 5.458017647976e-05 1.109120486988e-03 0.000000000000e+00 3.164759381046e+07 1.065646126811e+08  1.920885133539e-03
2.000000000000e-03 1.596543478277e+05 1.000000000000e+00 2.501822531954e+01 0.000000000000e+00 -1.346092599644e-03 -9.828395041506e+07 1.493427005203e+06 2.294981266358e+07 -1.960864367990e+07 -1.106238214556e-03 5.458017647976e-05 1.109120486988e-03 0.000000000000e+00 3.164759381046e+07 1.065646126811e+08  1.920885133539e-03
3.000000000000e-03 1.750698885853e+05 1.000000000000e+00 2.505296841804e+01 0.000000000000e+00 -1.345995707061e-03 -9.828115324910e+07 1.493482571613e+06 2.294571158562e+07 -1.962030647039e+07 -1.105701130460e-03 5.458430427022e-05 1.109401350597e-03 0.000000000000e+00 3.165191604462e+07 1.065568637111e+08  1.920664211390e-03
3.000000000000e-03 1.750698885853e+05 1.000000000000e+00 2.505296841804e+01 0.000000000000e+00 -1.345995707061e-03 -9.828115324910e+07 1.493482571613e+06 2.294571158562e+07 -1.962030647039e+07 -1.105701130460e-03 5.458430427022e-05 1.109401350597e-03 0.000000000000e+00 3.165191604462e+07 1.065568637111e+08  1.920664211390e-03
3.000000000000e-03 1.750698885853e+05 1.000000000000e+00 2.505296841804e+01 0.000000000000e+00 -1.345995707061e-03 -9.828115324910e+07 1.493482571613e+06 2.294571158562e+07 -1.962030647039e+07 -1.105701130460e-03 5.458430427022e-05 1.109401350597e-03 0.000000000000e+00 3.165191604462e+07 1.065568637111e+08  1.920664211390e-03
3.000000000000e-03 1.750698885853e+05 1.000000000000e+00 2.505296841804e+01 0.000000000000e+00 -1.345995707061e-03 -9.828115324910e+07 1.493482571613e+06 2.294571158562e+07 -1.962030647039e+07 -1.105701130460e-03 5.458430427022e-05 1.109401350597e-03 0.000000000000e+00 3.165191604462e+07 1.065568637111e+08  1.920664211390e-03
4.000000000000e-03 1.857698591436e+05 1.000000000000e+00 2.511280776572e+01 0.000000000000e+00 -1.345910726577e-03 -9.829020093917e+07 1.493742197268e+06 2.293705948455e+07 -1.964518442651e+07 -1.105113149149e-03 5.460359074747e-05 1.110004025213e-03 0.000000000000e+00 3.166610862704e+07 1.065544986923e+08  1.920679231066e-03
4.000000000000e-03 1.857698591436e+05 1.000000000000e+00 2.511280776572e+01 0.000000000000e+00 -1.345910726577e-03 -9.829020093917e+07 1.493742197268e+06 2.293705948455e+07 -1.964518442651e+07 -1.105113149149e-03 5.460359074747e-05 1.110004025213e-03 0.000000000000e+00 3.166610862704e+07 1.065544986923e+08  1.920679231066e-03
4.000000000000e-03 1.857698591436e+05 1.000000000000e+00 2.511280776572e+01 0.000000000000e+00 -1.345910726577e-03 -9.829020093917e+07 1.493742197268e+06 2.293705948455e+07 -1.964518442651e+07 -1.105113149149e-03 5.460359074747e-05 1.110004025213e-03 0.000000000000e+00 3.166610862704e+07 1.065544986923e+08  1.920679231066e-03
4.000000000000e-03 1.857698591436e+05 1.000000000000e+00 2.511280776572e+01 0.000000000000e+00 -1.345910726577e-03 -9.829020093917e+07 1.493742197268e+06 2.293705948455e+07 -1.964518442651e+07 -1.105113149149e-03 5.460359074747e-05 1.110004025213e-03 0.000000000000e+00 3.166610862704e+07 1.065544986923e+08  1.920679231066e-03
1.000000000000e-02 2.016789261239e+05 1.000000000000e+00 2.596898026496e+01 0.000000000000e+00 -1.344667068664e-03 -9.858752351737e+07 1.498599482567e+06 2.283511613606e+07 -2.005258647939e+07 -1.101024482947e-03 5.496441765539e-05 1.121349634233e-03 0.000000000000e+00 3.193499795357e+07 1.066865117858e+08  1.927012344823e-03
1.000000000000e-02 2.016789261239e+05 1.000000000000e+00 2.596898026496e+01 0.000000000000e+00 -1.344667068664e-03 -9.858752351737e+07 1.498599482567e+06 2.283511613606e+07 -2.005258647939e+07 -1.101024482947e-03 5.496441765539e-05 1.121349634233e-03 0.000000000000e+00 3.193499795357e+07 1.066865117858e+08  1.927012344823e-03
1.000000000000e-02 2.016789261239e+05 1.000000000000e+00 2.596898026496e+01 0.000000000000e+00 -1.344667068664e-03 -9.858752351737e+07 1.498599482567e+06 2.283511613606e+07 -2.005258647939e+07 -1.101024482947e-03 5.496441765539e-05 1.121349634233e-03 0.000000000000e+00 3.193499795357e+07 1.066865117858e+08  1.927012344823e-03
1.000000000000e-02 2.016789261239e+05 1.000000000000e+00 2.596898026496e+01 0.000000000000e+00 -1.344667068664e-03 -9.858752351737e+07 1.498599482567e+06 2.283511613606e+07 -2.005258647939e+07 -1.101024482947e-03 5.496441765539e-05 1.121349634233e-03 0.000000000000e+00 3.193499795357e+07 1.066865117858e+08  1.927012344823e-03
2.000000000000e-02 1.999775693425e+05 1.000000000000e+00 2.761199769072e+01 0.000000000000e+00 -1.339641729206e-03 -9.921404930676e+07 1.507232973984e+06 2.265526057634e+07 -2.085425344089e+07 -1.094519239412e-03 5.560576273208e-05 1.144445486299e-03 0.000000000000e+00 3.247101405710e+07 1.070025574857e+08  1.941551297883e-03
2.000000000000e-02 1.999775693425e+05 1.000000000000e+00 2.761199769072e+01 0.000000000000e+00 -1.339641729206e-03 -9.921404930676e+07 1.507232973984e+06 2.265526057634e+07 -2.085425344089e+07 -1.094519239412e-03 5.560576273208e-05 1.144445486299e-03 0.000000000000e+00 3.247101405710e+07 1.070025574857e+08  1.941551297883e-03
2.000000000000e-02 1.999775693425e+05 1.000000000000e+00 2.761199769072e+01 0.000000000000e+00 -1.339641729206e-03 -9.921404930676e+07 1.507232973984e+06 2.265526057634e+07 -2.085425344089e+07 -1.094519239412e-03 5.560576273208e-05 1.144445486299e-03 0.000000000000e+00 3.247101405710e+07 1.070025574857e+08  1.941551297883e-03
2.000000000000e-02 1.999775693425e+05 1.000000000000e+00 2.761199769072e+01 0.000000000000e+00 -1.339641729206e-03 -9.921404930676e+07 1.507232973984e+06 2.265526057634e+07 -2.085425344089e+07 -1.094519239412e-03 5.560576273208e-05 1.144445486299e-03 0.000000000000e+00 3.247101405710e+07 1.070025574857e+08  1.941551297883e-03
3.000000000000e-02 1.899417041039e+05 1.000000000000e+00 2.912015475881e+01 0.000000000000e+00 -1.332743274259e-03 -9.979911274696e+07 1.514483925356e+06 2.248842423479e+07 -2.159748954759e+07 -1.088644254656e-03 5.614440483401e-05 1.165854620433e-03 0.000000000000e+00 3.296939268659e+07 1.073011307850e+08  1.955254670385e-03
3.000000000000e-02 1.899417041039e+05 1.000000000000e+00 2.912015475881e+01 0.000000000000e+00 -1.332743274259e-03 -9.979911274696e+07 1.514483925356e+06 2.248842423479e+07 -2.159748954759e+07 -1.088644254656e-03 5.614440483401e-05 1.165854620433e-03 0.000000000000e+00 3.296939268659e+07 1.073011307850e+08  1.955254670385e-03
3.000000000000e-02 1.899417041039e+05 1.000000000000e+00 2.912015475881e+01 0.000000000000e+00 -1.332743274259e-03 -9.979911274696e+07 1.514483925356e+06 2.248842423479e+07 -2.159748954759e+07 -1.088644254656e-03 5.614440483401e-05 1.165854620433e-03 0.000000000000e+00 3.296939268659e+07 1.073011307850e+08  1.955254670385e-03
3.000000000000e-02 1.899417041039e+05 1.000000000000e+00 2.912015475881e+01 0.000000000000e+00 -1.332743274259e-03 -9.979911274696e+07 1.514483925356e+06 2.248842423479e+07 -2.159748954759e+07 -1.088644254656e-03 5.614440483401e-05 1.165854620433e-03 0.000000000000e+00 3.296939268659e+07 1.073011307850e+08  1.955254670385e-03
4.000000000000e-02 1.766791368651e+05 1.000000000000e+00 3.042921154463e+01 0.000000000000e+00 -1.323675469248e-03 -1.003040539661e+08 1.520214306221e+06 2.233553027434e+07 -2.224629833465e+07 -1.083300602132e-03 5.657009026965e-05 1.184274313993e-03 0.000000000000e+00 3.340494067546e+07 1.075520492325e+08  1.966868436917e-03
4.000000000000e-02 1.766791368651e+05 1.000000000000e+00 3.042921154463e+01 0.000000000000e+00 -1.323675469248e-03 -1.003040539661e+08 1.520214306221e+06 2.233553027434e+07 -2.224629833465e+07 -1.083300602132e-03 5.657009026965e-05 1.184274313993e-03 0.000000000000e+00 3.340494067546e+07 1.075520492325e+08  1.966868436917e-03
4.000000000000e-02 1.766791368651e+05 1.000000000000e+00 3.042921154463e+01 0.000000000000e+00 -1.323675469248e-03 -1.003040539661e+08 1.520214306221e+06 2.233553027434e+07 -2.224629833465e+07 -1.083300602132e-03 5.657009026965e-05 1.184274313993e-03 0.000000000000e+00 3.340494067546e+07 1.075520492325e+08  1.966868436917e-03
4.000000000000e-02 1.766791368651e+05 1.000000000000e+00 3.042921154463e+01 0.000000000000e+00 -1.323675469248e-03 -1.003040539661e+08 1.520214306221e+06 2.233553027434e+07 -2.224629833465e+07 -1.083300602132e-03 5.657009026965e-05 1.184274313993e-03 0.000000000000e+00 3.340494067546e+07 1.075520492325e+08  1.966868436917e-03
5.000000000000e-02 1.624755378777e+05 1.000000000000e+00 3.155419129749e+01 0.000000000000e+00 -1.313942728211e-03 -1.007331913934e+08 1.524734509242e+06 2.219533571116e+07 -2.280631741474e+07 -1.078439283600e-03 5.690587677979e-05 1.199867796050e-03 0.000000000000e+00 3.378139103231e+07 1.077569444170e+08  1.976464879331e-03
5.000000000000e-02 1.624755378777e+05 1.000000000000e+00 3.155419129749e+01 0.000000000000e+00 -1.313942728211e-03 -1.007331913934e+08 1.524734509242e+06 2.219533571116e+07 -2.280631741474e+07 -1.078439283600e-03 5.690587677979e-05 1.199867796050e-03 0.000000000000e+00 3.378139103231e+07 1.077569444170e+08  1.976464879331e-03
5.000000000000e-02 1.624755378777e+05 1.000000000000e+00 3.155419129749e+01 0.000000000000e+00 -1.313942728211e-03 -1.007331913934e+08 1.524734509242e+06 2.219533571116e+07 -2.280631741474e+07 -1.078439283600e-03 5.690587677979e-05 1.199867796050e-03 0.000000000000e+00 3.378139103231e+07 1.077569444170e+08  1.976464879331e-03
5.000000000000e-02 1.624755378777e+05 1.000000000000e+00 3.155419129749e+01 0.000000000000e+00 -1.313942728211e-03 -1.007331913934e+08 1.524734509242e+06 2.219533571116e+07 -2.280631741474e+07 -1.078439283600e-03 5.690587677979e-05 1.199867796050e-03 0.000000000000e+00 3.378139103231e+07 1.077569444170e+08  1.976464879331e-03
6.000000000000e-02 1.480496728640e+05 1.000000000000e+00 3.252596160028e+01 0.000000000000e+00 -1.301947886112e-03 -1.010984779411e+08 1.528289171348e+06 2.206724909668e+07 -2.329130213318e+07 -1.073993351546e-03 5.716993739340e-05 1.213124011339e-03 0.000000000000e+00 3.410751032588e+07 1.079239665236e+08  1.984395100291e-03
6.000000000000e-02 1.480496728640e+05 1.000000000000e+00 3.252596160028e+01 0.000000000000e+00 -1.301947886112e-03 -1.010984779411e+08 1.528289171348e+06 2.206724909668e+07 -2.329130213318e+07 -1.073993351546e-03 5.716993739340e-05 1.213124011339e-03 0.000000000000e+00 3.410751032588e+07 1.079239665236e+08  1.984395100291e-03
6.000000000000e-02 1.480496728640e+05 1.000000000000e+00 3.252596160028e+01 0.000000000000e+00 -1.301947886112e-03 -1.010984779411e+08 1.528289171348e+06 2.206724909668e+07 -2.329130213318e+07 -1.073993351546e-03 5.716993739340e-05 1.213124011339e-03 0.000000000000e+00 3.410751032588e+07 1.079239665236e+08  1.984395100291e-03
6.000000000000e-02 1.480496728640e+05 1.000000000000e+00 3.252596160028e+01 0.000000000000e+00 -1.301947886112e-03 -1.010984779411e+08 1.528289171348e+06 2.206724909668e+07 -2.329130213318e+07 -1.073993351546e-03 5.716993739340e-05 1.213124011339e-03 0.000000000000e+00 3.410751032588e+07 1.079239665236e+08  1.984395100291e-03
7.000000000000e-02 1.342905968549e+05 1.000000000000e+00 3.337380904241e+01 0.000000000000e+00 -1.290357273590e-03 -1.014138753623e+08 1.531145098262e+06 2.194897195579e+07 -2.371588996208e+07 -1.069937707830e-03 5.738209196413e-05 1.224501265466e-03 0.000000000000e+00 3.439359778952e+07 1.080618227672e+08  1.991026930607e-03
7.000000000000e-02 1.342905968549e+05 1.000000000000e+00 3.337380904241e+01 0.000000000000e+00 -1.290357273590e-03 -1.014138753623e+08 1.531145098262e+06 2.194897195579e+07 -2.371588996208e+07 -1.069937707830e-03 5.738209196413e-05 1.224501265466e-03 0.000000000000e+00 3.439359778952e+07 1.080618227672e+08  1.991026930607e-03
7.000000000000e-02 1.342905968549e+05 1.000000000000e+00 3.337380904241e+01 0.000000000000e+00 -1.290357273590e-03 -1.014138753623e+08 1.531145098262e+06 2.194897195579e+07 -2.371588996208e+07 -1.069937707830e-03 5.738209196413e-05 1.224501265466e-03 0.000000000000e+00 3.439359778952e+07 1.080618227672e+08  1.991026930607e-03
7.000000000000e-02 1.342905968549e+05 1.000000000000e+00 3.337380904241e+01 0.000000000000e+00 -1.290357273590e-03 -1.014138753623e+08 1.531145098262e+06 2.194897195579e+07 -2.371588996208e+07 -1.069937707830e-03 5.738209196413e-05 1.224501265466e-03 0.000000000000e+00 3.439359778952e+07 1.080618227672e+08  1.991026930607e-03
8.000000000000e-02 1.218339410025e+05 1.000000000000e+00 3.412173995213e+01 0.000000000000e+00 -1.278159061857e-03 -1.016876575241e+08 1.533431559023e+06 2.183827700658e+07 -2.409133418567e+07 -1.066161688391e-03 5.755194333501e-05 1.234334809942e-03 0.000000000000e+00 3.464690490105e+07 1.081745893351e+08  1.996552111111e-03
8.000000000000e-02 1.218339410025e+05 1.000000000000e+00 3.412173995213e+01 0.000000000000e+00 -1.278159061857e-03 -1.016876575241e+08 1.533431559023e+06 2.183827700658e+07 -2.409133418567e+07 -1.066161688391e-03 5.755194333501e-05 1.234334809942e-03 0.000000000000e+00 3.464690490105e+07 1.081745893351e+08  1.996552111111e-03
8.000000000000e-02 1.218339410025e+05 1.000000000000e+00 3.412173995213e+01 0.000000000000e+00 -1.278159061857e-03 -1.016876575241e+08 1.533431559023e+06 2.183827700658e+07 -2.409133418567e+07 -1.066161688391e-03 5.755194333501e-05 1.234334809942e-03 0.000000000000e+00 3.464690490105e+07 1.081745893351e+08  1.996552111111e-03
8.000000000000e-02 1.218339410025e+05 1.000000000000e+00 3.412173995213e+01 0.000000000000e+00 -1.278159061857e-03 -1.016876575241e+08 1.533431559023e+06 2.183827700658e+07 -2.409133418567e+07 -1.066161688391e-03 5.755194333501e-05 1.234334809942e-03 0.000000000000e+00 3.464690490105e+07 1.081745893351e+08  1.996552111111e-03
9.000000000000e-02 1.115908125434e+05 1.000000000000e+00 3.478854389704e+01 0.000000000000e+00 -1.266935601013e-03 -1.019284224435e+08 1.535286683576e+06 2.173304514465e+07 -2.442724017610e+07 -1.062627877184e-03 5.768975258747e-05 1.242902706144e-03 0.000000000000e+00 3.487420582499e+07 1.082670457503e+08  2.001177785492e-03
9.000000000000e-02 1.115908125434e+05 1.000000000000e+00 3.478854389704e+01 0.000000000000e+00 -1.266935601013e-03 -1.019284224435e+08 1.535286683576e+06 2.173304514465e+07 -2.442724017610e+07 -1.062627877184e-03 5.768975258747e-05 1.242902706144e-03 0.000000000000e+00 3.487420582499e+07 1.082670457503e+08  2.001177785492e-03
9.000000000000e-02 1.115908125434e+05 1.000000000000e+00 3.478854389704e+01 0.000000000000e+00 -1.266935601013e-03 -1.019284224435e+08 1.535286683576e+06 2.173304514465e+07 -2.442724017610e+07 -1.062627877184e-03 5.768975258747e-05 1.242902706144e-03 0.000000000000e+00 3.487420582499e+07 1.082670457503e+08  2.001177785492e-03
9.000000000000e-02 1.115908125434e+05 1.000000000000e+00 3.478854389704e+01 0.000000000000e+00 -1.266935601013e-03 -1.019284224435e+08 1.535286683576e+06 2.173304514465e+07 -2.442724017610e+07 -1.062627877184e-03 5.768975258747e-05 1.242902706144e-03 0.000000000000e+00 3.487420582499e+07 1.082670457503e+08  2.001177785492e-03
1.000000000000e-01 1.045672294376e+05 1.000000000000e+00 3.538879911632e+01 0.000000000000e+00 -1.256764836391e-03 -1.021437001103e+08 1.536836046148e+06 2.163392806035e+07 -2.473065433546e+07 -1.059354236029e-03 5.780484809283e-05 1.250490883218e-03 0.000000000000e+00 3.508014212846e+07 1.083455734735e+08  2.005167290289e-03
1.000000000000e-01 1.045672294376e+05 1.000000000000e+00 3.538879911632e+01 0.000000000000e+00 -1.256764836391e-03 -1.021437001103e+08 1.536836046148e+06 2.163392806035e+07 -2.473065433546e+07 -1.059354236029e-03 5.780484809283e-05 1.250490883218e-03 0.000000000000e+00 3.508014212846e+07 1.083455734735e+08  2.005167290289e-03
1.000000000000e-01 1.045672294376e+05 1.000000000000e+00 3.538879911632e+01 0.000000000000e+00 -1.256764836391e-03 -1.021437001103e+08 1.536836046148e+06 2.163392806035e+07 -2.473065433546e+07 -1.059354236029e-03 5.780484809283e-05 1.250490883218e-03 0.000000000000e+00 3.508014212846e+07 1.083455734735e+08  2.005167290289e-03
1.000000000000e-01 1.045672294376e+05 1.000000000000e+00 3.538879911632e+01 0.000000000000e+00 -1.256764836391e-03 -1.021437001103e+08 1.536836046148e+06 2.163392806035e+07 -2.473065433546e+07 -1.059354236029e-03 5.780484809283e-05 1.250490883218e-03 0.000000000000e+00 3.508014212846e+07 1.083455734735e+08  2.005167290289e-03
2.000000000000e-01 1.257459073664e+05 1.000000000000e+00 3.885749510603e+01 0.000000000000e+00 -1.122732272717e-03 -1.033402193444e+08 1.542341885594e+06 2.099268537613e+07 -2.649274877160e+07 -1.038347157096e-03 5.821385330880e-05 1.292122519718e-03 0.000000000000e+00 3.628009424661e+07 1.087045176081e+08  2.024742879413e-03
2.000000000000e-01 1.257459073664e+05 1.000000000000e+00 3.885749510603e+01 0.000000000000e+00 -1.122732272717e-03 -1.033402193444e+08 1.542341885594e+06 2.099268537613e+07 -2.649274877160e+07 -1.038347157096e-03 5.821385330880e-05 1.292122519718e-03 0.000000000000e+00 3.628009424661e+07 1.087045176081e+08  2.024742879413e-03
2.000000000000e-01 1.257459073664e+05 1.000000000000e+00 3.885749510603e+01 0.000000000000e+00 -1.122732272717e-03 -1.033402193444e+08 1.542341885594e+06 2.099268537613e+07 -2.649274877160e+07 -1.038347157096e-03 5.821385330880e-05 1.292122519718e-03 0.000000000000e+00 3.628009424661e+07 1.087045176081e+08  2.024742879413e-03
2.000000000000e-01 1.257459073664e+05 1.000000000000e+00 3.885749510603e+01 0.000000000000e+00 -1.122732272717e-03 -1.033402193444e+08 1.542341885594e+06 2.099268537613e+07 -2.649274877160e+07 -1.038347157096e-03 5.821385330880e-05 1.292122519718e-03 0.000000000000e+00 3.628009424661e+07 1.087045176081e+08  2.024742879413e-03
3.000000000000e-01 1.562400344316e+05 1.000000000000e+00 4.116519335709e+01 0.000000000000e+00 -9.746389936696e-04 -1.040365244150e+08 1.542061417120e+06 2.044782652739e+07 -2.767147811989e+07 -1.020428541069e-03 5.819301850789e-05 1.315666281129e-03 0.000000000000e+00 3.708672533584e+07 1.087605377088e+08  2.030998492546e-03
3.000000000000e-01 1.562400344316e+05 1.000000000000e+00 4.116519335709e+01 0.000000000000e+00 -9.746389936696e-04 -1.040365244150e+08 1.542061417120e+06 2.044782652739e+07 -2.767147811989e+07 -1.020428541069e-03 5.819301850789e-05 1.315666281129e-03 0.000000000000e+00 3.708672533584e+07 1.087605377088e+08  2.030998492546e-03
3.000000000000e-01 1.562400344316e+05 1.000000000000e+00 4.116519335709e+01 0.000000000000e+00 -9.746389936696e-04 -1.040365244150e+08 1.542061417120e+06 2.044782652739e+07 -2.767147811989e+07 -1.020428541069e-03 5.819301850789e-05 1.315666281129e-03 0.000000000000e+00 3.708672533584e+07 1.087605377088e+08  2.030998492546e-03
3.000000000000e-01 1.562400344316e+05 1.000000000000e+00 4.116519335709e+01 0.000000000000e+00 -9.746389936696e-04 -1.040365244150e+08 1.542061417120e+06 2.044782652739e+07 -2.767147811989e+07 -1.020428541069e-03 5.819301850789e-05 1.315666281129e-03 0.000000000000e+00 3.708672533584e+07 1.087605377088e+08  2.030998492546e-03
4.000000000000e-01 1.873099579768e+05 1.000000000000e+00 4.284986299412e+01 0.000000000000e+00 -8.342366212456e-04 -1.044936419993e+08 1.539209901608e+06 1.996160460531e+07 -2.854352346223e+07 -1.005016938629e-03 5.798119164129e-05 1.329996865310e-03 0.000000000000e+00 3.769185361875e+07 1.086841556180e+08  2.031183286260e-03
4.000000000000e-01 1.873099579768e+05 1.000000000000e+00 4.284986299412e+01 0.000000000000e+00 -8.342366212456e-04 -1.044936419993e+08 1.539209901608e+06 1.996160460531e+07 -2.854352346223e+07 -1.005016938629e-03 5.798119164129e-05 1.329996865310e-03 0.000000000000e+00 3.769185361875e+07 1.086841556180e+08  2.031183286260e-03
4.000000000000e-01 1.873099579768e+05 1.000000000000e+00 4.284986299412e+01 0.000000000000e+00 -8.342366212456e-04 -1.044936419993e+08 1.539209901608e+06 1.996160460531e+07 -2.854352346223e+07 -1.005016938629e-03 5.798119164129e-05 1.329996865310e-03 0.000000000000e+00 3.769185361875e+07 1.086841556180e+08  2.031183286260e-03
4.000000000000e-01 1.873099579768e+05 1.000000000000e+00 4.284986299412e+01 0.000000000000e+00 -8.342366212456e-04 -1.044936419993e+08 1.539209901608e+06 1.996160460531e+07 -2.854352346223e+07 -1.005016938629e-03 5.798119164129e-05 1.329996865310e-03 0.000000000000e+00 3.769185361875e+07 1.086841556180e+08  2.031183286260e-03
5.000000000000e-01 2.167971561645e+05 1.000000000000e+00 4.415870677105e+01 0.000000000000e+00 -6.987283644717e-04 -1.048033496348e+08 1.535141763461e+06 1.950581862228e+07 -2.923099426792e+07 -9.909857351642e-04 5.767898709323e-05 1.338602301581e-03 0.000000000000e+00 3.817617509349e+07 1.085204291840e+08  2.027418366218e-03
5.000000000000e-01 2.167971561645e+05 1.000000000000e+00 4.415870677105e+01 0.000000000000e+00 -6.987283644717e-04 -1.048033496348e+08 1.535141763461e+06 1.950581862228e+07 -2.923099426792e+07 -9.909857351642e-04 5.767898709323e-05 1.338602301581e-03 0.000000000000e+00 3.817617509349e+07 1.085204291840e+08  2.027418366218e-03
5.000000000000e-01 2.167971561645e+05 1.000000000000e+00 4.415870677105e+01 0.000000000000e+00 -6.987283644717e-04 -1.048033496348e+08 1.535141763461e+06 1.950581862228e+07 -2.923099426792e+07 -9.909857351642e-04 5.767898709323e-05 1.338602301581e-03 0.000000000000e+00 3.817617509349e+07 1.085204291840e+08  2.027418366218e-03
5.000000000000e-01 2.167971561645e+05 1.000000000000e+00 4.415870677105e+01 0.000000000000e+00 -6.987283644717e-04 -1.048033496348e+08 1.535141763461e+06 1.950581862228e+07 -2.923099426792e+07 -9.909857351642e-04 5.767898709323e-05 1.338602301581e-03 0.000000000000e+00 3.817617509349e+07 1.085204291840e+08  2.027418366218e-03
6.000000000000e-01 2.441751622672e+05 1.000000000000e+00 4.522029184852e+01 0.000000000000e+00 -5.672311055678e-04 -1.050204124395e+08 1.530187537842e+06 1.906912365101e+07 -2.979855659527e+07 -9.779671814639e-04 5.731095890440e-05 1.343463089092e-03 0.000000000000e+00 3.858328179458e+07 1.083019842382e+08  2.021145548556e-03
6.000000000000e-01 2.441751622672e+05 1.000000000000e+00 4.522029184852e+01 0.000000000000e+00 -5.672311055678e-04 -1.050204124395e+08 1.530187537842e+06 1.906912365101e+07 -2.979855659527e+07 -9.779671814639e-04 5.731095890440e-05 1.343463089092e-03 0.000000000000e+00 3.858328179458e+07 1.083019842382e+08  2.021145548556e-03
6.000000000000e-01 2.441751622672e+05 1.000000000000e+00 4.522029184852e+01 0.000000000000e+00 -5.672311055678e-04 -1.050204124395e+08 1.530187537842e+06 1.906912365101e+07 -2.979855659527e+07 -9.779671814639e-04 5.731095890440e-05 1.343463089092e-03 0.000000000000e+00 3.858328179458e+07 1.083019842382e+08  2.021145548556e-03
6.000000000000e-01 2.441751622672e+05 1.000000000000e+00 4.522029184852e+01 0.000000000000e+00 -5.672311055678e-04 -1.050204124395e+08 1.530187537842e+06 1.906912365101e+07 -2.979855659527e+07 -9.779671814639e-04 5.731095890440e-05 1.343463089092e-03 0.000000000000e+00 3.858328179458e+07 1.083019842382e+08  2.021145548556e-03
7.000000000000e-01 2.695236793827e+05 1.000000000000e+00 4.610823858705e+01 0.000000000000e+00 -4.397820700510e-04 -1.051831859849e+08 1.524883351676e+06 1.865621990439e+07 -3.028200574074e+07 -9.660563734623e-04 5.691693364635e-05 1.346083346764e-03 0.000000000000e+00 3.893632394042e+07 1.080631454236e+08  2.013781592304e-03
7.000000000000e-01 2.695236793827e+05 1.000000000000e+00 4.610823858705e+01 0.000000000000e+00 -4.397820700510e-04 -1.051831859849e+08 1.524883351676e+06 1.865621990439e+07 -3.028200574074e+07 -9.660563734623e-04 5.691693364635e-05 1.346083346764e-03 0.000000000000e+00 3.893632394042e+07 1.080631454236e+08  2.013781592304e-03
7.000000000000e-01 2.695236793827e+05 1.000000000000e+00 4.610823858705e+01 0.000000000000e+00 -4.397820700510e-04 -1.051831859849e+08 1.524883351676e+06 1.865621990439e+07 -3.028200574074e+07 -9.660563734623e-04 5.691693364635e-05 1.346083346764e-03 0.000000000000e+00 3.893632394042e+07 1.080631454236e+08  2.013781592304e-03
7.000000000000e-01 2.695236793827e+05 1.000000000000e+00 4.610823858705e+01 0.000000000000e+00 -4.397820700510e-04 -1.051831859849e+08 1.524883351676e+06 1.865621990439e+07 -3.028200574074e+07 -9.660563734623e-04 5.691693364635e-05 1.346083346764e-03 0.000000000000e+00 3.893632394042e+07 1.080631454236e+08  2.013781592304e-03
8.000000000000e-01 2.931001250057e+05 1.000000000000e+00 4.686835872746e+01 0.000000000000e+00 -3.165325515122e-04 -1.053220245726e+08 1.519836775303e+06 1.827640489184e+07 -3.070365340794e+07 -9.555520362226e-04 5.654204511579e-05 1.347637131079e-03 0.000000000000e+00 3.924975769622e+07 1.078364006617e+08  2.006622521622e-03
8.000000000000e-01 2.931001250057e+05 1.000000000000e+00 4.686835872746e+01 0.000000000000e+00 -3.165325515122e-04 -1.053220245726e+08 1.519836775303e+06 1.827640489184e+07 -3.070365340794e+07 -9.555520362226e-04 5.654204511579e-05 1.347637131079e-03 0.000000000000e+00 3.924975769622e+07 1.078364006617e+08  2.006622521622e-03
8.000000000000e-01 2.931001250057e+05 1.000000000000e+00 4.686835872746e+01 0.000000000000e+00 -3.165325515122e-04 -1.053220245726e+08 1.519836775303e+06 1.827640489184e+07 -3.070365340794e+07 -9.555520362226e-04 5.654204511579e-05 1.347637131079e-03 0.000000000000e+00 3.924975769622e+07 1.078364006617e+08  2.006622521622e-03
8.000000000000e-01 2.931001250057e+05 1.000000000000e+00 4.686835872746e+01 0.000000000000e+00 -3.165325515122e-04 -1.053220245726e+08 1.519836775303e+06 1.827640489184e+07 -3.070365340794e+07 -9.555520362226e-04 5.654204511579e-05 1.347637131079e-03 0.000000000000e+00 3.924975769622e+07 1.078364006617e+08  2.006622521622e-03
9.000000000000e-01 3.149678576752e+05 1.000000000000e+00 4.753046133627e+01 0.000000000000e+00 -1.967732016133e-04 -1.054371380974e+08 1.515057530559e+06 1.791799412355e+07 -3.107748792821e+07 -9.459423992493e-04 5.618701550619e-05 1.348210013296e-03 0.000000000000e+00 3.953221063402e+07 1.076108170119e+08  1.999319188987e-03
9.000000000000e-01 3.149678576752e+05 1.000000000000e+00 4.753046133627e+01 0.000000000000e+00 -1.967732016133e-04 -1.054371380974e+08 1.515057530559e+06 1.791799412355e+07 -3.107748792821e+07 -9.459423992493e-04 5.618701550619e-05 1.348210013296e-03 0.000000000000e+00 3.953221063402e+07 1.076108170119e+08  1.999319188987e-03
9.000000000000e-01 3.149678576752e+05 1.000000000000e+00 4.753046133627e+01 0.000000000000e+00 -1.967732016133e-04 -1.054371380974e+08 1.515057530559e+06 1.791799412355e+07 -3.107748792821e+07 -9.459423992493e-04 5.618701550619e-05 1.348210013296e-03 0.000000000000e+00 3.953221063402e+07 1.076108170119e+08  1.999319188987e-03
9.000000000000e-01 3.149678576752e+05 1.000000000000e+00 4.753046133627e+01 0.000000000000e+00 -1.967732016133e-04 -1.054371380974e+08 1.515057530559e+06 1.791799412355e+07 -3.107748792821e+07 -9.459423992493e-04 5.618701550619e-05 1.348210013296e-03 0.000000000000e+00 3.953221063402e+07 1.076108170119e+08  1.999319188987e-03
1.000000000000e+00 3.353127068989e+05 1.000000000000e+00 4.811530493389e+01 0.000000000000e+00 -8.026746064932e-05 -1.055376320495e+08 1.510600645333e+06 1.757621186921e+07 -3.141493081128e+07 -9.371414389562e-04 5.585593260368e-05 1.348048836649e-03 0.000000000000e+00 3.979211699719e+07 1.073895175292e+08  1.992019534236e-03