 TITLE = "Time curves in points"
 VARIABLES = "TIME"  "PRESSURE1"  "SATURATION1"  "TEMPERATURE1"  "DISPLACEMENT_X1"  "DISPLACEMENT_Y1"  "STRESS_XX"  "STRESS_XY"  "STRESS_YY"  "STRESS_ZZ"  "STRAIN_XX"  "STRAIN_XY"  "STRAIN_YY"  "STRAIN_PLS"  p_(1st_Invariant)  q_(2nd_Invariant)   Effective_Strain
 ZONE T="POINT=POINT2"
0.000000000000e+00 -7.000000000000e+07 8.894919982500e-01 2.500000000000e+01 0.000000000000e+00 0.000000000000e+00 0.000000000000e+00 0.000000000000e+00 0.000000000000e+00 0.000000000000e+00 0.000000000000e+00 0.000000000000e+00 0.000000000000e+00 0.000000000000e+00 -0.000000000000e+00 0.000000000000e+00  0.000000000000e+00
1.000000000000e-03 -6.999999537629e+07 6.684760111000e-01 3.309920026860e+01 0.000000000000e+00 9.512674855889e-05 6.208780497617e+06 7.492678808426e+05 -9.024425331860e+06 -1.022653245308e+06 -6.056013727142e-06 -6.011051023144e-04 -7.691592319103e-03 0.000000000000e+00 1.279432693183e+06 1.326161687899e+07  7.758738990455e-03
2.000000000000e-03 -7.015897607413e+07 6.679155789141e-01 3.680474815993e+01 0.000000000000e+00 9.492327244005e-05 6.139813924891e+06 7.469685070591e+05 -9.098493384636e+06 -1.071164998667e+06 -6.745293169640e-06 -6.016084990192e-04 -7.712489356405e-03 0.000000000000e+00 1.343281486137e+06 1.326631070447e+07  7.779223157111e-03
3.000000000000e-03 -7.037098642507e+07 6.671689085523e-01 3.938015743566e+01 0.000000000000e+00 9.458107932069e-05 6.060052922182e+06 7.443307516766e+05 -9.189235778258e+06 -1.126996466445e+06 -7.771064102444e-06 -6.032840784240e-04 -7.751365718329e-03 0.000000000000e+00 1.418726440840e+06 1.327626372727e+07  7.817630687534e-03
4.000000000000e-03 -7.061767538446e+07 6.663004324712e-01 4.141326107397e+01 0.000000000000e+00 9.410290593641e-05 5.973368618933e+06 7.414947705584e+05 -9.290557256717e+06 -1.187671590287e+06 -8.993018233261e-06 -6.056204546572e-04 -7.800602688055e-03 0.000000000000e+00 1.501620076024e+06 1.328953673209e+07  7.866362603794e-03
1.000000000000e-02 -7.212436535164e+07 6.610102006695e-01 4.814031306241e+01 0.000000000000e+00 9.116981040060e-05 5.485967599871e+06 7.271856877811e+05 -9.885953923118e+06 -1.531750248802e+06 -1.650218483005e-05 -6.229919026207e-04 -8.127882227269e-03 0.000000000000e+00 1.977245524017e+06 1.338861173333e+07  8.191029894944e-03
2.000000000000e-02 -7.521838927306e+07 6.501913312996e-01 5.432127347824e+01 0.000000000000e+00 8.904664366692e-05 4.608573571465e+06 7.080383180854e+05 -1.103526384222e+07 -2.169217969640e+06 -3.075317509159e-05 -6.639006072543e-04 -8.815820239667e-03 0.000000000000e+00 2.865302746799e+06 1.364336443431e+07  8.875292098936e-03
3.000000000000e-02 -7.885304567777e+07 6.375369879652e-01 5.823716234590e+01 0.000000000000e+00 8.907303240440e-05 3.698450332974e+06 6.977488750921e+05 -1.231319896752e+07 -2.855162448268e+06 -4.570186293286e-05 -7.161201854523e-04 -9.613923652134e-03 0.000000000000e+00 3.823303694273e+06 1.399461199113e+07  9.671025115694e-03
4.000000000000e-02 -8.260242274945e+07 6.245444013950e-01 6.095065593317e+01 0.000000000000e+00 9.143328355023e-05 2.860634243602e+06 6.993852883281e+05 -1.357371847866e+07 -3.512723063196e+06 -5.939266656913e-05 -7.737904039037e-04 -1.042298431106e-02 0.000000000000e+00 4.741935766086e+06 1.440253623844e+07  1.047947209420e-02
5.000000000000e-02 -8.623995729545e+07 6.178036151044e-01 6.295231972479e+01 0.000000000000e+00 9.476356278704e-05 1.727604461281e+06 6.859148994035e+05 -1.511379857558e+07 -4.351667338972e+06 -7.902519278580e-05 -8.342805465668e-04 -1.137966897704e-02 0.000000000000e+00 5.912620484424e+06 1.481952674887e+07  1.143205592029e-02
6.000000000000e-02 -8.968091162548e+07 6.112976919410e-01 6.450103373035e+01 0.000000000000e+00 1.004124554305e-04 7.583463226544e+05 6.875129504400e+05 -1.656403413607e+07 -5.112377987505e+06 -9.490704421616e-05 -8.990798700168e-04 -1.229935919268e-02 0.000000000000e+00 6.972688600308e+06 1.530533798336e+07  1.235074823275e-02
7.000000000000e-02 -9.292392863052e+07 6.047947078570e-01 6.575112424602e+01 0.000000000000e+00 1.060877179866e-04 -4.820159520575e+04 7.059196288390e+05 -1.791272001218e+07 -5.791444926873e+06 -1.070846851531e-04 -9.680503426955e-04 -1.317523998260e-02 0.000000000000e+00 7.917455511418e+06 1.584362816821e+07  1.322871549703e-02
8.000000000000e-02 -9.597684616128e+07 5.987103601914e-01 6.679366694607e+01 0.000000000000e+00 1.125644879747e-04 -7.545089435787e+05 7.364603086995e+05 -1.918966436477e+07 -6.417408406172e+06 -1.166288538746e-04 -1.039900871209e-03 -1.401833043500e-02 0.000000000000e+00 8.787193904841e+06 1.640591586466e+07  1.407609427818e-02
9.000000000000e-02 -9.886346673557e+07 5.929822442230e-01 6.768828995956e+01 0.000000000000e+00 1.184447814245e-04 -1.398410453507e+06 7.690014942637e+05 -2.038371752197e+07 -6.997853944354e+06 -1.251768784173e-04 -1.108942114850e-03 -1.481291329481e-02 0.000000000000e+00 9.593327306610e+06 1.694882260510e+07  1.487525102734e-02
1.000000000000e-01 -1.016032157368e+08 5.873455859496e-01 6.846872321336e+01 0.000000000000e+00 1.236972655134e-04 -1.978877312938e+06 8.020994456631e+05 -2.148139481119e+07 -7.528049755233e+06 -1.336650329067e-04 -1.173365949643e-03 -1.555032898829e-02 0.000000000000e+00 1.032944062645e+07 1.745991871314e+07  1.561673543684e-02
2.000000000000e-01 -1.181504397069e+08 5.520553191261e-01 7.270598278299e+01 0.000000000000e+00 2.167526974073e-04 -5.168265423732e+06 1.016494881049e+06 -2.758820551464e+07 -1.046796114587e+07 -1.896705061006e-04 -1.537800712153e-03 -1.977081912162e-02 0.000000000000e+00 1.440814402808e+07 2.037207435109e+07  1.985612790709e-02
3.000000000000e-01 -1.336338807803e+08 5.238622779198e-01 7.551347400682e+01 0.000000000000e+00 3.251046548114e-04 -8.256393871482e+06 1.128748776030e+06 -3.270276884648e+07 -1.305442121776e+07 -2.514308801390e-04 -1.805311668991e-03 -2.327338778807e-02 0.000000000000e+00 1.800452797857e+07 2.252052756009e+07  2.335892974673e-02
4.000000000000e-01 -1.468337430373e+08 5.053221652465e-01 7.753845423661e+01 0.000000000000e+00 4.293422106408e-04 -1.095469187216e+07 1.231781908732e+06 -3.722447005740e+07 -1.533388263770e+07 -2.997088908964e-04 -2.043531018779e-03 -2.636484180123e-02 0.000000000000e+00 2.117101485576e+07 2.447018691456e+07  2.645412988934e-02
5.000000000000e-01 -1.576243848365e+08 4.899377774359e-01 7.910019767538e+01 0.000000000000e+00 5.307806523621e-04 -1.296277140650e+07 1.326058756767e+06 -4.066824121172e+07 -1.705598865865e+07 -3.333009199609e-04 -2.232952007140e-03 -2.874905019632e-02 0.000000000000e+00 2.356233375896e+07 2.600419722073e+07  2.884432553924e-02
6.000000000000e-01 -1.663707379123e+08 4.767885875890e-01 8.034131136815e+01 0.000000000000e+00 6.298093194797e-04 -1.446633924730e+07 1.398130764283e+06 -4.320812794305e+07 -1.833278199753e+07 -3.621836675626e-04 -2.371787249564e-03 -3.052531823466e-02 0.000000000000e+00 2.533574972930e+07 2.712518433749e+07  3.062264820188e-02
7.000000000000e-01 -1.732967281440e+08 4.680998911429e-01 8.134433193235e+01 0.000000000000e+00 7.264810183807e-04 -1.585877971784e+07 1.441361030085e+06 -4.538560805984e+07 -1.945894386111e+07 -3.888998865753e-04 -2.483240422493e-03 -3.201977583205e-02 0.000000000000e+00 2.690111054626e+07 2.801295967927e+07  3.211641712979e-02
8.000000000000e-01 -1.786683255247e+08 4.623781747353e-01 8.216160035805e+01 0.000000000000e+00 8.209692063830e-04 -1.706692314866e+07 1.470618373623e+06 -4.720980326818e+07 -2.041536588974e+07 -4.124388388909e-04 -2.572365204952e-03 -3.325940416373e-02 0.000000000000e+00 2.823069743553e+07 2.872910958872e+07  3.335403707694e-02
9.000000000000e-01 -1.827329822501e+08 4.580426423379e-01 8.284030403697e+01 0.000000000000e+00 9.132623028461e-04 -1.803931268104e+07 1.492587555918e+06 -4.862576564788e+07 -2.116825612938e+07 -4.312993447001e-04 -2.640542308367e-03 -3.422119878199e-02 0.000000000000e+00 2.927777815276e+07 2.926263083548e+07  3.431376219009e-02
1.000000000000e+00 -1.857446759461e+08 4.548262752410e-01 8.340750001181e+01 0.000000000000e+00 1.003371724388e-03 -1.879622762663e+07 1.516820897764e+06 -4.976185745028e+07 -2.176558761345e+07 -4.447748646348e-04 -2.699473318161e-03 -3.499663577108e-02 0.000000000000e+00 3.010789089678e+07 2.970928245262e+07  3.508928874489e-02
2.000000000000e+00 -1.865346205152e+08 4.540266985667e-01 8.537368197274e+01 0.000000000000e+00 1.751586787516e-03 -2.151862448859e+07 1.545439461500e+06 -5.291377267314e+07 -2.361219877595e+07 -4.866701001861e-04 -2.853497552809e-03 -3.706054128102e-02 0.000000000000e+00 3.268153197922e+07 3.052008285092e+07  3.714985404200e-02
3.000000000000e+00 -1.779756228079e+08 4.632179860869e-01 8.594055505504e+01 0.000000000000e+00 2.386887866369e-03 -2.245989555349e+07 1.519185028168e+06 -5.327954618775e+07 -2.401742383333e+07 -4.957689751204e-04 -2.867659172039e-03 -3.721439352364e-02 0.000000000000e+00 3.325228852486e+07 3.018605723794e+07  3.730117341121e-02
4.000000000000e+00 -1.659453125523e+08 4.777255346227e-01 8.593358510485e+01 0.000000000000e+00 2.940176049652e-03 -2.258437989790e+07 1.472516192106e+06 -5.242499846719e+07 -2.378076516953e+07 -4.877473327615e-04 -2.821081562454e-03 -3.653206302746e-02 0.000000000000e+00 3.293004784487e+07 2.937171921375e+07  3.661811865385e-02
5.000000000000e+00 -1.534804881408e+08 4.962754141607e-01 8.574019153179e+01 0.000000000000e+00 1.564485374876e-02 -2.266783063712e+07 1.377699809948e+06 -5.966609640223e+07 -2.617997298243e+07 -3.264643999903e-04 -3.439036056058e-03 -4.156143202809e-02 0.000000000000e+00 3.617130000726e+07 3.545360077456e+07  4.182549211001e-02
6.000000000000e+00 -1.417531262717e+08 5.128625752747e-01 8.559242984753e+01 0.000000000000e+00 3.872869863761e-03 -2.225244776495e+07 1.317912191665e+06 -4.960023846206e+07 -2.277103084735e+07 -4.679600012857e-04 -2.645715043016e-03 -3.437500688095e-02 0.000000000000e+00 3.154123902479e+07 2.718821730943e+07  3.444957736505e-02
7.000000000000e+00 -1.313745199797e+08 5.275460241331e-01 8.532214685712e+01 0.000000000000e+00 4.275127330407e-03 -2.166005968229e+07 1.275384085580e+06 -4.790477543605e+07 -2.204605297667e+07 -4.501358908679e-04 -2.559177959753e-03 -3.316979499701e-02 0.000000000000e+00 3.053696269834e+07 2.614734451569e+07  3.324387436404e-02
8.000000000000e+00 -1.218730959231e+08 5.455279997025e-01 8.524103741090e+01 0.000000000000e+00 4.647222487228e-03 -2.127060968117e+07 1.230506504141e+06 -4.658888821716e+07 -2.150673986789e+07 -4.333091226747e-04 -2.490702331753e-03 -3.218804994442e-02 0.000000000000e+00 2.978874592207e+07 2.529100659173e+07  3.226331871731e-02
9.000000000000e+00 -1.135456722305e+08 5.638272296239e-01 8.515896221460e+01 0.000000000000e+00 4.991850965123e-03 -2.107292097934e+07 1.173920025018e+06 -4.542971959467e+07 -2.107613287812e+07 -4.228098705687e-04 -2.418267206615e-03 -3.129993411668e-02 0.000000000000e+00 2.919292448404e+07 2.443991984863e+07  3.137155991738e-02
1.000000000000e+01 -1.059793812831e+08 5.802612879421e-01 8.507174833752e+01 0.000000000000e+00 5.312804973398e-03 -2.078133247598e+07 1.112290946004e+06 -4.413194044900e+07 -2.057155863444e+07 -4.131988818851e-04 -2.338089659122e-03 -3.032940475434e-02 0.000000000000e+00 2.849494385314e+07 2.353518255627e+07  3.039591156222e-02
1.100000000000e+01 -9.909822210168e+07 5.940697241255e-01 8.503712416840e+01 0.000000000000e+00 5.615561540154e-03 -2.034116529724e+07 1.053074917245e+06 -4.266449114247e+07 -1.996659991530e+07 -4.059628675886e-04 -2.249075561957e-03 -2.926606663103e-02 0.000000000000e+00 2.765741878501e+07 2.258671338271e+07  2.932510099248e-02
1.200000000000e+01 -9.295714279152e+07 6.064074949627e-01 8.500709438187e+01 0.000000000000e+00 5.899015920694e-03 -1.988312701925e+07 1.001339245624e+06 -4.124431683471e+07 -1.937104191955e+07 -3.976805978429e-04 -2.165948391514e-03 -2.824400238060e-02 0.000000000000e+00 2.683282859117e+07 2.169122977962e+07  2.829706214230e-02
1.300000000000e+01 -8.732663241847e+07 6.177177534092e-01 8.495625989402e+01 0.000000000000e+00 6.165938651548e-03 -1.930555839123e+07 9.768525044704e+05 -3.990719566478e+07 -1.876644227996e+07 -3.842649098035e-04 -2.101416232029e-03 -2.730074934286e-02 0.000000000000e+00 2.599306544532e+07 2.094486814358e+07  2.735389743271e-02
1.400000000000e+01 -8.200086706701e+07 6.338216884032e-01 8.486705770932e+01 0.000000000000e+00 6.418530166879e-03 -1.896316581123e+07 9.446276477785e+05 -3.889833396269e+07 -1.834088256236e+07 -3.731165149997e-04 -2.047112084701e-03 -2.654195805736e-02 0.000000000000e+00 2.540079411210e+07 2.031945991043e+07  2.659480239113e-02
1.500000000000e+01 -7.695663775889e+07 6.518493265119e-01 8.476324699187e+01 0.000000000000e+00 6.418783809209e-03 -1.869247045061e+07 9.065172799610e+05 -3.786162003142e+07 -1.792837448110e+07 -3.652330252754e-04 -1.983800630672e-03 -2.574831395197e-02 0.000000000000e+00 2.482748832104e+07 1.962530328357e+07  2.579750621200e-02
1.600000000000e+01 -7.222794945229e+07 6.687652531351e-01 8.464730142904e+01 0.000000000000e+00 6.882110738877e-03 -1.836536476153e+07 8.694564033790e+05 -3.691914110970e+07 -1.752948739343e+07 -3.532401720417e-04 -1.931640937542e-03 -2.503435554007e-02 0.000000000000e+00 2.427133108822e+07 1.904515300035e+07  2.508374585270e-02
1.700000000000e+01 -6.776362274640e+07 6.847516312760e-01 8.451638001277e+01 0.000000000000e+00 7.095209835211e-03 -1.798120659705e+07 8.316938580283e+05 -3.581256814116e+07 -1.705956970176e+07 -3.428326965073e-04 -1.868164786456e-03 -2.421216850679e-02 0.000000000000e+00 2.361778147999e+07 1.836616600699e+07  2.425934941522e-02
1.800000000000e+01 -6.352440965027e+07 6.999404143102e-01 8.436963523088e+01 0.000000000000e+00 7.296925589457e-03 -1.755443030031e+07 7.932220167192e+05 -3.464556678137e+07 -1.655677704135e+07 -3.312835456333e-04 -1.802309460827e-03 -2.335371810945e-02 0.000000000000e+00 2.291892470768e+07 1.766467915793e+07  2.339902036330e-02
1.900000000000e+01 -5.947137120125e+07 7.144609320822e-01 8.420550107084e+01 0.000000000000e+00 7.488017567567e-03 -1.709507266339e+07 7.525290544395e+05 -3.341158281225e+07 -1.602215857471e+07 -3.200316339450e-04 -1.731662578234e-03 -2.245398550917e-02 0.000000000000e+00 2.217627135012e+07 1.692881453704e+07  2.249653008080e-02
2.000000000000e+01 -5.570661719977e+07 7.279403911442e-01 8.402769559969e+01 0.000000000000e+00 7.670608379035e-03 -1.662271991723e+07 7.114613658842e+05 -3.216629326355e+07 -1.547955877760e+07 -3.089622239182e-04 -1.660437631675e-03 -2.155198702705e-02 0.000000000000e+00 2.142285731946e+07 1.619249303257e+07  2.159157270822e-02
2.100000000000e+01 -5.208363291662e+07 7.403246151126e-01 8.393963607309e+01 0.000000000000e+00 7.670463243539e-03 -1.608635262542e+07 6.701234658457e+05 -3.081334259366e+07 -1.488243245283e+07 -2.984512891873e-04 -1.582788226681e-03 -2.058290800183e-02 0.000000000000e+00 2.059404255730e+07 1.540814635150e+07  2.061838585503e-02
2.200000000000e+01 -4.869858895976e+07 7.518073519384e-01 8.385004960415e+01 0.000000000000e+00 8.009381670169e-03 -1.557362415924e+07 6.295784320887e+05 -2.954774721203e+07 -1.432053887420e+07 -2.875347637923e-04 -1.511446844801e-03 -1.967731394945e-02 0.000000000000e+00 1.981397008182e+07 1.468149218579e+07  1.970976568559e-02
2.300000000000e+01 -4.556372462724e+07 7.623569509304e-01 8.375183767457e+01 0.000000000000e+00 8.168582765271e-03 -1.504079584785e+07 5.947121679333e+05 -2.829438821100e+07 -1.375616306932e+07 -2.763276492858e-04 -1.442659841518e-03 -1.878660687618e-02 0.000000000000e+00 1.903044904273e+07 1.397837754445e+07  1.881662823751e-02
2.400000000000e+01 -4.249966755870e+07 7.735265808107e-01 8.363904554352e+01 0.000000000000e+00 8.320252704227e-03 -1.448639423183e+07 5.611466409000e+05 -2.703482906034e+07 -1.318354262459e+07 -2.643763695839e-04 -1.374307403518e-03 -1.789158289498e-02 0.000000000000e+00 1.823492197225e+07 1.328360056981e+07  1.791967310357e-02
2.500000000000e+01 -3.946992266371e+07 7.878662745748e-01 8.350995276642e+01 0.000000000000e+00 8.465002909279e-03 -1.397541155471e+07 5.249061641398e+05 -2.582109129357e+07 -1.264025184196e+07 -2.530151666906e-04 -1.305872079524e-03 -1.701366336721e-02 0.000000000000e+00 1.747891823008e+07 1.259941402348e+07  1.703936467826e-02
2.600000000000e+01 -3.648795467008e+07 8.025711742696e-01 8.336809702336e+01 0.000000000000e+00 8.486215897825e-03 -1.343324146529e+07 4.885742688621e+05 -2.443653470249e+07 -1.203200474391e+07 -2.435484440586e-04 -1.224727726914e-03 -1.601764154324e-02 0.000000000000e+00 1.663392697056e+07 1.179704451979e+07  1.603817192800e-02
2.700000000000e+01 -3.356096776948e+07 8.175875670979e-01 8.321341910093e+01 0.000000000000e+00 8.735339817330e-03 -1.285698970804e+07 4.510702999420e+05 -2.324443959593e+07 -1.147667220875e+07 -2.290970102157e-04 -1.160920074039e-03 -1.516099779106e-02 0.000000000000e+00 1.585936717091e+07 1.116927767011e+07  1.518150870137e-02
2.800000000000e+01 -3.067654818007e+07 8.329529030742e-01 8.304585358530e+01 0.000000000000e+00 8.861418636717e-03 -1.225134771717e+07 4.130273492019e+05 -2.188119119571e+07 -1.085679539361e+07 -2.164783824530e-04 -1.084313620946e-03 -1.418603099310e-02 0.000000000000e+00 1.499644476883e+07 1.042208026147e+07  1.420375222504e-02
2.900000000000e+01 -2.782238131944e+07 8.487208648428e-01 8.286538434685e+01 0.000000000000e+00 8.875572318836e-03 -1.161370094527e+07 3.743870684991e+05 -2.032569224408e+07 -1.016474069578e+07 -2.059859261241e-04 -9.932976018230e-04 -1.307839917695e-02 0.000000000000e+00 1.403471129504e+07 9.541598624557e+06  1.309018370551e-02
3.000000000000e+01 -2.498527561729e+07 8.648790438843e-01 8.267204414140e+01 0.000000000000e+00 9.096257871900e-03 -1.092634711384e+07 3.342195388983e+05 -1.896063887176e+07 -9.520353919794e+06 -1.898883704034e-04 -9.202609898259e-04 -1.211095648726e-02 0.000000000000e+00 1.313577996846e+07 8.840697288345e+06  1.212238572667e-02
3.100000000000e+01 -2.214935226985e+07 8.814778510493e-01 8.255052623482e+01 0.000000000000e+00 9.206952151899e-03 -1.019476630292e+07 2.933002900936e+05 -1.738279264207e+07 -8.793575775148e+06 -1.757629791437e-04 -8.317966043117e-04 -1.099768256146e-02 0.000000000000e+00 1.212371157338e+07 7.997557573894e+06  1.100557066533e-02
3.200000000000e+01 -1.935151504853e+07 8.982243709462e-01 8.242766319725e+01 0.000000000000e+00 9.313672006351e-03 -9.431097289279e+06 2.517955373822e+05 -1.574994759818e+07 -8.039384733857e+06 -1.613340344484e-04 -7.403705742669e-04 -9.850332519179e-03 0.000000000000e+00 1.107347654044e+07 7.130845626706e+06  9.854457432290e-03
3.300000000000e+01 -1.652325712790e+07 9.153678297958e-01 8.229794232476e+01 0.000000000000e+00 9.416503791032e-03 -8.603749554906e+06 2.093450127477e+05 -1.401018521370e+07 -7.231554297729e+06 -1.462026588079e-04 -6.434058056872e-04 -8.635659434093e-03 0.000000000000e+00 9.948496355445e+06 6.217927928885e+06  8.635701812918e-03
3.400000000000e+01 -1.363663890268e+07 9.328905536890e-01 8.215991188141e+01 0.000000000000e+00 9.515308886591e-03 -7.693989680592e+06 1.660511566399e+05 -1.213521749125e+07 -6.355278385128e+06 -1.301239999470e-04 -5.396706631425e-04 -7.336234190629e-03 0.000000000000e+00 8.728161852322e+06 5.248322893502e+06  7.331874077727e-03
3.500000000000e+01 -1.065695033380e+07 9.506820787602e-01 8.201296682334e+01 0.000000000000e+00 9.610526888415e-03 -6.686651610316e+06 1.218901079718e+05 -1.009625929886e+07 -5.396607835966e+06 -1.130788725030e-04 -4.277483332751e-04 -5.934171889537e-03 0.000000000000e+00 7.393172915048e+06 4.211027463264e+06  5.924952260510e-03
3.600000000000e+01 -7.548471699938e+06 9.684051316482e-01 8.185688142982e+01 0.000000000000e+00 9.701861803085e-03 -5.562509105335e+06 7.721642834839e+04 -7.866458878337e+06 -4.340892412303e+06 -9.450601479975e-05 -3.070326662385e-04 -4.413747293595e-03 0.000000000000e+00 5.923286798658e+06 3.103701424789e+06  4.399520208603e-03
3.700000000000e+01 -4.219403969816e+06 9.854150820266e-01 8.169151100666e+01 0.000000000000e+00 9.785715438573e-03 -4.298181084654e+06 3.033482976233e+04 -5.382619619782e+06 -3.160149370984e+06 -7.434763073288e-05 -1.739721002321e-04 -2.733106126928e-03 0.000000000000e+00 4.280316691807e+06 1.925619164836e+06  2.713484030015e-03
3.800000000000e+01 2.090572337689e+06 1.000000000000e+00 8.151767926444e+01 0.000000000000e+00 9.775578343600e-03 -2.376548814621e+06 -7.707654204456e+04 -1.032735788411e+06 -1.170280412350e+06 -4.080032234225e-05 6.167286262388e-05 2.323606177629e-04 0.000000000000e+00 1.526521671794e+06 1.287532561007e+06  2.766715327739e-04
3.900000000000e+01 2.140131967499e+06 1.000000000000e+00 8.133875740813e+01 0.000000000000e+00 9.966360142046e-03 -2.431889030532e+06 -7.745907975084e+04 -1.106557025910e+06 -1.210695336394e+06 -4.046352010029e-05 5.657892596392e-05 1.828782741686e-04 0.000000000000e+00 1.583047130945e+06 1.283484164882e+06  2.282217845304e-04
4.000000000000e+01 2.169517423926e+06 1.000000000000e+00 8.114888570428e+01 0.000000000000e+00 1.004128659941e-02 -2.440460772159e+06 -7.792051466683e+04 -1.102687365380e+06 -1.211767256138e+06 -4.069240080406e-05 5.693818572352e-05 1.850241250297e-04 0.000000000000e+00 1.584971797892e+06 1.293764566372e+06  2.305314407208e-04
4.200000000000e+01 2.226800970498e+06 1.000000000000e+00 8.087411848909e+01 0.000000000000e+00 1.018159753524e-02 -2.457656408700e+06 -7.882193447839e+04 -1.095924308951e+06 -1.214363856886e+06 -4.112110645599e-05 5.763172309068e-05 1.893350772458e-04 0.000000000000e+00 1.589314858179e+06 1.313658249228e+06  2.351353466800e-04
4.400000000000e+01 2.282566774781e+06 1.000000000000e+00 8.057884049335e+01 0.000000000000e+00 1.031240276028e-02 -2.474028402664e+06 -7.969884809366e+04 -1.089343957539e+06 -1.216750865518e+06 -4.152347597920e-05 5.827362526993e-05 1.933254611875e-04 0.000000000000e+00 1.593374408573e+06 1.332749371883e+06  2.394032672100e-04
5.000000000000e+01 2.434088971202e+06 1.000000000000e+00 7.938388867998e+01 0.000000000000e+00 1.058600256278e-02 -2.514306722399e+06 -8.206602074894e+04 -1.072384097639e+06 -1.221828848287e+06 -4.242953285943e-05 5.951820048701e-05 2.006856462074e-04 0.000000000000e+00 1.602839889442e+06 1.380648875516e+06  2.474211806619e-04
6.500000000000e+01 2.765473793754e+06 1.000000000000e+00 7.672160528181e+01 0.000000000000e+00 1.105010899008e-02 -2.595457763630e+06 -8.725557393721e+04 -1.037031725462e+06 -1.231355253425e+06 -4.398677466537e-05 6.166070799670e-05 2.149539552369e-04 0.000000000000e+00 1.621281580839e+06 1.478666666190e+06  2.626809835939e-04
8.000000000000e+01 3.020527468843e+06 1.000000000000e+00 7.427524820246e+01 0.000000000000e+00 1.127028269837e-02 -2.652062936259e+06 -9.123317493581e+04 -1.012445027510e+06 -1.237331999789e+06 -4.485229111531e-05 6.254947853277e-05 2.211735938072e-04 0.000000000000e+00 1.633946654520e+06 1.547631353529e+06  2.694196370469e-04
1.000000000000e+02 3.321206982660e+06 1.000000000000e+00 7.180475267663e+01 0.000000000000e+00 1.145452894060e-02 -2.720467633218e+06 -9.592255796723e+04 -9.896140646956e+05 -1.247347094503e+06 -4.567924337492e-05 6.327246782160e-05 2.271270213668e-04 0.000000000000e+00 1.652476264139e+06 1.625972222190e+06  2.757870249831e-04
1.860000000000e+02 3.919688074504e+06 1.000000000000e+00 6.658180885797e+01 0.000000000000e+00 1.167336951741e-02 -2.846652644474e+06 -1.052733482763e+05 -9.425873762439e+05 -1.263420889630e+06 -4.689659774058e-05 6.417378052478e-05 2.375768478904e-04 0.000000000000e+00 1.684220303449e+06 1.775037513080e+06  2.865980071838e-04
2.720000000000e+02 4.210009356645e+06 1.000000000000e+00 6.332445353062e+01 0.000000000000e+00 1.150501273303e-02 -2.899634177464e+06 -1.097554261233e+05 -9.291923143804e+05 -1.270991386331e+06 -4.685400260002e-05 6.290797400339e-05 2.308617957153e-04 0.000000000000e+00 1.699939292725e+06 1.833606092358e+06  2.796095582001e-04
3.580000000000e+02 4.351374895460e+06 1.000000000000e+00 6.119532455701e+01 0.000000000000e+00 1.132898373897e-02 -2.918129001689e+06 -1.119292098811e+05 -9.215960141083e+05 -1.271519939053e+06 -4.657392200624e-05 6.174730604384e-05 2.243372398560e-04 0.000000000000e+00 1.703748318284e+06 1.856755371212e+06  2.727320698423e-04
4.440000000000e+02 4.423504394423e+06 1.000000000000e+00 5.963761488828e+01 0.000000000000e+00 1.116432036011e-02 -2.921899021158e+06 -1.130276140103e+05 -9.171055493559e+05 -1.269354619292e+06 -4.623138836812e-05 6.068911951678e-05 2.179914360956e-04 0.000000000000e+00 1.702786396602e+06 1.864246593286e+06  2.660548099691e-04
5.300000000000e+02 4.462469390613e+06 1.000000000000e+00 5.847322562551e+01 0.000000000000e+00 1.102162977767e-02 -2.920053412637e+06 -1.136130910533e+05 -9.144134171303e+05 -1.266567028320e+06 -4.590432671526e-05 5.978311434143e-05 2.123896742554e-04 0.000000000000e+00 1.700344619363e+06 1.865216982998e+06  2.601696527663e-04
6.160000000000e+02 4.484984031831e+06 1.000000000000e+00 5.760610235614e+01 0.000000000000e+00 1.090337736408e-02 -2.916653219203e+06 -1.139458684610e+05 -9.129171828525e+05 -1.264054881613e+06 -4.562255289925e-05 5.903704301850e-05 2.076928490921e-04 0.000000000000e+00 1.697875094556e+06 1.863764874911e+06  2.552436722755e-04
7.020000000000e+02 4.498793640891e+06 1.000000000000e+00 5.697669369448e+01 0.000000000000e+00 1.081267151857e-02 -2.913400482248e+06 -1.141471177708e+05 -9.120528630446e+05 -1.262070510620e+06 -4.540257420886e-05 5.846563566770e-05 2.040628873867e-04 0.000000000000e+00 1.695841285304e+06 1.861850250244e+06  2.514413009100e-04
7.880000000000e+02 4.508412036971e+06 1.000000000000e+00 5.650296309815e+01 0.000000000000e+00 1.073093468881e-02 -2.910812937133e+06 -1.142829683811e+05 -9.123227275837e+05 -1.260835388641e+06 -4.520875568182e-05 5.794863291468e-05 2.006772910378e-04 0.000000000000e+00 1.694657017786e+06 1.859598570160e+06  2.479147222737e-04
8.740000000000e+02 4.516799026790e+06 1.000000000000e+00 5.570721323056e+01 0.000000000000e+00 1.061539267323e-02 -2.903869300935e+06 -1.143971384379e+05 -9.108649772517e+05 -1.257366947888e+06 -4.491356048994e-05 5.723151082676e-05 1.960989636584e-04 0.000000000000e+00 1.690700408692e+06 1.854942058416e+06  2.431169916411e-04
9.370000000000e+02 4.522171335170e+06 1.000000000000e+00 5.519188179217e+01 0.000000000000e+00 1.052042502307e-02 -2.899194116689e+06 -1.144669557330e+05 -9.109849003061e+05 -1.255413172412e+06 -4.467743115398e-05 5.665385843462e-05 1.923891912902e-04 0.000000000000e+00 1.688530729803e+06 1.850977933314e+06  2.392365098706e-04
1.000000000000e+03 4.526362634967e+06 1.000000000000e+00 5.480037709648e+01 0.000000000000e+00 1.044091360098e-02 -2.895405956002e+06 -1.145220231091e+05 -9.112285433072e+05 -1.253907135316e+06 -4.447862399038e-05 5.618533527793e-05 1.894567783156e-04 0.000000000000e+00 1.686847211542e+06 1.847646985147e+06  2.361553966095e-04
1.100000000000e+03 4.530505850323e+06 1.000000000000e+00 5.441729927745e+01 0.000000000000e+00 1.035773062520e-02 -2.891553926747e+06 -1.145765183117e+05 -9.116234577765e+05 -1.252440568841e+06 -4.427036779120e-05 5.570287018712e-05 1.864736041793e-04 0.000000000000e+00 1.685205984455e+06 1.844144820304e+06  2.330149239891e-04
1.200000000000e+03 4.533763672334e+06 1.000000000000e+00 5.407980821177e+01 0.000000000000e+00 1.028860320641e-02 -2.888166696333e+06 -1.146184697289e+05 -9.118378035381e+05 -1.251107523475e+06 -4.409710290997e-05 5.529676860915e-05 1.839328668807e-04 0.000000000000e+00 1.683704007782e+06 1.841163617446e+06  2.303474732208e-04
1.300000000000e+03 4.536673050768e+06 1.000000000000e+00 5.375342285692e+01 0.000000000000e+00 1.022280734958e-02 -2.884852403219e+06 -1.146552921824e+05 -9.120073939967e+05 -1.249794794850e+06 -4.393201771345e-05 5.490896288521e-05 1.814969452810e-04 0.000000000000e+00 1.682218197355e+06 1.838274484051e+06  2.277930485267e-04
1.400000000000e+03 4.539413396742e+06 1.000000000000e+00 5.342073481581e+01 0.000000000000e+00 1.015482242601e-02 -2.881392970682e+06 -1.146892405158e+05 -9.122104890001e+05 -1.248442404410e+06 -4.376140223609e-05 5.450935019404e-05 1.789866025794e-04 0.000000000000e+00 1.680681954697e+06 1.835235792797e+06  2.251616679514e-04
1.500000000000e+03 4.542051568529e+06 1.000000000000e+00 5.307167405789e+01 0.000000000000e+00 1.008142800731e-02 -2.877648922518e+06 -1.147210595413e+05 -9.124897465945e+05 -1.247010842133e+06 -4.357719289192e-05 5.408054539928e-05 1.762989064941e-04 0.000000000000e+00 1.679049837082e+06 1.831898063252e+06  2.223443361058e-04
1.600000000000e+03 4.544610084599e+06 1.000000000000e+00 5.270009876932e+01 0.000000000000e+00 1.008130724816e-02 -2.876683299983e+06 -1.147695033193e+05 -9.330249160199e+05 -1.253013012365e+06 -4.312130068895e-05 5.205465785130e-05 1.591228283077e-04 0.000000000000e+00 1.687573742789e+06 1.815976009147e+06  2.053537596435e-04
1.700000000000e+03 4.547101674268e+06 1.000000000000e+00 5.230221776081e+01 0.000000000000e+00 9.911267995497e-03 -2.868975605957e+06 -1.147789396259e+05 -9.133678919955e+05 -1.243815032642e+06 -4.314994524496e-05 5.309692973850e-05 1.701645089323e-04 0.000000000000e+00 1.675386176865e+06 1.823977653730e+06  2.159127577538e-04
1.800000000000e+03 4.549514249243e+06 1.000000000000e+00 5.187574289425e+01 0.000000000000e+00 9.812544429517e-03 -2.863952497136e+06 -1.148047588266e+05 -9.139952786754e+05 -1.242024977533e+06 -4.290198334433e-05 5.253137255005e-05 1.666527708430e-04 0.000000000000e+00 1.673324251115e+06 1.819294686397e+06  2.122312321726e-04
1.900000000000e+03 4.551854615445e+06 1.000000000000e+00 5.141938748703e+01 0.000000000000e+00 9.704061981010e-03 -2.858439637495e+06 -1.148285351207e+05 -9.147564597579e+05 -1.240097529339e+06 -4.262943252730e-05 5.191310115128e-05 1.628237702788e-04 0.000000000000e+00 1.671097875531e+06 1.814096998630e+06  2.082182600729e-04