 TITLE = "Time curves in points"
 VARIABLES = "TIME"  "PRESSURE1"  "SATURATION1"  "TEMPERATURE1"  "DISPLACEMENT_X1"  "DISPLACEMENT_Y1"  "STRESS_XX"  "STRESS_XY"  "STRESS_YY"  "STRESS_ZZ"  "STRAIN_XX"  "STRAIN_XY"  "STRAIN_YY"  "STRAIN_PLS"  p_(1st_Invariant)  q_(2nd_Invariant)   Effective_Strain
 ZONE T="POINT=POINT1"
0.000000000000e+00 -7.000000000000e+07 8.894919982500e-01 2.500000000000e+01 0.000000000000e+00 0.000000000000e+00 0.000000000000e+00 0.000000000000e+00 0.000000000000e+00 0.000000000000e+00 0.000000000000e+00 0.000000000000e+00 0.000000000000e+00 0.000000000000e+00 -0.000000000000e+00 0.000000000000e+00  0.000000000000e+00
1.000000000000e-03 -7.000000000000e+07 6.684759947500e-01 3.310906251120e+01 3.398015648063e-05 6.368889072585e-05 -5.906039670389e+06 -1.233201865664e+02 6.402298249814e+06 7.221760851096e+03 -7.199686875022e-03 -3.581194746314e-07 1.662443312735e-04 0.000000000000e+00 -1.678267800921e+05 1.066205530147e+07  7.284231997315e-03
1.000000000000e-03 -7.000000000000e+07 6.684759947500e-01 3.310906251120e+01 3.398015648063e-05 6.368889072585e-05 -5.906039670389e+06 -1.233201865664e+02 6.402298249814e+06 7.221760851096e+03 -7.199686875022e-03 -3.581194746314e-07 1.662443312735e-04 0.000000000000e+00 -1.678267800921e+05 1.066205530147e+07  7.284231997315e-03
1.000000000000e-03 -7.000000000000e+07 6.684759947500e-01 3.310906251120e+01 3.398015648063e-05 6.368889072585e-05 -5.906039670389e+06 -1.233201865664e+02 6.402298249814e+06 7.221760851096e+03 -7.199686875022e-03 -3.581194746314e-07 1.662443312735e-04 0.000000000000e+00 -1.678267800921e+05 1.066205530147e+07  7.284231997315e-03
1.000000000000e-03 -7.000000000000e+07 6.684759947500e-01 3.310906251120e+01 3.398015648063e-05 6.368889072585e-05 -5.906039670389e+06 -1.233201865664e+02 6.402298249814e+06 7.221760851096e+03 -7.199686875022e-03 -3.581194746314e-07 1.662443312735e-04 0.000000000000e+00 -1.678267800921e+05 1.066205530147e+07  7.284231997315e-03
2.000000000000e-03 -7.015907471057e+07 6.678662381927e-01 3.680326491090e+01 3.394319468334e-05 6.346899006399e-05 -5.981786718030e+06 -1.626823094706e+02 6.334002353910e+06 -4.190188638736e+04 -7.225647697711e-03 -4.665395669350e-07 1.664079242024e-04 0.000000000000e+00 -1.034379164977e+05 1.066801404475e+07  7.310272357173e-03
2.000000000000e-03 -7.015907471057e+07 6.678662381927e-01 3.680326491090e+01 3.394319468334e-05 6.346899006399e-05 -5.981786718030e+06 -1.626823094706e+02 6.334002353910e+06 -4.190188638736e+04 -7.225647697711e-03 -4.665395669350e-07 1.664079242024e-04 0.000000000000e+00 -1.034379164977e+05 1.066801404475e+07  7.310272357173e-03
2.000000000000e-03 -7.015907471057e+07 6.678662381927e-01 3.680326491090e+01 3.394319468334e-05 6.346899006399e-05 -5.981786718030e+06 -1.626823094706e+02 6.334002353910e+06 -4.190188638736e+04 -7.225647697711e-03 -4.665395669350e-07 1.664079242024e-04 0.000000000000e+00 -1.034379164977e+05 1.066801404475e+07  7.310272357173e-03
2.000000000000e-03 -7.015907471057e+07 6.678662381927e-01 3.680326491090e+01 3.394319468334e-05 6.346899006399e-05 -5.981786718030e+06 -1.626823094706e+02 6.334002353910e+06 -4.190188638736e+04 -7.225647697711e-03 -4.665395669350e-07 1.664079242024e-04 0.000000000000e+00 -1.034379164977e+05 1.066801404475e+07  7.310272357173e-03
3.000000000000e-03 -7.037130643829e+07 6.670521895367e-01 3.937002963826e+01 3.390391438202e-05 6.316957338569e-05 -6.074154985618e+06 -1.949503318866e+02 6.255703154633e+06 -9.801723375145e+04 -7.272230208002e-03 -5.549260013312e-07 1.667976332052e-04 0.000000000000e+00 -2.784364508781e+04 1.067963920715e+07  7.357047326154e-03
3.000000000000e-03 -7.037130643829e+07 6.670521895367e-01 3.937002963826e+01 3.390391438202e-05 6.316957338569e-05 -6.074154985618e+06 -1.949503318866e+02 6.255703154633e+06 -9.801723375145e+04 -7.272230208002e-03 -5.549260013312e-07 1.667976332052e-04 0.000000000000e+00 -2.784364508781e+04 1.067963920715e+07  7.357047326154e-03
3.000000000000e-03 -7.037130643829e+07 6.670521895367e-01 3.937002963826e+01 3.390391438202e-05 6.316957338569e-05 -6.074154985618e+06 -1.949503318866e+02 6.255703154633e+06 -9.801723375145e+04 -7.272230208002e-03 -5.549260013312e-07 1.667976332052e-04 0.000000000000e+00 -2.784364508781e+04 1.067963920715e+07  7.357047326154e-03
3.000000000000e-03 -7.037130643829e+07 6.670521895367e-01 3.937002963826e+01 3.390391438202e-05 6.316957338569e-05 -6.074154985618e+06 -1.949503318866e+02 6.255703154633e+06 -9.801723375145e+04 -7.272230208002e-03 -5.549260013312e-07 1.667976332052e-04 0.000000000000e+00 -2.784364508781e+04 1.067963920715e+07  7.357047326154e-03
4.000000000000e-03 -7.061820310675e+07 6.661049303527e-01 4.139950482367e+01 3.386338750326e-05 6.275812548426e-05 -6.176990571591e+06 -2.201265926358e+02 6.170916979561e+06 -1.588069653030e+05 -7.330514159700e-03 -6.347545839716e-07 1.673159708156e-04 0.000000000000e+00 5.496018577776e+04 1.069473609585e+07  7.415588026691e-03
4.000000000000e-03 -7.061820310675e+07 6.661049303527e-01 4.139950482367e+01 3.386338750326e-05 6.275812548426e-05 -6.176990571591e+06 -2.201265926358e+02 6.170916979561e+06 -1.588069653030e+05 -7.330514159700e-03 -6.347545839716e-07 1.673159708156e-04 0.000000000000e+00 5.496018577776e+04 1.069473609585e+07  7.415588026691e-03
4.000000000000e-03 -7.061820310675e+07 6.661049303527e-01 4.139950482367e+01 3.386338750326e-05 6.275812548426e-05 -6.176990571591e+06 -2.201265926358e+02 6.170916979561e+06 -1.588069653030e+05 -7.330514159700e-03 -6.347545839716e-07 1.673159708156e-04 0.000000000000e+00 5.496018577776e+04 1.069473609585e+07  7.415588026691e-03
4.000000000000e-03 -7.061820310675e+07 6.661049303527e-01 4.139950482367e+01 3.386338750326e-05 6.275812548426e-05 -6.176990571591e+06 -2.201265926358e+02 6.170916979561e+06 -1.588069653030e+05 -7.330514159700e-03 -6.347545839716e-07 1.673159708156e-04 0.000000000000e+00 5.496018577776e+04 1.069473609585e+07  7.415588026691e-03
1.000000000000e-02 -7.212935243525e+07 6.602938370899e-01 4.814735807511e+01 3.363930452582e-05 5.997018985088e-05 -6.778986538130e+06 -2.054188815142e+02 5.697814020993e+06 -5.018423539253e+05 -7.714069724618e-03 -5.883477653050e-07 1.707775112416e-04 0.000000000000e+00 5.276716236875e+05 1.080529570909e+07  7.800860679578e-03
1.000000000000e-02 -7.212935243525e+07 6.602938370899e-01 4.814735807511e+01 3.363930452582e-05 5.997018985088e-05 -6.778986538130e+06 -2.054188815142e+02 5.697814020993e+06 -5.018423539253e+05 -7.714069724618e-03 -5.883477653050e-07 1.707775112416e-04 0.000000000000e+00 5.276716236875e+05 1.080529570909e+07  7.800860679578e-03
1.000000000000e-02 -7.212935243525e+07 6.602938370899e-01 4.814735807511e+01 3.363930452582e-05 5.997018985088e-05 -6.778986538130e+06 -2.054188815142e+02 5.697814020993e+06 -5.018423539253e+05 -7.714069724618e-03 -5.883477653050e-07 1.707775112416e-04 0.000000000000e+00 5.276716236875e+05 1.080529570909e+07  7.800860679578e-03
1.000000000000e-02 -7.212935243525e+07 6.602938370899e-01 4.814735807511e+01 3.363930452582e-05 5.997018985088e-05 -6.778986538130e+06 -2.054188815142e+02 5.697814020993e+06 -5.018423539253e+05 -7.714069724618e-03 -5.883477653050e-07 1.707775112416e-04 0.000000000000e+00 5.276716236875e+05 1.080529570909e+07  7.800860679578e-03
2.000000000000e-02 -7.524730940055e+07 6.482622408616e-01 5.436284697329e+01 3.325122407439e-05 5.821698069233e-05 -7.925063811198e+06 -2.309184380634e+02 4.857925941073e+06 -1.129214058903e+06 -8.510941033568e-03 -6.663793197975e-07 1.777945787130e-04 0.000000000000e+00 1.398783976343e+06 1.107777609815e+07  8.601216698630e-03
2.000000000000e-02 -7.524730940055e+07 6.482622408616e-01 5.436284697329e+01 3.325122407439e-05 5.821698069233e-05 -7.925063811198e+06 -2.309184380634e+02 4.857925941073e+06 -1.129214058903e+06 -8.510941033568e-03 -6.663793197975e-07 1.777945787130e-04 0.000000000000e+00 1.398783976343e+06 1.107777609815e+07  8.601216698630e-03
2.000000000000e-02 -7.524730940055e+07 6.482622408616e-01 5.436284697329e+01 3.325122407439e-05 5.821698069233e-05 -7.925063811198e+06 -2.309184380634e+02 4.857925941073e+06 -1.129214058903e+06 -8.510941033568e-03 -6.663793197975e-07 1.777945787130e-04 0.000000000000e+00 1.398783976343e+06 1.107777609815e+07  8.601216698630e-03
2.000000000000e-02 -7.524730940055e+07 6.482622408616e-01 5.436284697329e+01 3.325122407439e-05 5.821698069233e-05 -7.925063811198e+06 -2.309184380634e+02 4.857925941073e+06 -1.129214058903e+06 -8.510941033568e-03 -6.663793197975e-07 1.777945787130e-04 0.000000000000e+00 1.398783976343e+06 1.107777609815e+07  8.601216698630e-03
3.000000000000e-02 -7.893055077024e+07 6.339986410985e-01 5.830141004820e+01 3.284111792955e-05 5.858045085852e-05 -9.176153801001e+06 -2.308114125988e+02 4.005163428759e+06 -1.791748665542e+06 -9.424029586781e-03 -6.643581497048e-07 1.853372336857e-04 0.000000000000e+00 2.320913012595e+06 1.144291818692e+07  9.518051714538e-03
3.000000000000e-02 -7.893055077024e+07 6.339986410985e-01 5.830141004820e+01 3.284111792955e-05 5.858045085852e-05 -9.176153801001e+06 -2.308114125988e+02 4.005163428759e+06 -1.791748665542e+06 -9.424029586781e-03 -6.643581497048e-07 1.853372336857e-04 0.000000000000e+00 2.320913012595e+06 1.144291818692e+07  9.518051714538e-03
3.000000000000e-02 -7.893055077024e+07 6.339986410985e-01 5.830141004820e+01 3.284111792955e-05 5.858045085852e-05 -9.176153801001e+06 -2.308114125988e+02 4.005163428759e+06 -1.791748665542e+06 -9.424029586781e-03 -6.643581497048e-07 1.853372336857e-04 0.000000000000e+00 2.320913012595e+06 1.144291818692e+07  9.518051714538e-03
3.000000000000e-02 -7.893055077024e+07 6.339986410985e-01 5.830141004820e+01 3.284111792955e-05 5.858045085852e-05 -9.176153801001e+06 -2.308114125988e+02 4.005163428759e+06 -1.791748665542e+06 -9.424029586781e-03 -6.643581497048e-07 1.853372336857e-04 0.000000000000e+00 2.320913012595e+06 1.144291818692e+07  9.518051714538e-03
4.000000000000e-02 -8.274830792201e+07 6.191580337515e-01 6.102918923515e+01 3.243464621130e-05 6.130985979789e-05 -1.038293290570e+07 -2.467093205178e+02 3.244703126793e+06 -2.411138119019e+06 -1.033519512197e-02 -7.159905913905e-07 1.922245369103e-04 0.000000000000e+00 3.183122632643e+06 1.185855211479e+07  1.043263572238e-02
4.000000000000e-02 -8.274830792201e+07 6.191580337515e-01 6.102918923515e+01 3.243464621130e-05 6.130985979789e-05 -1.038293290570e+07 -2.467093205178e+02 3.244703126793e+06 -2.411138119019e+06 -1.033519512197e-02 -7.159905913905e-07 1.922245369103e-04 0.000000000000e+00 3.183122632643e+06 1.185855211479e+07  1.043263572238e-02
4.000000000000e-02 -8.274830792201e+07 6.191580337515e-01 6.102918923515e+01 3.243464621130e-05 6.130985979789e-05 -1.038293290570e+07 -2.467093205178e+02 3.244703126793e+06 -2.411138119019e+06 -1.033519512197e-02 -7.159905913905e-07 1.922245369103e-04 0.000000000000e+00 3.183122632643e+06 1.185855211479e+07  1.043263572238e-02
4.000000000000e-02 -8.274830792201e+07 6.191580337515e-01 6.102918923515e+01 3.243464621130e-05 6.130985979789e-05 -1.038293290570e+07 -2.467093205178e+02 3.244703126793e+06 -2.411138119019e+06 -1.033519512197e-02 -7.159905913905e-07 1.922245369103e-04 0.000000000000e+00 3.183122632643e+06 1.185855211479e+07  1.043263572238e-02
5.000000000000e-02 -8.646459330674e+07 6.110473733131e-01 6.303909276829e+01 3.198361215339e-05 6.496877578825e-05 -1.190869710597e+07 -2.294343782605e+02 2.154229153634e+06 -3.235289759314e+06 -1.142561601431e-02 -6.596841521492e-07 2.027572654358e-04 0.000000000000e+00 4.329919237218e+06 1.228903585342e+07  1.152833204673e-02
5.000000000000e-02 -8.646459330674e+07 6.110473733131e-01 6.303909276829e+01 3.198361215339e-05 6.496877578825e-05 -1.190869710597e+07 -2.294343782605e+02 2.154229153634e+06 -3.235289759314e+06 -1.142561601431e-02 -6.596841521492e-07 2.027572654358e-04 0.000000000000e+00 4.329919237218e+06 1.228903585342e+07  1.152833204673e-02
5.000000000000e-02 -8.646459330674e+07 6.110473733131e-01 6.303909276829e+01 3.198361215339e-05 6.496877578825e-05 -1.190869710597e+07 -2.294343782605e+02 2.154229153634e+06 -3.235289759314e+06 -1.142561601431e-02 -6.596841521492e-07 2.027572654358e-04 0.000000000000e+00 4.329919237218e+06 1.228903585342e+07  1.152833204673e-02
5.000000000000e-02 -8.646459330674e+07 6.110473733131e-01 6.303909276829e+01 3.198361215339e-05 6.496877578825e-05 -1.190869710597e+07 -2.294343782605e+02 2.154229153634e+06 -3.235289759314e+06 -1.142561601431e-02 -6.596841521492e-07 2.027572654358e-04 0.000000000000e+00 4.329919237218e+06 1.228903585342e+07  1.152833204673e-02
6.000000000000e-02 -8.999223956686e+07 6.035635923876e-01 6.459150071785e+01 3.153890190014e-05 7.098677240511e-05 -1.335999359915e+07 -2.328689322740e+02 1.212474621113e+06 -3.991644009051e+06 -1.249546906606e-02 -6.694613337957e-07 2.117901642672e-04 0.000000000000e+00 5.379720995695e+06 1.279073209623e+07  1.260269895876e-02
6.000000000000e-02 -8.999223956686e+07 6.035635923876e-01 6.459150071785e+01 3.153890190014e-05 7.098677240511e-05 -1.335999359915e+07 -2.328689322740e+02 1.212474621113e+06 -3.991644009051e+06 -1.249546906606e-02 -6.694613337957e-07 2.117901642672e-04 0.000000000000e+00 5.379720995695e+06 1.279073209623e+07  1.260269895876e-02
6.000000000000e-02 -8.999223956686e+07 6.035635923876e-01 6.459150071785e+01 3.153890190014e-05 7.098677240511e-05 -1.335999359915e+07 -2.328689322740e+02 1.212474621113e+06 -3.991644009051e+06 -1.249546906606e-02 -6.694613337957e-07 2.117901642672e-04 0.000000000000e+00 5.379720995695e+06 1.279073209623e+07  1.260269895876e-02
6.000000000000e-02 -8.999223956686e+07 6.035635923876e-01 6.459150071785e+01 3.153890190014e-05 7.098677240511e-05 -1.335999359915e+07 -2.328689322740e+02 1.212474621113e+06 -3.991644009051e+06 -1.249546906606e-02 -6.694613337957e-07 2.117901642672e-04 0.000000000000e+00 5.379720995695e+06 1.279073209623e+07  1.260269895876e-02
7.000000000000e-02 -9.331717808832e+07 5.965377192733e-01 6.584443884672e+01 3.110629270442e-05 7.702038714618e-05 -1.472044474358e+07 -2.354716360571e+02 4.081089593111e+05 -4.678075590548e+06 -1.352670624836e-02 -6.765451177286e-07 2.195030198477e-04 0.000000000000e+00 6.330137124939e+06 1.333400894246e+07  1.363778272845e-02
7.000000000000e-02 -9.331717808832e+07 5.965377192733e-01 6.584443884672e+01 3.110629270442e-05 7.702038714618e-05 -1.472044474358e+07 -2.354716360571e+02 4.081089593111e+05 -4.678075590548e+06 -1.352670624836e-02 -6.765451177286e-07 2.195030198477e-04 0.000000000000e+00 6.330137124939e+06 1.333400894246e+07  1.363778272845e-02
7.000000000000e-02 -9.331717808832e+07 5.965377192733e-01 6.584443884672e+01 3.110629270442e-05 7.702038714618e-05 -1.472044474358e+07 -2.354716360571e+02 4.081089593111e+05 -4.678075590548e+06 -1.352670624836e-02 -6.765451177286e-07 2.195030198477e-04 0.000000000000e+00 6.330137124939e+06 1.333400894246e+07  1.363778272845e-02
7.000000000000e-02 -9.331717808832e+07 5.965377192733e-01 6.584443884672e+01 3.110629270442e-05 7.702038714618e-05 -1.472044474358e+07 -2.354716360571e+02 4.081089593111e+05 -4.678075590548e+06 -1.352670624836e-02 -6.765451177286e-07 2.195030198477e-04 0.000000000000e+00 6.330137124939e+06 1.333400894246e+07  1.363778272845e-02
8.000000000000e-02 -9.644616749832e+07 5.900015872083e-01 6.688978167670e+01 3.069155356463e-05 8.382135712400e-05 -1.599360605925e+07 -2.278129814014e+02 -2.948666733527e+05 -5.306228810375e+06 -1.451088121022e-02 -6.528682520334e-07 2.260791340024e-04 0.000000000000e+00 7.198233847658e+06 1.388856006837e+07  1.462523141725e-02
8.000000000000e-02 -9.644616749832e+07 5.900015872083e-01 6.688978167670e+01 3.069155356463e-05 8.382135712400e-05 -1.599360605925e+07 -2.278129814014e+02 -2.948666733527e+05 -5.306228810375e+06 -1.451088121022e-02 -6.528682520334e-07 2.260791340024e-04 0.000000000000e+00 7.198233847658e+06 1.388856006837e+07  1.462523141725e-02
8.000000000000e-02 -9.644616749832e+07 5.900015872083e-01 6.688978167670e+01 3.069155356463e-05 8.382135712400e-05 -1.599360605925e+07 -2.278129814014e+02 -2.948666733527e+05 -5.306228810375e+06 -1.451088121022e-02 -6.528682520334e-07 2.260791340024e-04 0.000000000000e+00 7.198233847658e+06 1.388856006837e+07  1.462523141725e-02
8.000000000000e-02 -9.644616749832e+07 5.900015872083e-01 6.688978167670e+01 3.069155356463e-05 8.382135712400e-05 -1.599360605925e+07 -2.278129814014e+02 -2.948666733527e+05 -5.306228810375e+06 -1.451088121022e-02 -6.528682520334e-07 2.260791340024e-04 0.000000000000e+00 7.198233847658e+06 1.388856006837e+07  1.462523141725e-02
9.000000000000e-02 -9.940042925394e+07 5.839014698215e-01 6.778635897997e+01 3.029532453884e-05 9.005769587811e-05 -1.717927396329e+07 -2.434891648006e+02 -9.344645525475e+05 -5.886773770211e+06 -1.543189105715e-02 -7.004171417943e-07 2.319996405786e-04 0.000000000000e+00 8.000170762016e+06 1.442116084691e+07  1.554918904906e-02
9.000000000000e-02 -9.940042925394e+07 5.839014698215e-01 6.778635897997e+01 3.029532453884e-05 9.005769587811e-05 -1.717927396329e+07 -2.434891648006e+02 -9.344645525475e+05 -5.886773770211e+06 -1.543189105715e-02 -7.004171417943e-07 2.319996405786e-04 0.000000000000e+00 8.000170762016e+06 1.442116084691e+07  1.554918904906e-02
9.000000000000e-02 -9.940042925394e+07 5.839014698215e-01 6.778635897997e+01 3.029532453884e-05 9.005769587811e-05 -1.717927396329e+07 -2.434891648006e+02 -9.344645525475e+05 -5.886773770211e+06 -1.543189105715e-02 -7.004171417943e-07 2.319996405786e-04 0.000000000000e+00 8.000170762016e+06 1.442116084691e+07  1.554918904906e-02
9.000000000000e-02 -9.940042925394e+07 5.839014698215e-01 6.778635897997e+01 3.029532453884e-05 9.005769587811e-05 -1.717927396329e+07 -2.434891648006e+02 -9.344645525475e+05 -5.886773770211e+06 -1.543189105715e-02 -7.004171417943e-07 2.319996405786e-04 0.000000000000e+00 8.000170762016e+06 1.442116084691e+07  1.554918904906e-02
1.000000000000e-01 -1.021958467132e+08 5.772939128518e-01 6.856670098494e+01 2.993099003550e-05 9.560185447697e-05 -1.820459681510e+07 -2.405132466088e+02 -1.450592625202e+06 -6.377351580501e+06 -1.624227103804e-02 -6.905063994987e-07 2.377015003909e-04 0.000000000000e+00 8.677513673602e+06 1.491397566689e+07  1.636241681728e-02
1.000000000000e-01 -1.021958467132e+08 5.772939128518e-01 6.856670098494e+01 2.993099003550e-05 9.560185447697e-05 -1.820459681510e+07 -2.405132466088e+02 -1.450592625202e+06 -6.377351580501e+06 -1.624227103804e-02 -6.905063994987e-07 2.377015003909e-04 0.000000000000e+00 8.677513673602e+06 1.491397566689e+07  1.636241681728e-02
1.000000000000e-01 -1.021958467132e+08 5.772939128518e-01 6.856670098494e+01 2.993099003550e-05 9.560185447697e-05 -1.820459681510e+07 -2.405132466088e+02 -1.450592625202e+06 -6.377351580501e+06 -1.624227103804e-02 -6.905063994987e-07 2.377015003909e-04 0.000000000000e+00 8.677513673602e+06 1.491397566689e+07  1.636241681728e-02
1.000000000000e-01 -1.021958467132e+08 5.772939128518e-01 6.856670098494e+01 2.993099003550e-05 9.560185447697e-05 -1.820459681510e+07 -2.405132466088e+02 -1.450592625202e+06 -6.377351580501e+06 -1.624227103804e-02 -6.905063994987e-07 2.377015003909e-04 0.000000000000e+00 8.677513673602e+06 1.491397566689e+07  1.636241681728e-02
2.000000000000e-01 -1.187516715383e+08 5.380454143739e-01 7.279261553079e+01 2.764517410087e-05 1.904542696624e-04 -2.374040298431e+07 -2.148744219484e+02 -4.120216175230e+06 -8.988354072989e+06 -2.060732544722e-02 -6.207466399811e-07 2.729010130159e-04 0.000000000000e+00 1.228299107751e+07 1.769566958855e+07  2.074512227480e-02
2.000000000000e-01 -1.187516715383e+08 5.380454143739e-01 7.279261553079e+01 2.764517410087e-05 1.904542696624e-04 -2.374040298431e+07 -2.148744219484e+02 -4.120216175230e+06 -8.988354072989e+06 -2.060732544722e-02 -6.207466399811e-07 2.729010130159e-04 0.000000000000e+00 1.228299107751e+07 1.769566958855e+07  2.074512227480e-02
2.000000000000e-01 -1.187516715383e+08 5.380454143739e-01 7.279261553079e+01 2.764517410087e-05 1.904542696624e-04 -2.374040298431e+07 -2.148744219484e+02 -4.120216175230e+06 -8.988354072989e+06 -2.060732544722e-02 -6.207466399811e-07 2.729010130159e-04 0.000000000000e+00 1.228299107751e+07 1.769566958855e+07  2.074512227480e-02
2.000000000000e-01 -1.187516715383e+08 5.380454143739e-01 7.279261553079e+01 2.764517410087e-05 1.904542696624e-04 -2.374040298431e+07 -2.148744219484e+02 -4.120216175230e+06 -8.988354072989e+06 -2.060732544722e-02 -6.207466399811e-07 2.729010130159e-04 0.000000000000e+00 1.228299107751e+07 1.769566958855e+07  2.074512227480e-02
3.000000000000e-01 -1.341076682495e+08 5.086722595976e-01 7.558238944071e+01 2.565456968562e-05 3.002466069575e-04 -2.847854239598e+07 -2.124321490733e+02 -6.827152395137e+06 -1.134379556209e+07 -2.416346465721e-02 -6.112127244735e-07 3.101720687665e-04 0.000000000000e+00 1.554983011774e+07 1.978360816179e+07  2.432003420833e-02
3.000000000000e-01 -1.341076682495e+08 5.086722595976e-01 7.558238944071e+01 2.565456968562e-05 3.002466069575e-04 -2.847854239598e+07 -2.124321490733e+02 -6.827152395137e+06 -1.134379556209e+07 -2.416346465721e-02 -6.112127244735e-07 3.101720687665e-04 0.000000000000e+00 1.554983011774e+07 1.978360816179e+07  2.432003420833e-02
3.000000000000e-01 -1.341076682495e+08 5.086722595976e-01 7.558238944071e+01 2.565456968562e-05 3.002466069575e-04 -2.847854239598e+07 -2.124321490733e+02 -6.827152395137e+06 -1.134379556209e+07 -2.416346465721e-02 -6.112127244735e-07 3.101720687665e-04 0.000000000000e+00 1.554983011774e+07 1.978360816179e+07  2.432003420833e-02
3.000000000000e-01 -1.341076682495e+08 5.086722595976e-01 7.558238944071e+01 2.565456968562e-05 3.002466069575e-04 -2.847854239598e+07 -2.124321490733e+02 -6.827152395137e+06 -1.134379556209e+07 -2.416346465721e-02 -6.112127244735e-07 3.101720687665e-04 0.000000000000e+00 1.554983011774e+07 1.978360816179e+07  2.432003420833e-02
4.000000000000e-01 -1.471562405977e+08 4.912841607164e-01 7.759060160320e+01 2.383692460065e-05 4.058622539531e-04 -3.290137743976e+07 -2.463325721603e+02 -9.412668791991e+06 -1.356524154027e+07 -2.745602548371e-02 -7.085560795108e-07 3.431389316095e-04 0.000000000000e+00 1.862642925734e+07 2.171231731364e+07  2.762919311970e-02
4.000000000000e-01 -1.471562405977e+08 4.912841607164e-01 7.759060160320e+01 2.383692460065e-05 4.058622539531e-04 -3.290137743976e+07 -2.463325721603e+02 -9.412668791991e+06 -1.356524154027e+07 -2.745602548371e-02 -7.085560795108e-07 3.431389316095e-04 0.000000000000e+00 1.862642925734e+07 2.171231731364e+07  2.762919311970e-02
4.000000000000e-01 -1.471562405977e+08 4.912841607164e-01 7.759060160320e+01 2.383692460065e-05 4.058622539531e-04 -3.290137743976e+07 -2.463325721603e+02 -9.412668791991e+06 -1.356524154027e+07 -2.745602548371e-02 -7.085560795108e-07 3.431389316095e-04 0.000000000000e+00 1.862642925734e+07 2.171231731364e+07  2.762919311970e-02
4.000000000000e-01 -1.471562405977e+08 4.912841607164e-01 7.759060160320e+01 2.383692460065e-05 4.058622539531e-04 -3.290137743976e+07 -2.463325721603e+02 -9.412668791991e+06 -1.356524154027e+07 -2.745602548371e-02 -7.085560795108e-07 3.431389316095e-04 0.000000000000e+00 1.862642925734e+07 2.171231731364e+07  2.762919311970e-02
5.000000000000e-01 -1.578188187449e+08 4.765742241596e-01 7.913407279571e+01 2.229974626545e-05 5.083828858582e-04 -3.626139692467e+07 -2.422859016731e+02 -1.129662143149e+07 -1.522901681086e+07 -2.997973449375e-02 -6.895085366442e-07 3.646506154045e-04 0.000000000000e+00 2.092901172234e+07 2.324935227538e+07  3.016371297513e-02
5.000000000000e-01 -1.578188187449e+08 4.765742241596e-01 7.913407279571e+01 2.229974626545e-05 5.083828858582e-04 -3.626139692467e+07 -2.422859016731e+02 -1.129662143149e+07 -1.522901681086e+07 -2.997973449375e-02 -6.895085366442e-07 3.646506154045e-04 0.000000000000e+00 2.092901172234e+07 2.324935227538e+07  3.016371297513e-02
5.000000000000e-01 -1.578188187449e+08 4.765742241596e-01 7.913407279571e+01 2.229974626545e-05 5.083828858582e-04 -3.626139692467e+07 -2.422859016731e+02 -1.129662143149e+07 -1.522901681086e+07 -2.997973449375e-02 -6.895085366442e-07 3.646506154045e-04 0.000000000000e+00 2.092901172234e+07 2.324935227538e+07  3.016371297513e-02
5.000000000000e-01 -1.578188187449e+08 4.765742241596e-01 7.913407279571e+01 2.229974626545e-05 5.083828858582e-04 -3.626139692467e+07 -2.422859016731e+02 -1.129662143149e+07 -1.522901681086e+07 -2.997973449375e-02 -6.895085366442e-07 3.646506154045e-04 0.000000000000e+00 2.092901172234e+07 2.324935227538e+07  3.016371297513e-02
6.000000000000e-01 -1.664470105045e+08 4.628553684482e-01 8.036202926716e+01 2.106453898295e-05 6.083127659509e-04 -3.858883036750e+07 -2.399615993999e+02 -1.253779905674e+07 -1.636100782773e+07 -3.174696172572e-02 -6.748229516861e-07 3.800668396583e-04 0.000000000000e+00 2.249587908399e+07 2.436543917998e+07  3.193869124424e-02
6.000000000000e-01 -1.664470105045e+08 4.628553684482e-01 8.036202926716e+01 2.106453898295e-05 6.083127659509e-04 -3.858883036750e+07 -2.399615993999e+02 -1.253779905674e+07 -1.636100782773e+07 -3.174696172572e-02 -6.748229516861e-07 3.800668396583e-04 0.000000000000e+00 2.249587908399e+07 2.436543917998e+07  3.193869124424e-02
6.000000000000e-01 -1.664470105045e+08 4.628553684482e-01 8.036202926716e+01 2.106453898295e-05 6.083127659509e-04 -3.858883036750e+07 -2.399615993999e+02 -1.253779905674e+07 -1.636100782773e+07 -3.174696172572e-02 -6.748229516861e-07 3.800668396583e-04 0.000000000000e+00 2.249587908399e+07 2.436543917998e+07  3.193869124424e-02
6.000000000000e-01 -1.664470105045e+08 4.628553684482e-01 8.036202926716e+01 2.106453898295e-05 6.083127659509e-04 -3.858883036750e+07 -2.399615993999e+02 -1.253779905674e+07 -1.636100782773e+07 -3.174696172572e-02 -6.748229516861e-07 3.800668396583e-04 0.000000000000e+00 2.249587908399e+07 2.436543917998e+07  3.193869124424e-02
7.000000000000e-01 -1.732705738903e+08 4.540722539412e-01 8.135405474006e+01 1.996903672389e-05 7.057907500466e-04 -4.065319967370e+07 -2.429626471503e+02 -1.376537691440e+07 -1.740307514358e+07 -3.326498496262e-02 -6.630634351942e-07 3.944893293685e-04 0.000000000000e+00 2.394055057723e+07 2.526614485989e+07  3.346397360330e-02
7.000000000000e-01 -1.732705738903e+08 4.540722539412e-01 8.135405474006e+01 1.996903672389e-05 7.057907500466e-04 -4.065319967370e+07 -2.429626471503e+02 -1.376537691440e+07 -1.740307514358e+07 -3.326498496262e-02 -6.630634351942e-07 3.944893293685e-04 0.000000000000e+00 2.394055057723e+07 2.526614485989e+07  3.346397360330e-02
7.000000000000e-01 -1.732705738903e+08 4.540722539412e-01 8.135405474006e+01 1.996903672389e-05 7.057907500466e-04 -4.065319967370e+07 -2.429626471503e+02 -1.376537691440e+07 -1.740307514358e+07 -3.326498496262e-02 -6.630634351942e-07 3.944893293685e-04 0.000000000000e+00 2.394055057723e+07 2.526614485989e+07  3.346397360330e-02
7.000000000000e-01 -1.732705738903e+08 4.540722539412e-01 8.135405474006e+01 1.996903672389e-05 7.057907500466e-04 -4.065319967370e+07 -2.429626471503e+02 -1.376537691440e+07 -1.740307514358e+07 -3.326498496262e-02 -6.630634351942e-07 3.944893293685e-04 0.000000000000e+00 2.394055057723e+07 2.526614485989e+07  3.346397360330e-02
8.000000000000e-01 -1.785574945229e+08 4.487369201661e-01 8.216210467788e+01 1.900555750342e-05 8.010108562584e-04 -4.245763056073e+07 -2.397652711097e+02 -1.491812889093e+07 -1.833803798329e+07 -3.456244758869e-02 -6.448562308212e-07 4.087581222603e-04 0.000000000000e+00 2.523793247832e+07 2.599879494195e+07  3.476862880454e-02
8.000000000000e-01 -1.785574945229e+08 4.487369201661e-01 8.216210467788e+01 1.900555750342e-05 8.010108562584e-04 -4.245763056073e+07 -2.397652711097e+02 -1.491812889093e+07 -1.833803798329e+07 -3.456244758869e-02 -6.448562308212e-07 4.087581222603e-04 0.000000000000e+00 2.523793247832e+07 2.599879494195e+07  3.476862880454e-02
8.000000000000e-01 -1.785574945229e+08 4.487369201661e-01 8.216210467788e+01 1.900555750342e-05 8.010108562584e-04 -4.245763056073e+07 -2.397652711097e+02 -1.491812889093e+07 -1.833803798329e+07 -3.456244758869e-02 -6.448562308212e-07 4.087581222603e-04 0.000000000000e+00 2.523793247832e+07 2.599879494195e+07  3.476862880454e-02
8.000000000000e-01 -1.785574945229e+08 4.487369201661e-01 8.216210467788e+01 1.900555750342e-05 8.010108562584e-04 -4.245763056073e+07 -2.397652711097e+02 -1.491812889093e+07 -1.833803798329e+07 -3.456244758869e-02 -6.448562308212e-07 4.087581222603e-04 0.000000000000e+00 2.523793247832e+07 2.599879494195e+07  3.476862880454e-02
9.000000000000e-01 -1.825455417321e+08 4.447347592060e-01 8.283348462567e+01 1.815762321714e-05 8.939003105636e-04 -4.388533517565e+07 -2.293755914594e+02 -1.584463905825e+07 -1.908212164178e+07 -3.558272757603e-02 -5.880823635867e-07 4.189574434241e-04 0.000000000000e+00 2.627069862522e+07 2.657029670657e+07  3.579404526877e-02
9.000000000000e-01 -1.825455417321e+08 4.447347592060e-01 8.283348462567e+01 1.815762321714e-05 8.939003105636e-04 -4.388533517565e+07 -2.293755914594e+02 -1.584463905825e+07 -1.908212164178e+07 -3.558272757603e-02 -5.880823635867e-07 4.189574434241e-04 0.000000000000e+00 2.627069862522e+07 2.657029670657e+07  3.579404526877e-02
9.000000000000e-01 -1.825455417321e+08 4.447347592060e-01 8.283348462567e+01 1.815762321714e-05 8.939003105636e-04 -4.388533517565e+07 -2.293755914594e+02 -1.584463905825e+07 -1.908212164178e+07 -3.558272757603e-02 -5.880823635867e-07 4.189574434241e-04 0.000000000000e+00 2.627069862522e+07 2.657029670657e+07  3.579404526877e-02
9.000000000000e-01 -1.825455417321e+08 4.447347592060e-01 8.283348462567e+01 1.815762321714e-05 8.939003105636e-04 -4.388533517565e+07 -2.293755914594e+02 -1.584463905825e+07 -1.908212164178e+07 -3.558272757603e-02 -5.880823635867e-07 4.189574434241e-04 0.000000000000e+00 2.627069862522e+07 2.657029670657e+07  3.579404526877e-02