 TITLE = "Time curves in points"
 VARIABLES = "TIME"  "PRESSURE1"  "SATURATION1"  "TEMPERATURE1"  "DISPLACEMENT_X1"  "DISPLACEMENT_Y1"  "STRESS_XX"  "STRESS_XY"  "STRESS_YY"  "STRESS_ZZ"  "STRAIN_XX"  "STRAIN_XY"  "STRAIN_YY"  "STRAIN_PLS"  p_(1st_Invariant)  q_(2nd_Invariant)   Effective_Strain
 ZONE T="POINT=POINT9"
0.000000000000e+00 1.000000000000e+05 1.000000000000e+00 2.500000000000e+01 0.000000000000e+00 0.000000000000e+00 -6.854419775061e+07 7.586938602830e+05 -6.954707405871e+06 -1.965222756120e+07 0.000000000000e+00 0.000000000000e+00 0.000000000000e+00 0.000000000000e+00 3.171704423923e+07 5.633990941714e+07  0.000000000000e+00
1.000000000000e-03 1.375363518991e+05 1.000000000000e+00 2.500341908267e+01 0.000000000000e+00 -1.346031019006e-03 -9.829619243188e+07 1.493518103638e+06 2.294816360731e+07 -1.960805182010e+07 -1.106714901402e-03 5.458694379210e-05 1.109037252963e-03 0.000000000000e+00 3.165202688156e+07 1.065749323100e+08  1.921225847944e-03
2.000000000000e-03 1.596543381878e+05 1.000000000000e+00 2.501822584451e+01 0.000000000000e+00 -1.346090030465e-03 -9.828394357835e+07 1.493426530282e+06 2.294978899910e+07 -1.960864891376e+07 -1.106237766221e-03 5.458014119993e-05 1.109119802422e-03 0.000000000000e+00 3.164760116434e+07 1.065645871751e+08  1.920884150511e-03
3.000000000000e-03 1.750698773759e+05 1.000000000000e+00 2.505297113902e+01 0.000000000000e+00 -1.345993849510e-03 -9.828114968583e+07 1.493482323432e+06 2.294569439065e+07 -1.962031147234e+07 -1.105700812323e-03 5.458428583391e-05 1.109400897713e-03 0.000000000000e+00 3.165192225584e+07 1.065568462958e+08  1.920663542839e-03
4.000000000000e-03 1.857698443473e+05 1.000000000000e+00 2.511281051277e+01 0.000000000000e+00 -1.345910252935e-03 -9.829019514192e+07 1.493742148436e+06 2.293705673574e+07 -1.964518444536e+07 -1.105112933123e-03 5.460358711996e-05 1.110003923814e-03 0.000000000000e+00 3.166610761718e+07 1.065544911370e+08  1.920678956265e-03
1.000000000000e-02 2.016789111229e+05 1.000000000000e+00 2.596897761954e+01 0.000000000000e+00 -1.344665505572e-03 -9.858751532794e+07 1.498599726976e+06 2.283509413832e+07 -2.005258973006e+07 -1.101024058029e-03 5.496443581146e-05 1.121348937913e-03 0.000000000000e+00 3.193500363989e+07 1.066864866389e+08  1.927011375840e-03
2.000000000000e-02 1.999775638125e+05 1.000000000000e+00 2.761199352605e+01 0.000000000000e+00 -1.339641625328e-03 -9.921404816313e+07 1.507232982691e+06 2.265525568403e+07 -2.085425313824e+07 -1.094519208175e-03 5.560576337890e-05 1.144445293343e-03 0.000000000000e+00 3.247101520578e+07 1.070025526847e+08  1.941551102998e-03
3.000000000000e-02 1.899417015586e+05 1.000000000000e+00 2.912015010583e+01 0.000000000000e+00 -1.332742780358e-03 -9.979910746599e+07 1.514483793958e+06 2.248842166182e+07 -2.159748713267e+07 -1.088644148203e-03 5.614439507302e-05 1.165854435169e-03 0.000000000000e+00 3.296939097894e+07 1.073011242349e+08  1.955254416493e-03
4.000000000000e-02 1.766791345043e+05 1.000000000000e+00 3.042920762064e+01 0.000000000000e+00 -1.323676855039e-03 -1.003040549198e+08 1.520214521515e+06 2.233554243248e+07 -2.224629362708e+07 -1.083300812409e-03 5.657010626296e-05 1.184274590729e-03 0.000000000000e+00 3.340493537147e+07 1.075520603158e+08  1.966868860253e-03
5.000000000000e-02 1.624755312923e+05 1.000000000000e+00 3.155418858050e+01 0.000000000000e+00 -1.313942358599e-03 -1.007331886550e+08 1.524734452827e+06 2.219533055433e+07 -2.280631720835e+07 -1.078439189554e-03 5.690587258896e-05 1.199867596844e-03 0.000000000000e+00 3.378139176966e+07 1.077569378757e+08  1.976464623827e-03
6.000000000000e-02 1.480496644923e+05 1.000000000000e+00 3.252595810313e+01 0.000000000000e+00 -1.301947128818e-03 -1.010984818474e+08 1.528288619344e+06 2.206724406704e+07 -2.329130361217e+07 -1.073993441703e-03 5.716989638736e-05 1.213123879458e-03 0.000000000000e+00 3.410751379752e+07 1.079239659880e+08  1.984395056788e-03
7.000000000000e-02 1.342905906140e+05 1.000000000000e+00 3.337380556940e+01 0.000000000000e+00 -1.290357169646e-03 -1.014138731948e+08 1.531145133176e+06 2.194897032225e+07 -2.371588860283e+07 -1.069937677808e-03 5.738209455774e-05 1.224501154305e-03 0.000000000000e+00 3.439359715845e+07 1.080618196761e+08  1.991026807234e-03
8.000000000000e-02 1.218339376449e+05 1.000000000000e+00 3.412173675870e+01 0.000000000000e+00 -1.278157500777e-03 -1.016876532262e+08 1.533431364598e+06 2.183826636507e+07 -2.409133498242e+07 -1.066161499163e-03 5.755192889199e-05 1.234334444280e-03 0.000000000000e+00 3.464690728119e+07 1.081745768799e+08  1.996551626624e-03
9.000000000000e-02 1.115908105118e+05 1.000000000000e+00 3.478854305609e+01 0.000000000000e+00 -1.266936213216e-03 -1.019284137089e+08 1.535286938980e+06 2.173304870312e+07 -2.442723619161e+07 -1.062627700751e-03 5.768977156035e-05 1.242902690320e-03 0.000000000000e+00 3.487420039914e+07 1.082670410142e+08  2.001177624627e-03
1.000000000000e-01 1.045672230847e+05 1.000000000000e+00 3.538879924497e+01 0.000000000000e+00 -1.256764260698e-03 -1.021436973091e+08 1.536835790256e+06 2.163392301172e+07 -2.473065505162e+07 -1.059354105386e-03 5.780482908370e-05 1.250490722297e-03 0.000000000000e+00 3.508014311634e+07 1.083455667951e+08  2.005167036024e-03
2.000000000000e-01 1.257458994568e+05 1.000000000000e+00 3.885749378687e+01 0.000000000000e+00 -1.122732975427e-03 -1.033402080823e+08 1.542342141408e+06 2.099268817165e+07 -2.649274409804e+07 -1.038346912381e-03 5.821387231214e-05 1.292122449962e-03 0.000000000000e+00 3.628008800291e+07 1.087045100381e+08  2.024742615068e-03
3.000000000000e-01 1.562400302916e+05 1.000000000000e+00 4.116519253718e+01 0.000000000000e+00 -9.746374988866e-04 -1.040365177601e+08 1.542061182050e+06 2.044781593869e+07 -2.767147901534e+07 -1.020428260626e-03 5.819300104555e-05 1.315665921094e-03 0.000000000000e+00 3.708672694557e+07 1.087605230355e+08  2.030997935635e-03
4.000000000000e-01 1.873099541939e+05 1.000000000000e+00 4.284986261743e+01 0.000000000000e+00 -8.342375872216e-04 -1.044936449482e+08 1.539210090426e+06 1.996161647928e+07 -2.854352065338e+07 -1.005017152487e-03 5.798120566775e-05 1.329997202015e-03 0.000000000000e+00 3.769184970743e+07 1.086841681476e+08  2.031183767062e-03
5.000000000000e-01 2.167971535705e+05 1.000000000000e+00 4.415870682061e+01 0.000000000000e+00 -6.987285822277e-04 -1.048033498603e+08 1.535141772400e+06 1.950582256231e+07 -2.923099317107e+07 -9.909857842790e-04 5.767898775729e-05 1.338602407184e-03 0.000000000000e+00 3.817617348968e+07 1.085204326690e+08  2.027418502029e-03
6.000000000000e-01 2.441751596871e+05 1.000000000000e+00 4.522029198103e+01 0.000000000000e+00 -5.672307395997e-04 -1.050204110904e+08 1.530187545768e+06 1.906911681361e+07 -2.979855828890e+07 -9.779670684494e-04 5.731095949317e-05 1.343462898038e-03 0.000000000000e+00 3.858328418856e+07 1.083019773315e+08  2.021145283144e-03
7.000000000000e-01 2.695236751849e+05 1.000000000000e+00 4.610823886794e+01 0.000000000000e+00 -4.397812615261e-04 -1.051831823021e+08 1.524883055010e+06 1.865620889062e+07 -3.028200803836e+07 -9.660561513337e-04 5.691691160826e-05 1.346083023021e-03 0.000000000000e+00 3.893632714996e+07 1.080631329438e+08  2.013781115581e-03
8.000000000000e-01 2.931001235979e+05 1.000000000000e+00 4.686835921971e+01 0.000000000000e+00 -3.165334451429e-04 -1.053220245629e+08 1.519837090315e+06 1.827640384250e+07 -3.070365389227e+07 -9.555520178728e-04 5.654206851666e-05 1.347637110093e-03 0.000000000000e+00 3.924975820421e+07 1.078363997688e+08  2.006622489610e-03
9.000000000000e-01 3.149678557652e+05 1.000000000000e+00 4.753046193288e+01 0.000000000000e+00 -1.967717585491e-04 -1.054371367573e+08 1.515057158513e+06 1.791798865256e+07 -3.107748937622e+07 -9.459422956926e-04 5.618698786851e-05 1.348209863871e-03 0.000000000000e+00 3.953221249367e+07 1.076108112133e+08  1.999318966633e-03
1.000000000000e+00 3.353127053496e+05 1.000000000000e+00 4.811530562685e+01 0.000000000000e+00 -8.026702162353e-05 -1.055376267957e+08 1.510600875297e+06 1.757621020679e+07 -3.141492997592e+07 -9.371412748413e-04 5.585594968673e-05 1.348048743874e-03 0.000000000000e+00 3.979211552160e+07 1.073895114798e+08  1.992019318330e-03
2.000000000000e+00 4.697379123733e+05 1.000000000000e+00 5.129669055637e+01 0.000000000000e+00 8.739525603872e-04 -1.061033995093e+08 1.477017699189e+06 1.493566969530e+07 -3.349154687722e+07 -8.810242050143e-04 5.336119946158e-05 1.327103009781e-03 0.000000000000e+00 4.155309223041e+07 1.055490933387e+08  1.927474558945e-03
3.000000000000e+00 5.733073288966e+05 1.000000000000e+00 5.334711593721e+01 0.000000000000e+00 1.685848101500e-03 -1.064522170659e+08 1.449568168270e+06 1.271606170567e+07 -3.498118124385e+07 -8.386510092118e-04 5.132209145044e-05 1.299989703784e-03 0.000000000000e+00 4.290577886802e+07 1.039154033315e+08  1.868541755876e-03
4.000000000000e+00 6.596594522158e+05 1.000000000000e+00 5.484331796924e+01 0.000000000000e+00 2.391704320262e-03 -1.066997385364e+08 1.426530773463e+06 1.081115162992e+07 -3.615206504714e+07 -8.043546939949e-04 4.961074212194e-05 1.272725870807e-03 0.000000000000e+00 4.401355065121e+07 1.024781371888e+08  1.816018810895e-03
5.000000000000e+00 7.354601088568e+05 1.000000000000e+00 5.604440461519e+01 0.000000000000e+00 3.015886918351e-03 -1.069038339206e+08 1.406995019995e+06 9.157280608856e+06 -3.713121855170e+07 -7.755668209534e-04 4.815951472147e-05 1.247664934480e-03 0.000000000000e+00 4.495925728782e+07 1.012247576576e+08  1.769965317716e-03
6.000000000000e+00 8.041390172595e+05 1.000000000000e+00 5.709454683777e+01 0.000000000000e+00 3.578067948747e-03 -1.070732790216e+08 1.389654919845e+06 7.674227785103e+06 -3.799568824565e+07 -7.497516217855e-04 4.687139299604e-05 1.224688989658e-03 0.000000000000e+00 4.579824649405e+07 1.000900393166e+08  1.728234345910e-03
7.000000000000e+00 8.678837873252e+05 1.000000000000e+00 5.796631082116e+01 0.000000000000e+00 4.086328719856e-03 -1.072094787086e+08 1.374083557580e+06 6.357104912657e+06 -3.873805458424e+07 -7.272368604401e-04 4.571466322780e-05 1.203340889829e-03 0.000000000000e+00 4.653014279338e+07 9.907221326084e+07  1.690646648587e-03
8.000000000000e+00 9.273815372714e+05 1.000000000000e+00 5.880767308074e+01 0.000000000000e+00 4.460082399657e-03 -1.073259762386e+08 1.377669919411e+06 5.485645314690e+06 -3.932984684643e+07 -7.095830561012e-04 4.598107867804e-05 1.192953245929e-03 0.000000000000e+00 4.705672592343e+07 9.841176696379e+07  1.667179579200e-03
9.000000000000e+00 9.837160277864e+05 1.000000000000e+00 5.957121528962e+01 0.000000000000e+00 4.985559371363e-03 -1.075004469826e+08 1.348173720263e+06 4.075980954406e+06 -4.007322612715e+07 -6.884521675974e-04 4.378993245566e-05 1.168205514402e-03 0.000000000000e+00 4.783256405179e+07 9.735447422614e+07  1.627475592472e-03
1.000000000000e+01 1.037379885506e+06 1.000000000000e+00 6.026073690432e+01 0.000000000000e+00 5.389472017287e-03 -1.076160565581e+08 1.336187732268e+06 3.061892600717e+06 -4.065434857789e+07 -6.711616893742e-04 4.289954477603e-05 1.152123923721e-03 0.000000000000e+00 4.840283751177e+07 9.657976209943e+07  1.598946559687e-03
1.100000000000e+01 1.088673730545e+06 1.000000000000e+00 6.090878638231e+01 0.000000000000e+00 5.763189786022e-03 -1.077314959295e+08 1.326068246985e+06 2.136854731806e+06 -4.119409415678e+07 -6.554017445243e-04 4.214781158360e-05 1.137813067235e-03 0.000000000000e+00 4.892957845150e+07 9.588118216123e+07  1.573284464415e-03
1.200000000000e+01 1.137991997081e+06 1.000000000000e+00 6.149982089724e+01 0.000000000000e+00 6.115339948588e-03 -1.078413390993e+08 1.316443985669e+06 1.280021221627e+06 -4.169174247760e+07 -6.409975532012e-04 4.143286645726e-05 1.124471903059e-03 0.000000000000e+00 4.941768678510e+07 9.523710158217e+07  1.549596305413e-03
1.300000000000e+01 1.185597007457e+06 1.000000000000e+00 6.203604973839e+01 0.000000000000e+00 5.657889555155e-03 -1.070537827203e+08 1.458214078150e+06 2.125608999360e+06 -4.139026284880e+07 -6.229432739060e-04 5.196435904151e-05 1.144681634305e-03 0.000000000000e+00 4.877281218991e+07 9.523189290012e+07  1.555482875221e-03
1.400000000000e+01 1.232205373395e+06 1.000000000000e+00 6.252137324582e+01 0.000000000000e+00 6.758359154233e-03 -1.080183028706e+08 1.298764168476e+06 -2.694524765409e+05 -4.256878522350e+07 -6.149946198571e-04 4.011950860862e-05 1.099495896260e-03 0.000000000000e+00 5.028551352354e+07 9.405532521476e+07  1.506028682999e-03
1.500000000000e+01 1.277367066712e+06 1.000000000000e+00 6.295962165524e+01 0.000000000000e+00 7.052161668553e-03 -1.080917102969e+08 1.290762029513e+06 -9.650406903227e+05 -4.295365608181e+07 -6.034259780980e-04 3.952506399997e-05 1.087954965914e-03 0.000000000000e+00 5.067013568969e+07 9.352039796251e+07  1.486255664543e-03
1.600000000000e+01 1.321228592732e+06 1.000000000000e+00 6.335431298085e+01 0.000000000000e+00 7.329485485165e-03 -1.081504581204e+08 1.283097664558e+06 -1.619582966329e+06 -4.330657065113e+07 -5.924997846812e-04 3.895571117475e-05 1.076751651095e-03 0.000000000000e+00 5.102553724596e+07 9.300870949314e+07  1.467302926021e-03
1.700000000000e+01 1.363922198570e+06 1.000000000000e+00 6.370850933935e+01 0.000000000000e+00 7.754589439943e-03 -1.083944236660e+08 1.240045733628e+06 -2.608579788493e+06 -4.380121423519e+07 -5.831888861095e-04 3.575756773420e-05 1.058389959394e-03 0.000000000000e+00 5.160140589657e+07 9.238232212561e+07  1.442697354079e-03
1.800000000000e+01 1.405587800678e+06 1.000000000000e+00 6.402490330132e+01 0.000000000000e+00 7.840004416664e-03 -1.082083108328e+08 1.268392138469e+06 -2.836071689623e+06 -4.392515265215e+07 -5.716726968175e-04 3.786330066528e-05 1.054543687124e-03 0.000000000000e+00 5.165651172486e+07 9.201521258404e+07  1.430393925631e-03
1.900000000000e+01 1.446313787813e+06 1.000000000000e+00 6.430589305395e+01 0.000000000000e+00 8.075139256883e-03 -1.082071063700e+08 1.261204023118e+06 -3.404785632090e+06 -4.419453912508e+07 -5.616221763467e-04 3.732932638201e-05 1.043425809684e-03 0.000000000000e+00 5.193547704238e+07 9.152727189443e+07  1.412214006160e-03
2.000000000000e+01 1.486183576154e+06 1.000000000000e+00 6.455355247726e+01 0.000000000000e+00 8.297148373502e-03 -1.082021887672e+08 1.254481355877e+06 -3.932898106057e+06 -4.443896629207e+07 -5.523607991838e-04 3.682992824411e-05 1.032888926854e-03 0.000000000000e+00 5.219135105511e+07 9.107144836916e+07  1.395191267046e-03
2.100000000000e+01 1.525125193313e+06 1.000000000000e+00 6.481651523528e+01 0.000000000000e+00 8.509294372248e-03 -1.082081043576e+08 1.248251201501e+06 -4.437674799992e+06 -4.468485226331e+07 -5.434476136112e-04 3.636711677617e-05 1.023272985725e-03 0.000000000000e+00 5.244354380698e+07 9.064405575478e+07  1.379306302374e-03
2.200000000000e+01 1.563296833678e+06 1.000000000000e+00 6.506310122499e+01 0.000000000000e+00 8.712307412658e-03 -1.082043113058e+08 1.242131311732e+06 -4.924811721424e+06 -4.491679557664e+07 -5.346916914753e-04 3.591249639336e-05 1.013794365996e-03 0.000000000000e+00 5.268197286794e+07 9.022355788652e+07  1.363675462862e-03
2.300000000000e+01 1.600764539823e+06 1.000000000000e+00 6.528885384095e+01 0.000000000000e+00 8.905806124023e-03 -1.082038012595e+08 1.236433420465e+06 -5.379402561438e+06 -4.513266775541e+07 -5.266546374028e-04 3.548922447069e-05 1.004927672864e-03 0.000000000000e+00 5.290529052545e+07 8.983406800405e+07  1.349174936438e-03
2.400000000000e+01 1.637574359506e+06 1.000000000000e+00 6.549323373189e+01 0.000000000000e+00 9.090560818227e-03 -1.081979730855e+08 1.230945871497e+06 -5.811940684258e+06 -4.533284815409e+07 -5.190028904171e-04 3.508157797590e-05 9.962972431099e-04 0.000000000000e+00 5.311425397461e+07 8.945925624880e+07  1.335194928510e-03
2.500000000000e+01 1.673781468520e+06 1.000000000000e+00 6.567656887115e+01 0.000000000000e+00 9.266998920912e-03 -1.081842266368e+08 1.225587314933e+06 -6.225406453856e+06 -4.551756574883e+07 -5.116313688051e-04 3.468351377400e-05 9.878008823296e-04 0.000000000000e+00 5.330906627984e+07 8.909432520542e+07  1.321558169962e-03
2.600000000000e+01 1.709418523614e+06 1.000000000000e+00 6.583945735160e+01 0.000000000000e+00 9.435498453851e-03 -1.081611313523e+08 1.220370418326e+06 -6.621429288902e+06 -4.568708960129e+07 -5.044769437170e-04 3.429597288320e-05 9.793880629762e-04 0.000000000000e+00 5.348988341416e+07 8.873662892859e+07  1.308168682790e-03
2.700000000000e+01 1.744518252958e+06 1.000000000000e+00 6.598257455872e+01 0.000000000000e+00 9.596403354524e-03 -1.081276032182e+08 1.215221192311e+06 -7.002228540244e+06 -4.584199671940e+07 -4.974779200651e-04 3.391345895066e-05 9.709977837418e-04 0.000000000000e+00 5.365727615929e+07 8.838333086104e+07  1.294921350091e-03
2.800000000000e+01 1.779123736624e+06 1.000000000000e+00 6.610660138963e+01 0.000000000000e+00 9.750092571154e-03 -1.080817487827e+08 1.210068782712e+06 -7.370931365549e+06 -4.598289552181e+07 -4.905413712274e-04 3.353070852328e-05 9.625364914632e-04 0.000000000000e+00 5.381185855670e+07 8.803012466171e+07  1.281656830007e-03
2.900000000000e+01 1.813258572512e+06 1.000000000000e+00 6.621219494693e+01 0.000000000000e+00 9.896808852416e-03 -1.080238191055e+08 1.204941401770e+06 -7.727429333839e+06 -4.611005876207e+07 -4.836664914349e-04 3.314981736761e-05 9.540183444220e-04 0.000000000000e+00 5.395376906713e+07 8.767729770472e+07  1.268387840140e-03
3.000000000000e+01 1.846933369340e+06 1.000000000000e+00 6.629998132215e+01 0.000000000000e+00 1.003683889453e-02 -1.079536740382e+08 1.199796672205e+06 -8.073594897343e+06 -4.622422527589e+07 -4.768206327073e-04 3.276763745704e-05 9.454012368622e-04 0.000000000000e+00 5.408383140381e+07 8.732314333636e+07  1.255049554620e-03
3.100000000000e+01 1.880068628646e+06 1.000000000000e+00 6.640753140309e+01 0.000000000000e+00 1.017209549835e-02 -1.078883881883e+08 1.194833171039e+06 -8.414070745156e+06 -4.634494387588e+07 -4.699118959970e-04 3.239892022758e-05 9.372388248003e-04 0.000000000000e+00 5.421580093644e+07 8.697715867660e+07  1.242096030093e-03
3.200000000000e+01 1.912746246969e+06 1.000000000000e+00 6.650903880484e+01 0.000000000000e+00 1.030281837535e-02 -1.078135154443e+08 1.189792168583e+06 -8.751426817759e+06 -4.645973025355e+07 -4.628674143350e-04 3.202444575945e-05 9.289719504169e-04 0.000000000000e+00 5.434155750520e+07 8.662561440103e+07  1.228943720425e-03
3.300000000000e+01 1.944992534906e+06 1.000000000000e+00 6.660028937794e+01 0.000000000000e+00 1.042907287031e-02 -1.077270494985e+08 1.184640963099e+06 -9.085767054326e+06 -4.656654341315e+07 -4.556884761345e-04 3.164178478059e-05 9.205209447010e-04 0.000000000000e+00 5.445978665532e+07 8.626685037884e+07  1.215518486527e-03
3.400000000000e+01 1.976830061260e+06 1.000000000000e+00 6.668024539975e+01 0.000000000000e+00 1.055085043575e-02 -1.076293851431e+08 1.179396125646e+06 -9.416296990109e+06 -4.666490069505e+07 -4.484076724654e-04 3.125216828413e-05 9.118973889853e-04 0.000000000000e+00 5.457019427610e+07 8.590193064731e+07  1.201856134716e-03
3.500000000000e+01 2.008299346037e+06 1.000000000000e+00 6.674866253792e+01 0.000000000000e+00 1.066854743999e-02 -1.075140672103e+08 1.173948433378e+06 -9.749544874265e+06 -4.675473861251e+07 -4.407875980255e-04 3.084748257278e-05 9.028564473653e-04 0.000000000000e+00 5.467278356569e+07 8.551973787494e+07  1.187546250662e-03
3.600000000000e+01 2.039444670270e+06 1.000000000000e+00 6.680556866818e+01 0.000000000000e+00 1.078262309584e-02 -1.073723805380e+08 1.168038420049e+06 -1.009489514711e+07 -4.683626772314e+07 -4.324967260892e-04 3.040845301122e-05 8.930573756258e-04 0.000000000000e+00 5.476784780276e+07 8.510477207534e+07  1.172016769270e-03
3.700000000000e+01 2.070350557002e+06 1.000000000000e+00 6.685110794378e+01 0.000000000000e+00 1.089447264041e-02 -1.071767419999e+08 1.161056843379e+06 -1.047999033793e+07 -4.690955630076e+07 -4.225080046477e-04 2.988982160139e-05 8.814759871352e-04 0.000000000000e+00 5.485542954620e+07 8.460968339461e+07  1.153526677049e-03
3.800000000000e+01 2.103243222582e+06 1.000000000000e+00 6.688582001012e+01 0.000000000000e+00 1.104592973310e-02 -1.060413390171e+08 1.132255414166e+06 -1.179541401829e+07 -4.697622367664e+07 -3.778596770409e-04 2.775028685990e-05 8.350936101118e-04 0.000000000000e+00 5.493765890403e+07 8.251170708218e+07  1.076112313033e-03
3.900000000000e+01 2.133056538292e+06 1.000000000000e+00 6.690898244266e+01 0.000000000000e+00 1.113548824172e-02 -1.061330283847e+08 1.132173113065e+06 -1.186980352532e+07 -4.703466789222e+07 -3.790944969715e-04 2.774417306380e-05 8.345013564296e-04 0.000000000000e+00 5.501249993408e+07 8.253008650026e+07  1.076461444210e-03
4.000000000000e+01 2.162442325665e+06 1.000000000000e+00 6.692120017537e+01 0.000000000000e+00 1.121192018254e-02 -1.062715535772e+08 1.134359358584e+06 -1.183742858641e+07 -4.707130297439e+07 -3.828789867851e-04 2.790657987377e-05 8.370645857840e-04 0.000000000000e+00 5.506009504601e+07 8.267895792019e+07  1.081713553292e-03
4.200000000000e+01 2.219725180735e+06 1.000000000000e+00 6.697479474535e+01 0.000000000000e+00 1.137248015909e-02 -1.065210165445e+08 1.135108801744e+06 -1.189681257170e+07 -4.718355406997e+07 -3.879754277318e-04 2.796225279427e-05 8.390282213087e-04 0.000000000000e+00 5.520046106204e+07 8.284793113864e+07  1.087364375203e-03
4.400000000000e+01 2.275490823827e+06 1.000000000000e+00 6.700716875484e+01 0.000000000000e+00 1.146395123276e-02 -1.067014500309e+08 1.146328990653e+06 -1.176242783151e+07 -4.720953357266e+07 -3.937122899858e-04 2.879575254181e-05 8.449846074729e-04 0.000000000000e+00 5.522447047836e+07 8.311765091244e+07  1.097349882698e-03
5.000000000000e+01 2.427012687700e+06 1.000000000000e+00 6.679476010346e+01 0.000000000000e+00 1.181769911710e-02 -1.070764085844e+08 1.138403048091e+06 -1.192478256203e+07 -4.729888279368e+07 -4.043206366185e-04 2.820696823718e-05 8.422729742633e-04 0.000000000000e+00 5.543335798002e+07 8.332552808277e+07  1.102648713191e-03
6.500000000000e+01 2.758397040128e+06 1.000000000000e+00 6.601327659906e+01 0.000000000000e+00 1.233005958267e-02 -1.072327688032e+08 1.136300180009e+06 -1.189736240288e+07 -4.706883975607e+07 -4.186727575715e-04 2.805075517962e-05 8.347469816349e-04 0.000000000000e+00 5.539965698738e+07 8.352639690449e+07  1.106316300411e-03
8.000000000000e+01 3.013450394319e+06 1.000000000000e+00 6.501253176179e+01 0.000000000000e+00 1.257358685867e-02 -1.068936670377e+08 1.130110803992e+06 -1.183145250062e+07 -4.660076013321e+07 -4.234633637022e-04 2.759097296124e-05 8.198092491556e-04 0.000000000000e+00 5.510862655717e+07 8.333254739748e+07  1.095833652069e-03
1.000000000000e+02 3.314130012925e+06 1.000000000000e+00 6.391116478821e+01 0.000000000000e+00 1.277801345690e-02 -1.063759499966e+08 1.122094886657e+06 -1.174763305197e+07 -4.603831446410e+07 -4.251247127439e-04 2.699550481634e-05 8.020317038236e-04 0.000000000000e+00 5.472063250423e+07 8.300166878667e+07  1.080340522643e-03
1.860000000000e+02 3.912611211329e+06 1.000000000000e+00 6.127460376810e+01 0.000000000000e+00 1.302636130337e-02 -1.046930712245e+08 1.099308226043e+06 -1.151350525815e+07 -4.454701693211e+07 -4.180088381090e-04 2.530278145644e-05 7.553368278346e-04 0.000000000000e+00 5.358453113824e+07 8.184877251851e+07  1.030981704131e-03
2.720000000000e+02 4.202932549007e+06 1.000000000000e+00 5.927316669568e+01 0.000000000000e+00 1.284167005529e-02 -1.030820541676e+08 1.080689079566e+06 -1.132621914992e+07 -4.331022765534e+07 -4.041089491342e-04 2.391964486101e-05 7.163552815746e-04 0.000000000000e+00 5.257283365762e+07 8.069011289432e+07  9.837026789050e-04
3.580000000000e+02 4.344298240405e+06 1.000000000000e+00 5.786901994477e+01 0.000000000000e+00 1.264825230337e-02 -1.018618512567e+08 1.067013812696e+06 -1.118936956930e+07 -4.241351096413e+07 -3.920937466891e-04 2.290376789355e-05 6.881316460386e-04 0.000000000000e+00 5.182157726338e+07 7.980407951852e+07  9.479707440286e-04
4.440000000000e+02 4.416427118122e+06 1.000000000000e+00 5.679914782248e+01 0.000000000000e+00 1.246676515043e-02 -1.009016338953e+08 1.056473864700e+06 -1.108423966497e+07 -4.172069660115e+07 -3.821616353195e-04 2.212080032813e-05 6.663033661457e-04 0.000000000000e+00 5.123552338714e+07 7.910384618053e+07  9.198430652528e-04
5.300000000000e+02 4.455391635668e+06 1.000000000000e+00 5.597604575726e+01 0.000000000000e+00 1.230925444061e-02 -1.001469358735e+08 1.048302605089e+06 -1.100291328156e+07 -4.118267461810e+07 -3.741136681668e-04 2.151379247129e-05 6.493403867304e-04 0.000000000000e+00 5.077750792440e+07 7.855206074228e+07  8.977302592184e-04
6.160000000000e+02 4.477907108613e+06 1.000000000000e+00 5.534879647688e+01 0.000000000000e+00 1.217858981865e-02 -9.956241099701e+07 1.042039750477e+06 -1.094068497346e+07 -4.076972367986e+07 -3.677409218877e-04 2.104855184296e-05 6.363135461825e-04 0.000000000000e+00 5.042427321678e+07 7.812386650878e+07  8.805997782040e-04
7.020000000000e+02 4.491717382568e+06 1.000000000000e+00 5.488766014466e+01 0.000000000000e+00 1.207459004873e-02 -9.910709977453e+07 1.038711065275e+06 -1.091633996340e+07 -4.046485864807e+07 -3.621529205189e-04 2.080127808510e-05 6.258942310899e-04 0.000000000000e+00 5.016276612867e+07 7.776924533811e+07  8.665251465405e-04
7.880000000000e+02 4.501335968617e+06 1.000000000000e+00 5.452634167833e+01 0.000000000000e+00 1.198773320226e-02 -9.878188568187e+07 1.033800408061e+06 -1.085900698272e+07 -4.022391999410e+07 -3.590226899396e-04 2.043648640636e-05 6.190745917958e-04 0.000000000000e+00 4.995493755290e+07 7.755055937936e+07  8.577094013990e-04
8.740000000000e+02 4.509722027139e+06 1.000000000000e+00 5.394399340208e+01 0.000000000000e+00 1.186012231135e-02 -9.823453576877e+07 1.027966987401e+06 -1.080109917819e+07 -3.983906481990e+07 -3.529871710657e-04 2.000314658589e-05 6.069308323511e-04 0.000000000000e+00 4.962489992229e+07 7.714979133721e+07  8.416674838436e-04
9.370000000000e+02 4.515095897328e+06 1.000000000000e+00 5.354017270868e+01 0.000000000000e+00 1.175518543255e-02 -9.783600771428e+07 1.023813322117e+06 -1.076001931921e+07 -3.956612970507e+07 -3.483222904501e-04 1.969458859336e-05 5.983190657052e-04 0.000000000000e+00 4.938738557952e+07 7.685599389788e+07  8.299913374588e-04
1.000000000000e+03 4.519285921139e+06 1.000000000000e+00 5.322023067899e+01 0.000000000000e+00 1.166749585440e-02 -9.750863106815e+07 1.020416286168e+06 -1.072646363721e+07 -3.934605304191e+07 -3.443368625110e-04 1.944223735148e-05 5.913911435477e-04 0.000000000000e+00 4.919371591575e+07 7.661383184760e+07  8.204164382899e-04
1.100000000000e+03 4.523431225789e+06 1.000000000000e+00 5.289815608429e+01 0.000000000000e+00 1.157583405627e-02 -9.717176104004e+07 1.016933819647e+06 -1.069209347614e+07 -3.912211077703e+07 -3.401424027339e-04 1.918353983851e-05 5.843498939779e-04 0.000000000000e+00 4.899532176441e+07 7.636414606250e+07  8.105725472200e-04
1.200000000000e+03 4.526692600566e+06 1.000000000000e+00 5.262163515619e+01 0.000000000000e+00 1.149961362662e-02 -9.688813534248e+07 1.013992058613e+06 -1.066303617205e+07 -3.893167915549e+07 -3.366809084820e-04 1.896500901883e-05 5.783559907580e-04 0.000000000000e+00 4.882761689001e+07 7.615446078924e+07  8.022780822618e-04
1.300000000000e+03 4.529597981427e+06 1.000000000000e+00 5.235621144567e+01 0.000000000000e+00 1.142705254881e-02 -9.661757291482e+07 1.011183538975e+06 -1.063528999334e+07 -3.874944380514e+07 -3.334001884675e-04 1.875637613139e-05 5.726178215257e-04 0.000000000000e+00 4.866743557110e+07 7.595463758223e+07  7.943633612852e-04
1.400000000000e+03 4.532337490768e+06 1.000000000000e+00 5.208448068311e+01 0.000000000000e+00 1.135208890232e-02 -9.633974903049e+07 1.008302528005e+06 -1.060683294816e+07 -3.856260925071e+07 -3.300205847854e-04 1.854235817366e-05 5.667352283253e-04 0.000000000000e+00 4.850306374312e+07 7.574944307953e+07  7.862367035551e-04
1.500000000000e+03 4.534977377075e+06 1.000000000000e+00 5.179637439515e+01 0.000000000000e+00 1.127118619063e-02 -9.604292499434e+07 1.005230388280e+06 -1.057649941214e+07 -3.836378024744e+07 -3.263807692783e-04 1.831414207975e-05 5.604768252562e-04 0.000000000000e+00 4.832773488464e+07 7.553009183615e+07  7.775562738439e-04
1.600000000000e+03 4.537538418873e+06 1.000000000000e+00 5.148575268733e+01 0.000000000000e+00 1.118217601466e-02 -9.571995123422e+07 1.001894948634e+06 -1.054358085446e+07 -3.814845041235e+07 -3.223825663488e-04 1.806636656320e-05 5.537015492378e-04 0.000000000000e+00 4.813732750034e+07 7.529124571353e+07  7.681138144513e-04
1.700000000000e+03 4.540025723056e+06 1.000000000000e+00 5.114882389448e+01 0.000000000000e+00 1.108371654950e-02 -9.536641483361e+07 9.982516935324e+05 -1.050763979345e+07 -3.791383754300e+07 -3.179654066165e-04 1.779572475567e-05 5.463223106423e-04 0.000000000000e+00 4.792929739002e+07 7.502962432400e+07  7.577807902131e-04
1.800000000000e+03 4.542439112818e+06 1.000000000000e+00 5.078330093099e+01 0.000000000000e+00 1.097499860840e-02 -9.497965505134e+07 9.942737778853e+05 -1.046841282409e+07 -3.765826392417e+07 -3.130927776882e-04 1.750022245045e-05 5.382865779480e-04 0.000000000000e+00 4.770211059987e+07 7.474326534365e+07  7.464796987721e-04
1.900000000000e+03 4.544778400875e+06 1.000000000000e+00 5.038789693194e+01 0.000000000000e+00 1.083202028474e-02 -9.451806763757e+07 9.941031891786e+05 -1.042479275810e+07 -3.736846572097e+07 -3.067120355817e-04 1.748755014653e-05 5.291428185659e-04 0.000000000000e+00 4.743710870555e+07 7.439639386024e+07  7.329913433572e-04
2.000000000000e+03 4.547042746701e+06 1.000000000000e+00 4.996201032882e+01 0.000000000000e+00 1.072520004388e-02 -9.410128444753e+07 9.852618480263e+05 -1.037958678142e+07 -3.708096409751e+07 -3.019101488227e-04 1.683076480379e-05 5.201432659712e-04 0.000000000000e+00 4.718727844215e+07 7.409260283236e+07  7.208225231411e-04