 TITLE = "Time curves in points"
 VARIABLES = "TIME"  "PRESSURE1"  "SATURATION1"  "TEMPERATURE1"  "DISPLACEMENT_X1"  "DISPLACEMENT_Y1"  "STRESS_XX"  "STRESS_XY"  "STRESS_YY"  "STRESS_ZZ"  "STRAIN_XX"  "STRAIN_XY"  "STRAIN_YY"  "STRAIN_PLS"  p_(1st_Invariant)  q_(2nd_Invariant)   Effective_Strain
 ZONE T="POINT=POINT1"
0.000000000000e+00 -7.000000000000e+07 8.894919982500e-01 2.500000000000e+01 0.000000000000e+00 0.000000000000e+00 0.000000000000e+00 0.000000000000e+00 0.000000000000e+00 0.000000000000e+00 0.000000000000e+00 0.000000000000e+00 0.000000000000e+00 0.000000000000e+00 -0.000000000000e+00 0.000000000000e+00  0.000000000000e+00
1.000000000000e-03 -7.000000000000e+07 6.684759947500e-01 3.310905024514e+01 -3.312349780945e-05 6.352742089832e-05 -2.219767427894e+07 -8.299110225109e+01 -2.221386231334e+07 -1.350811913099e+07 -4.538393234450e-03 -2.430371432314e-07 1.949647863018e-05 0.000000000000e+00 1.930655190776e+07 8.697660464754e+06  4.548172833907e-03
2.000000000000e-03 -7.015907454864e+07 6.678662387817e-01 3.680324652000e+01 -3.355112226772e-05 6.329235249636e-05 -2.252017920948e+07 -1.306336262198e+02 -2.240167314440e+07 -1.367328887338e+07 -4.708679401553e-03 -3.800187146202e-07 1.763737871268e-05 0.000000000000e+00 1.953171374242e+07 8.788236580547e+06  4.717522864685e-03
3.000000000000e-03 -7.037130608275e+07 6.670521908508e-01 3.937002890421e+01 -3.398570276121e-05 6.295877264766e-05 -2.288182513320e+07 -1.506305199153e+02 -2.261822474519e+07 -1.385864087389e+07 -4.905554543026e-03 -4.373573623993e-07 1.610079487149e-05 0.000000000000e+00 1.978623025076e+07 8.894314169081e+06  4.913624783342e-03
4.000000000000e-03 -7.061820315145e+07 6.661049302029e-01 4.139950772454e+01 -3.442470680335e-05 6.250567363908e-05 -2.326902085852e+07 -1.589442688758e+02 -2.285368473623e+07 -1.405769416113e+07 -5.116908441949e-03 -4.611128140364e-07 1.473475535707e-05 0.000000000000e+00 2.006013325196e+07 9.010840525976e+06  5.124291770406e-03
1.000000000000e-02 -7.212935460053e+07 6.602938290913e-01 4.814735038689e+01 -3.520949993071e-05 5.975814279583e-05 -2.472378430345e+07 -1.650368985990e+02 -2.394982193679e+07 -1.486362881235e+07 -5.869675845176e-03 -4.779157537375e-07 1.946683700155e-05 0.000000000000e+00 2.117907835086e+07 9.496857104107e+06  5.879433492551e-03
2.000000000000e-02 -7.524730992553e+07 6.482622391394e-01 5.436283958387e+01 -3.634942392267e-05 5.796391080342e-05 -2.747545418844e+07 -1.672284901734e+02 -2.601533018834e+07 -1.637926713908e+07 -7.310808163839e-03 -4.831868324809e-07 3.181210272938e-05 0.000000000000e+00 2.329001717196e+07 1.044296510545e+07  7.326766060077e-03
3.000000000000e-02 -7.893054986713e+07 6.339986448635e-01 5.830139727203e+01 -3.757931681129e-05 5.833788986867e-05 -3.066402021382e+07 -1.688638963591e+02 -2.833455484791e+07 -1.811527696785e+07 -8.974095805442e-03 -4.870478541395e-07 4.610315176983e-05 0.000000000000e+00 2.570461734319e+07 1.156137981612e+07  8.997236011043e-03
4.000000000000e-02 -8.274830419889e+07 6.191580483522e-01 6.102917500655e+01 -3.883702362493e-05 6.104123224005e-05 -3.396700493742e+07 -1.704434491629e+02 -3.065203472319e+07 -1.989382993084e+07 -1.067534195052e-02 -4.909123937042e-07 5.996360171440e-05 0.000000000000e+00 2.817095653048e+07 1.274327769484e+07  1.070544973693e-02
5.000000000000e-02 -8.646458731301e+07 6.110473851967e-01 6.303907960436e+01 -4.009194815069e-05 6.474429501841e-05 -3.721247334808e+07 -1.716682237207e+02 -3.282201282302e+07 -2.161449874651e+07 -1.232549928051e-02 -4.939407660750e-07 7.147663999760e-05 0.000000000000e+00 3.054966163920e+07 1.393164253140e+07  1.236139261697e-02
6.000000000000e-02 -8.999223162203e+07 6.035636092908e-01 6.459149100451e+01 -4.134626552717e-05 7.076392917183e-05 -4.032446436075e+07 -1.732870875295e+02 -3.480624426135e+07 -2.324026479308e+07 -1.388173593897e-02 -4.980947975657e-07 8.075581798798e-05 0.000000000000e+00 3.279032447173e+07 1.510120043529e+07  1.392228953393e-02
7.000000000000e-02 -9.331716929778e+07 5.965377377464e-01 6.584443306584e+01 -4.257146197228e-05 7.680011247560e-05 -4.327843676576e+07 -1.749294020750e+02 -3.662514481354e+07 -2.476862635523e+07 -1.532567368066e-02 -5.023714124770e-07 8.832905234934e-05 0.000000000000e+00 3.489073597817e+07 1.623971067124e+07  1.537002858740e-02
8.000000000000e-02 -9.644615882763e+07 5.900016052189e-01 6.688977752487e+01 -4.376571781366e-05 8.362610938865e-05 -4.607398681075e+07 -1.772066820207e+02 -3.829942382741e+07 -2.620508212700e+07 -1.665329405766e-02 -5.085173667927e-07 9.437858575748e-05 0.000000000000e+00 3.685949758839e+07 1.734200542424e+07  1.670068338139e-02
9.000000000000e-02 -9.940042087716e+07 5.839014870264e-01 6.778635190790e+01 -4.493117026337e-05 8.363400210252e-05 -4.872354532945e+07 -1.529161722519e+02 -3.985476672777e+07 -2.756081960169e+07 -1.786954496128e-02 -3.848094732615e-07 9.916364097692e-05 0.000000000000e+00 3.871304388630e+07 1.840729923418e+07  1.791933258065e-02
1.000000000000e-01 -1.021958375388e+08 5.772939348282e-01 6.856669367088e+01 -4.606566181868e-05 9.540178426768e-05 -5.123665604454e+07 -1.848855326788e+02 -4.130721697318e+07 -2.884330645873e+07 -1.897967880928e-02 -5.292900614607e-07 1.028478473963e-04 0.000000000000e+00 4.046239315882e+07 1.943456883315e+07  1.903131118272e-02
2.000000000000e-01 -1.187516576213e+08 5.380454470917e-01 7.279261234533e+01 -5.140535255273e-05 1.902981539888e-04 -6.484951089853e+07 -1.626030323221e+02 -4.903330513453e+07 -3.551929350083e+07 -2.504990114574e-02 -4.649464717670e-07 1.485369569531e-04 0.000000000000e+00 4.980070317797e+07 2.542678241501e+07  2.512449894775e-02
3.000000000000e-01 -1.341076557064e+08 5.086722764511e-01 7.558238752096e+01 -5.618327641387e-05 3.001472442618e-04 -7.723311216471e+07 -1.785961961742e+02 -5.643612737523e+07 -4.171234530638e+07 -3.043818124868e-02 -5.059395496418e-07 2.072764853903e-04 0.000000000000e+00 5.846052828211e+07 3.091139929816e+07  3.054234701636e-02
4.000000000000e-01 -1.471562298168e+08 4.912841749620e-01 7.759060036906e+01 -6.039005509351e-05 4.057473468956e-04 -8.762415796297e+07 -2.004265707115e+02 -6.262711547726e+07 -4.689614287496e+07 -3.448698957012e-02 -5.522262469115e-07 2.427780606800e-04 0.000000000000e+00 6.571580543840e+07 3.557447712403e+07  3.460901726657e-02
5.000000000000e-01 -1.578188093455e+08 4.765742391107e-01 7.913407170219e+01 -6.401296652660e-05 5.083169960851e-04 -9.606385139161e+07 -2.309904931430e+02 -6.766833044656e+07 -5.110995387638e+07 -3.745321812062e-02 -6.050224893284e-07 2.671534974816e-04 0.000000000000e+00 7.161404523818e+07 3.937853696185e+07  3.758750693905e-02
6.000000000000e-01 -1.664470021273e+08 4.628553817461e-01 8.036202840840e+01 -6.706897594556e-05 6.082500777525e-04 -1.028749078647e+08 -2.640277429881e+02 -7.172851693942e+07 -5.451165608771e+07 -3.962228968406e-02 -6.430637210825e-07 2.827431513458e-04 0.000000000000e+00 7.637169363063e+07 4.245893361902e+07  3.976441519482e-02
7.000000000000e-01 -1.732705663452e+08 4.540722615699e-01 8.135405414553e+01 -6.967497637507e-05 7.057512126997e-04 -1.083086508816e+08 -3.168577311475e+02 -7.492125696158e+07 -5.721690363574e+07 -4.120666976621e-02 -7.178600027274e-07 2.899449385418e-04 0.000000000000e+00 8.014893715965e+07 4.493622612492e+07  4.135240462377e-02
8.000000000000e-01 -1.785574878993e+08 4.487369268225e-01 8.216210405303e+01 -7.183936609814e-05 8.009499001315e-04 -1.125743581796e+08 -3.625018867952e+02 -7.742553540189e+07 -5.934685060439e+07 -4.234107187154e-02 -7.557733127469e-07 2.913145638399e-04 0.000000000000e+00 8.311558139528e+07 4.687987921335e+07  4.248747820246e-02
9.000000000000e-01 -1.825455354909e+08 4.447347654608e-01 8.283348418804e+01 -7.361042636010e-05 8.938404812999e-04 -1.159380351756e+08 -4.039031710174e+02 -7.944571455071e+07 -6.105608462601e+07 -4.334370057215e-02 -7.679538143422e-07 2.963264771221e-04 0.000000000000e+00 8.547994478409e+07 4.838334656912e+07  4.349262094350e-02
1.000000000000e+00 -1.854867315906e+08 4.417945844349e-01 8.339527886974e+01 -7.508431931136e-05 9.844831995348e-04 -1.185316458839e+08 -4.537381107331e+02 -8.102224133857e+07 -6.239168730919e+07 -4.408689009613e-02 -7.943039429661e-07 2.991748373334e-04 0.000000000000e+00 8.731519151057e+07 4.952649756848e+07  4.423723628344e-02
2.000000000000e+00 -1.860998029172e+08 4.410419437576e-01 8.535753332301e+01 -7.956932129906e-05 1.002331309516e-03 -1.224326941107e+08 3.621917035374e+05 -8.398008885640e+07 -6.459715497753e+07 -4.635667348013e-02 1.110538219429e-03 3.151722478313e-04 0.000000000000e+00 9.033664598155e+07 5.099037978092e+07  4.655481427395e-02
3.000000000000e+00 -1.774891017758e+08 4.495795733837e-01 8.593561672871e+01 -8.116907825708e-05 2.373574649852e-03 -1.193915433787e+08 -7.180584738891e+02 -8.271107632727e+07 -6.336843579008e+07 -4.627812178180e-02 4.966440873038e-08 3.023255382450e-04 0.000000000000e+00 8.849035183202e+07 4.928581435386e+07  4.643002277047e-02
4.000000000000e+00 -1.655179158846e+08 4.640228389502e-01 8.594181060190e+01 -8.147499889467e-05 2.928494935249e-03 -1.136499820704e+08 -9.725664484985e+02 -7.985619369570e+07 -6.082805676280e+07 -4.536929122592e-02 5.697816318547e-07 2.865180097978e-04 0.000000000000e+00 8.477807750964e+07 4.633705820795e+07  4.551322663704e-02
5.000000000000e+00 -1.531383074252e+08 4.825992400561e-01 8.575846066721e+01 -8.145156375124e-05 3.420223574370e-03 -1.072079337601e+08 -1.309854022968e+03 -7.648188708208e+07 -5.789982452322e+07 -4.377522995162e-02 8.755561331127e-07 2.608510465905e-04 0.000000000000e+00 8.052988178847e+07 4.313161624732e+07  4.390623665760e-02
6.000000000000e+00 -1.414940106912e+08 4.976938476946e-01 8.561855139597e+01 -8.138649989097e-05 3.863819556322e-03 -1.009316401686e+08 -1.478123713050e+03 -7.312115405884e+07 -5.501407215917e+07 -4.185060751848e-02 1.501325143808e-06 2.295882811278e-04 0.000000000000e+00 7.635562212886e+07 4.006065786771e+07  4.196587275694e-02
7.000000000000e+00 -1.312343108271e+08 5.110276239027e-01 8.535781904298e+01 -8.135585725201e-05 4.267256879013e-03 -9.536068266633e+07 -1.426193809361e+03 -7.007021271135e+07 -5.243053015519e+07 -3.988821341855e-02 2.593183455232e-06 1.878231810138e-04 0.000000000000e+00 7.262047517763e+07 3.737488647515e+07  3.998245613484e-02
8.000000000000e+00 -1.218124760191e+08 5.294013447894e-01 8.528219684749e+01 -8.128615054968e-05 4.639904129245e-03 -9.023019479303e+07 -1.707329121157e+03 -6.731349159384e+07 -5.007657126104e+07 -3.811544039391e-02 2.410811094608e-06 1.540356039391e-04 0.000000000000e+00 6.920675254931e+07 3.488982809013e+07  3.819269139123e-02
9.000000000000e+00 -1.135309100987e+08 5.485280292358e-01 8.520333329591e+01 -8.130618739714e-05 4.498573555465e-03 -8.581836276429e+07 1.797031684443e+05 -6.496397035374e+07 -4.807747341400e+07 -3.667992500645e-02 5.595656123015e-04 1.302597479033e-04 0.000000000000e+00 6.628660217734e+07 3.274620550562e+07  3.675800762947e-02
1.000000000000e+01 -1.060027444346e+08 5.654957297874e-01 8.512020195793e+01 -8.136925268761e-05 5.307637867140e-03 -8.172501180584e+07 -2.021226725579e+03 -6.281174465841e+07 -4.622905573352e+07 -3.511526077594e-02 2.552258180915e-06 1.078552539723e-04 0.000000000000e+00 6.358860406593e+07 3.076247851011e+07  3.516931271762e-02
1.100000000000e+01 -9.920712250194e+07 5.774470281089e-01 8.508992033321e+01 -8.143659762004e-05 5.611240194957e-03 -7.796776882484e+07 -1.838136329101e+03 -6.084327316397e+07 -4.453451795832e+07 -3.349512487393e-02 3.086205500498e-06 8.424972071820e-05 0.000000000000e+00 6.111518664904e+07 2.895691740995e+07  3.353732952735e-02
1.200000000000e+01 -9.310164042445e+07 5.881956851216e-01 8.506072886026e+01 -8.152109745842e-05 5.611433717987e-03 -7.456293648105e+07 3.119355557398e+04 -5.904910933271e+07 -4.299843838663e+07 -3.188989603960e-02 1.060736535289e-04 6.074297258007e-05 0.000000000000e+00 5.887016140013e+07 2.733702844850e+07  3.192083960465e-02
1.300000000000e+01 -8.749469812578e+07 5.980313957934e-01 8.501131571921e+01 -8.171643536277e-05 6.162526071247e-03 -7.143717016105e+07 -1.468600044146e+03 -5.740529737656e+07 -4.159248907635e+07 -3.031280877230e-02 4.344158474521e-06 3.644156978064e-05 0.000000000000e+00 5.681165220465e+07 2.586158697922e+07  3.033104690915e-02
1.400000000000e+01 -8.219117512962e+07 6.142796240892e-01 8.492254158185e+01 -8.187121643209e-05 6.415138293460e-03 -6.843035360402e+07 -1.397562777508e+03 -5.583075347017e+07 -4.024168652094e+07 -2.869266271550e-02 4.694688230956e-06 1.191747185084e-05 0.000000000000e+00 5.483426453171e+07 2.445781976710e+07  2.869862445924e-02
1.500000000000e+01 -7.715797094868e+07 6.332700080980e-01 8.481756095972e+01 -8.205040559753e-05 6.655609979619e-03 -6.554531350992e+07 -1.945076598365e+03 -5.424885150983e+07 -3.892435113068e+07 -2.704479191193e-02 3.186510011816e-06 -1.434484742803e-05 0.000000000000e+00 5.290617205014e+07 2.314223440257e+07  2.703762290553e-02
1.600000000000e+01 -7.243872986770e+07 6.510621264686e-01 8.470075328020e+01 -8.222079848262e-05 6.713523438904e-03 -6.282308347407e+07 3.919161336191e+05 -5.273379429080e+07 -3.767442811968e+07 -2.542812910190e-02 1.205363561727e-03 -4.207528505110e-05 0.000000000000e+00 5.107710196152e+07 2.193119606141e+07  2.549275050128e-02
1.700000000000e+01 -6.798215591219e+07 6.678476560354e-01 8.456897558945e+01 -8.239745524856e-05 7.094759629345e-03 -6.023594242342e+07 -1.299233307333e+03 -5.129725907857e+07 -3.648572734346e+07 -2.384834553971e-02 4.710471591261e-06 -7.026483976142e-05 0.000000000000e+00 4.933964294848e+07 2.077684117897e+07  2.381329226539e-02
1.800000000000e+01 -6.374879118138e+07 6.837835317803e-01 8.442126255931e+01 -8.253943840656e-05 7.296799018840e-03 -5.777972460160e+07 -1.092401201362e+03 -4.996415591614e+07 -3.536913038976e+07 -2.237854017646e-02 5.118446710456e-06 -9.505448185713e-05 0.000000000000e+00 4.770433696916e+07 1.970193675861e+07  2.233116642360e-02
1.900000000000e+01 -5.970229354164e+07 6.990164999299e-01 8.425635705140e+01 -8.266452405968e-05 7.488066873261e-03 -5.541576114245e+07 -8.969404129939e+02 -4.870417368259e+07 -3.430249110096e+07 -2.094665182820e-02 5.514350888082e-06 -1.180958727002e-04 0.000000000000e+00 4.614080864200e+07 1.868453965295e+07  2.088785646120e-02
2.000000000000e+01 -5.591167188109e+07 7.132931241927e-01 8.407728923581e+01 -8.278880032940e-05 7.670904676484e-03 -5.317544438779e+07 -5.461111161444e+02 -4.751695203721e+07 -3.329460797806e+07 -1.953179819980e-02 5.824832118269e-06 -1.403533055187e-04 0.000000000000e+00 4.466233480102e+07 1.774177646627e+07  1.946200373327e-02
2.100000000000e+01 -5.230263574478e+07 7.252707769324e-01 8.398894340751e+01 -8.289901627835e-05 7.844159590077e-03 -5.101561113309e+07 -4.376412971048e+02 -4.638235754432e+07 -3.232646146917e+07 -1.811630751077e-02 6.044623117486e-06 -1.622562130018e-04 0.000000000000e+00 4.324147671553e+07 1.685703962152e+07  1.803572984566e-02
2.200000000000e+01 -4.892775271031e+07 7.360609190071e-01 8.389868400017e+01 -8.302469443026e-05 8.010096463929e-03 -4.899658466416e+07 -3.102666607770e+02 -4.533480340364e+07 -3.142831949619e+07 -1.674352605021e-02 6.210301338043e-06 -1.833029589138e-04 0.000000000000e+00 4.191990252133e+07 1.605370484122e+07  1.665263469859e-02
2.300000000000e+01 -4.578630807690e+07 7.458698428277e-01 8.379980761998e+01 -8.315042076239e-05 8.033485282634e-03 -4.710129751005e+07 4.952236102502e+04 -4.436021433208e+07 -3.059040924099e+07 -1.539693033049e-02 1.588562746529e-04 -2.036116520118e-04 0.000000000000e+00 4.068397369437e+07 1.532555407569e+07  1.529861538945e-02
2.400000000000e+01 -4.273737125012e+07 7.561677651720e-01 8.368693073806e+01 -8.326410758132e-05 8.321004886922e-03 -4.523104714261e+07 -9.109053224844e+01 -4.339981850595e+07 -2.976385923650e+07 -1.402286572777e-02 6.448895743296e-06 -2.240536288428e-04 0.000000000000e+00 3.946490829502e+07 1.463773693729e+07  1.391219659362e-02
2.500000000000e+01 -3.972039211528e+07 7.706768450691e-01 8.355718496177e+01 -8.335768630439e-05 8.466363726834e-03 -4.334062685321e+07 -1.670516705131e+02 -4.242059421788e+07 -2.892417168293e+07 -1.259263522839e-02 6.103283108207e-06 -2.447191665605e-04 0.000000000000e+00 3.822846425134e+07 1.397916415842e+07  1.247208090168e-02
2.600000000000e+01 -3.674690197054e+07 7.856724775477e-01 8.341465113383e+01 -8.344434068949e-05 8.604784996667e-03 -4.144660897523e+07 1.423041612271e+01 -4.142603850501e+07 -2.807760460656e+07 -1.112074834717e-02 6.406556060098e-06 -2.657848394606e-04 0.000000000000e+00 3.698341736226e+07 1.335873101190e+07  1.099027216222e-02
2.700000000000e+01 -3.382536535967e+07 8.010888069317e-01 8.325927499564e+01 -8.351036024645e-05 8.604985887207e-03 -3.954974817589e+07 2.190005972860e+04 -4.043054183816e+07 -2.722678614550e+07 -9.619536074220e-03 7.385144873742e-05 -2.866965816503e-04 0.000000000000e+00 3.573569205318e+07 1.278618850059e+07  9.480302907241e-03
2.800000000000e+01 -3.094423989943e+07 8.170103655850e-01 8.309101810095e+01 -8.357477314992e-05 8.863071764979e-03 -3.764787912823e+07 4.091917634748e+02 -3.942898723014e+07 -2.636912825268e+07 -8.090221215344e-03 7.062453034863e-06 -3.076819513215e-04 0.000000000000e+00 3.448199820368e+07 1.226667202013e+07  7.940861545257e-03
2.900000000000e+01 -2.809010199935e+07 8.334581936615e-01 8.290988092229e+01 -8.361928156371e-05 8.983426995896e-03 -3.572643869395e+07 6.138374654464e+02 -3.841658315571e+07 -2.549803724886e+07 -6.526417885060e-03 7.404690623309e-06 -3.285197223165e-04 0.000000000000e+00 3.321368636617e+07 1.180563221423e+07  6.368529117103e-03
3.000000000000e+01 -2.525050456300e+07 8.504808452035e-01 8.271590736143e+01 -8.364207323079e-05 9.097936506660e-03 -3.377466447587e+07 8.671230918665e+02 -3.738665796309e+07 -2.460751170062e+07 -4.924256411448e-03 7.882258816437e-06 -3.492384204311e-04 0.000000000000e+00 3.192294471319e+07 1.141029733761e+07  4.759276787399e-03
3.100000000000e+01 -2.240930402332e+07 8.681657800615e-01 8.259379692318e+01 -8.364616902306e-05 9.208585027156e-03 -3.178308183476e+07 1.086135659650e+03 -3.633307976381e+07 -2.369217587432e+07 -3.280795269777e-03 8.239869317921e-06 -3.698587243532e-04 0.000000000000e+00 3.060277915763e+07 1.108958291904e+07  3.112424458709e-03
3.200000000000e+01 -1.960626494335e+07 8.861325893062e-01 8.247041848592e+01 -8.364069697235e-05 9.204475060620e-03 -2.979065193472e+07 2.019005622447e+04 -3.528156858643e+07 -2.277186160684e+07 -1.630132935983e-03 6.693730472635e-05 -3.899582711659e-04 0.000000000000e+00 2.928136070933e+07 1.086068132964e+07  1.478904604439e-03
3.300000000000e+01 -1.677025590971e+07 9.047373317237e-01 8.234022757066e+01 -8.361210151828e-05 9.417959671741e-03 -2.773539740097e+07 1.586962193804e+03 -3.419147372335e+07 -2.181358975665e+07 6.766375418394e-05 9.074073622633e-06 -4.099415980833e-04 0.000000000000e+00 2.791348696032e+07 1.072289032538e+07  4.479014416455e-04
3.400000000000e+01 -1.387184056146e+07 9.239741076197e-01 8.220176811395e+01 -8.355087067806e-05 9.418270872158e-03 -2.558949140794e+07 2.572432489035e+04 -3.304545120833e+07 -2.080241333208e+07 1.825875951047e-03 8.292816035542e-05 -4.297468191733e-04 0.000000000000e+00 2.647911864945e+07 1.068651954413e+07  2.079375131791e-03
3.500000000000e+01 -1.087324579975e+07 9.437517647392e-01 8.205443786152e+01 -8.346341807046e-05 9.611657075478e-03 -2.332980279853e+07 2.171296690866e+03 -3.182792871949e+07 -1.972537498507e+07 3.654945560840e-03 9.938294766350e-06 -4.495413998918e-04 0.000000000000e+00 2.496103550103e+07 1.076294288782e+07  3.899238409738e-03
3.600000000000e+01 -7.735473849123e+06 9.636979349323e-01 8.189801256073e+01 -8.334456706369e-05 9.702796269505e-03 -2.092896150669e+07 2.465827760904e+03 -3.052604517392e+07 -1.856902921963e+07 5.567575373195e-03 1.018615513997e-05 -4.692026865577e-04 0.000000000000e+00 2.334134530008e+07 1.096912855081e+07  5.816414642481e-03
3.700000000000e+01 -4.373865148840e+06 9.829980546451e-01 8.173237003940e+01 -8.322108484898e-05 9.786460756892e-03 -1.834701417403e+07 3.604698730301e+03 -2.912442175110e+07 -1.731524932098e+07 7.589975004762e-03 1.287651491754e-05 -4.891747634835e-04 0.000000000000e+00 2.159556174870e+07 1.132858517737e+07  7.846039393467e-03
3.800000000000e+01 1.969316349009e+06 1.000000000000e+00 8.155815870313e+01 -8.382014684327e-05 9.776796179432e-03 -1.414718473104e+07 7.716870139656e+03 -2.709252530180e+07 -1.533019625617e+07 1.086057171698e-02 3.419745540914e-05 -5.257117619797e-04 0.000000000000e+00 1.885663542967e+07 1.239625146243e+07  1.113289852499e-02
3.900000000000e+01 2.143157949484e+06 1.000000000000e+00 8.137922522639e+01 -8.385475242776e-05 9.967756918292e-03 -1.407746612913e+07 3.729316011185e+03 -2.711220469953e+07 -1.531270201953e+07 1.091746363038e-02 7.593580858033e-06 -5.257189228922e-04 0.000000000000e+00 1.883412428273e+07 1.246311687030e+07  1.118959707561e-02
4.000000000000e+01 2.172544116640e+06 1.000000000000e+00 8.118933107960e+01 -8.388944029280e-05 1.004270065375e-02 -1.408111377937e+07 3.729290231612e+03 -2.711856064418e+07 -1.531552027419e+07 1.091534598817e-02 7.593494544986e-06 -5.259078500400e-04 0.000000000000e+00 1.883839823258e+07 1.246616672375e+07  1.118758223356e-02
4.200000000000e+01 2.229827572217e+06 1.000000000000e+00 8.091450156677e+01 -8.395691630666e-05 1.018304666550e-02 -1.408848218630e+07 3.729213971910e+03 -2.713164365007e+07 -1.532141512877e+07 1.091172125572e-02 7.593246656546e-06 -5.262699117484e-04 0.000000000000e+00 1.884718032171e+07 1.247248503262e+07  1.118415416279e-02
4.400000000000e+01 2.285594083360e+06 1.000000000000e+00 8.061916130709e+01 -8.402156462037e-05 1.031388644674e-02 -1.409513809310e+07 3.729202110502e+03 -2.714421018154e+07 -1.532690226479e+07 1.090833564780e-02 7.593197756999e-06 -5.266099267144e-04 0.000000000000e+00 1.885541684648e+07 1.247886964402e+07  1.118095324318e-02
5.000000000000e+01 2.437116118607e+06 1.000000000000e+00 7.942409671599e+01 -8.418439051412e-05 1.058758691407e-02 -1.410720635882e+07 3.729191376057e+03 -2.717678589526e+07 -1.533892883437e+07 1.090029415165e-02 7.593143345546e-06 -5.273601367387e-04 0.000000000000e+00 1.887430702948e+07 1.249931983653e+07  1.117331977919e-02
6.500000000000e+01 2.768502594006e+06 1.000000000000e+00 7.676123280458e+01 -8.451579533616e-05 1.105192661447e-02 -1.412204530602e+07 3.728983727453e+03 -2.724621499789e+07 -1.536086229791e+07 1.088999114566e-02 7.592475859105e-06 -5.287316207071e-04 0.000000000000e+00 1.890970753394e+07 1.255070097395e+07  1.116375921831e-02
8.000000000000e+01 3.023556444793e+06 1.000000000000e+00 7.431444553665e+01 -8.475015419497e-05 1.127229251653e-02 -1.412423870855e+07 3.729012318715e+03 -2.729832317383e+07 -1.537388028030e+07 1.088529109488e-02 7.592553421300e-06 -5.295087376963e-04 0.000000000000e+00 1.893214738756e+07 1.259584311014e+07  1.115947899372e-02
1.000000000000e+02 3.324235832813e+06 1.000000000000e+00 7.184336443743e+01 -8.502016984531e-05 1.145677818088e-02 -1.412627969837e+07 3.728981267873e+03 -2.736401444334e+07 -1.539079971174e+07 1.088299566380e-02 7.592452211681e-06 -5.302963257038e-04 0.000000000000e+00 1.896036461782e+07 1.265295590925e+07  1.115760701765e-02
1.860000000000e+02 3.922713870163e+06 1.000000000000e+00 6.661921379737e+01 -8.552964354990e-05 1.167610445910e-02 -1.411577721916e+07 3.728963185898e+03 -2.748980288452e+07 -1.541788798074e+07 1.088590954588e-02 7.592405442174e-06 -5.315979247501e-04 0.000000000000e+00 1.900782269481e+07 1.277284752528e+07  1.116121511540e-02
2.720000000000e+02 4.213038202676e+06 1.000000000000e+00 6.336129421753e+01 -8.573976164161e-05 1.150801386947e-02 -1.409613320567e+07 3.729047826778e+03 -2.755171816720e+07 -1.542572125716e+07 1.089164583103e-02 7.592667620159e-06 -5.316482169961e-04 0.000000000000e+00 1.902452421001e+07 1.284251641114e+07  1.116697343810e-02
3.580000000000e+02 4.354403861108e+06 1.000000000000e+00 6.123180620702e+01 -8.582315154460e-05 1.133212053144e-02 -1.407669258063e+07 3.729114292303e+03 -2.757792066749e+07 -1.542450973444e+07 1.089710145462e-02 7.592871752471e-06 -5.314620566888e-04 0.000000000000e+00 1.902637432752e+07 1.288031932211e+07  1.117232477759e-02
4.440000000000e+02 4.426531523583e+06 1.000000000000e+00 5.967385407749e+01 -8.585094917348e-05 1.116753151204e-02 -1.405916443864e+07 3.729110096041e+03 -2.758828595806e+07 -1.541996939177e+07 1.090155344469e-02 7.592858125301e-06 -5.311946089609e-04 0.000000000000e+00 1.902247326282e+07 1.290265342290e+07  1.117662984060e-02
5.300000000000e+02 4.465496889896e+06 1.000000000000e+00 5.850929465576e+01 -8.585562347370e-05 1.102488489313e-02 -1.404442753698e+07 3.729112839432e+03 -2.759190649542e+07 -1.541483532426e+07 1.090513629495e-02 7.592863840213e-06 -5.309270555697e-04 0.000000000000e+00 1.901705645222e+07 1.291691428666e+07  1.118006645813e-02
6.160000000000e+02 4.488011946988e+06 1.000000000000e+00 5.764205152593e+01 -8.585177154899e-05 1.090666069762e-02 -1.403266973448e+07 3.729112370786e+03 -2.759292163558e+07 -1.541026573646e+07 1.090796027594e-02 7.592860022660e-06 -5.306914561104e-04 0.000000000000e+00 1.901195236884e+07 1.292662737453e+07  1.118276196114e-02
7.020000000000e+02 4.501822580439e+06 1.000000000000e+00 5.701255831117e+01 -8.584609745509e-05 1.081597353542e-02 -1.402382861384e+07 3.729128077822e+03 -2.759301741970e+07 -1.540666180064e+07 1.091007153651e-02 7.592905247063e-06 -5.305056684313e-04 0.000000000000e+00 1.900783594472e+07 1.293333791378e+07  1.118477201134e-02
7.880000000000e+02 4.511441036964e+06 1.000000000000e+00 5.653877482221e+01 -8.583996200985e-05 1.073425205030e-02 -1.401694455184e+07 3.729147083611e+03 -2.759337048243e+07 -1.540396003412e+07 1.091175791183e-02 7.592961050307e-06 -5.303371731143e-04 0.000000000000e+00 1.900475835613e+07 1.293879753906e+07  1.118636679389e-02
8.740000000000e+02 4.519827029726e+06 1.000000000000e+00 5.574293726885e+01 -8.582418906291e-05 1.061872504374e-02 -1.400504215255e+07 3.729132630587e+03 -2.759059195852e+07 -1.539831654036e+07 1.091441505636e-02 7.592913875324e-06 -5.300857049297e-04 0.000000000000e+00 1.899798355048e+07 1.294527018569e+07  1.118888713113e-02
9.370000000000e+02 4.525201046061e+06 1.000000000000e+00 5.522755797721e+01 -8.581176975703e-05 1.052376946430e-02 -1.399670113478e+07 3.729187140030e+03 -2.758926061964e+07 -1.539459564328e+07 1.091653802642e-02 7.593078723478e-06 -5.298838421655e-04 0.000000000000e+00 1.899351913256e+07 1.295032277074e+07  1.119090029647e-02
1.000000000000e+03 4.529391005612e+06 1.000000000000e+00 5.483601786355e+01 -8.580134124379e-05 1.044426829227e-02 -1.398989083518e+07 3.729154891239e+03 -2.758825733406e+07 -1.539161660312e+07 1.091846859277e-02 7.592977540662e-06 -5.297176864478e-04 0.000000000000e+00 1.898992159079e+07 1.295450761561e+07  1.119274033117e-02
1.100000000000e+03 4.533536332609e+06 1.000000000000e+00 5.445290444458e+01 -8.579043140142e-05 1.036109576399e-02 -1.398292191447e+07 3.729171413415e+03 -2.758730757653e+07 -1.538861160331e+07 1.092056033558e-02 7.593025337693e-06 -5.295454252165e-04 0.000000000000e+00 1.898628036477e+07 1.295884909301e+07  1.119473814473e-02
1.200000000000e+03 4.536795852775e+06 1.000000000000e+00 5.411538603500e+01 -8.578104248409e-05 1.029197677564e-02 -1.397699766010e+07 3.729169066866e+03 -2.758633419210e+07 -1.538599429222e+07 1.092224069609e-02 7.593015775318e-06 -5.294006352431e-04 0.000000000000e+00 1.898310871481e+07 1.296240119468e+07  1.119633962420e-02
1.300000000000e+03 4.539699605881e+06 1.000000000000e+00 5.378897489293e+01 -8.577189273840e-05 1.022618871571e-02 -1.397132086101e+07 3.729185425497e+03 -2.758531637541e+07 -1.538345782096e+07 1.092381779123e-02 7.593063561707e-06 -5.292621472283e-04 0.000000000000e+00 1.898003168579e+07 1.296573253394e+07  1.119784130002e-02
1.400000000000e+03 4.542435752120e+06 1.000000000000e+00 5.345626158998e+01 -8.576225828665e-05 1.015821159128e-02 -1.396548472136e+07 3.729175064906e+03 -2.758422275165e+07 -1.538083977250e+07 1.092544564443e-02 7.593029448467e-06 -5.291189978413e-04 0.000000000000e+00 1.897684908184e+07 1.296911514011e+07  1.119939120023e-02
1.500000000000e+03 4.545078337275e+06 1.000000000000e+00 5.310717619147e+01 -8.575168170570e-05 1.008482540309e-02 -1.395924741313e+07 3.729196628082e+03 -2.758302184503e+07 -1.537804014638e+07 1.092721581948e-02 7.593093677845e-06 -5.289647660272e-04 0.000000000000e+00 1.897343646818e+07 1.297269949349e+07  1.120107737737e-02
1.600000000000e+03 4.547643434336e+06 1.000000000000e+00 5.273557688246e+01 -8.573986252153e-05 1.000405648523e-02 -1.395246483498e+07 3.729203294702e+03 -2.758169044518e+07 -1.537499791447e+07 1.092918024128e-02 7.593111723037e-06 -5.287954262556e-04 0.000000000000e+00 1.896971773154e+07 1.297657152480e+07  1.120294955981e-02
1.700000000000e+03 4.550129261428e+06 1.000000000000e+00 5.233767161291e+01 -8.572719131717e-05 1.000343489211e-02 -1.394519587242e+07 -2.548910394963e+04 -2.758013760087e+07 -1.537170068034e+07 1.093127812118e-02 -8.212047003868e-05 -5.286156051905e-04 0.000000000000e+00 1.896567805121e+07 1.298068530769e+07  1.120584451681e-02
1.800000000000e+03 4.552544129901e+06 1.000000000000e+00 5.191117280021e+01 -8.571179789598e-05 9.815970406957e-03 -1.393694215419e+07 3.729171383623e+03 -2.757857582556e+07 -1.536804695219e+07 1.093380627667e-02 7.593009892087e-06 -5.284023751870e-04 0.000000000000e+00 1.896118831065e+07 1.298536347151e+07  1.120736146172e-02
1.900000000000e+03 4.554883811319e+06 1.000000000000e+00 5.145479350019e+01 -8.569581243608e-05 9.815354910362e-03 -1.392816335547e+07 -3.384535624652e+04 -2.757681536202e+07 -1.536412777403e+07 1.093647975240e-02 -1.077412193225e-04 -5.281744925783e-04 0.000000000000e+00 1.895636883051e+07 1.299046393663e+07  1.121145627580e-02