 TITLE = "Time curves in points"
 VARIABLES = "TIME"  "PRESSURE1"  "SATURATION1"  "TEMPERATURE1"  "DISPLACEMENT_X1"  "DISPLACEMENT_Y1"  "STRESS_XX"  "STRESS_XY"  "STRESS_YY"  "STRESS_ZZ"  "STRAIN_XX"  "STRAIN_XY"  "STRAIN_YY"  "STRAIN_PLS"  p_(1st_Invariant)  q_(2nd_Invariant)   Effective_Strain
 ZONE T="POINT=POINT1"
0.000000000000e+00 -7.000000000000e+07 8.894919982500e-01 2.500000000000e+01 0.000000000000e+00 0.000000000000e+00 0.000000000000e+00 0.000000000000e+00 0.000000000000e+00 0.000000000000e+00 0.000000000000e+00 0.000000000000e+00 0.000000000000e+00 0.000000000000e+00 0.000000000000e+00 0.000000000000e+00  0.000000000000e+00
1.000000000000e-03 -7.000000000000e+07 6.684759947500e-01 3.310906198127e+01 4.122283118604e-05 6.348412163353e-05 1.506477534326e+07 -9.396048951469e+01 2.097110977875e+07 1.071406009005e+07 -5.962720398729e-03 -2.734798798760e-07 1.679174787489e-04 0.000000000000e+00 -1.558331507069e+07 8.916854211212e+06  6.048427567004e-03
2.000000000000e-03 -7.015907468557e+07 6.678662382825e-01 3.680326466676e+01 4.119110961013e-05 6.323224307370e-05 1.500799482427e+07 -1.456731426679e+02 2.091875953161e+07 1.067507478450e+07 -5.996645768307e-03 -4.218230754516e-07 1.675859405527e-04 0.000000000000e+00 -1.553394304679e+07 8.906301500123e+06  6.082170630053e-03
3.000000000000e-03 -7.037130641980e+07 6.670521896015e-01 3.937002790478e+01 4.116012244363e-05 6.289216732481e-05 1.494174816909e+07 -1.672900124199e+02 2.086191988116e+07 1.063281007199e+07 -6.053268162085e-03 -4.837454042473e-07 1.673344729500e-04 0.000000000000e+00 -1.547882604075e+07 8.895225356368e+06  6.138646219445e-03
4.000000000000e-03 -7.061820306144e+07 6.661049305178e-01 4.139950255385e+01 4.112983843970e-05 6.243659073861e-05 1.486957910802e+07 -1.762524236580e+02 2.080207539842e+07 1.058822067913e+07 -6.122967938934e-03 -5.093904741730e-07 1.671189493901e-04 0.000000000000e+00 -1.541995839519e+07 8.883900344032e+06  6.208214708916e-03
1.000000000000e-02 -7.212935213358e+07 6.602938382261e-01 4.814735692670e+01 4.096737408864e-05 6.914452455027e-05 1.444928830187e+07 -4.897119398348e+03 2.047323176570e+07 1.033993989705e+07 -6.578704504484e-03 -1.496831713957e-05 1.662230490838e-04 0.000000000000e+00 -1.508748665487e+07 8.827751331832e+06  6.663421608504e-03
2.000000000000e-02 -7.524730887144e+07 6.482622428731e-01 5.436284629788e+01 4.070947833021e-05 5.789502641751e-05 1.366019608774e+07 -1.847954093647e+02 1.990374566849e+07 9.894515260185e+06 -7.525175306983e-03 -5.335152337409e-07 1.646099000964e-04 0.000000000000e+00 -1.448615233880e+07 8.756339333129e+06  7.608815875644e-03
3.000000000000e-02 -7.893055024733e+07 6.339986431046e-01 5.830140956725e+01 4.045112219422e-05 5.827061312716e-05 1.279066616495e+07 -1.863350776308e+02 1.932432353331e+07 9.420838119763e+06 -8.620742019683e-03 -5.378272259877e-07 1.622100694886e-04 0.000000000000e+00 -1.384527593934e+07 8.721337145357e+06  8.702980932210e-03
4.000000000000e-02 -8.274830749057e+07 6.191580354251e-01 6.102918881713e+01 4.018882692906e-05 6.097590830787e-05 1.192686709234e+07 -1.878909790231e+02 1.879375142223e+07 8.965010792394e+06 -9.731853846397e-03 -5.422543150540e-07 1.589250097450e-04 0.000000000000e+00 -1.322854310232e+07 8.733007377813e+06  9.812281706914e-03
5.000000000000e-02 -8.646459286980e+07 6.110473741583e-01 6.303909205740e+01 3.992608970947e-05 6.468161384775e-05 1.098747229366e+07 -1.893344801755e+02 1.818680570559e+07 8.455429979843e+06 -1.098133113604e-02 -5.463251246050e-07 1.681345455026e-04 0.000000000000e+00 -1.254323599303e+07 8.744750241879e+06  1.106635643560e-02
6.000000000000e-02 -8.999223897574e+07 6.035635936314e-01 6.459149961388e+01 3.966354653293e-05 7.070313014489e-05 1.007738365082e+07 -1.909473548619e+02 1.765379275779e+07 7.978471735220e+06 -1.218914530384e-02 -5.509178132917e-07 1.750830910101e-04 0.000000000000e+00 -1.190321604794e+07 8.815306100588e+06  1.227762320133e-02
7.000000000000e-02 -9.331717724315e+07 5.965377210427e-01 6.584443827575e+01 3.940343838009e-05 7.674160554683e-05 9.206629177574e+06 -1.926969302086e+02 1.718372909786e+07 7.534435731360e+06 -1.333781386365e-02 -5.559633816180e-07 1.798668864154e-04 0.000000000000e+00 -1.130826466893e+07 8.931383340656e+06  1.342865081595e-02
8.000000000000e-02 -9.644616664859e+07 5.900015889675e-01 6.688978125048e+01 3.914921189959e-05 8.356971879364e-05 8.379983515652e+06 -1.950769729440e+02 1.676014769289e+07 7.119958329128e+06 -1.442131260469e-02 -5.628213727639e-07 1.831766994036e-04 0.000000000000e+00 -1.075336317922e+07 9.076014166625e+06  1.451376795803e-02
9.000000000000e-02 -9.940042842086e+07 5.839014715267e-01 6.778635860753e+01 3.889870965245e-05 8.978396186129e-05 7.604667820730e+06 -1.975915326832e+02 1.637417791179e+07 6.734825528067e+06 -1.543407834896e-02 -5.701222926666e-07 1.861399607128e-04 0.000000000000e+00 -1.023789042020e+07 9.235205668074e+06  1.552798513264e-02
1.000000000000e-01 -1.021958459425e+08 5.772939146911e-01 6.856670078141e+01 3.865450608157e-05 9.534967707559e-05 6.901273195938e+06 -2.026000139441e+02 1.604154898512e+07 6.391496603172e+06 -1.635046950666e-02 -5.840946705962e-07 1.874940701957e-04 0.000000000000e+00 -9.778106261409e+06 9.405530949853e+06  1.644501821876e-02
2.000000000000e-01 -1.187516710666e+08 5.380454154894e-01 7.279261529144e+01 3.692159263076e-05 1.902727237280e-04 2.954045000114e+06 -1.876498232618e+02 1.422243665397e+07 4.487532046515e+06 -2.131536548147e-02 -5.434392259935e-07 1.993105636839e-04 0.000000000000e+00 -7.221337900198e+06 1.058528698037e+07  2.141571639485e-02
3.000000000000e-01 -1.341076676608e+08 5.086722603814e-01 7.558238921806e+01 3.540508981894e-05 3.001368400766e-04 -3.351478261032e+05 -2.032314155879e+02 1.251104799019e+07 2.843019083599e+06 -2.542297533635e-02 -5.882650366234e-07 2.227040469759e-04 0.000000000000e+00 -5.006306415894e+06 1.158870732745e+07  2.553505575825e-02
4.000000000000e-01 -1.471562399800e+08 4.912841615159e-01 7.759060143906e+01 3.409683774591e-05 4.057415624365e-04 -3.243825870249e+06 -2.186448609091e+02 1.092718214957e+07 1.364985844663e+06 -2.899196362008e-02 -6.302232214004e-07 2.497359449970e-04 0.000000000000e+00 -3.016114041327e+06 1.251986845341e+07  2.911763484924e-02
5.000000000000e-01 -1.578188180347e+08 4.765742252843e-01 7.913407266965e+01 3.293365503787e-05 5.083200383124e-04 -5.538839428261e+06 -2.268382770984e+02 9.690730262518e+06 2.073251057145e+05 -3.169911102132e-02 -6.489085120565e-07 2.643826185091e-04 0.000000000000e+00 -1.453071979990e+06 1.332090788000e+07  3.183212580005e-02
6.000000000000e-01 -1.664470098895e+08 4.628553694204e-01 8.036202916549e+01 3.193229641654e-05 6.083322134000e-04 -7.266123260007e+06 -2.493179899235e+02 8.759526520942e+06 -6.594296299633e+05 -3.365327582781e-02 -7.037373855685e-07 2.701827784872e-04 0.000000000000e+00 -2.779912103239e+05 1.394967001345e+07  3.378917740535e-02
7.000000000000e-01 -1.732705733298e+08 4.540722545041e-01 8.135405466211e+01 3.105522433763e-05 7.058255036442e-04 -8.733807888157e+06 -2.615084005383e+02 7.914019081745e+06 -1.413096184915e+06 -3.529816817135e-02 -7.238857753617e-07 2.807617833696e-04 0.000000000000e+00 7.442949971088e+05 1.445230158607e+07  3.543938320075e-02
8.000000000000e-01 -1.785574940265e+08 4.487369206634e-01 8.216210460684e+01 3.029177147728e-05 8.010155562425e-04 -9.970418421963e+06 -2.536567195461e+02 7.167230676502e+06 -2.059051696050e+06 -3.667222116080e-02 -6.856288465602e-07 2.943924751999e-04 0.000000000000e+00 1.620746480503e+06 1.485619444707e+07  3.682030009608e-02
9.000000000000e-01 -1.825455412904e+08 4.447347596472e-01 8.283348455058e+01 2.959151265974e-05 8.938949706925e-04 -1.097841321023e+07 -2.421552479376e+02 6.541800180331e+06 -2.588872534420e+06 -3.774086571118e-02 -6.332883849888e-07 3.044925661183e-04 0.000000000000e+00 2.341828521441e+06 1.517747433827e+07  3.789402953769e-02
1.000000000000e+00 -1.854867369482e+08 4.417945790770e-01 8.339527909969e+01 2.896633474222e-05 9.845415661782e-04 -1.182191463880e+07 -2.381952583063e+02 6.008052411911e+06 -3.033916962287e+06 -3.858909593600e-02 -5.993428814879e-07 3.109908472417e-04 0.000000000000e+00 2.949259729726e+06 1.544172656629e+07  3.874552744746e-02
2.000000000000e+00 -1.860998069562e+08 4.410419397080e-01 8.535753337624e+01 2.501318460738e-05 1.735886708049e-03 -1.518267941213e+07 -1.259901489651e+02 3.314157270288e+06 -4.942814770732e+06 -4.092246362583e-02 -1.826880150120e-07 3.265055466663e-04 0.000000000000e+00 5.603778970859e+06 1.604938289330e+07  4.108668940833e-02
3.000000000000e+00 -1.774891045586e+08 4.495795705972e-01 8.593561654875e+01 2.205161587553e-05 2.373388179397e-03 -1.672413700653e+07 2.514913181965e+02 1.651027132897e+06 -5.918648442242e+06 -4.114418323543e-02 1.122353039436e-06 3.246546342450e-04 0.000000000000e+00 6.997252771960e+06 1.599539353934e+07  4.130746746390e-02
4.000000000000e+00 -1.655179175171e+08 4.640228363756e-01 8.594181031549e+01 1.964409136148e-05 2.928422579107e-03 -1.744074502964e+07 5.524805078687e+02 4.864326036845e+05 -6.465999248651e+06 -4.047895229313e-02 2.270027491821e-06 3.182112405888e-04 0.000000000000e+00 7.806770558201e+06 1.565511183842e+07  4.063899248541e-02
5.000000000000e+00 -1.531383082033e+08 4.825992390662e-01 8.575846034181e+01 1.760010709209e-05 3.420061775330e-03 -1.779127810931e+07 8.785167957027e+02 -4.504587073575e+05 -6.826079169160e+06 -3.952464198369e-02 3.546983148150e-06 3.176141805792e-04 0.000000000000e+00 8.355938661942e+06 1.519190814598e+07  3.968440282059e-02
6.000000000000e+00 -1.414940110977e+08 4.976938471871e-01 8.561855106402e+01 1.578839315238e-05 3.863644080624e-03 -1.775989744938e+07 1.138503655233e+03 -1.072225480907e+06 -6.959664177685e+06 -3.817106407421e-02 4.616139724624e-06 3.049763026909e-04 0.000000000000e+00 8.597262369325e+06 1.465921854391e+07  3.832446316675e-02
7.000000000000e+00 -1.312343110296e+08 5.110276236566e-01 8.535781861972e+01 1.421496605126e-05 4.266773897817e-03 -1.767059019638e+07 1.513382802804e+03 -1.568752800742e+06 -7.039114527402e+06 -3.686284398136e-02 5.854547223324e-06 2.875564776461e-04 0.000000000000e+00 8.759485841509e+06 1.418136653461e+07  3.700746151143e-02
8.000000000000e+00 -1.218124760504e+08 5.294013447221e-01 8.528219643286e+01 1.277446921119e-05 4.639895181971e-03 -1.771658974631e+07 1.454185216496e+03 -2.134672905736e+06 -7.194519138692e+06 -3.584558707509e-02 5.879376574568e-06 2.822017993828e-04 0.000000000000e+00 9.015260596912e+06 1.376793664438e+07  3.598751927387e-02
9.000000000000e+00 -1.135309099120e+08 5.485280296666e-01 8.520333282818e+01 1.144312938721e-05 4.985322914738e-03 -1.775879500185e+07 1.508087655091e+03 -2.687168847771e+06 -7.349003769040e+06 -3.493272362278e-02 6.303800704807e-06 2.824195043370e-04 0.000000000000e+00 9.264989206220e+06 1.336507364211e+07  3.507478784235e-02
1.000000000000e+01 -1.060027441244e+08 5.654957303378e-01 8.512020153941e+01 1.020255886138e-05 5.307097455203e-03 -1.768814493728e+07 1.558902999561e+03 -3.141105587430e+06 -7.435243616052e+06 -3.393264566351e-02 6.693656537121e-06 2.804166628612e-04 0.000000000000e+00 9.421498046920e+06 1.294561654265e+07  3.407372138327e-02
1.100000000000e+01 -9.920712234712e+07 5.774470283868e-01 8.508991988152e+01 9.076639913725e-06 5.610609366942e-03 -1.745480486793e+07 1.500564158562e+03 -3.432838207975e+06 -7.415235338361e+06 -3.278498537346e-02 6.621977979937e-06 2.716149118490e-04 0.000000000000e+00 9.434292804756e+06 1.251535068958e+07  3.292163518209e-02
1.200000000000e+01 -9.310164015201e+07 5.881956855913e-01 8.506072823712e+01 8.020745722902e-06 5.894740874551e-03 -1.720973665625e+07 1.638005229950e+03 -3.675533608249e+06 -7.377856826174e+06 -3.167673785705e-02 7.061925111874e-06 2.625302291413e-04 0.000000000000e+00 9.421042363557e+06 1.211502634016e+07  3.180881786935e-02
1.300000000000e+01 -8.749469774022e+07 5.980313964625e-01 8.501131499706e+01 7.028031762003e-06 6.162366431996e-03 -1.700714117051e+07 1.834816912976e+03 -3.880182696272e+06 -7.344266941206e+06 -3.063314073887e-02 7.627134967902e-06 2.485972849354e-04 0.000000000000e+00 9.410530269329e+06 1.178321002552e+07  3.075819569276e-02
1.400000000000e+01 -8.219117473435e+07 6.142796255775e-01 8.492254067221e+01 6.091499831942e-06 6.415687134917e-03 -1.693400101112e+07 1.786059661805e+03 -4.176318129384e+06 -7.389247411273e+06 -2.980429592936e-02 7.477559136249e-06 2.438272931808e-04 0.000000000000e+00 9.499855517260e+06 1.149312245439e+07  2.992695734847e-02
1.500000000000e+01 -7.715797053681e+07 6.332700096500e-01 8.481755995587e+01 5.215021000537e-06 6.654792917293e-03 -1.685660542306e+07 1.640907043709e+03 -4.470972455644e+06 -7.435713297132e+06 -2.901544958421e-02 7.193416871368e-06 2.431001213039e-04 0.000000000000e+00 9.587763725278e+06 1.120149134858e+07  2.913776289958e-02
1.600000000000e+01 -7.243872939002e+07 6.510621282667e-01 8.470075213840e+01 4.395351750665e-06 6.880466436461e-03 -1.671485986539e+07 1.638090101204e+03 -4.705839678813e+06 -7.442219251807e+06 -2.817521039144e-02 7.259849886419e-06 2.399435666008e-04 0.000000000000e+00 9.620972932002e+06 1.090151867993e+07  2.829594798031e-02
1.700000000000e+01 -6.798215531309e+07 6.678476582908e-01 8.456897406612e+01 3.614608891899e-06 7.093969906137e-03 -1.652702604624e+07 1.576269000118e+03 -4.902011609259e+06 -7.421385213185e+06 -2.730446159652e-02 7.133676453746e-06 2.355711196612e-04 0.000000000000e+00 9.616807622894e+06 1.059247171119e+07  2.742300880804e-02
1.800000000000e+01 -6.374879005055e+07 6.837835360306e-01 8.442126090112e+01 2.868710081541e-06 7.296159611550e-03 -1.629657041954e+07 1.501790742760e+03 -5.060793284286e+06 -7.374565440444e+06 -2.639630292646e-02 7.013802029495e-06 2.295058667817e-04 0.000000000000e+00 9.577309714758e+06 1.027614752237e+07  2.651180369367e-02
1.900000000000e+01 -5.970229197089e+07 6.990165058626e-01 8.425635538004e+01 2.156340924970e-06 7.487593489127e-03 -1.601892574321e+07 1.377391773650e+03 -5.187574143130e+06 -7.301949806603e+06 -2.544960662201e-02 6.723595302695e-06 2.226608976125e-04 0.000000000000e+00 9.502816564314e+06 9.944205418066e+06  2.556166706154e-02
2.000000000000e+01 -5.591167053934e+07 7.132931292622e-01 8.407728790205e+01 1.484459566089e-06 7.708491334347e-03 -1.571006795099e+07 -1.103470587108e+04 -5.280195721925e+06 -7.208703098181e+06 -2.449398867070e-02 -3.146937155685e-05 2.152049818598e-04 0.000000000000e+00 9.399655590364e+06 9.611849727386e+06  2.460235747924e-02
2.100000000000e+01 -5.230263424329e+07 7.252707818069e-01 8.398894202885e+01 8.563202446305e-07 7.843886264397e-03 -1.534662278987e+07 1.123672855559e+03 -5.323821358919e+06 -7.081258273992e+06 -2.349362915033e-02 5.976709488332e-06 2.057429995717e-04 0.000000000000e+00 9.250567474260e+06 9.269881099316e+06  2.359717563037e-02
2.200000000000e+01 -4.892775100455e+07 7.360609244499e-01 8.389868230246e+01 2.502000232418e-07 8.009872572214e-03 -1.498302806383e+07 1.010051254670e+03 -5.357436408932e+06 -6.950734865441e+06 -2.251287346374e-02 5.674663550950e-06 1.959423295569e-04 0.000000000000e+00 9.097066446067e+06 8.936116461427e+06  2.261148350878e-02
2.300000000000e+01 -4.578630601278e+07 7.458698492851e-01 8.379980679167e+01 -3.201102715326e-07 8.169312360177e-03 -1.462417967847e+07 9.415271065659e+02 -5.372413697998e+06 -6.816603456485e+06 -2.155974861409e-02 5.389176809377e-06 1.853835880171e-04 0.000000000000e+00 8.937732277650e+06 8.620879003812e+06  2.165303761744e-02
2.400000000000e+01 -4.273737052607e+07 7.561677686447e-01 8.368692950177e+01 -8.585343024065e-07 8.173999251013e-03 -1.425438305556e+07 7.179908803134e+04 -5.371410344341e+06 -6.674681413785e+06 -2.060399939016e-02 2.225017938635e-04 1.746273735348e-04 0.000000000000e+00 8.766824937896e+06 8.309287794432e+06  2.069545430843e-02
2.500000000000e+01 -3.972039140201e+07 7.706768486956e-01 8.355718400799e+01 -1.376810786631e-06 8.466170590904e-03 -1.389780244042e+07 7.359282661703e+02 -5.387918759265e+06 -6.545466331419e+06 -1.966899325816e-02 4.866202227164e-06 1.663509826508e-04 0.000000000000e+00 8.610395843701e+06 7.994213099419e+06  1.975269591309e-02
2.600000000000e+01 -3.674690106570e+07 7.856724822805e-01 8.341465052710e+01 -1.876514911902e-06 8.604651946344e-03 -1.350652313862e+07 6.399238148169e+02 -5.379173770374e+06 -6.397077759520e+06 -1.869493182464e-02 4.622613733333e-06 1.576890402526e-04 0.000000000000e+00 8.427591556172e+06 7.669229177048e+06  1.877427473231e-02
2.700000000000e+01 -3.382536401465e+07 8.010888141459e-01 8.325927530017e+01 -2.358809847967e-06 8.736861454890e-03 -1.308356220838e+07 5.354270120926e+02 -5.348177514361e+06 -6.231393345311e+06 -1.768464870591e-02 4.356320713453e-06 1.485671631980e-04 0.000000000000e+00 8.221044356017e+06 7.333773463115e+06  1.775939996386e-02
2.800000000000e+01 -3.094423893448e+07 8.170103709216e-01 8.309101800686e+01 -2.826115739339e-06 8.740507445691e-03 -1.262783125778e+07 7.258335452444e+04 -5.295633233685e+06 -6.048195526375e+06 -1.663401189829e-02 2.249658736516e-04 1.389470758505e-04 0.000000000000e+00 7.990553339280e+06 6.987513659630e+06  1.670846295649e-02
2.900000000000e+01 -2.809010125792e+07 8.334581979968e-01 8.290988130854e+01 -3.282247945240e-06 8.983521887575e-03 -1.213513568833e+07 3.110151614933e+02 -5.219010988407e+06 -5.845196441895e+06 -1.553554636829e-02 3.780558153831e-06 1.287516035418e-04 0.000000000000e+00 7.733114372879e+06 6.625263217087e+06  1.560032202621e-02
3.000000000000e+01 -2.525050348878e+07 8.504808517655e-01 8.271590724291e+01 -3.723023126434e-06 9.098127287676e-03 -1.159879282209e+07 2.276859356874e+02 -5.115685897674e+06 -5.619287410378e+06 -1.438020477600e-02 3.579517260028e-06 1.179309274800e-04 0.000000000000e+00 7.444588710046e+06 6.246550054096e+06  1.443953276352e-02
3.100000000000e+01 -2.240930357963e+07 8.681657828635e-01 8.259379694758e+01 -4.155131046054e-06 9.208887544970e-03 -1.101604473220e+07 9.023929502984e+01 -4.984572097684e+06 -5.369174130044e+06 -1.315965411273e-02 3.221398465379e-06 1.063740080172e-04 0.000000000000e+00 7.123263653310e+06 5.848663458885e+06  1.321316343956e-02
3.200000000000e+01 -1.960626468739e+07 8.861325908965e-01 8.247041877235e+01 -4.581717797825e-06 9.315661869426e-03 -1.040225237114e+07 -3.075684759999e+01 -4.835006854692e+06 -5.102761852439e+06 -1.189587970016e-02 2.905196669317e-06 9.426334424932e-05 0.000000000000e+00 6.780007026092e+06 5.438313853705e+06  1.194329142835e-02
3.300000000000e+01 -1.677025589919e+07 9.047373317519e-01 8.234022763586e+01 -5.003110094644e-06 9.418522481462e-03 -9.730435625131e+06 -1.487330693071e+02 -4.650838963876e+06 -4.805767204371e+06 -1.054812384204e-02 2.585881640720e-06 8.117618645546e-05 0.000000000000e+00 6.395680597793e+06 5.003931663597e+06  1.058894625014e-02
3.400000000000e+01 -1.387184129848e+07 9.239741027025e-01 8.220176824916e+01 -5.417201642102e-06 9.517327217757e-03 -8.983833285195e+06 -2.197344819749e+02 -4.422072331820e+06 -4.469286805171e+06 -9.093958514943e-03 2.366488740315e-06 6.695381893684e-05 0.000000000000e+00 5.958397474062e+06 4.538337934323e+06  9.127620518953e-03
3.500000000000e+01 -1.087324784907e+07 9.437517514097e-01 8.205443794200e+01 -5.832817909628e-06 9.612513460962e-03 -8.151353589098e+06 -3.332904043394e+02 -4.143215334278e+06 -4.087458029656e+06 -7.512021112652e-03 2.000250176573e-06 5.126168476014e-05 0.000000000000e+00 5.460675651011e+06 4.036305794369e+06  7.537783481797e-03
3.600000000000e+01 -7.735476096359e+06 9.636979213683e-01 8.189801273713e+01 -6.256786962825e-06 9.703791715662e-03 -7.219028516966e+06 -4.248399462963e+02 -3.808649840133e+06 -3.653241863730e+06 -5.778867713240e-03 1.595989196547e-06 3.387646502932e-05 0.000000000000e+00 4.893640073610e+06 3.490678293531e+06  5.795880857433e-03
3.700000000000e+01 -4.373867410034e+06 9.829980432861e-01 8.173237003999e+01 -6.727104216147e-06 9.787575018839e-03 -6.177219792211e+06 3.930414038966e+02 -3.422041131091e+06 -3.162947881764e+06 -3.859537109162e-03 3.756623609870e-06 1.411878810363e-05 0.000000000000e+00 4.254069601689e+06 2.893438684640e+06  3.866621310713e-03
3.800000000000e+01 1.969314020941e+06 1.000000000000e+00 8.155815882120e+01 -8.430506472518e-06 9.777981137311e-03 -4.782491284871e+06 6.141589597110e+03 -3.213642471948e+06 -2.567728742353e+06 -6.196634925291e-04 2.480236431822e-05 -2.610977090271e-05 0.000000000000e+00 3.521287499724e+06 1.972801381078e+06  6.085480787174e-04
3.900000000000e+01 2.143157955843e+06 1.000000000000e+00 8.137922592326e+01 -8.496128147377e-06 9.968899297188e-03 -4.788364575880e+06 -5.718478477908e+02 -3.274223486882e+06 -2.585181947931e+06 -5.629995066208e-04 -1.738069247022e-06 -2.617629086593e-05 0.000000000000e+00 3.549256670231e+06 1.952103626085e+06  5.503866517915e-04
4.000000000000e+01 2.172544737204e+06 1.000000000000e+00 8.118933148720e+01 -8.535757666458e-06 1.004384301953e-02 -4.804788069596e+06 -5.718665552256e+02 -3.288774807419e+06 -2.594291489770e+06 -5.651506085442e-04 -1.738127279814e-06 -2.638428867652e-05 0.000000000000e+00 3.562618122262e+06 1.957919863172e+06  5.524394152164e-04
4.200000000000e+01 2.229827768450e+06 1.000000000000e+00 8.091450170531e+01 -8.612865813971e-06 1.018418892165e-02 -4.837060908416e+06 -5.718820883935e+02 -3.317833130343e+06 -2.612450139038e+06 -5.688411586215e-04 -1.738176018630e-06 -2.678351505860e-05 0.000000000000e+00 3.589114725933e+06 1.969075067592e+06  5.559416502210e-04
4.400000000000e+01 2.285593984854e+06 1.000000000000e+00 8.061916135918e+01 -8.686891267387e-06 1.031502877725e-02 -4.867961745802e+06 -5.719365962871e+02 -3.345951946082e+06 -2.629876311605e+06 -5.722907991364e-04 -1.738343920724e-06 -2.715971169553e-05 0.000000000000e+00 3.614596667829e+06 1.979685141401e+06  5.592139314465e-04
5.000000000000e+01 2.437116900310e+06 1.000000000000e+00 7.942409557444e+01 -8.875196343407e-06 1.058872939783e-02 -4.945905334510e+06 -5.720397687642e+02 -3.420784658060e+06 -2.674342204438e+06 -5.805056498392e-04 -1.738661210405e-06 -2.800823956012e-05 0.000000000000e+00 3.680344065669e+06 2.005389043501e+06  5.670285693863e-04
6.500000000000e+01 2.768502512586e+06 1.000000000000e+00 7.676123228479e+01 -9.262324195246e-06 1.105306913716e-02 -5.104817144030e+06 -5.722881271340e+02 -3.582631662494e+06 -2.767222126173e+06 -5.911888382408e-04 -1.739422618684e-06 -2.959473302952e-05 0.000000000000e+00 3.818223644232e+06 2.055029657294e+06  5.769688827128e-04
8.000000000000e+01 3.023556376009e+06 1.000000000000e+00 7.431444502818e+01 -9.539570982095e-06 1.127343476658e-02 -5.217897172850e+06 -5.721227905808e+02 -3.705869990377e+06 -2.834844538106e+06 -5.961812441978e-04 -1.738916272405e-06 -3.053733784333e-05 0.000000000000e+00 3.919537233778e+06 2.088522607365e+06  5.815220445996e-04
1.000000000000e+02 3.324236130001e+06 1.000000000000e+00 7.184336420191e+01 -9.860146784689e-06 1.145792060296e-02 -5.350660852083e+06 -5.722451181140e+02 -3.855415654140e+06 -2.916136378533e+06 -5.988212117019e-04 -1.739290271256e-06 -3.152001909034e-05 0.000000000000e+00 4.040737628252e+06 2.126607055459e+06  5.837076104995e-04
1.860000000000e+02 3.922718170608e+06 1.000000000000e+00 6.661921364021e+01 -1.047025794986e-05 1.167724655912e-02 -5.600351223395e+06 -5.720924867751e+02 -4.148109939512e+06 -3.071352783206e+06 -5.965918916203e-04 -1.738821166415e-06 -3.320995519113e-05 0.000000000000e+00 4.273271315371e+06 2.198209020372e+06  5.807073848160e-04
2.720000000000e+02 4.213037500456e+06 1.000000000000e+00 6.336129276478e+01 -1.072902205393e-05 1.166433482156e-02 -5.706917249171e+06 -7.809992642126e+04 -4.291002018595e+06 -3.141341314166e+06 -5.911864096963e-04 -2.389523230245e-04 -3.344787438482e-05 0.000000000000e+00 4.379753527311e+06 2.229945419153e+06  7.086189671306e-04
3.580000000000e+02 4.354404754312e+06 1.000000000000e+00 6.123180507014e+01 -1.083635401981e-05 1.133326293647e-02 -5.748947231766e+06 -5.720992456865e+02 -4.356618188278e+06 -3.170394896185e+06 -5.858960776157e-04 -1.738848317756e-06 -3.335416183221e-05 0.000000000000e+00 4.425320105410e+06 2.235468628181e+06  5.699593951044e-04
4.440000000000e+02 4.426530778559e+06 1.000000000000e+00 5.967385345506e+01 -1.087648973197e-05 1.133178426638e-02 -5.762843297097e+06 -5.963215142041e+04 -4.387083371478e+06 -3.181313380918e+06 -5.815694838366e-04 -1.829546822262e-04 -3.313599618731e-05 0.000000000000e+00 4.443746683165e+06 2.239668425470e+06  6.484345933243e-04
5.300000000000e+02 4.465499190522e+06 1.000000000000e+00 5.850929450945e+01 -1.088750736792e-05 1.102602730498e-02 -5.764980722893e+06 -5.721027482859e+02 -4.401586063624e+06 -3.184504379654e+06 -5.779880721456e-04 -1.738866908920e-06 -3.289125383649e-05 0.000000000000e+00 4.450357055390e+06 2.235955382404e+06  5.622725003951e-04
6.160000000000e+02 4.488014836938e+06 1.000000000000e+00 5.764205174061e+01 -1.088744155809e-05 1.090780300142e-02 -5.763011517827e+06 -5.720472687359e+02 -4.408880476661e+06 -3.184755092024e+06 -5.751896927684e-04 -1.738700434138e-06 -3.267026270160e-05 0.000000000000e+00 4.452215695504e+06 2.233781770292e+06  5.595784123817e-04
7.020000000000e+02 4.501819571814e+06 1.000000000000e+00 5.701255833945e+01 -1.088440627271e-05 1.090677181464e-02 -5.760246243491e+06 -3.552250658515e+04 -4.412829971313e+06 -3.184131858419e+06 -5.731400361980e-04 -1.089456840419e-04 -3.249549146935e-05 0.000000000000e+00 4.452402691074e+06 2.232617978851e+06  5.886666944171e-04
7.880000000000e+02 4.511442079968e+06 1.000000000000e+00 5.653877449926e+01 -1.087957072849e-05 1.073539441747e-02 -5.757472322420e+06 -5.720467519837e+02 -4.415863007270e+06 -3.183465260026e+06 -5.714195676875e-04 -1.738704874999e-06 -3.233117018161e-05 0.000000000000e+00 4.452266863239e+06 2.229824441810e+06  5.559676545424e-04
8.740000000000e+02 4.519827157218e+06 1.000000000000e+00 5.574293736133e+01 -1.086520751447e-05 1.061986738919e-02 -5.749215851718e+06 -5.720536455415e+02 -4.415423086057e+06 -3.179617119994e+06 -5.687723880399e-04 -1.738730049527e-06 -3.208513765670e-05 0.000000000000e+00 4.448085352590e+06 2.225877257739e+06  5.534360077155e-04
9.370000000000e+02 4.525200993080e+06 1.000000000000e+00 5.522755780779e+01 -1.085869306560e-05 1.061975252743e-02 -5.744108291710e+06 -1.332474953025e+04 -4.413988753200e+06 -3.176860065881e+06 -5.671947808005e-04 -4.122874362210e-05 -3.197600957509e-05 0.000000000000e+00 4.444985703597e+06 2.223908060423e+06  5.565026385525e-04
1.000000000000e+03 4.529390890225e+06 1.000000000000e+00 5.483601685541e+01 -1.084396777754e-05 1.044541058641e-02 -5.738222544584e+06 -5.720022946745e+02 -4.415755646261e+06 -3.174964720568e+06 -5.647299062561e-04 -1.738577344829e-06 -3.172332304198e-05 0.000000000000e+00 4.442980970471e+06 2.220222224682e+06  5.495636404919e-04
1.100000000000e+03 4.533536307616e+06 1.000000000000e+00 5.445290499171e+01 -1.083375502580e-05 1.036223814993e-02 -5.733055839076e+06 -5.720272379248e+02 -4.415961972204e+06 -3.172847201152e+06 -5.626428737815e-04 -1.738657088332e-06 -3.155375205140e-05 0.000000000000e+00 4.440621670810e+06 2.217514466824e+06  5.475565886173e-04
1.200000000000e+03 4.536797758325e+06 1.000000000000e+00 5.411538591846e+01 -1.082491507778e-05 1.029311908569e-02 -5.728548604403e+06 -5.719913887948e+02 -4.415897836455e+06 -3.170927734487e+06 -5.609655401771e-04 -1.738549734676e-06 -3.141108716535e-05 0.000000000000e+00 4.438458058448e+06 2.215223360146e+06  5.459464477853e-04
1.300000000000e+03 4.539703016121e+06 1.000000000000e+00 5.378897448312e+01 -1.081625436828e-05 1.022733106373e-02 -5.724134218896e+06 -5.719929399650e+02 -4.415690080226e+06 -3.169012977041e+06 -5.593912255918e-04 -1.738556926992e-06 -3.127449350316e-05 0.000000000000e+00 4.436279092054e+06 2.213015633390e+06  5.444364312783e-04
1.400000000000e+03 4.542443170143e+06 1.000000000000e+00 5.345626145603e+01 -1.080708191218e-05 1.015935392454e-02 -5.719487515899e+06 -5.719978410692e+02 -4.415360063452e+06 -3.166980778372e+06 -5.577650267476e-04 -1.738575598445e-06 -3.113314356516e-05 0.000000000000e+00 4.433942785908e+06 2.210711634277e+06  5.428767696015e-04
1.500000000000e+03 4.545079771985e+06 1.000000000000e+00 5.310717615911e+01 -1.079694683893e-05 1.008596775635e-02 -5.714399267471e+06 -5.719861116533e+02 -4.414895300188e+06 -3.164746792161e+06 -5.560000841476e-04 -1.738540534993e-06 -3.098059063467e-05 0.000000000000e+00 4.431347119940e+06 2.208201933811e+06  5.411836537979e-04
1.600000000000e+03 4.547641185482e+06 1.000000000000e+00 5.273557662223e+01 -1.078555720749e-05 1.000519886362e-02 -5.708731974735e+06 -5.719912450741e+02 -4.414278739094e+06 -3.162253643143e+06 -5.540399504597e-04 -1.738558391497e-06 -3.081289292436e-05 0.000000000000e+00 4.428421452324e+06 2.205417180090e+06  5.393025080252e-04
1.700000000000e+03 4.550128716244e+06 1.000000000000e+00 5.233767160918e+01 -1.077324984084e-05 1.000453208595e-02 -5.702526966367e+06 -3.045265826985e+04 -4.413431739538e+06 -3.159486865064e+06 -5.519336313065e-04 -9.347106594098e-05 -3.063377084545e-05 0.000000000000e+00 4.425148523656e+06 2.203038968705e+06  5.611344521632e-04
1.800000000000e+03 4.552544054367e+06 1.000000000000e+00 5.191117290562e+01 -1.075831769771e-05 9.817112739255e-03 -5.695339861824e+06 -5.719992375944e+02 -4.412531157802e+06 -3.156351921011e+06 -5.494187395006e-04 -1.738586955615e-06 -3.042303458794e-05 0.000000000000e+00 4.421407646879e+06 2.198868592339e+06  5.348650251107e-04
1.900000000000e+03 4.554883198895e+06 1.000000000000e+00 5.145479378359e+01 -1.074228100265e-05 9.708641348964e-03 -5.687529244126e+06 -5.720108365344e+02 -4.411382626726e+06 -3.152906049254e+06 -5.467274698584e-04 -1.738624834961e-06 -3.019849274581e-05 0.000000000000e+00 4.417272640035e+06 2.195066079678e+06  5.322796240496e-04