 TITLE = "Time curves in points"
 VARIABLES = "TIME"  "PRESSURE1"  "SATURATION1"  "TEMPERATURE1"  "DISPLACEMENT_X1"  "DISPLACEMENT_Y1"  "STRESS_XX"  "STRESS_XY"  "STRESS_YY"  "STRESS_ZZ"  "STRAIN_XX"  "STRAIN_XY"  "STRAIN_YY"  "STRAIN_PLS"  p_(1st_Invariant)  q_(2nd_Invariant)   Effective_Strain
 ZONE T="POINT=POINT18"
0.000000000000e+00 1.000000000000e+05 1.000000000000e+00 2.500000000000e+01 0.000000000000e+00 0.000000000000e+00 -3.130685851467e+07 -1.409868786187e+04 -1.352808692198e+07 -1.044743363099e+07 0.000000000000e+00 0.000000000000e+00 0.000000000000e+00 0.000000000000e+00 1.842745968921e+07 1.950246065449e+07  0.000000000000e+00
1.000000000000e-03 3.083650903865e+05 1.000000000000e+00 2.500000000001e+01 -8.227611791543e-05 6.303348981543e-05 -3.059527162025e+07 -1.351253403182e+04 -1.354545950543e+07 -1.023916933771e+07 1.869483947080e-05 4.354285594650e-08 -8.380798278748e-06 0.000000000000e+00 1.812663348780e+07 1.892088321792e+07  2.400871027413e-05
2.000000000000e-03 3.159689363052e+05 1.000000000000e+00 2.499999999998e+01 -8.198371388706e-05 6.240423418552e-05 -3.059711571688e+07 -1.356060489773e+04 -1.354506863474e+07 -1.023960530549e+07 1.864253754191e-05 3.997187733605e-08 -8.350087135890e-06 0.000000000000e+00 1.812726321904e+07 1.892257555147e+07  2.393616024639e-05
3.000000000000e-03 3.211298791958e+05 1.000000000000e+00 2.499999999994e+01 -8.176411944949e-05 6.190707729207e-05 -3.059871411287e+07 -1.358872654537e+04 -1.354517787981e+07 -1.024011759779e+07 1.860219654785e-05 3.788284065422e-08 -8.335116809901e-06 0.000000000000e+00 1.812800319682e+07 1.892379562224e+07  2.388664219005e-05
4.000000000000e-03 3.246441773391e+05 1.000000000000e+00 2.499999999989e+01 -8.158716492809e-05 6.138368248393e-05 -3.060033593447e+07 -1.360822813860e+04 -1.354593382769e+07 -1.024083092861e+07 1.856845260471e-05 3.643415087147e-08 -8.336699729073e-06 0.000000000000e+00 1.812903356359e+07 1.892467822157e+07  2.385564064634e-05
1.000000000000e-02 3.282972272535e+05 1.000000000000e+00 2.499999999993e+01 -8.056285012814e-05 5.856327493915e-05 -3.061258281379e+07 -1.367052457937e+04 -1.355446076875e+07 -1.024706307474e+07 1.834504822860e-05 3.180641527194e-08 -8.421934969570e-06 0.000000000000e+00 1.813803555242e+07 1.892979031515e+07  2.370598281617e-05
2.000000000000e-02 3.209720134637e+05 1.000000000000e+00 2.499999999911e+01 -7.824836572542e-05 5.672191905719e-05 -3.063603293503e+07 -1.373067697821e+04 -1.356205286010e+07 -1.025637573870e+07 1.781994267308e-05 2.733795135758e-08 -8.358027986898e-06 0.000000000000e+00 1.815148717794e+07 1.894439040268e+07  2.315920573722e-05
3.000000000000e-02 3.083467007490e+05 1.000000000000e+00 2.499999998947e+01 -7.546914259651e-05 5.706020059684e-05 -3.066095308244e+07 -1.377148707740e+04 -1.356327419310e+07 -1.026421818648e+07 1.718562811511e-05 2.430634398963e-08 -8.112100866204e-06 0.000000000000e+00 1.816281515401e+07 1.896368010536e+07  2.237331703812e-05
4.000000000000e-02 2.935043077693e+05 1.000000000000e+00 2.499999996592e+01 -7.238610317477e-05 5.973259194871e-05 -3.068565634801e+07 -1.380202212271e+04 -1.355766485619e+07 -1.026994640188e+07 1.648084053761e-05 2.203802633807e-08 -7.690991780412e-06 0.000000000000e+00 1.817108920202e+07 1.898656815696e+07  2.138983229307e-05
5.000000000000e-02 2.781876004411e+05 1.000000000000e+00 2.500000002206e+01 -6.910605106701e-05 6.340835262294e-05 -3.071076369183e+07 -1.382588222993e+04 -1.354891072657e+07 -1.027485257148e+07 1.573051120912e-05 2.026556122973e-08 -7.183609238105e-06 0.000000000000e+00 1.817817566330e+07 1.901152629661e+07  2.029916999059e-05
6.000000000000e-02 2.628169370989e+05 1.000000000000e+00 2.500000066197e+01 -6.569913553311e-05 6.940142541892e-05 -3.073417323671e+07 -1.384474612806e+04 -1.353357689992e+07 -1.027727608269e+07 1.495102995852e-05 1.886424308351e-08 -6.524050974699e-06 0.000000000000e+00 1.818167540644e+07 1.903877360265e+07  1.906931795041e-05
7.000000000000e-02 2.482548195271e+05 1.000000000000e+00 2.500000344144e+01 -6.220446305773e-05 7.541255717135e-05 -3.075821730511e+07 -1.385968379577e+04 -1.351790541321e+07 -1.027979025677e+07 1.415134816955e-05 1.775458776755e-08 -5.848583574070e-06 0.000000000000e+00 1.818530432503e+07 1.906673635963e+07  1.781103233870e-05
8.000000000000e-02 2.351205283323e+05 1.000000000000e+00 2.500001194551e+01 -5.864695892898e-05 8.220964319585e-05 -3.078186754091e+07 -1.387187434663e+04 -1.350001544571e+07 -1.028152435052e+07 1.333732003611e-05 1.684900398939e-08 -5.119689870680e-06 0.000000000000e+00 1.818780244571e+07 1.909563199095e+07  1.650391238693e-05
9.000000000000e-02 2.243279759682e+05 1.000000000000e+00 2.500003296209e+01 -5.504161026147e-05 8.839172572725e-05 -3.080659174898e+07 -1.388211497772e+04 -1.348363678016e+07 -1.028404107942e+07 1.251247080992e-05 1.608827139455e-08 -4.417860933887e-06 0.000000000000e+00 1.819142320285e+07 1.912457089405e+07  1.521047512326e-05
1.000000000000e-01 2.168958661304e+05 1.000000000000e+00 2.500007760999e+01 -5.140481206858e-05 9.392747242194e-05 -3.083229286881e+07 -1.389113235023e+04 -1.346888144200e+07 -1.028735016958e+07 1.168076685108e-05 1.541840943662e-08 -3.746896453315e-06 0.000000000000e+00 1.819617482680e+07 1.915340734581e+07  1.393724809027e-05
2.000000000000e-01 2.305342225030e+05 1.000000000000e+00 2.502667785271e+01 -1.531973258955e-05 1.887324478360e-04 -3.104427112967e+07 -1.394689256344e+04 -1.322250960809e+07 -1.028751185518e+07 3.813294055307e-06 1.127622216903e-08 5.410062842512e-06 0.000000000000e+00 1.818476419765e+07 1.945602243800e+07  4.814583314840e-06
3.000000000000e-01 2.539215367668e+05 1.000000000000e+00 2.509252329034e+01 1.909596922326e-05 2.983914829238e-04 -3.123648371949e+07 -1.396832720028e+04 -1.295802144906e+07 -1.029099352646e+07 -3.196711490333e-06 9.683934860869e-09 1.536322796880e-05 0.000000000000e+00 1.816183289834e+07 1.974753087126e+07  1.718603580486e-05
4.000000000000e-01 2.778424062248e+05 1.000000000000e+00 2.519884269225e+01 5.083633267015e-05 4.038126902431e-04 -3.142690807734e+07 -1.396517803210e+04 -1.272985661558e+07 -1.031956264889e+07 -9.208477377430e-06 9.917873068911e-09 2.489906061669e-05 0.000000000000e+00 1.815877578060e+07 2.001137740840e+07  3.056210082283e-05
5.000000000000e-01 3.006476905570e+05 1.000000000000e+00 2.534048624400e+01 7.950262067342e-05 5.062272756078e-04 -3.161284471741e+07 -1.395305057296e+04 -1.253336697490e+07 -1.036885669877e+07 -1.428377358442e-05 1.081877003378e-08 3.402816912308e-05 0.000000000000e+00 1.817168946369e+07 2.024870083146e+07  4.298829487272e-05
6.000000000000e-01 3.220253455709e+05 1.000000000000e+00 2.551037593212e+01 1.049803290864e-04 6.060825424777e-04 -3.179297168082e+07 -1.394302523347e+04 -1.236414453672e+07 -1.043443593348e+07 -1.853840350741e-05 1.156350953842e-08 4.274937411649e-05 0.000000000000e+00 1.819718405034e+07 2.046205409052e+07  5.443975514420e-05
7.000000000000e-01 3.420511580479e+05 1.000000000000e+00 2.570176350101e+01 1.273661073609e-04 7.035622733323e-04 -3.196684870152e+07 -1.394018915275e+04 -1.221809845572e+07 -1.051243878665e+07 -2.209944401589e-05 1.177418982071e-08 5.107119167093e-05 0.000000000000e+00 1.823246198130e+07 2.065448234580e+07  6.500228766399e-05
8.000000000000e-01 3.610103644069e+05 1.000000000000e+00 2.590902647514e+01 1.468571868799e-04 7.988315994713e-04 -3.213429133133e+07 -1.394556235342e+04 -1.209151954543e+07 -1.059966168900e+07 -2.507903389293e-05 1.137503777094e-08 5.901240185463e-05 0.000000000000e+00 1.827515752192e+07 2.082882355571e+07  7.477563726271e-05
9.000000000000e-01 3.788546181406e+05 1.000000000000e+00 2.612776104278e+01 1.637704264871e-04 8.918572320466e-04 -3.229609106525e+07 -1.395811173343e+04 -1.198165040429e+07 -1.069395122018e+07 -2.758655570868e-05 1.044279811294e-08 6.659543825549e-05 0.000000000000e+00 1.832389756324e+07 2.098795229906e+07  8.386363661829e-05
1.000000000000e+00 3.956972555865e+05 1.000000000000e+00 2.635461481276e+01 1.783750356608e-04 9.826965740819e-04 -3.245251412572e+07 -1.397607874603e+04 -1.188604874849e+07 -1.079348476009e+07 -2.969959504405e-05 9.108105748119e-09 7.384331695326e-05 0.000000000000e+00 1.837734921143e+07 2.113395276832e+07  9.234726993005e-05
2.000000000000e+00 5.150057622498e+05 1.000000000000e+00 2.862803367889e+01 2.311883350833e-04 1.735802193037e-03 -3.370201992595e+07 -1.415007817928e+04 -1.147963300966e+07 -1.184902818160e+07 -3.690391196773e-05 -3.817566436242e-09 1.281446571946e-04 0.000000000000e+00 1.901022703907e+07 2.204002475698e+07  1.500399649360e-04
3.000000000000e+00 6.107955937086e+05 1.000000000000e+00 3.070915667385e+01 2.473400599977e-04 2.378438386108e-03 -3.474273956480e+07 -1.424925054950e+04 -1.129121849021e+07 -1.283523509889e+07 -3.892867019728e-05 -1.118465679505e-08 1.717734534161e-04 0.000000000000e+00 1.962306438463e+07 2.271891060516e+07  1.941866966447e-04
4.000000000000e+00 6.926709895023e+05 1.000000000000e+00 3.256538003711e+01 2.492583509571e-04 2.938759390485e-03 -3.563159963439e+07 -1.429709884816e+04 -1.119343097535e+07 -1.372251154437e+07 -3.898749052135e-05 -1.473910183865e-08 2.083615433715e-04 0.000000000000e+00 2.018251405137e+07 2.327691671281e+07  2.303433340087e-04
5.000000000000e+00 7.655249434076e+05 1.000000000000e+00 3.421390787268e+01 2.474194566896e-04 3.505441018465e-03 -3.641647821886e+07 -1.417045555758e+05 -1.113266570668e+07 -1.451634069336e+07 -3.865504098202e-05 -9.479293030175e-06 2.401036217420e-04 0.000000000000e+00 2.068849487297e+07 2.377453402581e+07  2.620968288522e-04
6.000000000000e+00 8.320077993300e+05 1.000000000000e+00 3.568672709666e+01 2.413768417375e-04 3.884839755317e-03 -3.709163514818e+07 -1.432507891287e+04 -1.108997144428e+07 -1.522099277606e+07 -3.755950671404e-05 -1.681762093100e-08 2.678622002738e-04 0.000000000000e+00 2.113419978951e+07 2.420204621134e+07  2.884816247844e-04
7.000000000000e+00 8.939780188885e+05 1.000000000000e+00 3.700928500172e+01 2.359651283572e-04 4.292070585151e-03 -3.770263145332e+07 -1.432686842147e+04 -1.105667793305e+07 -1.585655993873e+07 -3.664687486246e-05 -1.695055585610e-08 2.927055967331e-04 0.000000000000e+00 2.153862310837e+07 2.459977417018e+07  3.126440564493e-04
8.000000000000e+00 9.520385369560e+05 1.000000000000e+00 3.821072829304e+01 2.311962162481e-04 4.667502156738e-03 -3.825866814983e+07 -1.432632408920e+04 -1.102466377318e+07 -1.643369075823e+07 -3.586337886568e-05 -1.691011974424e-08 3.153309816813e-04 0.000000000000e+00 2.190567422708e+07 2.497277955011e+07  3.347068049409e-04
9.000000000000e+00 1.007090272312e+06 1.000000000000e+00 3.931176279752e+01 2.268036242177e-04 5.015626843051e-03 -3.876785912709e+07 -1.432481721740e+04 -1.099479190318e+07 -1.696232175044e+07 -3.514132116781e-05 -1.679818069609e-08 3.360753737059e-04 0.000000000000e+00 2.224165759357e+07 2.532229617342e+07  3.549530993744e-04
1.000000000000e+01 1.059630028710e+06 1.000000000000e+00 4.032707742531e+01 2.226167763696e-04 5.339804435815e-03 -3.923643477105e+07 -1.432305084814e+04 -1.096726923780e+07 -1.744950571644e+07 -3.445015492062e-05 -1.666696469410e-08 3.551930485858e-04 0.000000000000e+00 2.255106990843e+07 2.564991830631e+07  3.736112569525e-04
1.100000000000e+01 1.109950425180e+06 1.000000000000e+00 4.126965435291e+01 2.187482013017e-04 5.643646291035e-03 -3.967107546481e+07 -1.432172091546e+04 -1.094055572893e+07 -1.790133499103e+07 -3.381172191833e-05 -1.656816969542e-08 3.729674948286e-04 0.000000000000e+00 2.283765539492e+07 2.595975773380e+07  3.909714296225e-04
1.200000000000e+01 1.158414524193e+06 1.000000000000e+00 4.214857048244e+01 2.150085430088e-04 5.929133440815e-03 -4.007522749874e+07 -1.432025291100e+04 -1.091535909883e+07 -1.832221673790e+07 -3.319033258061e-05 -1.645911793542e-08 3.895361202589e-04 0.000000000000e+00 2.310426777849e+07 2.625218250703e+07  4.071471740777e-04
1.300000000000e+01 1.205265988125e+06 1.000000000000e+00 4.297047243320e+01 2.113116148471e-04 6.197855279779e-03 -4.045177581000e+07 -1.431890232513e+04 -1.089187002355e+07 -1.871538775107e+07 -3.257291793805e-05 -1.635878869879e-08 4.050120664016e-04 0.000000000000e+00 2.335301119487e+07 2.652797820953e+07  4.222418673220e-04
1.400000000000e+01 1.251210412219e+06 1.000000000000e+00 4.374060686257e+01 2.076123650170e-04 6.451351748682e-03 -4.080282333510e+07 -1.431757562439e+04 -1.086950927420e+07 -1.908313541051e+07 -3.195262723439e-05 -1.626023378670e-08 4.195018072992e-04 0.000000000000e+00 2.358515600661e+07 2.678817853527e+07  4.363564166830e-04
1.500000000000e+01 1.295786605059e+06 1.000000000000e+00 4.446330149352e+01 2.042052054969e-04 6.679281701551e-03 -4.113360677736e+07 6.539648045612e+03 -1.084924183587e+07 -1.942883214344e+07 -3.139870500928e-05 1.533133524556e-06 4.330947622319e-04 0.000000000000e+00 2.380389358555e+07 2.703562120857e+07  4.496249747563e-04
1.600000000000e+01 1.339131722057e+06 1.000000000000e+00 4.514222039457e+01 2.001611925974e-04 6.916484540685e-03 -4.143704381386e+07 -1.431562391744e+04 -1.082938570814e+07 -1.975112979163e+07 -3.069816800346e-05 -1.611524984227e-08 4.458033310519e-04 0.000000000000e+00 2.400585310454e+07 2.726450392736e+07  4.619181029447e-04
1.700000000000e+01 1.381371180093e+06 1.000000000000e+00 4.578051513596e+01 1.964369098106e-04 7.130023004086e-03 -4.172374557788e+07 -1.431483623474e+04 -1.081126790253e+07 -2.005471218571e+07 -3.007117317271e-05 -1.605673627032e-08 4.577521956116e-04 0.000000000000e+00 2.419657522204e+07 2.748245600272e+07  4.735044818806e-04
1.800000000000e+01 1.422623256356e+06 1.000000000000e+00 4.638092658090e+01 1.927216261614e-04 7.331958673071e-03 -4.199205650404e+07 -1.431414065379e+04 -1.079423424709e+07 -2.033984530860e+07 -2.944634872289e-05 -1.600506454206e-08 4.689755330926e-04 0.000000000000e+00 2.437537868657e+07 2.768792411083e+07  4.843704738638e-04
1.900000000000e+01 1.462974445785e+06 1.000000000000e+00 4.694585902072e+01 1.890170295684e-04 7.522983084195e-03 -4.224314421437e+07 -1.431352567067e+04 -1.077816668372e+07 -2.060768525753e+07 -2.882412271781e-05 -1.595938008184e-08 4.795206692639e-04 0.000000000000e+00 2.454299871854e+07 2.788152219601e+07  4.945631058646e-04
2.000000000000e+01 1.502507803692e+06 1.000000000000e+00 4.747743597235e+01 1.852849780315e-04 7.703715452606e-03 -4.247770060126e+07 -1.431325692867e+04 -1.076298386704e+07 -2.085915821316e+07 -2.819579302130e-05 -1.593941639060e-08 4.894250265213e-04 0.000000000000e+00 2.469994756049e+07 2.806348693731e+07  5.041146564412e-04
2.100000000000e+01 1.541141802637e+06 1.000000000000e+00 4.798108119168e+01 1.827434986560e-04 7.865246889535e-03 -4.270692614502e+07 8.062455873645e+03 -1.074487263892e+07 -2.109841324553e+07 -2.782326915899e-05 1.646256391781e-06 4.989843447679e-04 0.000000000000e+00 2.485007067649e+07 2.824621113678e+07  5.134695870654e-04
2.200000000000e+01 1.579012601176e+06 1.000000000000e+00 4.845978648259e+01 1.788916301643e-04 8.041534175197e-03 -4.291229146769e+07 -1.431247761515e+04 -1.072865261965e+07 -2.132237290773e+07 -2.713262226194e-05 -1.588152452946e-08 5.079053043653e-04 0.000000000000e+00 2.498777233169e+07 2.840897157194e+07  5.220007480053e-04
2.300000000000e+01 1.616195875602e+06 1.000000000000e+00 4.891513143569e+01 1.758525120784e-04 8.199308835387e-03 -4.311256866423e+07 -1.431223088738e+04 -1.071151784253e+07 -2.153636707280e+07 -2.662313485938e-05 -1.586319618064e-08 5.164900936468e-04 0.000000000000e+00 2.512015119319e+07 2.857043191275e+07  5.303031155072e-04
2.400000000000e+01 1.652744293327e+06 1.000000000000e+00 4.934819097905e+01 1.728334849944e-04 8.350021721640e-03 -4.330196944269e+07 -1.431192094488e+04 -1.069483289141e+07 -2.173943838960e+07 -2.611537200688e-05 -1.584017188081e-08 5.246524693122e-04 0.000000000000e+00 2.524541357457e+07 2.872414175469e+07  5.381855826512e-04
2.500000000000e+01 1.688706439286e+06 1.000000000000e+00 4.975985558927e+01 1.698220733509e-04 8.493931537210e-03 -4.348091808685e+07 -1.431163774726e+04 -1.067865340891e+07 -2.193203977723e+07 -2.560827010679e-05 -1.581913434311e-08 5.324071873456e-04 0.000000000000e+00 2.536387042433e+07 2.887024989585e+07  5.456621889468e-04
2.600000000000e+01 1.724115300466e+06 1.000000000000e+00 5.015093029860e+01 1.667821662278e-04 8.635558855062e-03 -4.364955557455e+07 -2.263915464533e+04 -1.066300652433e+07 -2.211450233086e+07 -2.509476765781e-05 -6.344346753428e-07 5.397655379077e-04 0.000000000000e+00 2.547568814324e+07 2.900871220725e+07  5.527414237798e-04
2.700000000000e+01 1.758998233262e+06 1.000000000000e+00 5.052216664284e+01 1.638203681395e-04 8.762316636975e-03 -4.380911396982e+07 -1.431114797380e+04 -1.064780116710e+07 -2.228743094425e+07 -2.459815955611e-05 -1.578275117197e-08 5.467533711021e-04 0.000000000000e+00 2.558144869372e+07 2.914050203116e+07  5.594581715129e-04
2.800000000000e+01 1.793391626416e+06 1.000000000000e+00 5.087427301804e+01 1.608331791980e-04 8.887247777739e-03 -4.395911698401e+07 -1.431094568499e+04 -1.063309244526e+07 -2.245094701634e+07 -2.409624597713e-05 -1.576772400280e-08 5.533731491623e-04 0.000000000000e+00 2.568105214854e+07 2.926506622577e+07  5.658062279166e-04
2.900000000000e+01 1.827319648769e+06 1.000000000000e+00 5.120791815911e+01 1.578602846551e-04 9.013514008387e-03 -4.410020970894e+07 -2.823227321079e+04 -1.061883280894e+07 -2.260546378004e+07 -2.359763882265e-05 -1.049923483063e-06 5.596419868775e-04 0.000000000000e+00 2.577483543264e+07 2.938291005051e+07  5.718090052880e-04
3.000000000000e+01 1.860795160124e+06 1.000000000000e+00 5.152373277042e+01 1.548936532010e-04 9.119634149804e-03 -4.423263237336e+07 -1.431056748758e+04 -1.060499616525e+07 -2.275126617362e+07 -2.310067745378e-05 -1.573962933790e-08 5.655714368335e-04 0.000000000000e+00 2.586296490408e+07 2.949406817161e+07  5.774684195203e-04
3.100000000000e+01 1.893730298971e+06 1.000000000000e+00 5.182511085861e+01 1.522903533979e-04 9.228840110020e-03 -4.435980265076e+07 -1.431044572425e+04 -1.058952932269e+07 -2.288997890801e+07 -2.267195762295e-05 -1.573058406232e-08 5.712981068341e-04 0.000000000000e+00 2.594643696048e+07 2.960309933885e+07  5.829648289094e-04
3.200000000000e+01 1.926193299566e+06 1.000000000000e+00 5.211364607381e+01 1.498692136078e-04 9.334011343777e-03 -4.448152795587e+07 -1.431034994035e+04 -1.057354329599e+07 -2.302242616368e+07 -2.227371374486e-05 -1.572346868682e-08 5.768113430365e-04 0.000000000000e+00 2.602583247185e+07 2.970875617383e+07  5.882645453032e-04
3.300000000000e+01 1.958214421356e+06 1.000000000000e+00 5.238991565054e+01 1.475334282696e-04 9.435206284694e-03 -4.459764852478e+07 -1.431027416539e+04 -1.055750247499e+07 -2.314889127347e+07 -2.188948794103e-05 -1.571783968952e-08 5.821044204657e-04 0.000000000000e+00 2.610134742441e+07 2.981044306359e+07  5.933520661811e-04
3.400000000000e+01 1.989824628077e+06 1.000000000000e+00 5.265418165855e+01 1.452402742833e-04 9.532452156278e-03 -4.470814353161e+07 -1.431018128763e+04 -1.054165875617e+07 -2.326953020962e+07 -2.151271342292e-05 -1.571094019947e-08 5.871737762221e-04 0.000000000000e+00 2.617311083246e+07 2.990788159920e+07  5.982203124598e-04
3.500000000000e+01 2.021048807675e+06 1.000000000000e+00 5.290663245736e+01 1.429923739947e-04 9.625812174848e-03 -4.481319878219e+07 -1.431013662901e+04 -1.052605263777e+07 -2.338447467591e+07 -2.114539969672e-05 -1.570762270160e-08 5.920227979386e-04 0.000000000000e+00 2.624124203196e+07 3.000115709054e+07  6.028736854761e-04
3.600000000000e+01 2.051915339508e+06 1.000000000000e+00 5.314745069506e+01 1.408043714190e-04 9.715335587349e-03 -4.491307679035e+07 -1.431006766905e+04 -1.051073485189e+07 -2.349388174822e+07 -2.079146302830e-05 -1.570249996160e-08 5.966554355289e-04 0.000000000000e+00 2.630589779682e+07 3.009041690558e+07  6.073181487895e-04
3.700000000000e+01 2.082462264688e+06 1.000000000000e+00 5.337683019192e+01 1.387500898422e-04 9.801090544378e-03 -4.500850808688e+07 -1.430956297741e+04 -1.049565070854e+07 -2.359802171278e+07 -2.046799821595e-05 -1.566500858278e-08 6.010837595369e-04 0.000000000000e+00 2.636739350274e+07 3.017631194917e+07  6.115746945255e-04
3.800000000000e+01 2.113406986858e+06 1.000000000000e+00 5.359501617471e+01 1.392024842519e-04 9.883172781983e-03 -4.511956212525e+07 -1.429710348677e+04 -1.047868780896e+07 -2.370236776356e+07 -2.071715204068e-05 -1.473944642110e-08 6.055895205503e-04 0.000000000000e+00 2.643353923259e+07 3.027832001374e+07  6.162093464175e-04
3.900000000000e+01 2.143157951008e+06 1.000000000000e+00 5.380215925705e+01 1.363740522021e-04 9.961652697527e-03 -4.519759504820e+07 -1.431161423457e+04 -1.046484887390e+07 -2.379387945672e+07 -2.021651200417e-05 -1.581738768575e-08 6.095025438842e-04 0.000000000000e+00 2.648544112627e+07 3.034919260162e+07  6.198581084446e-04
4.000000000000e+01 2.172544103083e+06 1.000000000000e+00 5.399845068676e+01 1.333996484407e-04 1.003659625214e-02 -4.526909461916e+07 -1.431141854073e+04 -1.045138638041e+07 -2.387974587230e+07 -1.968288634681e-05 -1.580285042952e-08 6.131919033641e-04 0.000000000000e+00 2.653340895729e+07 3.041462735558e+07  6.232664868723e-04
4.200000000000e+01 2.229827604345e+06 1.000000000000e+00 5.435968914148e+01 1.282233251794e-04 1.017694194150e-02 -4.540065027980e+07 -1.431101767865e+04 -1.042139466722e+07 -2.403621765207e+07 -1.875743049362e-05 -1.577307210375e-08 6.201176902454e-04 0.000000000000e+00 2.661942086636e+07 3.053974409238e+07  6.297059680303e-04
4.400000000000e+01 2.285593810150e+06 1.000000000000e+00 5.469219727662e+01 1.233044600855e-04 1.030778155478e-02 -4.551943213437e+07 -1.431062744300e+04 -1.039109505489e+07 -2.417873348871e+07 -1.787588258791e-05 -1.574408316928e-08 6.265365497785e-04 0.000000000000e+00 2.669642022599e+07 3.065555159347e+07  6.356630317481e-04
5.000000000000e+01 2.437116675171e+06 1.000000000000e+00 5.537543856230e+01 1.093219967599e-04 1.058148201757e-02 -4.573827679119e+07 -1.430948526304e+04 -1.033119924756e+07 -2.446434970624e+07 -1.539579604756e-05 -1.565923551557e-08 6.393698535590e-04 0.000000000000e+00 2.684460858166e+07 3.087060320315e+07  6.472051056474e-04
6.500000000000e+01 2.768502505939e+06 1.000000000000e+00 5.631568881840e+01 8.294151379526e-05 1.104582167868e-02 -4.593516492377e+07 -1.430727375127e+04 -1.011748590786e+07 -2.478608517788e+07 -1.075860916792e-05 -1.549495178364e-08 6.592579522659e-04 0.000000000000e+00 2.694624533650e+07 3.118780800984e+07  6.647025610501e-04
8.000000000000e+01 3.023556378504e+06 1.000000000000e+00 5.663857051715e+01 6.340421900069e-05 1.126618835225e-02 -4.589883688158e+07 -1.430558992963e+04 -9.966234393116e+06 -2.484104616998e+07 -7.367873608959e-06 -1.536986789035e-08 6.669172739485e-04 0.000000000000e+00 2.690203914823e+07 3.127174223276e+07  6.706315670644e-04
1.000000000000e+02 3.324236307843e+06 1.000000000000e+00 5.678970313193e+01 4.518643019771e-05 1.145067473672e-02 -4.577230354528e+07 -1.430400040103e+04 -9.782609056538e+06 -2.479923191264e+07 -4.221164961719e-06 -1.525178862329e-08 6.721845426060e-04 0.000000000000e+00 2.678471483815e+07 3.130996672571e+07  6.743050348982e-04
1.860000000000e+02 3.922717196870e+06 1.000000000000e+00 5.651434017817e+01 1.194111493932e-05 1.167000300493e-02 -4.520801702466e+07 -1.430104492688e+04 -9.307801724052e+06 -2.438801187339e+07 1.464161489300e-06 -1.503223911513e-08 6.745463563547e-04 0.000000000000e+00 2.630127687403e+07 3.122268436887e+07  6.738154691906e-04
2.720000000000e+02 4.213038211902e+06 1.000000000000e+00 5.565863395361e+01 -2.815609410293e-06 1.150191355530e-02 -4.462989819983e+07 -1.429966501421e+04 -9.181076865397e+06 -2.387555166581e+07 3.902910129836e-06 -1.492973131623e-08 6.602190433948e-04 0.000000000000e+00 2.589550891035e+07 3.084874916911e+07  6.582762665058e-04
3.580000000000e+02 4.354403696138e+06 1.000000000000e+00 5.491482445313e+01 -1.084133366940e-05 1.132602080189e-02 -4.417522969390e+07 -1.429889515347e+04 -9.107104943078e+06 -2.345576130803e+07 5.198384204019e-06 -1.487254166128e-08 6.473743586489e-04 0.000000000000e+00 2.557936531500e+07 3.053649382266e+07  6.447908835102e-04
4.440000000000e+02 4.426532453567e+06 1.000000000000e+00 5.428887039692e+01 -1.599323143992e-05 1.116143203660e-02 -4.381514729203e+07 -1.429839350951e+04 -9.072244772276e+06 -2.311761454550e+07 6.013136522553e-06 -1.483527668178e-08 6.361094280993e-04 0.000000000000e+00 2.533500220327e+07 3.027152767884e+07  6.331242770211e-04
5.300000000000e+02 4.465496893892e+06 1.000000000000e+00 5.377624848081e+01 -1.945496964378e-05 1.101878556770e-02 -4.353097761382e+07 -1.429805637262e+04 -9.056774502345e+06 -2.284789958863e+07 6.550026172486e-06 -1.481023222696e-08 6.266660540130e-04 0.000000000000e+00 2.514521723493e+07 3.005375812206e+07  6.234168490648e-04
6.160000000000e+02 4.488012313614e+06 1.000000000000e+00 5.336720510232e+01 -2.179630080875e-05 1.090056143498e-02 -4.331024248971e+07 -1.429783095163e+04 -9.051834747017e+06 -2.263674728922e+07 6.905959660937e-06 -1.479348666804e-08 6.190067309468e-04 0.000000000000e+00 2.499960817532e+07 2.987961663255e+07  6.155828054609e-04
7.020000000000e+02 4.501822582807e+06 1.000000000000e+00 5.305912792032e+01 -2.339902642753e-05 1.080987431838e-02 -4.314635541663e+07 -1.429768162189e+04 -9.051096022243e+06 -2.247933307346e+07 7.146380075586e-06 -1.478239360138e-08 6.131873555673e-04 0.000000000000e+00 2.489226150411e+07 2.974837224580e+07  6.096455810805e-04
7.880000000000e+02 4.511441109809e+06 1.000000000000e+00 5.280009929580e+01 -2.437034742162e-05 1.072815284749e-02 -4.301543479072e+07 -1.429759477839e+04 -9.060577002714e+06 -2.235210765982e+07 7.283630817471e-06 -1.477594237019e-08 6.081096895006e-04 0.000000000000e+00 2.480937315109e+07 2.963588592617e+07  6.045007857088e-04
8.740000000000e+02 4.519827167085e+06 1.000000000000e+00 5.241137392618e+01 -2.638710735110e-05 1.061262584673e-02 -4.280845779788e+07 -1.429739363633e+04 -9.059151402187e+06 -2.215328043655e+07 7.586336544094e-06 -1.476100038844e-08 6.007776292270e-04 0.000000000000e+00 2.467362987887e+07 2.947125273618e+07  5.970206124180e-04
9.370000000000e+02 4.525201002568e+06 1.000000000000e+00 5.210907651675e+01 -2.726709006861e-05 1.051767038708e-02 -4.265522241785e+07 -1.429729811799e+04 -9.065188170087e+06 -2.200318369090e+07 7.702914392419e-06 -1.475390474042e-08 5.949783844381e-04 0.000000000000e+00 2.457453142628e+07 2.934442075522e+07  5.911645675538e-04
1.000000000000e+03 4.529391019573e+06 1.000000000000e+00 5.185429707453e+01 -2.772020336553e-05 1.043816911376e-02 -4.252654380826e+07 -1.429724361434e+04 -9.066836388282e+06 -2.187581680678e+07 7.751635624633e-06 -1.474985589776e-08 5.901863949238e-04 0.000000000000e+00 2.448973233444e+07 2.924103069446e+07  5.863490081654e-04
1.100000000000e+03 4.533536315693e+06 1.000000000000e+00 5.158773659091e+01 -2.801421307545e-05 1.035499655885e-02 -4.239257134471e+07 -1.429721143876e+04 -9.067263756504e+06 -2.174238520375e+07 7.771724729414e-06 -1.474746571153e-08 5.852144902770e-04 0.000000000000e+00 2.440074010165e+07 2.913474080602e+07  5.813675894491e-04
1.200000000000e+03 4.536797687465e+06 1.000000000000e+00 5.136659203582e+01 -2.838780838448e-05 1.028587752291e-02 -4.228095908883e+07 -1.429717652213e+04 -9.068577894793e+06 -2.163182325367e+07 7.810736087826e-06 -1.474487190453e-08 5.810590927091e-04 0.000000000000e+00 2.432712007910e+07 2.904552836255e+07  5.771933629607e-04
1.300000000000e+03 4.539703052341e+06 1.000000000000e+00 5.115655246698e+01 -2.878201449569e-05 1.022008944901e-02 -4.217487356913e+07 -1.429713590827e+04 -9.070262205803e+06 -2.152691689799e+07 7.854533608205e-06 -1.474185487516e-08 5.771000108033e-04 0.000000000000e+00 2.425735089097e+07 2.896051519552e+07  5.732131064353e-04
1.400000000000e+03 4.542442565750e+06 1.000000000000e+00 5.094021038042e+01 -2.916444222641e-05 1.015211225889e-02 -4.206581090677e+07 -1.429709522426e+04 -9.072105432409e+06 -2.141895907770e+07 7.895570599539e-06 -1.473883263466e-08 5.730216862045e-04 0.000000000000e+00 2.418562513896e+07 2.887319788974e+07  5.691149799196e-04
1.500000000000e+03 4.545082446510e+06 1.000000000000e+00 5.070749561259e+01 -2.951632672380e-05 1.007872608553e-02 -4.194887051723e+07 -1.429705338062e+04 -9.074028815056e+06 -2.130293148072e+07 7.929474323124e-06 -1.473572424991e-08 5.686406498184e-04 0.000000000000e+00 2.410861027100e+07 2.877983063261e+07  5.647176678736e-04
1.600000000000e+03 4.547643484557e+06 1.000000000000e+00 5.045226628177e+01 -3.017820869975e-05 1.000340080594e-02 -4.181827591063e+07 -2.426582244965e+04 -9.076407458307e+06 -2.117506405899e+07 8.030769761113e-06 -7.552728550920e-07 5.638029388332e-04 0.000000000000e+00 2.402324914264e+07 2.867536547128e+07  5.598322845449e-04
1.700000000000e+03 4.550130780696e+06 1.000000000000e+00 5.017073127073e+01 -3.008704079519e-05 9.908584235945e-03 -4.168057999938e+07 -1.429696570816e+04 -9.078023544394e+06 -2.103563046540e+07 7.966227274380e-06 -1.472921143837e-08 5.585639507310e-04 0.000000000000e+00 2.393141133639e+07 2.856681832439e+07  5.546237473326e-04
1.800000000000e+03 4.552544173059e+06 1.000000000000e+00 4.986060252698e+01 -3.029454204950e-05 9.809870939940e-03 -4.152628472505e+07 -1.429692227878e+04 -9.080078214316e+06 -2.088134081652e+07 7.966436219506e-06 -1.472598525631e-08 5.527568760326e-04 0.000000000000e+00 2.382923458529e+07 2.844504395621e+07  5.488170244809e-04
1.900000000000e+03 4.554883463617e+06 1.000000000000e+00 4.952059327311e+01 -3.044631511855e-05 9.701399489478e-03 -4.135756810463e+07 -1.429687860249e+04 -9.082176759151e+06 -2.071227973911e+07 7.953642102994e-06 -1.472274073128e-08 5.463995186351e-04 0.000000000000e+00 2.371734153430e+07 2.831244726201e+07  5.424664310547e-04