 TITLE = "Time curves in points"
 VARIABLES = "TIME"  "PRESSURE1"  "SATURATION1"  "TEMPERATURE1"  "DISPLACEMENT_X1"  "DISPLACEMENT_Y1"  "STRESS_XX"  "STRESS_XY"  "STRESS_YY"  "STRESS_ZZ"  "STRAIN_XX"  "STRAIN_XY"  "STRAIN_YY"  "STRAIN_PLS"  p_(1st_Invariant)  q_(2nd_Invariant)   Effective_Strain
 ZONE T="POINT=POINT1"
0.000000000000e+00 -7.000000000000e+07 8.894919982500e-01 2.500000000000e+01 0.000000000000e+00 0.000000000000e+00 0.000000000000e+00 0.000000000000e+00 0.000000000000e+00 0.000000000000e+00 0.000000000000e+00 0.000000000000e+00 0.000000000000e+00 0.000000000000e+00 -0.000000000000e+00 0.000000000000e+00  0.000000000000e+00
1.000000000000e-03 -7.000000000000e+07 6.684759947500e-01 3.310905024514e+01 3.398015631303e-05 6.368714277247e-05 -5.906039614179e+06 -1.222187947312e+02 6.402298308367e+06 7.221810589270e+03 -7.199686924839e-03 -3.547739419693e-07 1.662443321845e-04 0.000000000000e+00 -1.678268349256e+05 1.066205530363e+07  7.284232047103e-03
2.000000000000e-03 -7.015907454864e+07 6.678662387817e-01 3.680324652000e+01 3.394319455799e-05 6.351683208688e-05 -5.981786550166e+06 -1.862641405446e+02 6.334002544793e+06 -4.190175415684e+04 -7.225647723800e-03 -5.384703063138e-07 1.664079254890e-04 0.000000000000e+00 -1.034380801568e+05 1.066801406680e+07  7.310272398756e-03
3.000000000000e-03 -7.037130608275e+07 6.670521908508e-01 3.937002890421e+01 3.390391227954e-05 6.320917675629e-05 -6.074161016796e+06 -2.129685254104e+02 6.255684090924e+06 -9.802476262031e+04 -7.272230167600e-03 -6.149403997018e-07 1.667975085010e-04 0.000000000000e+00 -2.783277050257e+04 1.067962783473e+07  7.357047235614e-03
4.000000000000e-03 -7.061820315145e+07 6.661049302029e-01 4.139950772454e+01 3.386338793704e-05 6.276620210301e-05 -6.176990482591e+06 -2.239836569601e+02 6.170916948913e+06 -1.588069470768e+05 -7.330514041456e-03 -6.464352788232e-07 1.673159720859e-04 0.000000000000e+00 5.496016025159e+04 1.069473599264e+07  7.415587912153e-03
1.000000000000e-02 -7.212935444296e+07 6.602938296806e-01 4.814735038606e+01 3.363930393460e-05 6.002141555252e-05 -6.778987064154e+06 -2.314171214709e+02 5.697813387260e+06 -5.018427012749e+05 -7.714070114704e-03 -6.674122712035e-07 1.707775133483e-04 0.000000000000e+00 5.276721260563e+05 1.080529561822e+07  7.800861089773e-03
2.000000000000e-02 -7.524730980454e+07 6.482622395933e-01 5.436283958315e+01 3.325122406147e-05 5.822061041966e-05 -7.925062235832e+06 -2.331649435195e+02 4.857930461128e+06 -1.129212216834e+06 -8.510940988619e-03 -6.719934413873e-07 1.777946088836e-04 0.000000000000e+00 1.398781330513e+06 1.107777860276e+07  8.601216670549e-03
3.000000000000e-02 -7.893054977839e+07 6.339986451978e-01 5.830139727141e+01 3.284111619731e-05 5.858735376459e-05 -9.176153254839e+06 -2.340865640946e+02 4.005163744058e+06 -1.791748379220e+06 -9.424029264773e-03 -6.743531316756e-07 1.853372366974e-04 0.000000000000e+00 2.320912630000e+06 1.144291797765e+07  9.518051396233e-03
4.000000000000e-02 -8.274830413487e+07 6.191580485947e-01 6.102917500602e+01 3.243464725106e-05 6.128346466485e-05 -1.038292766185e+07 -2.347794687086e+02 3.244717026656e+06 -2.411132332639e+06 -1.033519430559e-02 -6.762150847336e-07 1.922246147166e-04 0.000000000000e+00 3.183114322609e+06 1.185855920491e+07  1.043263493811e-02
5.000000000000e-02 -8.646458726794e+07 6.110473852968e-01 6.303907960401e+01 3.198361291158e-05 6.498053717842e-05 -1.190869460787e+07 -2.353725348283e+02 2.154230773330e+06 -3.235288447675e+06 -1.142561430113e-02 -6.778005863347e-07 2.027572494598e-04 0.000000000000e+00 4.329917427405e+06 1.228903500001e+07  1.152833032870e-02
6.000000000000e-02 -8.999223159030e+07 6.035636093635e-01 6.459149100424e+01 3.153890207973e-05 7.099413468193e-05 -1.335999056427e+07 -2.364024708933e+02 1.212476424582e+06 -3.991642469699e+06 -1.249546684725e-02 -6.802569567078e-07 2.117901417411e-04 0.000000000000e+00 5.379718869796e+06 1.279073090100e+07  1.260269673037e-02
7.000000000000e-02 -9.331716927526e+07 5.965377377979e-01 6.584443306560e+01 3.110629381320e-05 7.702433399455e-05 -1.472044150252e+07 -2.373971245405e+02 4.081101984535e+05 -4.678074150078e+06 -1.352670365423e-02 -6.826670925003e-07 2.195029983031e-04 0.000000000000e+00 6.330135151381e+06 1.333400709044e+07  1.363778012446e-02
8.000000000000e-02 -9.644615881122e+07 5.900016052562e-01 6.688977752464e+01 3.069155603440e-05 8.384541662422e-05 -1.599360273871e+07 -2.395204245272e+02 -2.948649102992e+05 -5.306227192003e+06 -1.451087865033e-02 -6.885877997804e-07 2.260791189016e-04 0.000000000000e+00 7.198231613669e+06 1.388855855991e+07  1.462522885479e-02
9.000000000000e-02 -9.940042086474e+07 5.839014870544e-01 6.778635190768e+01 3.029532620863e-05 9.005349453227e-05 -1.717927063265e+07 -2.414400994618e+02 -9.344631367802e+05 -5.886772248382e+06 -1.543188851139e-02 -6.941539227978e-07 2.319996361587e-04 0.000000000000e+00 8.000168672603e+06 1.442115904189e+07  1.554918650042e-02
1.000000000000e-01 -1.021958375290e+08 5.772939348522e-01 6.856669367068e+01 2.993097335841e-05 9.561209367357e-05 -1.820459552343e+07 -2.456102515223e+02 -1.450593904871e+06 -6.377351488342e+06 -1.624226864896e-02 -7.058300733601e-07 2.377014744217e-04 0.000000000000e+00 8.677513638880e+06 1.491397352063e+07  1.636241441709e-02
2.000000000000e-01 -1.187516576162e+08 5.380454471038e-01 7.279261234412e+01 2.764517576669e-05 1.904519756413e-04 -2.374039929689e+07 -2.138219307867e+02 -4.120214641916e+06 -8.988352413688e+06 -2.060732262082e-02 -6.175373490840e-07 2.729010034881e-04 0.000000000000e+00 1.228298878416e+07 1.769566753161e+07  2.074511944344e-02
3.000000000000e-01 -1.341076557070e+08 5.086722764506e-01 7.558238752077e+01 2.565456957542e-05 3.002702184553e-04 -2.847853865288e+07 -2.239043636663e+02 -6.827150443418e+06 -1.134379375723e+07 -2.416346194425e-02 -6.460905552608e-07 3.101720390068e-04 0.000000000000e+00 1.554982761784e+07 1.978360635931e+07  2.432003148308e-02
4.000000000000e-01 -1.471562298174e+08 4.912841749613e-01 7.759060036889e+01 2.383692531030e-05 4.058361046126e-04 -3.290137459387e+07 -2.332174106619e+02 -9.412667403463e+06 -1.356524019219e+07 -2.745602328953e-02 -6.685371805554e-07 3.431389131896e-04 0.000000000000e+00 1.862642739651e+07 2.171231586184e+07  2.762919091327e-02
5.000000000000e-01 -1.578188093458e+08 4.765742391103e-01 7.913407170411e+01 2.229974673513e-05 5.083764835922e-04 -3.626139506083e+07 -2.390633393253e+02 -1.129662070393e+07 -1.522901598398e+07 -2.997973301185e-02 -6.796788921895e-07 3.646506026001e-04 0.000000000000e+00 2.092901058291e+07 2.324935118777e+07  3.016371148612e-02
6.000000000000e-01 -1.664470021284e+08 4.628553817443e-01 8.036202840344e+01 2.106453939668e-05 6.083222744357e-04 -3.858882895583e+07 -2.447144475905e+02 -1.253779856716e+07 -1.636100722068e+07 -3.174696059662e-02 -6.893161646405e-07 3.800668332418e-04 0.000000000000e+00 2.249587824789e+07 2.436543831094e+07  3.193869011287e-02
7.000000000000e-01 -1.732705663414e+08 4.540722615735e-01 8.135405414516e+01 1.996903709487e-05 7.058107746285e-04 -4.065319780349e+07 -2.531044620102e+02 -1.376537573210e+07 -1.740307418141e+07 -3.326498366093e-02 -6.936696915652e-07 3.944893196884e-04 0.000000000000e+00 2.394054923900e+07 2.526614409221e+07  3.346397229862e-02
8.000000000000e-01 -1.785574878916e+08 4.487369268304e-01 8.216210405306e+01 1.900555754322e-05 8.010132583959e-04 -4.245762929086e+07 -2.417338233813e+02 -1.491812824943e+07 -1.833803737344e+07 -3.456244655818e-02 -6.502330200068e-07 4.087581098849e-04 0.000000000000e+00 2.523793163791e+07 2.599879430514e+07  3.476862776809e-02
9.000000000000e-01 -1.825455354867e+08 4.447347654650e-01 8.283348418777e+01 1.815762372080e-05 8.939112255651e-04 -4.388533387616e+07 -2.342268468559e+02 -1.584463838195e+07 -1.908212101478e+07 -3.558272660813e-02 -6.029994927507e-07 4.189574368405e-04 0.000000000000e+00 2.627069775763e+07 2.657029606696e+07  3.579404429830e-02
1.000000000000e+00 -1.854867315876e+08 4.417945844378e-01 8.339527886944e+01 1.741600174724e-05 9.845732011084e-04 -4.503504796620e+07 -2.301910306492e+02 -1.656600672804e+07 -1.967458769175e+07 -3.641378844779e-02 -5.587172602569e-07 4.255603267365e-04 0.000000000000e+00 2.709188079533e+07 2.704905294348e+07  3.662842278011e-02
2.000000000000e+00 -1.860998029159e+08 4.410419437588e-01 8.535753332227e+01 1.343121570360e-05 1.736066202409e-03 -4.834112331921e+07 -1.357042147699e+02 -1.916539988235e+07 -2.153509144943e+07 -3.865545829282e-02 -1.827499795672e-07 4.424992749188e-04 0.000000000000e+00 2.968053821699e+07 2.806600809611e+07  3.887859660279e-02
3.000000000000e+00 -1.774891017735e+08 4.495795733857e-01 8.593561676212e+01 1.080647093394e-05 2.373765098023e-03 -4.884894182500e+07 2.365845824271e+02 -2.006307199740e+07 -2.197082512481e+07 -3.886345948996e-02 1.073834002834e-06 4.410646151266e-04 0.000000000000e+00 3.029427964907e+07 2.788098797938e+07  3.908585833500e-02
4.000000000000e+00 -1.655179159865e+08 4.640228387899e-01 8.594181061173e+01 8.866789644306e-06 2.928910116944e-03 -4.829983310227e+07 5.466302825810e+02 -2.033274926946e+07 -2.187391355490e+07 -3.828700247268e-02 2.234782393550e-06 4.288530672264e-04 0.000000000000e+00 3.016883197554e+07 2.722923237243e+07  3.850322047212e-02
5.000000000000e+00 -1.531383074777e+08 4.825992399877e-01 8.575846067509e+01 7.297448328588e-06 3.420669298822e-03 -4.749250171737e+07 8.143528125143e+02 -2.053901449137e+07 -2.167360739358e+07 -3.747236777207e-02 3.509621388117e-06 4.157337083093e-04 0.000000000000e+00 2.990170786744e+07 2.640447957051e+07  3.768195515531e-02
6.000000000000e+00 -1.414940107229e+08 4.976938476537e-01 8.561855142323e+01 6.059212250803e-06 3.864341366073e-03 -4.598213880704e+07 1.024498540233e+03 -2.017158187930e+07 -2.106982612302e+07 -3.618465671861e-02 4.652785191695e-06 3.966303975881e-04 0.000000000000e+00 2.907451560312e+07 2.537336222503e+07  3.638459422946e-02
7.000000000000e+00 -1.312343109060e+08 5.110276238020e-01 8.535781905150e+01 5.021940773127e-06 4.267688355571e-03 -4.443322977681e+07 1.419486070038e+03 -1.959484170701e+07 -2.039258260068e+07 -3.494998040673e-02 5.704003615236e-06 3.785834781554e-04 0.000000000000e+00 2.814021802816e+07 2.444928057404e+07  3.514080304477e-02
8.000000000000e+00 -1.218124760646e+08 5.294013446845e-01 8.528219685681e+01 3.999876874770e-06 4.271419679970e-03 -4.343051155613e+07 1.428134278628e+05 -1.940612559423e+07 -2.001333216072e+07 -3.408186641719e-02 4.397054124722e-04 3.651059090083e-04 0.000000000000e+00 2.761665643703e+07 2.372790009196e+07  3.427434075475e-02
9.000000000000e+00 -1.135309101324e+08 5.485280291582e-01 8.520333330349e+01 3.059438991890e-06 4.986362580750e-03 -4.259154501786e+07 1.343734635196e+03 -1.942488891986e+07 -1.974864148614e+07 -3.328973916172e-02 6.243530638007e-06 3.546898268177e-04 0.000000000000e+00 2.725502514129e+07 2.300648846608e+07  3.346849544112e-02
1.000000000000e+01 -1.060027444630e+08 5.654957297385e-01 8.512020196399e+01 2.232781083133e-06 5.311180884514e-03 -4.156126534885e+07 8.534413849992e+02 -1.929550801249e+07 -1.937521082619e+07 -3.235912483359e-02 5.362338523959e-06 3.442135680163e-04 0.000000000000e+00 2.674399472918e+07 2.222601315973e+07  3.253259871355e-02
1.100000000000e+01 -9.920712252554e+07 5.774470280681e-01 8.508992033788e+01 1.565212355892e-06 5.611559295696e-03 -4.016521638697e+07 1.221612934653e+03 -1.881799564909e+07 -1.877566122428e+07 -3.120587161570e-02 6.869491260317e-06 3.336985851551e-04 0.000000000000e+00 2.591962442012e+07 2.136841950692e+07  3.137405416611e-02
1.200000000000e+01 -9.310164044586e+07 5.881956850848e-01 8.506072886397e+01 9.433173169220e-07 5.895624610137e-03 -3.882750082706e+07 1.416547881015e+03 -1.833302995728e+07 -1.819294556571e+07 -3.010991329009e-02 7.272806300944e-06 3.223735244648e-04 0.000000000000e+00 2.511782545001e+07 2.056487105165e+07  3.027239007042e-02
1.300000000000e+01 -8.749469814547e+07 5.980313957598e-01 8.501131572012e+01 3.458528478605e-07 5.847821653673e-03 -3.757448939401e+07 -2.619476372218e+05 -1.773437992128e+07 -1.760633437974e+07 -2.914052713969e-02 -7.936968872103e-04 3.085939309436e-04 0.000000000000e+00 2.430506789834e+07 1.990961141776e+07  2.932827997444e-02
1.400000000000e+01 -8.219117514658e+07 6.142796240256e-01 8.492254158400e+01 -2.794497956424e-07 6.416354692033e-03 -3.677354408996e+07 1.771884429564e+03 -1.750581856287e+07 -1.728163808745e+07 -2.845729172286e-02 7.664067072101e-06 2.978071511233e-04 0.000000000000e+00 2.385366691342e+07 1.938078845560e+07  2.860736098437e-02
1.500000000000e+01 -7.715797096520e+07 6.332700080361e-01 8.481756096154e+01 -8.653978347905e-07 6.655380301678e-03 -3.608271692960e+07 1.543569136844e+03 -1.739500846796e+07 -1.702928981007e+07 -2.783197985585e-02 7.409979292279e-06 2.884700558269e-04 0.000000000000e+00 2.350233840254e+07 1.887322570440e+07  2.797733323917e-02
1.600000000000e+01 -7.243872988318e+07 6.510621264106e-01 8.470075328159e+01 -1.379775333755e-06 6.880986899276e-03 -3.527886315131e+07 1.468780957920e+03 -1.719544372778e+07 -1.671271717684e+07 -2.713173601397e-02 7.484408381459e-06 2.781311448933e-04 0.000000000000e+00 2.306234135198e+07 1.832955089820e+07  2.727186837962e-02
1.700000000000e+01 -6.798215592651e+07 6.678476559818e-01 8.456897559063e+01 -1.844136610540e-06 7.103648277516e-03 -3.438149162021e+07 8.498909627287e+04 -1.692896597358e+07 -1.634474487708e+07 -2.636778363462e-02 2.621749160475e-04 2.683946540504e-04 0.000000000000e+00 2.255173415696e+07 1.775245810712e+07  2.650689021215e-02
1.800000000000e+01 -6.374879119478e+07 6.837835317301e-01 8.442126256027e+01 -2.262733130555e-06 7.296649281023e-03 -3.341159758687e+07 1.174729807240e+03 -1.660743384711e+07 -1.593598198562e+07 -2.555292945270e-02 7.309079958763e-06 2.572501517821e-04 0.000000000000e+00 2.198500447320e+07 1.714975095325e+07  2.568252395119e-02
1.900000000000e+01 -5.970229355424e+07 6.990164998827e-01 8.425635705087e+01 -2.636900007750e-06 7.488099316232e-03 -3.236264551549e+07 9.586453833375e+02 -1.624529901594e+07 -1.548839639500e+07 -2.467772545298e-02 6.987691154924e-06 2.462011816660e-04 0.000000000000e+00 2.136544697548e+07 1.650881656355e+07  2.480174550723e-02
2.000000000000e+01 -5.591167187784e+07 7.132931242039e-01 8.407728923693e+01 -2.971183629499e-06 7.670996178315e-03 -3.127724199742e+07 8.154403195600e+02 -1.584896033355e+07 -1.501793465348e+07 -2.377729703390e-02 6.623753708914e-06 2.350875371237e-04 0.000000000000e+00 2.071471232815e+07 1.586013174717e+07  2.389571087475e-02
2.100000000000e+01 -5.230263574698e+07 7.252707769251e-01 8.398894340829e+01 -3.250188147345e-06 7.844334328279e-03 -3.007758347264e+07 6.134160830394e+02 -1.535419346034e+07 -1.447948503482e+07 -2.280659540128e-02 6.344632878040e-06 2.237446789861e-04 0.000000000000e+00 1.997042065593e+07 1.517965752937e+07  2.291928948744e-02
2.200000000000e+01 -4.892775271562e+07 7.360609189905e-01 8.389868400078e+01 -3.513153130957e-06 8.010288698005e-03 -2.888578844862e+07 4.509364325424e+02 -1.485446417009e+07 -1.394152267721e+07 -2.184689677385e-02 6.038018891486e-06 2.124177531712e-04 0.000000000000e+00 1.922725843197e+07 1.450935222272e+07  2.195387888389e-02
2.300000000000e+01 -4.578630808353e+07 7.458698428075e-01 8.379980762046e+01 -3.754887320355e-06 8.169721304244e-03 -2.772080322750e+07 4.364083280977e+02 -1.433332501087e+07 -1.340593774862e+07 -2.092057068247e-02 5.688650382344e-06 2.009746451891e-04 0.000000000000e+00 1.848668866233e+07 1.387443683463e+07  2.102178084370e-02
2.400000000000e+01 -4.273737163287e+07 7.561677634042e-01 8.368693074610e+01 -3.969962150865e-06 8.321603643276e-03 -2.655998251459e+07 3.497706116575e+02 -1.379954418586e+07 -1.286847878823e+07 -2.000132389484e-02 5.375838607155e-06 1.892721595847e-04 0.000000000000e+00 1.774266849623e+07 1.325052723741e+07  2.009663061221e-02
2.500000000000e+01 -3.972039245920e+07 7.706768433851e-01 8.355718496852e+01 -4.175473544864e-06 8.466553662447e-03 -2.548327866477e+07 2.056343490305e+02 -1.334789296872e+07 -1.238522706075e+07 -1.912300954720e-02 5.129555099459e-06 1.783474728436e-04 0.000000000000e+00 1.707213289808e+07 1.264423322542e+07  1.921280618042e-02
2.600000000000e+01 -3.674690229707e+07 7.856724758628e-01 8.341465113958e+01 -4.354632711778e-06 8.605013189328e-03 -2.435604844555e+07 6.649328525719e+01 -1.286138189953e+07 -1.187519776019e+07 -1.820630265924e-02 4.867645682672e-06 1.670991335657e-04 0.000000000000e+00 1.636420936842e+07 1.201814361742e+07  1.829042665227e-02
2.700000000000e+01 -3.382536532298e+07 8.010888071460e-01 8.325927499574e+01 -4.508922257134e-06 8.737200238713e-03 -2.318154523225e+07 -8.226945035424e+01 -1.234374784658e+07 -1.134052246114e+07 -1.725313013058e-02 4.579405018256e-06 1.554968999049e-04 0.000000000000e+00 1.562193851332e+07 1.137264555091e+07  1.733140357128e-02
2.800000000000e+01 -3.094423991961e+07 8.170103654571e-01 8.309101810110e+01 -4.638740016155e-06 8.863396538651e-03 -2.195486992688e+07 -2.352893679860e+02 -1.179371364306e+07 -1.077923730190e+07 -1.625912997593e-02 4.284113080303e-06 1.435162648307e-04 0.000000000000e+00 1.484260695728e+07 1.070450896052e+07  1.633136274647e-02
2.900000000000e+01 -2.809010245870e+07 8.334581909846e-01 8.290988092746e+01 -4.746733564632e-06 8.983809111166e-03 -2.066620848724e+07 -4.004462321146e+02 -1.120434797645e+07 -1.018604583148e+07 -1.521676219533e-02 3.959807853946e-06 1.311007823296e-04 0.000000000000e+00 1.401886743172e+07 1.000993391180e+07  1.528273586741e-02
3.000000000000e+01 -2.525050507953e+07 8.504808420255e-01 8.271590736688e+01 -4.825287916051e-06 9.098386953494e-03 -1.930254546334e+07 -5.333448898742e+02 -1.056954622745e+07 -9.554860879452e+06 -1.411612415352e-02 3.736065734911e-06 1.182567123398e-04 0.000000000000e+00 1.314231752342e+07 9.282031525030e+06  1.417562393955e-02
3.100000000000e+01 -2.240930440885e+07 8.681657776464e-01 8.259379692803e+01 -4.878506277592e-06 9.209117539383e-03 -1.785376061410e+07 -7.205880578414e+02 -9.883196715655e+06 -8.880651463657e+06 -1.294836699159e-02 3.352391214859e-06 1.049056066426e-04 0.000000000000e+00 1.220586959781e+07 8.516210330390e+06  1.300113852495e-02
3.200000000000e+01 -1.960626543805e+07 8.861325861022e-01 8.247041848989e+01 -4.914020022339e-06 9.315858752715e-03 -1.634372587504e+07 -8.846956962364e+02 -9.160036170145e+06 -8.175403902527e+06 -1.173326130296e-02 3.017246176131e-06 9.132661016060e-05 0.000000000000e+00 1.122638864924e+07 7.723224294986e+06  1.177919129845e-02
3.300000000000e+01 -1.677025540403e+07 9.047373350457e-01 8.234022756780e+01 -4.921661285359e-06 9.418685510462e-03 -1.471982478606e+07 -1.043042010965e+03 -8.366401474589e+06 -7.411907306149e+06 -1.043039521437e-02 2.675224543659e-06 7.712270021073e-05 0.000000000000e+00 1.016604452227e+07 6.880505479729e+06  1.046917064302e-02
3.400000000000e+01 -1.387183993088e+07 9.239741117902e-01 8.220176811050e+01 -4.893691725354e-06 9.517452080777e-03 -1.294945776262e+07 -1.144478626075e+03 -7.480918283402e+06 -6.573042295838e+06 -9.016053130437e-03 2.438037223545e-06 6.221891033346e-05 0.000000000000e+00 9.001139447288e+06 5.974439091188e+06  9.047324028519e-03
3.500000000000e+01 -1.087324600839e+07 9.437517633713e-01 8.205443786184e+01 -4.831848939877e-06 9.612599133296e-03 -1.100075931894e+07 -1.272819554382e+03 -6.482931952286e+06 -5.642102263275e+06 -7.467278072044e-03 2.054589668807e-06 4.638523489761e-05 0.000000000000e+00 7.708597844833e+06 4.991641705963e+06  7.490579250410e-03
3.600000000000e+01 -7.735473979596e+06 9.636979340718e-01 8.189801256125e+01 -4.735726749611e-06 9.703837932539e-03 -8.836699478789e+06 -1.347220633511e+03 -5.349704349337e+06 -4.599915732447e+06 -5.758658410736e-03 1.636373791153e-06 2.952093386408e-05 0.000000000000e+00 6.262106520191e+06 3.916099169206e+06  5.773476178553e-03
3.700000000000e+01 -4.373865261297e+06 9.829980540760e-01 8.173237003973e+01 -4.629492185007e-06 9.787586442323e-03 -6.405515815248e+06 -5.103734397483e+02 -4.056097024670e+06 -3.421441407471e+06 -3.853333983807e-03 3.785482245271e-06 1.108099799621e-05 0.000000000000e+00 4.627684749129e+06 2.722798013075e+06  3.858891985410e-03
3.800000000000e+01 1.969316168150e+06 1.000000000000e+00 8.155815870310e+01 -5.238569162653e-06 9.777938856803e-03 -2.262549903081e+06 3.445745820880e+03 -2.063872314886e+06 -1.466876398116e+06 -6.125820646168e-04 2.486518543197e-05 -2.520845031796e-05 0.000000000000e+00 1.931099538695e+06 7.173020542908e+05  6.019176352755e-04
3.900000000000e+01 2.143157947716e+06 1.000000000000e+00 8.137922522631e+01 -5.273174731628e-06 9.968899758138e-03 -2.192831209439e+06 -5.418204087442e+02 -2.083551740485e+06 -1.449382139470e+06 -5.556900791731e-04 -1.738740984611e-06 -2.521561065296e-05 0.000000000000e+00 1.908588363131e+06 6.952810101825e+05  5.435294804263e-04
4.000000000000e+01 2.172544096268e+06 1.000000000000e+00 8.118933107933e+01 -5.307536876158e-06 9.970917439342e-03 -2.196469213085e+06 3.409874584396e+04 -2.089897549880e+06 -1.452194435611e+06 -5.578072940660e-04 1.044188841896e-04 -2.540430241034e-05 0.000000000000e+00 1.912853732859e+06 6.996227814110e+05  5.747465187674e-04
4.200000000000e+01 2.229827785101e+06 1.000000000000e+00 8.091450156651e+01 -5.375338669883e-06 1.018418943522e-02 -2.203847165025e+06 -5.418874762093e+02 -2.102990658093e+06 -1.458095205261e+06 -5.614323733309e-04 -1.738968931357e-06 -2.576660065323e-05 0.000000000000e+00 1.921644342793e+06 7.007888153424e+05  5.490110161140e-04
4.400000000000e+01 2.285593823194e+06 1.000000000000e+00 8.061916130710e+01 -5.439971527406e-06 1.018480705558e-02 -2.210400259277e+06 3.882447539075e+04 -2.115572497750e+06 -1.463553158149e+06 -5.647464362184e-04 1.191763906724e-04 -2.610317154823e-05 0.000000000000e+00 1.929841971725e+06 7.074412185370e+05  5.894805136402e-04
5.000000000000e+01 2.437116675730e+06 1.000000000000e+00 7.942409671582e+01 -5.602812989743e-06 1.058872989690e-02 -2.222571179223e+06 -5.420156055101e+02 -2.148132856848e+06 -1.475608844562e+06 -5.728593509885e-04 -1.739395922035e-06 -2.685682746129e-05 0.000000000000e+00 1.948770960211e+06 7.126654555349e+05  5.599223311690e-04
6.500000000000e+01 2.768502561932e+06 1.000000000000e+00 7.676123281614e+01 -5.934217512756e-06 1.105306925389e-02 -2.237410395610e+06 -5.420510900120e+02 -2.217562036857e+06 -1.497542420458e+06 -5.831625743300e-04 -1.739545397742e-06 -2.822830824517e-05 0.000000000000e+00 1.984171617642e+06 7.301467622736e+05  5.695812590272e-04
8.000000000000e+01 3.023555602508e+06 1.000000000000e+00 7.431444530304e+01 -6.168576235241e-06 1.127343532332e-02 -2.239604171317e+06 -5.421093760007e+02 -2.269670328438e+06 -1.510560560551e+06 -5.878629213847e-04 -1.739724313765e-06 -2.900542097777e-05 0.000000000000e+00 2.006611686769e+06 7.445327270174e+05  5.739181101822e-04
1.000000000000e+02 3.324236306499e+06 1.000000000000e+00 7.184336441492e+01 -6.438592293920e-06 1.145792094289e-02 -2.241644557956e+06 -5.421196745548e+02 -2.335361417208e+06 -1.527479738550e+06 -5.901578700722e-04 -1.739761794635e-06 -2.979301598511e-05 0.000000000000e+00 2.034828571238e+06 7.653394047936e+05  5.758475778069e-04
1.860000000000e+02 3.922717717333e+06 1.000000000000e+00 6.661921411040e+01 -6.948067050634e-06 1.167724713422e-02 -2.231140525026e+06 -5.420925230400e+02 -2.461149394953e+06 -1.554567355081e+06 -5.872427461195e-04 -1.739670730105e-06 -3.109463308688e-05 0.000000000000e+00 2.082285758353e+06 8.162561156705e+05  5.723372263936e-04
2.720000000000e+02 4.213038134357e+06 1.000000000000e+00 6.336129399570e+01 -7.158183903124e-06 1.150915674634e-02 -2.211498312326e+06 -5.421037171608e+02 -2.523065222221e+06 -1.562401389827e+06 -5.815079029160e-04 -1.739701324272e-06 -3.114490383028e-05 0.000000000000e+00 2.098988308125e+06 8.489044458206e+05  5.665858435908e-04
3.580000000000e+02 4.354403716316e+06 1.000000000000e+00 6.123180620840e+01 -7.241573821970e-06 1.133326333239e-02 -2.192057725479e+06 -5.420024043311e+02 -2.549267734403e+06 -1.561189883567e+06 -5.760523077579e-04 -1.739401774898e-06 -3.095874370255e-05 0.000000000000e+00 2.100838447816e+06 8.665716434168e+05  5.612218152258e-04
4.440000000000e+02 4.426533293700e+06 1.000000000000e+00 5.967385395555e+01 -7.269372013741e-06 1.116867435332e-02 -2.174528690723e+06 -5.420248146188e+02 -2.559632742763e+06 -1.556649160917e+06 -5.715996081195e-04 -1.739460428629e-06 -3.069130596524e-05 0.000000000000e+00 2.096936864801e+06 8.763726583053e+05  5.568967650916e-04
5.300000000000e+02 4.465496547504e+06 1.000000000000e+00 5.850929470648e+01 -7.274045675008e-06 1.102602772563e-02 -2.159792776991e+06 -5.420210716381e+02 -2.563253584533e+06 -1.551515511514e+06 -5.680175412957e-04 -1.739451106764e-06 -3.042374150390e-05 0.000000000000e+00 2.091520624346e+06 8.821557532650e+05  5.534414056529e-04
6.160000000000e+02 4.488010743679e+06 1.000000000000e+00 5.764205152257e+01 -7.270193492310e-06 1.090780352773e-02 -2.148035380243e+06 -5.420184287491e+02 -2.564268851759e+06 -1.546946095907e+06 -5.651938831812e-04 -1.739445721697e-06 -3.018813737467e-05 0.000000000000e+00 2.086416775970e+06 8.858628513576e+05  5.507289493472e-04
7.020000000000e+02 4.501813772138e+06 1.000000000000e+00 5.701255832344e+01 -7.264217290328e-06 1.090467845136e-02 -2.139130193523e+06 -4.816023279612e+04 -2.564320289189e+06 -1.543308128631e+06 -5.630443212592e-04 -1.475087328206e-04 -3.000192423045e-05 0.000000000000e+00 2.082252870448e+06 8.922367484612e+05  6.052297818763e-04
7.880000000000e+02 4.511438488774e+06 1.000000000000e+00 5.653877467782e+01 -7.258383502975e-06 1.073539488075e-02 -2.132310796767e+06 -5.419853087830e+02 -2.564717871095e+06 -1.540640643384e+06 -5.613967290554e-04 -1.739349059820e-06 -2.983384711130e-05 0.000000000000e+00 2.079223103749e+06 8.904452198586e+05  5.470985264553e-04
8.740000000000e+02 4.519827439821e+06 1.000000000000e+00 5.574293719044e+01 -7.242611485005e-06 1.061986777350e-02 -2.120407030839e+06 -5.419496089719e+02 -2.561938928213e+06 -1.534996572090e+06 -5.587384941094e-04 -1.739243067456e-06 -2.958239505033e-05 0.000000000000e+00 2.072447510380e+06 8.922634663224e+05  5.445586056002e-04
9.370000000000e+02 4.525196511729e+06 1.000000000000e+00 5.522755797772e+01 -7.230190641994e-06 1.052491235009e-02 -2.112068298763e+06 -5.419739850157e+02 -2.560608279940e+06 -1.531276638129e+06 -5.566173463277e-04 -1.739318043878e-06 -2.938050568557e-05 0.000000000000e+00 2.067984405611e+06 8.938770774065e+05  5.425324514907e-04
1.000000000000e+03 4.529388462290e+06 1.000000000000e+00 5.483601786019e+01 -7.219762763980e-06 1.044541111179e-02 -2.105257090991e+06 -5.419724235566e+02 -2.559604726040e+06 -1.528297217090e+06 -5.546860544064e-04 -1.739317082202e-06 -2.921436057651e-05 0.000000000000e+00 2.064386344707e+06 8.952405849787e+05  5.406795493528e-04
1.100000000000e+03 4.533537198826e+06 1.000000000000e+00 5.445290444344e+01 -7.208853963671e-06 1.036223856164e-02 -2.098286588945e+06 -5.419453225761e+02 -2.558654495913e+06 -1.525291552597e+06 -5.525930509228e-04 -1.739237038488e-06 -2.904211752809e-05 0.000000000000e+00 2.060744212485e+06 8.966890922417e+05  5.386679190606e-04
1.200000000000e+03 4.536797507112e+06 1.000000000000e+00 5.411538600356e+01 -7.199465297645e-06 1.029311955982e-02 -2.092361976097e+06 -5.419393122537e+02 -2.557681003209e+06 -1.522674090424e+06 -5.509124040983e-04 -1.739221084214e-06 -2.889733185950e-05 0.000000000000e+00 2.057572356577e+06 8.978605559268e+05  5.370555919839e-04
1.300000000000e+03 4.539702921102e+06 1.000000000000e+00 5.378897487977e+01 -7.190316083388e-06 1.022733155754e-02 -2.086684422134e+06 -5.419521520940e+02 -2.556662969652e+06 -1.520137304413e+06 -5.493347047772e-04 -1.739262303051e-06 -2.875885265111e-05 0.000000000000e+00 2.054494898733e+06 8.989556965435e+05  5.355432090390e-04
1.400000000000e+03 4.542442575659e+06 1.000000000000e+00 5.345626160711e+01 -7.180682706839e-06 1.015935441126e-02 -2.080846649000e+06 -5.419519084066e+02 -2.555568846426e+06 -1.517518566058e+06 -5.477055507793e-04 -1.739264323712e-06 -2.861572211853e-05 0.000000000000e+00 2.051311353828e+06 9.000693974915e+05  5.339815682064e-04
1.500000000000e+03 4.545082263658e+06 1.000000000000e+00 5.310717618857e+01 -7.170105219631e-06 1.008596828440e-02 -2.074610670357e+06 -5.419608914622e+02 -2.554368328210e+06 -1.514719496165e+06 -5.459364372573e-04 -1.739293923760e-06 -2.846147503193e-05 0.000000000000e+00 2.047899498244e+06 9.012538470127e+05  5.322852320310e-04
1.600000000000e+03 4.547643486592e+06 1.000000000000e+00 5.273557688192e+01 -7.158284840777e-06 1.000519933401e-02 -2.067829889587e+06 -5.419380041565e+02 -2.553037476370e+06 -1.511678023011e+06 -5.439734484056e-04 -1.739225940853e-06 -2.829211424500e-05 0.000000000000e+00 2.044181796323e+06 9.025415708571e+05  5.304021795494e-04
1.700000000000e+03 4.550130703290e+06 1.000000000000e+00 5.233767163116e+01 -7.145029405455e-06 9.915826432777e-03 -2.060413800645e+06 -5.419275575564e+02 -2.551559414285e+06 -1.508355213631e+06 -5.417837908885e-04 -1.739196083894e-06 -2.810514585703e-05 0.000000000000e+00 2.040109476187e+06 9.039550496759e+05  5.283008018509e-04
1.800000000000e+03 4.552544125330e+06 1.000000000000e+00 5.191117277764e+01 -7.130220199139e-06 9.817113181455e-03 -2.052307235511e+06 -5.419327989248e+02 -2.549922865736e+06 -1.504727072210e+06 -5.393474339945e-04 -1.739214101039e-06 -2.789906290335e-05 0.000000000000e+00 2.035652391152e+06 9.055112808895e+05  5.259617846162e-04
1.900000000000e+03 4.554883180082e+06 1.000000000000e+00 5.145479350818e+01 -7.116660922621e-06 9.808071857452e-03 -2.043788956438e+06 -6.513978440516e+04 -2.548105148082e+06 -1.500874563526e+06 -5.368076121574e-04 -1.994892644825e-04 -2.768314427304e-05 0.000000000000e+00 2.030922889349e+06 9.141230512051e+05  6.272608279687e-04