 TITLE = "Time curves in points"
 VARIABLES = "TIME"  "PRESSURE1"  "SATURATION1"  "TEMPERATURE1"  "DISPLACEMENT_X1"  "DISPLACEMENT_Y1"  "STRESS_XX"  "STRESS_XY"  "STRESS_YY"  "STRESS_ZZ"  "STRAIN_XX"  "STRAIN_XY"  "STRAIN_YY"  "STRAIN_PLS"  p_(1st_Invariant)  q_(2nd_Invariant)   Effective_Strain
 ZONE T="POINT=POINT2"
0.000000000000e+00 -7.000000000000e+07 8.894919982500e-01 2.500000000000e+01 0.000000000000e+00 0.000000000000e+00 0.000000000000e+00 0.000000000000e+00 0.000000000000e+00 0.000000000000e+00 0.000000000000e+00 0.000000000000e+00 0.000000000000e+00 0.000000000000e+00 -0.000000000000e+00 0.000000000000e+00  0.000000000000e+00
1.000000000000e-03 -6.999999537629e+07 6.684760111000e-01 3.309920063102e+01 0.000000000000e+00 9.512848582972e-05 6.208780353122e+06 7.492678807190e+05 -9.024426995599e+06 -1.022653830087e+06 -6.055985927087e-06 -6.011052297871e-04 -7.691593415178e-03 0.000000000000e+00 1.279433490855e+06 1.326161819707e+07  7.758740120001e-03
1.000000000000e-03 -6.999999537629e+07 6.684760111000e-01 3.309920063102e+01 0.000000000000e+00 9.512848582972e-05 6.208780353122e+06 7.492678807190e+05 -9.024426995599e+06 -1.022653830087e+06 -6.055985927087e-06 -6.011052297871e-04 -7.691593415178e-03 0.000000000000e+00 1.279433490855e+06 1.326161819707e+07  7.758740120001e-03
1.000000000000e-03 -6.999999537629e+07 6.684760111000e-01 3.309920063102e+01 0.000000000000e+00 9.512848582972e-05 6.208780353122e+06 7.492678807190e+05 -9.024426995599e+06 -1.022653830087e+06 -6.055985927087e-06 -6.011052297871e-04 -7.691593415178e-03 0.000000000000e+00 1.279433490855e+06 1.326161819707e+07  7.758740120001e-03
1.000000000000e-03 -6.999999537629e+07 6.684760111000e-01 3.309920063102e+01 0.000000000000e+00 9.512848582972e-05 6.208780353122e+06 7.492678807190e+05 -9.024426995599e+06 -1.022653830087e+06 -6.055985927087e-06 -6.011052297871e-04 -7.691593415178e-03 0.000000000000e+00 1.279433490855e+06 1.326161819707e+07  7.758740120001e-03
2.000000000000e-03 -7.015897611663e+07 6.679155787534e-01 3.680474757739e+01 0.000000000000e+00 9.487537624379e-05 6.139817643898e+06 7.469685075230e+05 -9.098456980144e+06 -1.071152050858e+06 -6.745896380199e-06 -6.016057132451e-04 -7.712465446263e-03 0.000000000000e+00 1.343263795701e+06 1.326628232761e+07  7.779198517638e-03
2.000000000000e-03 -7.015897611663e+07 6.679155787534e-01 3.680474757739e+01 0.000000000000e+00 9.487537624379e-05 6.139817643898e+06 7.469685075230e+05 -9.098456980144e+06 -1.071152050858e+06 -6.745896380199e-06 -6.016057132451e-04 -7.712465446263e-03 0.000000000000e+00 1.343263795701e+06 1.326628232761e+07  7.779198517638e-03
2.000000000000e-03 -7.015897611663e+07 6.679155787534e-01 3.680474757739e+01 0.000000000000e+00 9.487537624379e-05 6.139817643898e+06 7.469685075230e+05 -9.098456980144e+06 -1.071152050858e+06 -6.745896380199e-06 -6.016057132451e-04 -7.712465446263e-03 0.000000000000e+00 1.343263795701e+06 1.326628232761e+07  7.779198517638e-03
2.000000000000e-03 -7.015897611663e+07 6.679155787534e-01 3.680474757739e+01 0.000000000000e+00 9.487537624379e-05 6.139817643898e+06 7.469685075230e+05 -9.098456980144e+06 -1.071152050858e+06 -6.745896380199e-06 -6.016057132451e-04 -7.712465446263e-03 0.000000000000e+00 1.343263795701e+06 1.326628232761e+07  7.779198517638e-03
3.000000000000e-03 -7.037098644128e+07 6.671689084845e-01 3.938015885731e+01 0.000000000000e+00 9.454142855898e-05 6.060056018733e+06 7.443308241308e+05 -9.189205261145e+06 -1.126985624654e+06 -7.771567101158e-06 -6.032817526247e-04 -7.751345756086e-03 0.000000000000e+00 1.418711622355e+06 1.327623992114e+07  7.817610117109e-03
3.000000000000e-03 -7.037098644128e+07 6.671689084845e-01 3.938015885731e+01 0.000000000000e+00 9.454142855898e-05 6.060056018733e+06 7.443308241308e+05 -9.189205261145e+06 -1.126985624654e+06 -7.771567101158e-06 -6.032817526247e-04 -7.751345756086e-03 0.000000000000e+00 1.418711622355e+06 1.327623992114e+07  7.817610117109e-03
3.000000000000e-03 -7.037098644128e+07 6.671689084845e-01 3.938015885731e+01 0.000000000000e+00 9.454142855898e-05 6.060056018733e+06 7.443308241308e+05 -9.189205261145e+06 -1.126985624654e+06 -7.771567101158e-06 -6.032817526247e-04 -7.751345756086e-03 0.000000000000e+00 1.418711622355e+06 1.327623992114e+07  7.817610117109e-03
3.000000000000e-03 -7.037098644128e+07 6.671689084845e-01 3.938015885731e+01 0.000000000000e+00 9.454142855898e-05 6.060056018733e+06 7.443308241308e+05 -9.189205261145e+06 -1.126985624654e+06 -7.771567101158e-06 -6.032817526247e-04 -7.751345756086e-03 0.000000000000e+00 1.418711622355e+06 1.327623992114e+07  7.817610117109e-03
4.000000000000e-03 -7.061767541777e+07 6.663004323391e-01 4.141326417306e+01 0.000000000000e+00 9.409482074109e-05 5.973369158714e+06 7.414947250810e+05 -9.290551234908e+06 -1.187669475157e+06 -8.993123164690e-06 -6.056199871982e-04 -7.800598717638e-03 0.000000000000e+00 1.501617183784e+06 1.328953196081e+07  7.866358508963e-03
4.000000000000e-03 -7.061767541777e+07 6.663004323391e-01 4.141326417306e+01 0.000000000000e+00 9.409482074109e-05 5.973369158714e+06 7.414947250810e+05 -9.290551234908e+06 -1.187669475157e+06 -8.993123164690e-06 -6.056199871982e-04 -7.800598717638e-03 0.000000000000e+00 1.501617183784e+06 1.328953196081e+07  7.866358508963e-03
4.000000000000e-03 -7.061767541777e+07 6.663004323391e-01 4.141326417306e+01 0.000000000000e+00 9.409482074109e-05 5.973369158714e+06 7.414947250810e+05 -9.290551234908e+06 -1.187669475157e+06 -8.993123164690e-06 -6.056199871982e-04 -7.800598717638e-03 0.000000000000e+00 1.501617183784e+06 1.328953196081e+07  7.866358508963e-03
4.000000000000e-03 -7.061767541777e+07 6.663004323391e-01 4.141326417306e+01 0.000000000000e+00 9.409482074109e-05 5.973369158714e+06 7.414947250810e+05 -9.290551234908e+06 -1.187669475157e+06 -8.993123164690e-06 -6.056199871982e-04 -7.800598717638e-03 0.000000000000e+00 1.501617183784e+06 1.328953196081e+07  7.866358508963e-03
1.000000000000e-02 -7.212436584081e+07 6.610101988942e-01 4.814031443773e+01 0.000000000000e+00 9.111852229979e-05 5.485971119031e+06 7.271856984604e+05 -9.885914095696e+06 -1.531736249168e+06 -1.650285330077e-05 -6.229888435543e-04 -8.127856035873e-03 0.000000000000e+00 1.977226408611e+06 1.338858008700e+07  8.191002903541e-03
1.000000000000e-02 -7.212436584081e+07 6.610101988942e-01 4.814031443773e+01 0.000000000000e+00 9.111852229979e-05 5.485971119031e+06 7.271856984604e+05 -9.885914095696e+06 -1.531736249168e+06 -1.650285330077e-05 -6.229888435543e-04 -8.127856035873e-03 0.000000000000e+00 1.977226408611e+06 1.338858008700e+07  8.191002903541e-03
1.000000000000e-02 -7.212436584081e+07 6.610101988942e-01 4.814031443773e+01 0.000000000000e+00 9.111852229979e-05 5.485971119031e+06 7.271856984604e+05 -9.885914095696e+06 -1.531736249168e+06 -1.650285330077e-05 -6.229888435543e-04 -8.127856035873e-03 0.000000000000e+00 1.977226408611e+06 1.338858008700e+07  8.191002903541e-03
1.000000000000e-02 -7.212436584081e+07 6.610101988942e-01 4.814031443773e+01 0.000000000000e+00 9.111852229979e-05 5.485971119031e+06 7.271856984604e+05 -9.885914095696e+06 -1.531736249168e+06 -1.650285330077e-05 -6.229888435543e-04 -8.127856035873e-03 0.000000000000e+00 1.977226408611e+06 1.338858008700e+07  8.191002903541e-03
2.000000000000e-02 -7.521838996300e+07 6.501913288293e-01 5.432127419821e+01 0.000000000000e+00 8.904301045972e-05 4.608573660808e+06 7.080383052651e+05 -1.103526119419e+07 -2.169217081611e+06 -3.075322500996e-05 -6.639003950340e-04 -8.815818492022e-03 0.000000000000e+00 2.865301538332e+06 1.364336219513e+07  8.875290293786e-03
2.000000000000e-02 -7.521838996300e+07 6.501913288293e-01 5.432127419821e+01 0.000000000000e+00 8.904301045972e-05 4.608573660808e+06 7.080383052651e+05 -1.103526119419e+07 -2.169217081611e+06 -3.075322500996e-05 -6.639003950340e-04 -8.815818492022e-03 0.000000000000e+00 2.865301538332e+06 1.364336219513e+07  8.875290293786e-03
2.000000000000e-02 -7.521838996300e+07 6.501913288293e-01 5.432127419821e+01 0.000000000000e+00 8.904301045972e-05 4.608573660808e+06 7.080383052651e+05 -1.103526119419e+07 -2.169217081611e+06 -3.075322500996e-05 -6.639003950340e-04 -8.815818492022e-03 0.000000000000e+00 2.865301538332e+06 1.364336219513e+07  8.875290293786e-03
2.000000000000e-02 -7.521838996300e+07 6.501913288293e-01 5.432127419821e+01 0.000000000000e+00 8.904301045972e-05 4.608573660808e+06 7.080383052651e+05 -1.103526119419e+07 -2.169217081611e+06 -3.075322500996e-05 -6.639003950340e-04 -8.815818492022e-03 0.000000000000e+00 2.865301538332e+06 1.364336219513e+07  8.875290293786e-03
3.000000000000e-02 -7.885304633079e+07 6.375369856497e-01 5.823716280856e+01 0.000000000000e+00 8.906611929961e-05 3.698450722225e+06 6.977488894252e+05 -1.231319403540e+07 -2.855160728065e+06 -4.570195113515e-05 -7.161197988170e-04 -9.613920413093e-03 0.000000000000e+00 3.823301347081e+06 1.399460799745e+07  9.671021774118e-03
3.000000000000e-02 -7.885304633079e+07 6.375369856497e-01 5.823716280856e+01 0.000000000000e+00 8.906611929961e-05 3.698450722225e+06 6.977488894252e+05 -1.231319403540e+07 -2.855160728065e+06 -4.570195113515e-05 -7.161197988170e-04 -9.613920413093e-03 0.000000000000e+00 3.823301347081e+06 1.399460799745e+07  9.671021774118e-03
3.000000000000e-02 -7.885304633079e+07 6.375369856497e-01 5.823716280856e+01 0.000000000000e+00 8.906611929961e-05 3.698450722225e+06 6.977488894252e+05 -1.231319403540e+07 -2.855160728065e+06 -4.570195113515e-05 -7.161197988170e-04 -9.613920413093e-03 0.000000000000e+00 3.823301347081e+06 1.399460799745e+07  9.671021774118e-03
3.000000000000e-02 -7.885304633079e+07 6.375369856497e-01 5.823716280856e+01 0.000000000000e+00 8.906611929961e-05 3.698450722225e+06 6.977488894252e+05 -1.231319403540e+07 -2.855160728065e+06 -4.570195113515e-05 -7.161197988170e-04 -9.613920413093e-03 0.000000000000e+00 3.823301347081e+06 1.399460799745e+07  9.671021774118e-03
4.000000000000e-02 -8.260242327411e+07 6.245443995564e-01 6.095065630048e+01 0.000000000000e+00 9.145970630030e-05 2.860632263783e+06 6.993853178561e+05 -1.357373868984e+07 -3.512730227646e+06 -5.939233608549e-05 -7.737919472391e-04 -1.042299764690e-02 0.000000000000e+00 4.741945551235e+06 1.440255234849e+07  1.047948582472e-02
4.000000000000e-02 -8.260242327411e+07 6.245443995564e-01 6.095065630048e+01 0.000000000000e+00 9.145970630030e-05 2.860632263783e+06 6.993853178561e+05 -1.357373868984e+07 -3.512730227646e+06 -5.939233608549e-05 -7.737919472391e-04 -1.042299764690e-02 0.000000000000e+00 4.741945551235e+06 1.440255234849e+07  1.047948582472e-02
4.000000000000e-02 -8.260242327411e+07 6.245443995564e-01 6.095065630048e+01 0.000000000000e+00 9.145970630030e-05 2.860632263783e+06 6.993853178561e+05 -1.357373868984e+07 -3.512730227646e+06 -5.939233608549e-05 -7.737919472391e-04 -1.042299764690e-02 0.000000000000e+00 4.741945551235e+06 1.440255234849e+07  1.047948582472e-02
4.000000000000e-02 -8.260242327411e+07 6.245443995564e-01 6.095065630048e+01 0.000000000000e+00 9.145970630030e-05 2.860632263783e+06 6.993853178561e+05 -1.357373868984e+07 -3.512730227646e+06 -5.939233608549e-05 -7.737919472391e-04 -1.042299764690e-02 0.000000000000e+00 4.741945551235e+06 1.440255234849e+07  1.047948582472e-02
5.000000000000e-02 -8.623995779398e+07 6.178036143255e-01 6.295232042415e+01 0.000000000000e+00 9.475178805552e-05 1.727605250179e+06 6.859148973816e+05 -1.511378961555e+07 -4.351664190662e+06 -7.902534740587e-05 -8.342798523209e-04 -1.137966308063e-02 0.000000000000e+00 5.912616185345e+06 1.481951951140e+07  1.143204984339e-02
5.000000000000e-02 -8.623995779398e+07 6.178036143255e-01 6.295232042415e+01 0.000000000000e+00 9.475178805552e-05 1.727605250179e+06 6.859148973816e+05 -1.511378961555e+07 -4.351664190662e+06 -7.902534740587e-05 -8.342798523209e-04 -1.137966308063e-02 0.000000000000e+00 5.912616185345e+06 1.481951951140e+07  1.143204984339e-02
5.000000000000e-02 -8.623995779398e+07 6.178036143255e-01 6.295232042415e+01 0.000000000000e+00 9.475178805552e-05 1.727605250179e+06 6.859148973816e+05 -1.511378961555e+07 -4.351664190662e+06 -7.902534740587e-05 -8.342798523209e-04 -1.137966308063e-02 0.000000000000e+00 5.912616185345e+06 1.481951951140e+07  1.143204984339e-02
5.000000000000e-02 -8.623995779398e+07 6.178036143255e-01 6.295232042415e+01 0.000000000000e+00 9.475178805552e-05 1.727605250179e+06 6.859148973816e+05 -1.511378961555e+07 -4.351664190662e+06 -7.902534740587e-05 -8.342798523209e-04 -1.137966308063e-02 0.000000000000e+00 5.912616185345e+06 1.481951951140e+07  1.143204984339e-02
6.000000000000e-02 -8.968091226372e+07 6.112976906321e-01 6.450103477421e+01 0.000000000000e+00 1.004050871579e-04 7.583468733474e+05 6.875129482963e+05 -1.656402900237e+07 -5.112376154694e+06 -9.490712761642e-05 -8.990794774382e-04 -1.229935582612e-02 0.000000000000e+00 6.972686094571e+06 1.530533390880e+07  1.235074476651e-02
6.000000000000e-02 -8.968091226372e+07 6.112976906321e-01 6.450103477421e+01 0.000000000000e+00 1.004050871579e-04 7.583468733474e+05 6.875129482963e+05 -1.656402900237e+07 -5.112376154694e+06 -9.490712761642e-05 -8.990794774382e-04 -1.229935582612e-02 0.000000000000e+00 6.972686094571e+06 1.530533390880e+07  1.235074476651e-02
6.000000000000e-02 -8.968091226372e+07 6.112976906321e-01 6.450103477421e+01 0.000000000000e+00 1.004050871579e-04 7.583468733474e+05 6.875129482963e+05 -1.656402900237e+07 -5.112376154694e+06 -9.490712761642e-05 -8.990794774382e-04 -1.229935582612e-02 0.000000000000e+00 6.972686094571e+06 1.530533390880e+07  1.235074476651e-02
6.000000000000e-02 -8.968091226372e+07 6.112976906321e-01 6.450103477421e+01 0.000000000000e+00 1.004050871579e-04 7.583468733474e+05 6.875129482963e+05 -1.656402900237e+07 -5.112376154694e+06 -9.490712761642e-05 -8.990794774382e-04 -1.229935582612e-02 0.000000000000e+00 6.972686094571e+06 1.530533390880e+07  1.235074476651e-02
7.000000000000e-02 -9.292392938875e+07 6.047947063201e-01 6.575112486100e+01 0.000000000000e+00 1.060837632122e-04 -4.820143972468e+04 7.059196528665e+05 -1.791271731305e+07 -5.791444000819e+06 -1.070847377723e-04 -9.680501215741e-04 -1.317523814805e-02 0.000000000000e+00 7.917454251199e+06 1.584362591946e+07  1.322871360300e-02
7.000000000000e-02 -9.292392938875e+07 6.047947063201e-01 6.575112486100e+01 0.000000000000e+00 1.060837632122e-04 -4.820143972468e+04 7.059196528665e+05 -1.791271731305e+07 -5.791444000819e+06 -1.070847377723e-04 -9.680501215741e-04 -1.317523814805e-02 0.000000000000e+00 7.917454251199e+06 1.584362591946e+07  1.322871360300e-02
7.000000000000e-02 -9.292392938875e+07 6.047947063201e-01 6.575112486100e+01 0.000000000000e+00 1.060837632122e-04 -4.820143972468e+04 7.059196528665e+05 -1.791271731305e+07 -5.791444000819e+06 -1.070847377723e-04 -9.680501215741e-04 -1.317523814805e-02 0.000000000000e+00 7.917454251199e+06 1.584362591946e+07  1.322871360300e-02
7.000000000000e-02 -9.292392938875e+07 6.047947063201e-01 6.575112486100e+01 0.000000000000e+00 1.060837632122e-04 -4.820143972468e+04 7.059196528665e+05 -1.791271731305e+07 -5.791444000819e+06 -1.070847377723e-04 -9.680501215741e-04 -1.317523814805e-02 0.000000000000e+00 7.917454251199e+06 1.584362591946e+07  1.322871360300e-02
8.000000000000e-02 -9.597684695762e+07 5.987103585852e-01 6.679366742605e+01 0.000000000000e+00 1.125404046277e-04 -7.545072241365e+05 7.364603174976e+05 -1.918964658666e+07 -6.417402111875e+06 -1.166291559469e-04 -1.039899501710e-03 -1.401831874206e-02 0.000000000000e+00 8.787185307557e+06 1.640590158364e+07  1.407608223023e-02
8.000000000000e-02 -9.597684695762e+07 5.987103585852e-01 6.679366742605e+01 0.000000000000e+00 1.125404046277e-04 -7.545072241365e+05 7.364603174976e+05 -1.918964658666e+07 -6.417402111875e+06 -1.166291559469e-04 -1.039899501710e-03 -1.401831874206e-02 0.000000000000e+00 8.787185307557e+06 1.640590158364e+07  1.407608223023e-02
8.000000000000e-02 -9.597684695762e+07 5.987103585852e-01 6.679366742605e+01 0.000000000000e+00 1.125404046277e-04 -7.545072241365e+05 7.364603174976e+05 -1.918964658666e+07 -6.417402111875e+06 -1.166291559469e-04 -1.039899501710e-03 -1.401831874206e-02 0.000000000000e+00 8.787185307557e+06 1.640590158364e+07  1.407608223023e-02
8.000000000000e-02 -9.597684695762e+07 5.987103585852e-01 6.679366742605e+01 0.000000000000e+00 1.125404046277e-04 -7.545072241365e+05 7.364603174976e+05 -1.918964658666e+07 -6.417402111875e+06 -1.166291559469e-04 -1.039899501710e-03 -1.401831874206e-02 0.000000000000e+00 8.787185307557e+06 1.640590158364e+07  1.407608223023e-02
9.000000000000e-02 -9.886346754405e+07 5.929822425977e-01 6.768829038096e+01 0.000000000000e+00 1.184489872315e-04 -1.398411094815e+06 7.690015150121e+05 -2.038372088274e+07 -6.997855227128e+06 -1.251768401722e-04 -1.108942350319e-03 -1.481291544891e-02 0.000000000000e+00 9.593329068227e+06 1.694882505758e+07  1.487525323472e-02
9.000000000000e-02 -9.886346754405e+07 5.929822425977e-01 6.768829038096e+01 0.000000000000e+00 1.184489872315e-04 -1.398411094815e+06 7.690015150121e+05 -2.038372088274e+07 -6.997855227128e+06 -1.251768401722e-04 -1.108942350319e-03 -1.481291544891e-02 0.000000000000e+00 9.593329068227e+06 1.694882505758e+07  1.487525323472e-02
9.000000000000e-02 -9.886346754405e+07 5.929822425977e-01 6.768829038096e+01 0.000000000000e+00 1.184489872315e-04 -1.398411094815e+06 7.690015150121e+05 -2.038372088274e+07 -6.997855227128e+06 -1.251768401722e-04 -1.108942350319e-03 -1.481291544891e-02 0.000000000000e+00 9.593329068227e+06 1.694882505758e+07  1.487525323472e-02
9.000000000000e-02 -9.886346754405e+07 5.929822425977e-01 6.768829038096e+01 0.000000000000e+00 1.184489872315e-04 -1.398411094815e+06 7.690015150121e+05 -2.038372088274e+07 -6.997855227128e+06 -1.251768401722e-04 -1.108942350319e-03 -1.481291544891e-02 0.000000000000e+00 9.593329068227e+06 1.694882505758e+07  1.487525323472e-02
1.000000000000e-01 -1.016032165072e+08 5.873455843141e-01 6.846872345115e+01 0.000000000000e+00 1.236869978744e-04 -1.978876597054e+06 8.020991046764e+05 -2.148138848082e+07 -7.528047455185e+06 -1.336651586476e-04 -1.173365380532e-03 -1.555032411379e-02 0.000000000000e+00 1.032943751102e+07 1.745991366830e+07  1.561673041413e-02
1.000000000000e-01 -1.016032165072e+08 5.873455843141e-01 6.846872345115e+01 0.000000000000e+00 1.236869978744e-04 -1.978876597054e+06 8.020991046764e+05 -2.148138848082e+07 -7.528047455185e+06 -1.336651586476e-04 -1.173365380532e-03 -1.555032411379e-02 0.000000000000e+00 1.032943751102e+07 1.745991366830e+07  1.561673041413e-02
1.000000000000e-01 -1.016032165072e+08 5.873455843141e-01 6.846872345115e+01 0.000000000000e+00 1.236869978744e-04 -1.978876597054e+06 8.020991046764e+05 -2.148138848082e+07 -7.528047455185e+06 -1.336651586476e-04 -1.173365380532e-03 -1.555032411379e-02 0.000000000000e+00 1.032943751102e+07 1.745991366830e+07  1.561673041413e-02
1.000000000000e-01 -1.016032165072e+08 5.873455843141e-01 6.846872345115e+01 0.000000000000e+00 1.236869978744e-04 -1.978876597054e+06 8.020991046764e+05 -2.148138848082e+07 -7.528047455185e+06 -1.336651586476e-04 -1.173365380532e-03 -1.555032411379e-02 0.000000000000e+00 1.032943751102e+07 1.745991366830e+07  1.561673041413e-02
2.000000000000e-01 -1.181504402572e+08 5.520553179435e-01 7.270598302650e+01 0.000000000000e+00 2.167467695186e-04 -5.168265828284e+06 1.016494896952e+06 -2.758820117751e+07 -1.046795984596e+07 -1.896706047789e-04 -1.537800328469e-03 -1.977081595904e-02 0.000000000000e+00 1.440814228392e+07 2.037207024639e+07  1.985612463587e-02
2.000000000000e-01 -1.181504402572e+08 5.520553179435e-01 7.270598302650e+01 0.000000000000e+00 2.167467695186e-04 -5.168265828284e+06 1.016494896952e+06 -2.758820117751e+07 -1.046795984596e+07 -1.896706047789e-04 -1.537800328469e-03 -1.977081595904e-02 0.000000000000e+00 1.440814228392e+07 2.037207024639e+07  1.985612463587e-02
2.000000000000e-01 -1.181504402572e+08 5.520553179435e-01 7.270598302650e+01 0.000000000000e+00 2.167467695186e-04 -5.168265828284e+06 1.016494896952e+06 -2.758820117751e+07 -1.046795984596e+07 -1.896706047789e-04 -1.537800328469e-03 -1.977081595904e-02 0.000000000000e+00 1.440814228392e+07 2.037207024639e+07  1.985612463587e-02
2.000000000000e-01 -1.181504402572e+08 5.520553179435e-01 7.270598302650e+01 0.000000000000e+00 2.167467695186e-04 -5.168265828284e+06 1.016494896952e+06 -2.758820117751e+07 -1.046795984596e+07 -1.896706047789e-04 -1.537800328469e-03 -1.977081595904e-02 0.000000000000e+00 1.440814228392e+07 2.037207024639e+07  1.985612463587e-02
3.000000000000e-01 -1.336338813975e+08 5.238622770480e-01 7.551347421724e+01 0.000000000000e+00 3.250811474713e-04 -8.256392312271e+06 1.128748650688e+06 -3.270275141704e+07 -1.305441508401e+07 -2.514311774318e-04 -1.805310326788e-03 -2.327337630021e-02 0.000000000000e+00 1.800451960444e+07 2.252051351270e+07  2.335891790666e-02
3.000000000000e-01 -1.336338813975e+08 5.238622770480e-01 7.551347421724e+01 0.000000000000e+00 3.250811474713e-04 -8.256392312271e+06 1.128748650688e+06 -3.270275141704e+07 -1.305441508401e+07 -2.514311774318e-04 -1.805310326788e-03 -2.327337630021e-02 0.000000000000e+00 1.800451960444e+07 2.252051351270e+07  2.335891790666e-02
3.000000000000e-01 -1.336338813975e+08 5.238622770480e-01 7.551347421724e+01 0.000000000000e+00 3.250811474713e-04 -8.256392312271e+06 1.128748650688e+06 -3.270275141704e+07 -1.305441508401e+07 -2.514311774318e-04 -1.805310326788e-03 -2.327337630021e-02 0.000000000000e+00 1.800451960444e+07 2.252051351270e+07  2.335891790666e-02
3.000000000000e-01 -1.336338813975e+08 5.238622770480e-01 7.551347421724e+01 0.000000000000e+00 3.250811474713e-04 -8.256392312271e+06 1.128748650688e+06 -3.270275141704e+07 -1.305441508401e+07 -2.514311774318e-04 -1.805310326788e-03 -2.327337630021e-02 0.000000000000e+00 1.800451960444e+07 2.252051351270e+07  2.335891790666e-02
4.000000000000e-01 -1.468337436515e+08 5.053221643792e-01 7.753845443330e+01 0.000000000000e+00 4.293683612058e-04 -1.095469407818e+07 1.231781912275e+06 -3.722449046609e+07 -1.533388993227e+07 -2.997085581070e-04 -2.043532575943e-03 -2.636485520920e-02 0.000000000000e+00 2.117102482551e+07 2.447020300690e+07  2.645414369904e-02
4.000000000000e-01 -1.468337436515e+08 5.053221643792e-01 7.753845443330e+01 0.000000000000e+00 4.293683612058e-04 -1.095469407818e+07 1.231781912275e+06 -3.722449046609e+07 -1.533388993227e+07 -2.997085581070e-04 -2.043532575943e-03 -2.636485520920e-02 0.000000000000e+00 2.117102482551e+07 2.447020300690e+07  2.645414369904e-02
4.000000000000e-01 -1.468337436515e+08 5.053221643792e-01 7.753845443330e+01 0.000000000000e+00 4.293683612058e-04 -1.095469407818e+07 1.231781912275e+06 -3.722449046609e+07 -1.533388993227e+07 -2.997085581070e-04 -2.043532575943e-03 -2.636485520920e-02 0.000000000000e+00 2.117102482551e+07 2.447020300690e+07  2.645414369904e-02
4.000000000000e-01 -1.468337436515e+08 5.053221643792e-01 7.753845443330e+01 0.000000000000e+00 4.293683612058e-04 -1.095469407818e+07 1.231781912275e+06 -3.722449046609e+07 -1.533388993227e+07 -2.997085581070e-04 -2.043532575943e-03 -2.636485520920e-02 0.000000000000e+00 2.117102482551e+07 2.447020300690e+07  2.645414369904e-02
5.000000000000e-01 -1.576243856302e+08 4.899377762349e-01 7.910019779374e+01 0.000000000000e+00 5.307870675927e-04 -1.296277200069e+07 1.326058760901e+06 -4.066824636250e+07 -1.705599051104e+07 -3.333008399190e-04 -2.232952396823e-03 -2.874905359367e-02 0.000000000000e+00 2.356233629141e+07 2.600420124523e+07  2.884432903521e-02
5.000000000000e-01 -1.576243856302e+08 4.899377762349e-01 7.910019779374e+01 0.000000000000e+00 5.307870675927e-04 -1.296277200069e+07 1.326058760901e+06 -4.066824636250e+07 -1.705599051104e+07 -3.333008399190e-04 -2.232952396823e-03 -2.874905359367e-02 0.000000000000e+00 2.356233629141e+07 2.600420124523e+07  2.884432903521e-02
5.000000000000e-01 -1.576243856302e+08 4.899377762349e-01 7.910019779374e+01 0.000000000000e+00 5.307870675927e-04 -1.296277200069e+07 1.326058760901e+06 -4.066824636250e+07 -1.705599051104e+07 -3.333008399190e-04 -2.232952396823e-03 -2.874905359367e-02 0.000000000000e+00 2.356233629141e+07 2.600420124523e+07  2.884432903521e-02
5.000000000000e-01 -1.576243856302e+08 4.899377762349e-01 7.910019779374e+01 0.000000000000e+00 5.307870675927e-04 -1.296277200069e+07 1.326058760901e+06 -4.066824636250e+07 -1.705599051104e+07 -3.333008399190e-04 -2.232952396823e-03 -2.874905359367e-02 0.000000000000e+00 2.356233629141e+07 2.600420124523e+07  2.884432903521e-02
6.000000000000e-01 -1.663707386255e+08 4.767885865080e-01 8.034131145665e+01 0.000000000000e+00 6.297998302379e-04 -1.446633855946e+07 1.398130773508e+06 -4.320812072921e+07 -1.833277944662e+07 -3.621837914421e-04 -2.371786694930e-03 -3.052531350425e-02 0.000000000000e+00 2.533574624510e+07 2.712517861058e+07  3.062264332533e-02
6.000000000000e-01 -1.663707386255e+08 4.767885865080e-01 8.034131145665e+01 0.000000000000e+00 6.297998302379e-04 -1.446633855946e+07 1.398130773508e+06 -4.320812072921e+07 -1.833277944662e+07 -3.621837914421e-04 -2.371786694930e-03 -3.052531350425e-02 0.000000000000e+00 2.533574624510e+07 2.712517861058e+07  3.062264332533e-02
6.000000000000e-01 -1.663707386255e+08 4.767885865080e-01 8.034131145665e+01 0.000000000000e+00 6.297998302379e-04 -1.446633855946e+07 1.398130773508e+06 -4.320812072921e+07 -1.833277944662e+07 -3.621837914421e-04 -2.371786694930e-03 -3.052531350425e-02 0.000000000000e+00 2.533574624510e+07 2.712517861058e+07  3.062264332533e-02
6.000000000000e-01 -1.663707386255e+08 4.767885865080e-01 8.034131145665e+01 0.000000000000e+00 6.297998302379e-04 -1.446633855946e+07 1.398130773508e+06 -4.320812072921e+07 -1.833277944662e+07 -3.621837914421e-04 -2.371786694930e-03 -3.052531350425e-02 0.000000000000e+00 2.533574624510e+07 2.712517861058e+07  3.062264332533e-02
7.000000000000e-01 -1.732967288043e+08 4.680998904366e-01 8.134433199461e+01 0.000000000000e+00 7.264610073040e-04 -1.585877902849e+07 1.441361137749e+06 -4.538559270715e+07 -1.945893866597e+07 -3.889001543366e-04 -2.483239242063e-03 -3.201976577745e-02 0.000000000000e+00 2.690110346720e+07 2.801294697793e+07  3.211640676227e-02
7.000000000000e-01 -1.732967288043e+08 4.680998904366e-01 8.134433199461e+01 0.000000000000e+00 7.264610073040e-04 -1.585877902849e+07 1.441361137749e+06 -4.538559270715e+07 -1.945893866597e+07 -3.889001543366e-04 -2.483239242063e-03 -3.201976577745e-02 0.000000000000e+00 2.690110346720e+07 2.801294697793e+07  3.211640676227e-02
7.000000000000e-01 -1.732967288043e+08 4.680998904366e-01 8.134433199461e+01 0.000000000000e+00 7.264610073040e-04 -1.585877902849e+07 1.441361137749e+06 -4.538559270715e+07 -1.945893866597e+07 -3.889001543366e-04 -2.483239242063e-03 -3.201976577745e-02 0.000000000000e+00 2.690110346720e+07 2.801294697793e+07  3.211640676227e-02
7.000000000000e-01 -1.732967288043e+08 4.680998904366e-01 8.134433199461e+01 0.000000000000e+00 7.264610073040e-04 -1.585877902849e+07 1.441361137749e+06 -4.538559270715e+07 -1.945893866597e+07 -3.889001543366e-04 -2.483239242063e-03 -3.201976577745e-02 0.000000000000e+00 2.690110346720e+07 2.801294697793e+07  3.211640676227e-02
8.000000000000e-01 -1.786683261392e+08 4.623781740773e-01 8.216160041108e+01 0.000000000000e+00 8.209668286660e-04 -1.706692220756e+07 1.470618677519e+06 -4.720980065984e+07 -2.041536476171e+07 -4.124388796958e-04 -2.572365001474e-03 -3.325940251097e-02 0.000000000000e+00 2.823069587637e+07 2.872910805955e+07  3.335403537216e-02
8.000000000000e-01 -1.786683261392e+08 4.623781740773e-01 8.216160041108e+01 0.000000000000e+00 8.209668286660e-04 -1.706692220756e+07 1.470618677519e+06 -4.720980065984e+07 -2.041536476171e+07 -4.124388796958e-04 -2.572365001474e-03 -3.325940251097e-02 0.000000000000e+00 2.823069587637e+07 2.872910805955e+07  3.335403537216e-02
8.000000000000e-01 -1.786683261392e+08 4.623781740773e-01 8.216160041108e+01 0.000000000000e+00 8.209668286660e-04 -1.706692220756e+07 1.470618677519e+06 -4.720980065984e+07 -2.041536476171e+07 -4.124388796958e-04 -2.572365001474e-03 -3.325940251097e-02 0.000000000000e+00 2.823069587637e+07 2.872910805955e+07  3.335403537216e-02
8.000000000000e-01 -1.786683261392e+08 4.623781740773e-01 8.216160041108e+01 0.000000000000e+00 8.209668286660e-04 -1.706692220756e+07 1.470618677519e+06 -4.720980065984e+07 -2.041536476171e+07 -4.124388796958e-04 -2.572365001474e-03 -3.325940251097e-02 0.000000000000e+00 2.823069587637e+07 2.872910805955e+07  3.335403537216e-02
9.000000000000e-01 -1.827329828006e+08 4.580426417477e-01 8.284030409014e+01 0.000000000000e+00 9.132514833533e-04 -1.803931153947e+07 1.492587549320e+06 -4.862575821710e+07 -2.116825337212e+07 -4.312994670005e-04 -2.640541738664e-03 -3.422119391383e-02 0.000000000000e+00 2.927777437623e+07 2.926262526861e+07  3.431375717469e-02
9.000000000000e-01 -1.827329828006e+08 4.580426417477e-01 8.284030409014e+01 0.000000000000e+00 9.132514833533e-04 -1.803931153947e+07 1.492587549320e+06 -4.862575821710e+07 -2.116825337212e+07 -4.312994670005e-04 -2.640541738664e-03 -3.422119391383e-02 0.000000000000e+00 2.927777437623e+07 2.926262526861e+07  3.431375717469e-02
9.000000000000e-01 -1.827329828006e+08 4.580426417477e-01 8.284030409014e+01 0.000000000000e+00 9.132514833533e-04 -1.803931153947e+07 1.492587549320e+06 -4.862575821710e+07 -2.116825337212e+07 -4.312994670005e-04 -2.640541738664e-03 -3.422119391383e-02 0.000000000000e+00 2.927777437623e+07 2.926262526861e+07  3.431375717469e-02
9.000000000000e-01 -1.827329828006e+08 4.580426417477e-01 8.284030409014e+01 0.000000000000e+00 9.132514833533e-04 -1.803931153947e+07 1.492587549320e+06 -4.862575821710e+07 -2.116825337212e+07 -4.312994670005e-04 -2.640541738664e-03 -3.422119391383e-02 0.000000000000e+00 2.927777437623e+07 2.926262526861e+07  3.431375717469e-02