 TITLE = "Time curves in points"
 VARIABLES = "TIME"  "PRESSURE1"  "SATURATION1"  "TEMPERATURE1"  "DISPLACEMENT_X1"  "DISPLACEMENT_Y1"  "STRESS_XX"  "STRESS_XY"  "STRESS_YY"  "STRESS_ZZ"  "STRAIN_XX"  "STRAIN_XY"  "STRAIN_YY"  "STRAIN_PLS"  p_(1st_Invariant)  q_(2nd_Invariant)   Effective_Strain
 ZONE T="POINT=POINT18"
0.000000000000e+00 1.000000000000e+05 1.000000000000e+00 2.500000000000e+01 0.000000000000e+00 0.000000000000e+00 -3.130685851467e+07 -1.409868786187e+04 -1.352808692198e+07 -1.044743363099e+07 0.000000000000e+00 0.000000000000e+00 0.000000000000e+00 0.000000000000e+00 1.842745968921e+07 1.950246065449e+07  0.000000000000e+00
1.000000000000e-03 3.083650903743e+05 1.000000000000e+00 2.500000000002e+01 -8.227611764180e-05 6.303349084298e-05 -3.059527162257e+07 -1.351253321011e+04 -1.354545950527e+07 -1.023916933836e+07 1.869483940859e-05 4.354291698784e-08 -8.380798248494e-06 0.000000000000e+00 1.812663348873e+07 1.892088321987e+07  2.400871019283e-05
2.000000000000e-03 3.159689360387e+05 1.000000000000e+00 2.499999999996e+01 -8.198371378693e-05 6.240423274391e-05 -3.059711571776e+07 -1.356060869488e+04 -1.354506863478e+07 -1.023960530575e+07 1.864253751899e-05 3.997159526221e-08 -8.350087127196e-06 0.000000000000e+00 1.812726321943e+07 1.892257555218e+07  2.393616021670e-05
3.000000000000e-03 3.211298787378e+05 1.000000000000e+00 2.499999999991e+01 -8.176411854123e-05 6.190707548856e-05 -3.059871412064e+07 -1.358873113072e+04 -1.354517787934e+07 -1.024011759997e+07 1.860219634010e-05 3.788250002886e-08 -8.335116711526e-06 0.000000000000e+00 1.812800319998e+07 1.892379562874e+07  2.388664191776e-05
4.000000000000e-03 3.246441762047e+05 1.000000000000e+00 2.499999999985e+01 -8.158716379417e-05 6.138368046717e-05 -3.060033594431e+07 -1.360823321300e+04 -1.354593382728e+07 -1.024083093143e+07 1.856845234396e-05 3.643377391619e-08 -8.336699609254e-06 0.000000000000e+00 1.812903356767e+07 1.892467822969e+07  2.385564030758e-05
1.000000000000e-02 3.282972246330e+05 1.000000000000e+00 2.499999999990e+01 -8.056285220965e-05 5.856327293638e-05 -3.061258279668e+07 -1.367052954015e+04 -1.355446077127e+07 -1.024706307035e+07 1.834504870127e-05 3.180604675684e-08 -8.421935226365e-06 0.000000000000e+00 1.813803554610e+07 1.892979030008e+07  2.370598345501e-05
2.000000000000e-02 3.209720129974e+05 1.000000000000e+00 2.499999999908e+01 -7.824837117357e-05 5.672191708781e-05 -3.063603288886e+07 -1.373068179710e+04 -1.356205286439e+07 -1.025637572613e+07 1.781994392068e-05 2.733759338277e-08 -8.358028613190e-06 0.000000000000e+00 1.815148715980e+07 1.894439036336e+07  2.315920738802e-05
3.000000000000e-02 3.083467012268e+05 1.000000000000e+00 2.499999998944e+01 -7.546915014028e-05 5.706019864898e-05 -3.066095301829e+07 -1.377149174093e+04 -1.356327419869e+07 -1.026421816890e+07 1.718562984503e-05 2.430599755557e-08 -8.112101726929e-06 0.000000000000e+00 1.816281512863e+07 1.896368005090e+07  2.237331932207e-05
4.000000000000e-02 2.935043081212e+05 1.000000000000e+00 2.499999996589e+01 -7.238611072874e-05 5.973259002891e-05 -3.068565628381e+07 -1.380202665256e+04 -1.355766486189e+07 -1.026994638432e+07 1.648084226989e-05 2.203768983462e-08 -7.690992644449e-06 0.000000000000e+00 1.817108917667e+07 1.898656810238e+07  2.138983458172e-05
5.000000000000e-02 2.781875990810e+05 1.000000000000e+00 2.500000002203e+01 -6.910605772782e-05 6.340835072983e-05 -3.071076363560e+07 -1.382588662942e+04 -1.354891073219e+07 -1.027485255629e+07 1.573051273334e-05 2.026523441053e-08 -7.183610011215e-06 0.000000000000e+00 1.817817564136e+07 1.901152624844e+07  2.029917201363e-05
6.000000000000e-02 2.628169348885e+05 1.000000000000e+00 2.500000066194e+01 -6.569914378842e-05 6.940142355876e-05 -3.073417316714e+07 -1.384475041741e+04 -1.353357690705e+07 -1.027727606395e+07 1.495103184652e-05 1.886392444596e-08 -6.524051936102e-06 0.000000000000e+00 1.818167537938e+07 1.903877354291e+07  1.906932045849e-05
7.000000000000e-02 2.482548179441e+05 1.000000000000e+00 2.500000344140e+01 -6.220447220133e-05 7.541255532134e-05 -3.075821722784e+07 -1.385968792561e+04 -1.351790542077e+07 -1.027979023584e+07 1.415135026210e-05 1.775428097954e-08 -5.848584632250e-06 0.000000000000e+00 1.818530429482e+07 1.906673629346e+07  1.781103511179e-05
8.000000000000e-02 2.351205277283e+05 1.000000000000e+00 2.500001194545e+01 -5.864696863269e-05 8.220964138294e-05 -3.078186745866e+07 -1.387187838399e+04 -1.350001545331e+07 -1.028152432809e+07 1.333732225817e-05 1.684870407117e-08 -5.119690985930e-06 0.000000000000e+00 1.818780241336e+07 1.909563192072e+07  1.650391532297e-05
9.000000000000e-02 2.243279757791e+05 1.000000000000e+00 2.500003296199e+01 -5.504161765963e-05 8.839172394248e-05 -3.080659168619e+07 -1.388211889812e+04 -1.348363678583e+07 -1.028404106223e+07 1.251247250363e-05 1.608798016460e-08 -4.417861782856e-06 0.000000000000e+00 1.819142317809e+07 1.912457084050e+07  1.521047735735e-05
1.000000000000e-01 2.168958645022e+05 1.000000000000e+00 2.500007760983e+01 -5.140481741398e-05 9.392747065057e-05 -3.083229282375e+07 -1.389113614509e+04 -1.346888144655e+07 -1.028735015734e+07 1.168076807007e-05 1.541812753251e-08 -3.746897076969e-06 0.000000000000e+00 1.819617480921e+07 1.915340730713e+07  1.393724970382e-05
2.000000000000e-01 2.305342198042e+05 1.000000000000e+00 2.502667784582e+01 -1.531974140316e-05 1.887324330258e-04 -3.104427105417e+07 -1.394687219788e+04 -1.322250961038e+07 -1.028751183051e+07 3.813295943449e-06 1.127773503921e-08 5.410061841198e-06 0.000000000000e+00 1.818476416502e+07 1.945602237724e+07  4.814583031477e-06
3.000000000000e-01 2.539215354566e+05 1.000000000000e+00 2.509252326897e+01 1.909596010549e-05 2.983914816978e-04 -3.123648363575e+07 -1.396832963328e+04 -1.295802144137e+07 -1.029099349090e+07 -3.196709701123e-06 9.683754124242e-09 1.536322693311e-05 0.000000000000e+00 1.816183285601e+07 1.974753081240e+07  1.718603364987e-05
4.000000000000e-01 2.778424050118e+05 1.000000000000e+00 2.519884265382e+01 5.083632371458e-05 4.038126887876e-04 -3.142690798826e+07 -1.396517881852e+04 -1.272985659897e+07 -1.031956260277e+07 -9.208475781525e-06 9.917814648899e-09 2.489905952052e-05 0.000000000000e+00 1.815877573000e+07 2.001137735366e+07  3.056209863363e-05
5.000000000000e-01 3.006476895386e+05 1.000000000000e+00 2.534048619113e+01 7.950261361449e-05 5.062272742739e-04 -3.161284463728e+07 -1.395305101001e+04 -1.253336695246e+07 -1.036885664839e+07 -1.428377247960e-05 1.081873756690e-08 3.402816808547e-05 0.000000000000e+00 1.817168941271e+07 2.024870079018e+07  4.298829307460e-05
6.000000000000e-01 3.220253445303e+05 1.000000000000e+00 2.551037587093e+01 1.049803249793e-04 6.060825410881e-04 -3.179297162008e+07 -1.394302533080e+04 -1.236414451087e+07 -1.043443588506e+07 -1.853840304969e-05 1.156350230806e-08 4.274937327811e-05 0.000000000000e+00 1.819718400534e+07 2.046205406859e+07  5.443975400751e-05
7.000000000000e-01 3.420511571212e+05 1.000000000000e+00 2.570176343613e+01 1.273661055837e-04 7.035622717792e-04 -3.196684865622e+07 -1.394018836710e+04 -1.221809842796e+07 -1.051243874118e+07 -2.209944402207e-05 1.177424818281e-08 5.107119101322e-05 0.000000000000e+00 1.823246194178e+07 2.065448233823e+07  6.500228703999e-05
8.000000000000e-01 3.610103636756e+05 1.000000000000e+00 2.590902641467e+01 1.468571887664e-04 7.988315977458e-04 -3.213429131555e+07 -1.394556081881e+04 -1.209151951941e+07 -1.059966165479e+07 -2.507903457738e-05 1.137515177059e-08 5.901240155051e-05 0.000000000000e+00 1.827515749658e+07 2.082882357045e+07  7.477563747139e-05
9.000000000000e-01 3.788546174178e+05 1.000000000000e+00 2.612776099000e+01 1.637704309678e-04 8.918572303817e-04 -3.229609107194e+07 -1.395811004816e+04 -1.198165038176e+07 -1.069395119677e+07 -2.758655682707e-05 1.044292330471e-08 6.659543822262e-05 0.000000000000e+00 1.832389755016e+07 2.098795232872e+07  8.386363739876e-05
1.000000000000e+00 3.956972549986e+05 1.000000000000e+00 2.635461476982e+01 1.783750419622e-04 9.826965721373e-04 -3.245251414997e+07 -1.397607647925e+04 -1.188604873092e+07 -1.079348474716e+07 -2.969959642529e-05 9.108274137528e-09 7.384331712520e-05 0.000000000000e+00 1.837734920935e+07 2.113395280760e+07  9.234727109169e-05
2.000000000000e+00 5.150057620619e+05 1.000000000000e+00 2.862803377283e+01 2.311883419650e-04 1.735802188905e-03 -3.370202003937e+07 -1.415007173304e+04 -1.147963306818e+07 -1.184902826673e+07 -3.690391301878e-05 -3.817087572273e-09 1.281446581828e-04 0.000000000000e+00 1.901022712476e+07 2.204002479890e+07  1.500399666089e-04
3.000000000000e+00 6.107955937441e+05 1.000000000000e+00 3.070915687643e+01 2.473400665650e-04 2.378438384950e-03 -3.474273974886e+07 -1.424924994391e+04 -1.129121860676e+07 -1.283523526088e+07 -3.892867101744e-05 -1.118461180862e-08 1.717734551037e-04 0.000000000000e+00 1.962306453883e+07 2.271891065220e+07  1.941866988339e-04
4.000000000000e+00 6.926709896845e+05 1.000000000000e+00 3.256538026627e+01 2.492583544449e-04 2.938759390147e-03 -3.563159982056e+07 -1.429709858049e+04 -1.119343110896e+07 -1.372251172106e+07 -3.898749087348e-05 -1.473908195445e-08 2.083615449716e-04 0.000000000000e+00 2.018251421686e+07 2.327691674721e+07  2.303433358104e-04
5.000000000000e+00 7.655249436311e+05 1.000000000000e+00 3.421390812661e+01 2.459767808374e-04 3.436085889904e-03 -3.640520189603e+07 -1.431753495079e+04 -1.113406594635e+07 -1.451337795777e+07 -3.834625059914e-05 -1.625721231971e-08 2.399415683748e-04 0.000000000000e+00 2.068421526672e+07 2.376239936489e+07  2.612340932423e-04
6.000000000000e+00 8.320077995269e+05 1.000000000000e+00 3.568672736535e+01 2.413768438864e-04 3.884839751551e-03 -3.709163535599e+07 -1.432507336352e+04 -1.108997160020e+07 -1.522099297959e+07 -3.755950687287e-05 -1.681720869355e-08 2.678622020424e-04 0.000000000000e+00 2.113419997859e+07 2.420204624520e+07  2.884816266361e-04
7.000000000000e+00 8.939780185342e+05 1.000000000000e+00 3.700928531274e+01 2.359651309081e-04 4.292070580340e-03 -3.770263169686e+07 -1.432686168501e+04 -1.105667811631e+07 -1.585656017597e+07 -3.664687509657e-05 -1.695005543287e-08 2.927055987382e-04 0.000000000000e+00 2.153862332971e+07 2.459977421088e+07  3.126440585809e-04
8.000000000000e+00 9.520385371790e+05 1.000000000000e+00 3.821072859464e+01 2.311346039951e-04 4.658612419262e-03 -3.825816489491e+07 2.368147704093e+03 -1.102473038862e+07 -1.643355987222e+07 -3.584954802038e-05 1.223250642043e-06 3.153236459131e-04 0.000000000000e+00 2.190548505192e+07 2.497227271831e+07  3.346982088056e-04
9.000000000000e+00 1.007090272486e+06 1.000000000000e+00 3.931176312092e+01 2.268036266659e-04 5.015626837618e-03 -3.876785938028e+07 -1.432481009950e+04 -1.099479209167e+07 -1.696232199639e+07 -3.514132143655e-05 -1.679765193769e-08 3.360753758405e-04 0.000000000000e+00 2.224165782278e+07 2.532229621877e+07  3.549531016549e-04
1.000000000000e+01 1.059630028864e+06 1.000000000000e+00 4.032707779274e+01 2.226170962169e-04 5.340031785191e-03 -3.923643752447e+07 -1.469460445227e+04 -1.096726904658e+07 -1.744950661400e+07 -3.445022385209e-05 -4.426808957258e-08 3.551930890265e-04 0.000000000000e+00 2.255107106168e+07 2.564992148523e+07  3.736113431393e-04
1.100000000000e+01 1.109950425312e+06 1.000000000000e+00 4.126965474906e+01 2.187482037826e-04 5.643646289577e-03 -3.967107577012e+07 -1.432171996514e+04 -1.094055596138e+07 -1.790133529138e+07 -3.381172210233e-05 -1.656809909991e-08 3.729674973509e-04 0.000000000000e+00 2.283765567429e+07 2.595975778530e+07  3.909714322413e-04
1.200000000000e+01 1.158414524274e+06 1.000000000000e+00 4.214857091185e+01 2.150085468288e-04 5.929133436084e-03 -4.007522783789e+07 -1.432024675894e+04 -1.091535934934e+07 -1.832221706556e+07 -3.319033300719e-05 -1.645866092514e-08 3.895361231247e-04 0.000000000000e+00 2.310426808427e+07 2.625218257189e+07  4.071471771751e-04
1.300000000000e+01 1.205265988208e+06 1.000000000000e+00 4.297047291097e+01 2.112836648787e-04 6.115741127668e-03 -4.045155027344e+07 1.401481572611e+05 -1.089190347945e+07 -1.871533029489e+07 -3.256667495250e-05 1.145833706628e-05 4.050086896672e-04 0.000000000000e+00 2.335292801593e+07 2.652885065088e+07  4.227011874099e-04
1.400000000000e+01 1.251210412290e+06 1.000000000000e+00 4.374060737579e+01 2.076123753877e-04 6.451351741709e-03 -4.080282377813e+07 -1.431756770844e+04 -1.086950956496e+07 -1.908313581138e+07 -3.195262880003e-05 -1.625964574465e-08 4.195018113894e-04 0.000000000000e+00 2.358515638483e+07 2.678817865431e+07  4.363564216321e-04
1.500000000000e+01 1.295786605127e+06 1.000000000000e+00 4.446330203910e+01 2.038921670670e-04 6.690557607641e-03 -4.113062365226e+07 -1.431653593764e+04 -1.084873959985e+07 -1.942778672743e+07 -3.132673295724e-05 -1.618299991431e-08 4.330745869754e-04 0.000000000000e+00 2.380238332652e+07 2.703337670128e+07  4.495573098106e-04
1.600000000000e+01 1.339131722121e+06 1.000000000000e+00 4.514222095896e+01 2.001612068148e-04 6.916484533924e-03 -4.143704431805e+07 -1.431561701499e+04 -1.082938602119e+07 -1.975113023599e+07 -3.069817022596e-05 -1.611473708907e-08 4.458033359292e-04 0.000000000000e+00 2.400585352508e+07 2.726450407992e+07  4.619181090340e-04
1.700000000000e+01 1.381371180158e+06 1.000000000000e+00 4.578051570998e+01 1.964421650844e-04 7.142680970485e-03 -4.172378833599e+07 -4.104982932124e+04 -1.081126246627e+07 -2.005472358486e+07 -3.007233793433e-05 -2.002084794124e-06 4.577528209269e-04 0.000000000000e+00 2.419659146237e+07 2.748257908946e+07  4.735184401132e-04
1.800000000000e+01 1.422623256448e+06 1.000000000000e+00 4.638092712946e+01 1.927216407393e-04 7.331958673250e-03 -4.199205700271e+07 -1.431414281791e+04 -1.079423454774e+07 -2.033984574185e+07 -2.944635115268e-05 -1.600522530527e-08 4.689755380177e-04 0.000000000000e+00 2.437537909743e+07 2.768792427082e+07  4.843704801060e-04
1.900000000000e+01 1.462974445897e+06 1.000000000000e+00 4.694585953511e+01 1.890170419051e-04 7.522983088697e-03 -4.224314467354e+07 -1.431353228688e+04 -1.077816696778e+07 -2.060768566176e+07 -2.882412475830e-05 -1.595987157224e-08 4.795206737270e-04 0.000000000000e+00 2.454299910103e+07 2.788152233732e+07  4.945631114302e-04
2.000000000000e+01 1.502507803805e+06 1.000000000000e+00 4.747743644133e+01 1.852849868217e-04 7.703715460378e-03 -4.247770100154e+07 -1.431326694390e+04 -1.076298412368e+07 -2.085915857537e+07 -2.819579443565e-05 -1.594016037949e-08 4.894250304421e-04 0.000000000000e+00 2.469994790020e+07 2.806348705214e+07  5.041146611232e-04
2.100000000000e+01 1.541141802716e+06 1.000000000000e+00 4.798108162280e+01 1.819820956164e-04 7.876430779151e-03 -4.270063987896e+07 -1.431284076203e+04 -1.074602745597e+07 -2.109687396264e+07 -2.764695264117e-05 -1.590850115482e-08 4.988842781983e-04 0.000000000000e+00 2.484784709919e+07 2.823969909028e+07  5.132665075727e-04
2.200000000000e+01 1.579012601247e+06 1.000000000000e+00 4.845978692331e+01 1.788916422835e-04 8.041534180861e-03 -4.291229186995e+07 -1.431248332776e+04 -1.072865285682e+07 -2.132237325509e+07 -2.713262430111e-05 -1.588194889482e-08 5.079053084579e-04 0.000000000000e+00 2.498777266062e+07 2.840897170687e+07  5.220007531918e-04
2.300000000000e+01 1.616195875671e+06 1.000000000000e+00 4.891513181229e+01 1.758525192780e-04 8.199308841017e-03 -4.311256898951e+07 -1.431223691001e+04 -1.071151805670e+07 -2.153636736711e+07 -2.662313601003e-05 -1.586364357627e-08 5.164900966231e-04 0.000000000000e+00 2.512015147110e+07 2.857043200264e+07  5.303031190988e-04
2.400000000000e+01 1.652744296754e+06 1.000000000000e+00 4.934819136568e+01 1.728334968909e-04 8.350021726649e-03 -4.330196980805e+07 -1.431192562426e+04 -1.069483310725e+07 -2.173943870034e+07 -2.611537403551e-05 -1.584051949175e-08 5.246524728371e-04 0.000000000000e+00 2.524541387188e+07 2.872414187830e+07  5.381855872602e-04
2.500000000000e+01 1.688706439351e+06 1.000000000000e+00 4.975985594796e+01 1.698220789509e-04 8.493931539138e-03 -4.348091838279e+07 -1.431163893620e+04 -1.067865360256e+07 -2.193204005040e+07 -2.560827095228e-05 -1.581922266410e-08 5.324071902993e-04 0.000000000000e+00 2.536387067859e+07 2.887024997795e+07  5.456621923502e-04
2.600000000000e+01 1.724115300496e+06 1.000000000000e+00 5.015093060187e+01 1.668180137644e-04 8.631284220418e-03 -4.364984342631e+07 -1.431138268493e+04 -1.066298301918e+07 -2.211458174137e+07 -2.510250976135e-05 -1.580018685555e-08 5.397693604895e-04 0.000000000000e+00 2.547580272895e+07 2.900897100508e+07  5.527482834971e-04
2.700000000000e+01 1.758998238253e+06 1.000000000000e+00 5.052216683782e+01 1.638203634597e-04 8.762316634795e-03 -4.380911407637e+07 -1.431114526306e+04 -1.064780127223e+07 -2.228743107569e+07 -2.459815863178e-05 -1.578254980280e-08 5.467533720793e-04 0.000000000000e+00 2.558144880810e+07 2.914050202803e+07  5.594581719971e-04
2.800000000000e+01 1.793391627654e+06 1.000000000000e+00 5.087427315564e+01 1.608331758118e-04 8.887247773128e-03 -4.395911705827e+07 -1.431093987006e+04 -1.063309251358e+07 -2.245094710709e+07 -2.409624536449e-05 -1.576729203676e-08 5.533731499955e-04 0.000000000000e+00 2.568105222631e+07 2.926506622761e+07  5.658062284235e-04
2.900000000000e+01 1.827319646778e+06 1.000000000000e+00 5.120791821718e+01 1.578581531337e-04 9.006286324870e-03 -4.410019388999e+07 -1.431075820488e+04 -1.061883450408e+07 -2.260545956273e+07 -2.359720790454e-05 -1.575379690897e-08 5.596417672721e-04 0.000000000000e+00 2.577482931893e+07 2.938286438735e+07  5.718056660923e-04
3.000000000000e+01 1.860795157955e+06 1.000000000000e+00 5.152373279860e+01 1.548936486845e-04 9.119634142507e-03 -4.423263235946e+07 -1.431055917173e+04 -1.060499617285e+07 -2.275126618135e+07 -2.310067665052e-05 -1.573901158924e-08 5.655714368380e-04 0.000000000000e+00 2.586296490455e+07 2.949406815149e+07  5.774684190993e-04
3.100000000000e+01 1.893730302058e+06 1.000000000000e+00 5.182511086886e+01 1.522903506489e-04 9.228840101636e-03 -4.435980263543e+07 -1.431043620856e+04 -1.058952931917e+07 -2.288997890581e+07 -2.267195713531e-05 -1.572987718258e-08 5.712981068830e-04 0.000000000000e+00 2.594643695347e+07 2.960309932761e+07  5.829648287002e-04
3.200000000000e+01 1.926193299663e+06 1.000000000000e+00 5.211364605694e+01 1.498692095017e-04 9.334011334654e-03 -4.448152791181e+07 -1.431033977080e+04 -1.057354328093e+07 -2.302242613980e+07 -2.227371299552e-05 -1.572271323472e-08 5.768113427085e-04 0.000000000000e+00 2.602583244418e+07 2.970875614813e+07  5.882645445796e-04
3.300000000000e+01 1.958214427055e+06 1.000000000000e+00 5.238991562677e+01 1.475334260918e-04 9.435206275110e-03 -4.459764848917e+07 -1.431026377909e+04 -1.055750245179e+07 -2.314889124736e+07 -2.188948758823e-05 -1.571706813645e-08 5.821044203574e-04 0.000000000000e+00 2.610134739611e+07 2.981044305246e+07  5.933520658867e-04
3.400000000000e+01 1.989824626573e+06 1.000000000000e+00 5.265418163189e+01 1.452402713301e-04 9.532452146699e-03 -4.470814348746e+07 -1.431017129530e+04 -1.054165873271e+07 -2.326953017972e+07 -2.151271289386e-05 -1.571019791180e-08 5.871737759828e-04 0.000000000000e+00 2.617311079996e+07 2.990788158089e+07  5.982203119419e-04
3.500000000000e+01 2.021048805477e+06 1.000000000000e+00 5.290663242468e+01 1.429923720189e-04 9.625812165551e-03 -4.481319874262e+07 -1.431012689652e+04 -1.052605261374e+07 -2.338447464531e+07 -2.114539936355e-05 -1.570689971678e-08 5.920227976948e-04 0.000000000000e+00 2.624124200055e+07 3.000115707703e+07  6.028736850571e-04
3.600000000000e+01 2.051915338273e+06 1.000000000000e+00 5.314745065230e+01 1.408043681144e-04 9.715335577162e-03 -4.491307673290e+07 -1.431005623643e+04 -1.051073482305e+07 -2.349388170708e+07 -2.079146242258e-05 -1.570165068120e-08 5.966554350719e-04 0.000000000000e+00 2.630589775435e+07 3.009041688075e+07  6.073181480144e-04
3.700000000000e+01 2.082462268159e+06 1.000000000000e+00 5.337683015380e+01 1.387500880015e-04 9.801090534540e-03 -4.500850804284e+07 -1.430955205911e+04 -1.049565067828e+07 -2.359802167713e+07 -2.046799790428e-05 -1.566419750885e-08 6.010837593368e-04 0.000000000000e+00 2.636739346608e+07 3.017631193713e+07  6.115746941619e-04
3.800000000000e+01 2.113406986777e+06 1.000000000000e+00 5.359501613291e+01 1.392024828690e-04 9.883172769706e-03 -4.511956208378e+07 -1.429708909444e+04 -1.047868778319e+07 -2.370236772864e+07 -2.071715179715e-05 -1.473837727642e-08 6.055895202106e-04 0.000000000000e+00 2.643353919854e+07 3.027832000042e+07  6.162093459500e-04
3.900000000000e+01 2.143157947255e+06 1.000000000000e+00 5.380215920335e+01 1.363740438097e-04 9.961652691787e-03 -4.519759494359e+07 -1.431161013426e+04 -1.046484883283e+07 -2.379387939366e+07 -2.021651046101e-05 -1.581708309169e-08 6.095025430675e-04 0.000000000000e+00 2.648544105669e+07 3.034919254578e+07  6.198581068191e-04
4.000000000000e+01 2.172544102772e+06 1.000000000000e+00 5.399845057479e+01 1.333979852610e-04 1.003613228524e-02 -4.526908293293e+07 -1.359081951994e+04 -1.045138674940e+07 -2.387974243726e+07 -1.968257987411e-05 3.772736254373e-08 6.131917620716e-04 0.000000000000e+00 2.653340403986e+07 3.041461572263e+07  6.232661880193e-04
4.200000000000e+01 2.229827603565e+06 1.000000000000e+00 5.435968904660e+01 1.282233224253e-04 1.017694192955e-02 -4.540065019071e+07 -1.431100359536e+04 -1.042139460984e+07 -2.403621757468e+07 -1.875743005908e-05 -1.577202591653e-08 6.201176895021e-04 0.000000000000e+00 2.661942079174e+07 3.053974406565e+07  6.297059670603e-04
4.400000000000e+01 2.285593807875e+06 1.000000000000e+00 5.469219717116e+01 1.233805391150e-04 1.030234599903e-02 -4.552000516724e+07 -4.259090009076e+03 -1.039103612774e+07 -2.417888768329e+07 -1.789143943875e-05 7.309415547792e-07 6.265444657282e-04 0.000000000000e+00 2.669664299276e+07 3.065609825629e+07  6.356803098498e-04
5.000000000000e+01 2.437116678549e+06 1.000000000000e+00 5.537543881087e+01 1.093220119978e-04 1.058148201298e-02 -4.573827707927e+07 -1.430948097723e+04 -1.033119938536e+07 -2.446434992233e+07 -1.539579872127e-05 -1.565891714088e-08 6.393698564669e-04 0.000000000000e+00 2.684460879566e+07 3.087060333205e+07  6.472051099389e-04
6.500000000000e+01 2.768502505123e+06 1.000000000000e+00 5.631568923656e+01 8.294151342725e-05 1.104582168526e-02 -4.593516522371e+07 -1.430728104687e+04 -1.011748614145e+07 -2.478608548441e+07 -1.075860892317e-05 -1.549549374249e-08 6.592579549750e-04 0.000000000000e+00 2.694624561652e+07 3.118780806287e+07  6.647025636336e-04
8.000000000000e+01 3.023556376191e+06 1.000000000000e+00 5.663857088950e+01 6.340421546251e-05 1.126618835402e-02 -4.589883712356e+07 -1.430559066555e+04 -9.966234599663e+06 -2.484104643480e+07 -7.367872760641e-06 -1.536992255914e-08 6.669172761129e-04 0.000000000000e+00 2.690203938601e+07 3.127174225929e+07  6.706315687975e-04
1.000000000000e+02 3.324236305565e+06 1.000000000000e+00 5.678970353973e+01 4.518642771438e-05 1.145067473797e-02 -4.577230382332e+07 -1.430400139284e+04 -9.782609287477e+06 -2.479923220799e+07 -4.221164318580e-06 -1.525186230041e-08 6.721845449986e-04 0.000000000000e+00 2.678471510626e+07 3.130996676243e+07  6.743050369661e-04
1.860000000000e+02 3.922717203253e+06 1.000000000000e+00 5.651434056397e+01 1.194111867061e-05 1.167000300274e-02 -4.520801732366e+07 -1.430104280011e+04 -9.307801930530e+06 -2.438801216063e+07 1.464161052388e-06 -1.503208112605e-08 6.745463593544e-04 0.000000000000e+00 2.630127713827e+07 3.122268444549e+07  6.738154724080e-04
2.720000000000e+02 4.213038208736e+06 1.000000000000e+00 5.565863463808e+01 -2.815600267225e-06 1.150191354787e-02 -4.462989876018e+07 -1.429965789024e+04 -9.181077257204e+06 -2.387555219212e+07 3.902908865697e-06 -1.492920210746e-08 6.602190483907e-04 0.000000000000e+00 2.589550940317e+07 3.084874930942e+07  6.582762721281e-04
3.580000000000e+02 4.354403692560e+06 1.000000000000e+00 5.491482482712e+01 -1.084132150189e-05 1.132602080638e-02 -4.417523005290e+07 -1.429889945017e+04 -9.107105154630e+06 -2.345576161121e+07 5.198382131148e-06 -1.487286084497e-08 6.473743620525e-04 0.000000000000e+00 2.557936560625e+07 3.053649394779e+07  6.447908879377e-04
4.440000000000e+02 4.426532454154e+06 1.000000000000e+00 5.428887025688e+01 -1.599322852448e-05 1.116143204657e-02 -4.381514721214e+07 -1.429840348744e+04 -9.072244690484e+06 -2.311761444808e+07 6.013135871373e-06 -1.483601789957e-08 6.361094275185e-04 0.000000000000e+00 2.533500211690e+07 3.027152768231e+07  6.331242767613e-04
5.300000000000e+02 4.465496890038e+06 1.000000000000e+00 5.377624843668e+01 -1.945497200665e-05 1.101878557421e-02 -4.353097756260e+07 -1.429806256144e+04 -9.056774475913e+06 -2.284789954985e+07 6.550026634148e-06 -1.481069196812e-08 6.266660535542e-04 0.000000000000e+00 2.514521719612e+07 3.005375810075e+07  6.234168483789e-04
6.160000000000e+02 4.488012316304e+06 1.000000000000e+00 5.336720480959e+01 -2.179630606829e-05 1.090056144126e-02 -4.331024223744e+07 -1.429783722395e+04 -9.051834579424e+06 -2.263674706049e+07 6.905960535437e-06 -1.479395261120e-08 6.190067286760e-04 0.000000000000e+00 2.499960795911e+07 2.987961656197e+07  6.155828027603e-04
7.020000000000e+02 4.501822567795e+06 1.000000000000e+00 5.305912778210e+01 -2.339388334740e-05 1.080955624859e-02 -4.314639900343e+07 -1.359387759017e+04 -9.051086635217e+06 -2.247934328484e+07 7.145140417392e-06 3.750019161238e-08 6.131880835084e-04 0.000000000000e+00 2.489227630783e+07 2.974841762994e+07  6.096469208059e-04
7.880000000000e+02 4.511441110127e+06 1.000000000000e+00 5.280009950185e+01 -2.437034683866e-05 1.072815285389e-02 -4.301543493916e+07 -1.429760115853e+04 -9.060577121725e+06 -2.235210781260e+07 7.283630978788e-06 -1.477641632297e-08 6.081096907549e-04 0.000000000000e+00 2.480937329116e+07 2.963588594910e+07  6.045007868839e-04
8.740000000000e+02 4.519827158621e+06 1.000000000000e+00 5.241137378788e+01 -2.638710864150e-05 1.061262585589e-02 -4.280845768603e+07 -1.429740272347e+04 -9.059151318248e+06 -2.215328032941e+07 7.586336718894e-06 -1.476167543271e-08 6.007776283653e-04 0.000000000000e+00 2.467362977790e+07 2.947125271341e+07  5.970206114707e-04
9.370000000000e+02 4.525201000816e+06 1.000000000000e+00 5.210907666811e+01 -2.726708954904e-05 1.051767039044e-02 -4.265522252158e+07 -1.429730097742e+04 -9.065188255033e+06 -2.200318380087e+07 7.702914624465e-06 -1.475411715459e-08 5.949783853677e-04 0.000000000000e+00 2.457453152583e+07 2.934442076929e+07  5.911645683696e-04
1.000000000000e+03 4.529391016030e+06 1.000000000000e+00 5.185429705450e+01 -2.772019788165e-05 1.043816912102e-02 -4.252654383080e+07 -1.429725074847e+04 -9.066836375349e+06 -2.187581680328e+07 7.751634657162e-06 -1.475038586138e-08 5.901863952738e-04 0.000000000000e+00 2.448973233647e+07 2.924103072602e+07  5.863490089896e-04
1.100000000000e+03 4.533536312294e+06 1.000000000000e+00 5.158773666140e+01 -2.801421460294e-05 1.035499656365e-02 -4.239257138677e+07 -1.429721625364e+04 -9.067263795941e+06 -2.174238525265e+07 7.771724983430e-06 -1.474782338870e-08 5.852144906285e-04 0.000000000000e+00 2.440074014512e+07 2.913474080717e+07  5.813675896761e-04
1.200000000000e+03 4.536797684023e+06 1.000000000000e+00 5.136659200274e+01 -2.838780332519e-05 1.028587752438e-02 -4.228095910868e+07 -1.429717795205e+04 -9.068577871893e+06 -2.163182324117e+07 7.810734885975e-06 -1.474497812753e-08 5.810590930953e-04 0.000000000000e+00 2.432712007391e+07 2.904552840075e+07  5.771933639355e-04
1.300000000000e+03 4.539703052678e+06 1.000000000000e+00 5.115655277031e+01 -2.878200901331e-05 1.022008945238e-02 -4.217487382626e+07 -1.429713901925e+04 -9.070262373173e+06 -2.152691713209e+07 7.854532753039e-06 -1.474208597665e-08 5.771000132821e-04 0.000000000000e+00 2.425735111051e+07 2.896051526938e+07  5.732131093327e-04
1.400000000000e+03 4.542442560716e+06 1.000000000000e+00 5.094021066403e+01 -2.916443375027e-05 1.015211226427e-02 -4.206581117322e+07 -1.429710006194e+04 -9.072105605151e+06 -2.141895930968e+07 7.895569319050e-06 -1.473919200512e-08 5.730216884047e-04 0.000000000000e+00 2.418562536268e+07 2.887319796828e+07  5.691149827466e-04
1.500000000000e+03 4.545082448939e+06 1.000000000000e+00 5.070749549443e+01 -2.951632510878e-05 1.007872608639e-02 -4.194887044635e+07 -1.429705426381e+04 -9.074028744174e+06 -2.130293139671e+07 7.929473835615e-06 -1.473578985802e-08 5.686406493309e-04 0.000000000000e+00 2.410861019575e+07 2.877983063453e+07  5.647176676247e-04
1.600000000000e+03 4.547643487145e+06 1.000000000000e+00 5.045226663419e+01 -2.982620762079e-05 9.997957146090e-03 -4.182107268716e+07 -1.429701279058e+04 -9.076005073036e+06 -2.117578250034e+07 7.953574454565e-06 -1.473270898956e-08 5.638445695363e-04 0.000000000000e+00 2.402428675351e+07 2.867815632297e+07  5.599101524609e-04
1.700000000000e+03 4.550130779120e+06 1.000000000000e+00 5.017073122020e+01 -3.008704112496e-05 9.908584235768e-03 -4.168057996090e+07 -1.429696540066e+04 -9.078023513903e+06 -2.103563042696e+07 7.966227275754e-06 -1.472918859533e-08 5.585639504358e-04 0.000000000000e+00 2.393141130059e+07 2.856681831816e+07  5.546237470367e-04
1.800000000000e+03 4.552544175310e+06 1.000000000000e+00 4.986060268505e+01 -3.029454145205e-05 9.809870941071e-03 -4.152628484210e+07 -1.429692326290e+04 -9.080078298866e+06 -2.088134093228e+07 7.966436171792e-06 -1.472605836175e-08 5.527568771918e-04 0.000000000000e+00 2.382923469108e+07 2.844504398169e+07  5.488170256634e-04
1.900000000000e+03 4.554883461242e+06 1.000000000000e+00 4.952059342245e+01 -3.050841391969e-05 9.699248397762e-03 -4.135705398135e+07 -9.196096457044e+03 -9.082283092921e+06 -2.071215745439e+07 7.968196106770e-06 3.641925043587e-07 5.463910270912e-04 0.000000000000e+00 2.371716484289e+07 2.831189744243e+07  5.424511901441e-04