 TITLE = "Time curves in points"
 VARIABLES = "TIME"  "PRESSURE1"  "SATURATION1"  "TEMPERATURE1"  "DISPLACEMENT_X1"  "DISPLACEMENT_Y1"  "STRESS_XX"  "STRESS_XY"  "STRESS_YY"  "STRESS_ZZ"  "STRAIN_XX"  "STRAIN_XY"  "STRAIN_YY"  "STRAIN_PLS"  p_(1st_Invariant)  q_(2nd_Invariant)   Effective_Strain
 ZONE T="POINT=POINT9"
0.000000000000e+00 1.000000000000e+05 1.000000000000e+00 2.500000000000e+01 0.000000000000e+00 0.000000000000e+00 -6.854419775061e+07 7.586938602830e+05 -6.954707405871e+06 -1.965222756120e+07 0.000000000000e+00 0.000000000000e+00 0.000000000000e+00 0.000000000000e+00 3.171704423923e+07 5.633990941714e+07  0.000000000000e+00
1.000000000000e-03 1.375363518991e+05 1.000000000000e+00 2.500341908267e+01 0.000000000000e+00 -1.420359050965e-03 -9.972037397458e+07 1.527923394162e+06 2.404115296901e+07 -1.970740947441e+07 -1.155922645829e-03 5.714276537388e-05 1.153324427843e-03 0.000000000000e+00 3.179554349333e+07 1.087357670106e+08  2.002314688063e-03
2.000000000000e-03 1.596543381878e+05 1.000000000000e+00 2.501822584451e+01 0.000000000000e+00 -1.419746644855e-03 -9.976368077539e+07 1.543554889502e+06 2.413955750922e+07 -1.969563951984e+07 -1.157968353885e-03 5.830396217054e-05 1.156542283881e-03 0.000000000000e+00 3.177325426200e+07 1.088547737967e+08  2.006967409721e-03
3.000000000000e-03 1.750698773759e+05 1.000000000000e+00 2.505297113902e+01 0.000000000000e+00 -1.418966144473e-03 -9.981614123967e+07 1.559299874141e+06 2.423177721973e+07 -1.969498408977e+07 -1.159941229961e-03 5.947358960086e-05 1.159943242869e-03 0.000000000000e+00 3.175978270324e+07 1.089757650876e+08  2.011717996897e-03
4.000000000000e-03 1.857698443473e+05 1.000000000000e+00 2.511281051277e+01 0.000000000000e+00 -1.418191192769e-03 -9.988024307950e+07 1.575222807158e+06 2.431914836490e+07 -1.970757133788e+07 -1.161854629082e-03 6.065643605361e-05 1.163655983191e-03 0.000000000000e+00 3.175622201749e+07 1.091017555736e+08  2.016689893556e-03
1.000000000000e-02 2.016789111229e+05 1.000000000000e+00 2.596897761954e+01 0.000000000000e+00 -1.415332185854e-03 -1.002161950024e+08 1.595340942429e+06 2.429830554089e+07 -2.010223021164e+07 -1.159674085194e-03 6.215092610230e-05 1.177540579324e-03 0.000000000000e+00 3.200670655773e+07 1.093361478458e+08  2.026967514979e-03
2.000000000000e-02 1.999775638125e+05 1.000000000000e+00 2.761199352605e+01 0.000000000000e+00 -1.407823415066e-03 -1.008668617473e+08 1.618749083102e+06 2.418382711878e+07 -2.089152578305e+07 -1.154525014493e-03 6.388981655228e-05 1.202605216299e-03 0.000000000000e+00 3.252485347051e+07 1.097297559444e+08  2.044473244166e-03
3.000000000000e-02 1.899417015586e+05 1.000000000000e+00 2.912015010583e+01 0.000000000000e+00 -1.398339777041e-03 -1.014755466442e+08 1.640615448139e+06 2.407896462347e+07 -2.162325599764e+07 -1.149954759837e-03 6.551417509790e-05 1.225888874443e-03 0.000000000000e+00 3.300661267279e+07 1.101026028420e+08  2.061017357949e-03
4.000000000000e-02 1.766791345043e+05 1.000000000000e+00 3.042920762064e+01 0.000000000000e+00 -1.386686532012e-03 -1.020049062571e+08 1.660848400634e+06 2.398673951064e+07 -2.226118990481e+07 -1.145922000334e-03 6.701719442611e-05 1.246158058233e-03 0.000000000000e+00 3.342645221707e+07 1.104272986643e+08  2.075456813528e-03
5.000000000000e-02 1.624755312923e+05 1.000000000000e+00 3.155418858050e+01 0.000000000000e+00 -1.375145412192e-03 -1.024643431322e+08 1.679927969064e+06 2.391328091392e+07 -2.281027844364e+07 -1.142592081397e-03 6.843453379520e-05 1.263824313226e-03 0.000000000000e+00 3.378711355397e+07 1.107160734218e+08  2.088265803960e-03
6.000000000000e-02 1.480496644923e+05 1.000000000000e+00 3.252595810313e+01 0.000000000000e+00 -1.406495821309e-03 -1.027397434520e+08 1.708714635905e+06 2.398794676426e+07 -2.320747128438e+07 -1.138068359192e-03 7.057297190337e-05 1.281350493180e-03 0.000000000000e+00 3.398642265739e+07 1.109734551655e+08  2.100063037859e-03
7.000000000000e-02 1.342905906140e+05 1.000000000000e+00 3.337380556940e+01 0.000000000000e+00 -1.347453143041e-03 -1.032173834077e+08 1.715356267313e+06 2.381489575335e+07 -2.369716403736e+07 -1.137620683862e-03 7.106635023654e-05 1.293111472171e-03 0.000000000000e+00 3.436655056389e+07 1.112108711994e+08  2.110104200152e-03
8.000000000000e-02 1.218339376449e+05 1.000000000000e+00 3.412173675870e+01 0.000000000000e+00 -1.333503284102e-03 -1.035267624938e+08 1.732048681442e+06 2.377896503411e+07 -2.406085816198e+07 -1.135603268147e-03 7.230635814323e-05 1.305285541514e-03 0.000000000000e+00 3.460288520722e+07 1.114186403882e+08  2.119277301960e-03
9.000000000000e-02 1.115908105118e+05 1.000000000000e+00 3.478854305609e+01 0.000000000000e+00 -1.326814789202e-03 -1.037927635343e+08 1.749404876231e+06 2.376489217527e+07 -2.437698809758e+07 -1.133741337758e-03 7.359567547042e-05 1.316504804365e-03 0.000000000000e+00 3.480161981887e+07 1.116105372693e+08  2.127763898854e-03
1.000000000000e-01 1.045672230847e+05 1.000000000000e+00 3.538879924497e+01 0.000000000000e+00 -1.308871077491e-03 -1.040566301461e+08 1.764052023769e+06 2.372662483817e+07 -2.467672435478e+07 -1.132409036642e-03 7.468374928752e-05 1.326216507111e-03 0.000000000000e+00 3.500224322090e+07 1.117839102648e+08  2.135357814143e-03
2.000000000000e-01 1.257458994568e+05 1.000000000000e+00 3.885749378687e+01 0.000000000000e+00 -1.162497176015e-03 -1.051191953449e+08 1.778772381038e+06 2.297842649607e+07 -2.643071877949e+07 -1.106727379681e-03 7.577726154177e-05 1.363574647323e-03 0.000000000000e+00 3.619049587612e+07 1.119399948398e+08  2.147210583126e-03
3.000000000000e-01 1.562400302916e+05 1.000000000000e+00 4.116519253718e+01 0.000000000000e+00 -1.005205620433e-03 -1.057334397769e+08 1.788219064786e+06 2.237637175883e+07 -2.760198887435e+07 -1.086037855060e-03 7.647901519168e-05 1.384716932034e-03 0.000000000000e+00 3.698635229748e+07 1.118786626841e+08  2.149027996679e-03
4.000000000000e-01 1.873099541939e+05 1.000000000000e+00 4.284986261743e+01 0.000000000000e+00 -8.583814946694e-04 -1.061474772569e+08 1.795465727540e+06 2.187795983233e+07 -2.846476734008e+07 -1.069370332733e-03 7.701733871054e-05 1.398250546349e-03 0.000000000000e+00 3.757809492156e+07 1.117560922817e+08  2.147486941118e-03
5.000000000000e-01 2.167971535705e+05 1.000000000000e+00 4.415870682061e+01 0.000000000000e+00 -7.171517944055e-04 -1.064156853878e+08 1.800772585161e+06 2.141063714238e+07 -2.914324945531e+07 -1.054131584744e-03 7.741156241953e-05 1.406093610716e-03 0.000000000000e+00 3.804943256692e+07 1.115476360756e+08  2.142073289177e-03
6.000000000000e-01 2.441751596871e+05 1.000000000000e+00 4.522029198103e+01 0.000000000000e+00 -5.819763270685e-04 -1.066230146615e+08 1.805444972152e+06 2.099371046176e+07 -2.970196126579e+07 -1.041080233378e-03 7.775865402459e-05 1.411359915540e-03 0.000000000000e+00 3.844375515519e+07 1.113384163438e+08  2.136179533326e-03
7.000000000000e-01 2.695236751849e+05 1.000000000000e+00 4.610823886794e+01 0.000000000000e+00 -4.528146126670e-04 -1.068065757072e+08 1.810128328964e+06 2.063800828952e+07 -3.017448624022e+07 -1.030347287454e-03 7.810656053056e-05 1.415699048192e-03 0.000000000000e+00 3.878101788598e+07 1.111669197962e+08  2.131380516559e-03
8.000000000000e-01 2.931001235979e+05 1.000000000000e+00 4.686835921971e+01 0.000000000000e+00 -3.283445374182e-04 -1.069685034907e+08 1.814346632927e+06 2.031398936951e+07 -3.058632191253e+07 -1.021064994442e-03 7.841992025353e-05 1.418960813278e-03 0.000000000000e+00 3.908027867792e+07 1.110082507344e+08  2.126810705985e-03
9.000000000000e-01 3.149678557652e+05 1.000000000000e+00 4.753046193288e+01 0.000000000000e+00 -2.080423632684e-04 -1.071172620732e+08 1.818702495988e+06 2.001823446450e+07 -3.095145322738e+07 -1.013028292951e-03 7.874349865237e-05 1.421537651357e-03 0.000000000000e+00 3.935016027868e+07 1.108657297208e+08  2.122652843167e-03
1.000000000000e+00 3.353127053496e+05 1.000000000000e+00 4.811530562685e+01 0.000000000000e+00 -9.148414383690e-05 -1.072558554423e+08 1.823143092402e+06 1.974338557242e+07 -3.128024596022e+07 -1.005963745156e-03 7.907337152885e-05 1.423541279728e-03 0.000000000000e+00 3.959757194336e+07 1.107349414902e+08  2.118778313805e-03
2.000000000000e+00 4.697379123733e+05 1.000000000000e+00 5.129669055637e+01 0.000000000000e+00 8.661130106442e-04 -1.078053146271e+08 1.796365438742e+06 1.712095417896e+07 -3.334653606745e+07 -9.496243108944e-04 7.708417439980e-05 1.402884603383e-03 0.000000000000e+00 4.134363217186e+07 1.088967664509e+08  2.054242141723e-03
3.000000000000e+00 5.733073288966e+05 1.000000000000e+00 5.334711593721e+01 0.000000000000e+00 1.677530314969e-03 -1.081838279151e+08 1.775819764838e+06 1.496960588131e+07 -3.482460124591e+07 -9.087838121050e-04 7.555792433841e-05 1.377876944670e-03 0.000000000000e+00 4.267960775989e+07 1.073469344504e+08  1.998437428087e-03
4.000000000000e+00 6.596594522158e+05 1.000000000000e+00 5.484331796924e+01 0.000000000000e+00 2.382208811474e-03 -1.084604740467e+08 1.759031746061e+06 1.313919701103e+07 -3.598187208589e+07 -8.760748943665e-04 7.431081437208e-05 1.352874674973e-03 0.000000000000e+00 4.376771637386e+07 1.059978120738e+08  1.949246761210e-03
5.000000000000e+00 7.354601088568e+05 1.000000000000e+00 5.604440461519e+01 0.000000000000e+00 3.005866954653e-03 -1.086657736225e+08 1.744420866104e+06 1.153914394933e+07 -3.694524146013e+07 -8.479180161397e-04 7.322543471810e-05 1.329226423725e-03 0.000000000000e+00 4.469062371111e+07 1.047903874303e+08  1.904985242120e-03
6.000000000000e+00 8.041390172595e+05 1.000000000000e+00 5.709454683777e+01 0.000000000000e+00 3.567531256515e-03 -1.088305929814e+08 1.731173884260e+06 1.010254348586e+07 -3.779438772337e+07 -8.225001596925e-04 7.224137320976e-05 1.307406696288e-03 0.000000000000e+00 4.550747907298e+07 1.036902387035e+08  1.864622601676e-03
7.000000000000e+00 8.678837873252e+05 1.000000000000e+00 5.796631082116e+01 0.000000000000e+00 4.074796839805e-03 -1.089704402704e+08 1.719289526835e+06 8.836326769636e+06 -3.852257649570e+07 -8.006474760260e-04 7.135853522959e-05 1.287422801229e-03 0.000000000000e+00 4.621889666550e+07 1.027179081957e+08  1.828808844036e-03
8.000000000000e+00 9.273815372714e+05 1.000000000000e+00 5.880767308074e+01 0.000000000000e+00 4.541706814832e-03 -1.091119673554e+08 1.708701942600e+06 7.676092157573e+06 -3.920851012862e+07 -7.804266613883e-04 7.057202897215e-05 1.269805907718e-03 0.000000000000e+00 4.688146177548e+07 1.018371938011e+08  1.796497825234e-03
9.000000000000e+00 9.837160277864e+05 1.000000000000e+00 5.957121528962e+01 0.000000000000e+00 4.972844307299e-03 -1.092514866071e+08 1.699291927959e+06 6.632753475650e+06 -3.983150625812e+07 -7.624689487853e-04 6.987299931310e-05 1.254193184342e-03 0.000000000000e+00 4.748341312987e+07 1.010557859852e+08  1.767848836425e-03
1.000000000000e+01 1.037379885506e+06 1.000000000000e+00 6.026073690432e+01 0.000000000000e+00 5.373948268961e-03 -1.093637381517e+08 1.690267270499e+06 5.662976585336e+06 -4.039832786057e+07 -7.455849180639e-04 6.920259618748e-05 1.239226273650e-03 0.000000000000e+00 4.803302980898e+07 1.003149009563e+08  1.740659083510e-03
1.100000000000e+01 1.088673730545e+06 1.000000000000e+00 6.090878638231e+01 0.000000000000e+00 5.748896013971e-03 -1.094819572415e+08 1.681948205672e+06 4.767858991859e+06 -4.092993127235e+07 -7.302306432471e-04 6.858460851461e-05 1.225724318330e-03 0.000000000000e+00 4.854800984066e+07 9.964352088183e+07  1.716044842035e-03
1.200000000000e+01 1.137991997081e+06 1.000000000000e+00 6.149982089724e+01 0.000000000000e+00 6.100090939730e-03 -1.095953839123e+08 1.674361561424e+06 3.947793907327e+06 -4.141762411577e+07 -7.163293282644e-04 6.802102922764e-05 1.213379063660e-03 0.000000000000e+00 4.902173804025e+07 9.903308091868e+07  1.693657595121e-03
1.300000000000e+01 1.185597007457e+06 1.000000000000e+00 6.203604973839e+01 0.000000000000e+00 6.430555392183e-03 -1.096867217514e+08 1.666946525550e+06 3.175141114060e+06 -4.186528492374e+07 -7.030944751365e-04 6.747019799123e-05 1.201307932777e-03 0.000000000000e+00 4.945895518704e+07 9.844505986799e+07  1.672056292008e-03
1.400000000000e+01 1.232205373395e+06 1.000000000000e+00 6.252137324582e+01 0.000000000000e+00 6.741942807042e-03 -1.097562570148e+08 1.659736060063e+06 2.446576272803e+06 -4.227536284197e+07 -6.904457479571e-04 6.693456341226e-05 1.189478418493e-03 0.000000000000e+00 4.986168119466e+07 9.787677726882e+07  1.651146650848e-03
1.500000000000e+01 1.277367066712e+06 1.000000000000e+00 6.295962165524e+01 0.000000000000e+00 7.034899960808e-03 -1.098322846620e+08 1.653202527523e+06 1.787319657428e+06 -4.265012028701e+07 -6.793500697510e-04 6.644921528072e-05 1.178911306453e-03 0.000000000000e+00 5.023169509720e+07 9.737418502596e+07  1.632632340319e-03
1.600000000000e+01 1.321228592732e+06 1.000000000000e+00 6.335431298085e+01 0.000000000000e+00 8.115256480305e-03 -1.108954084464e+08 1.494435976838e+06 -2.982438495307e+05 -4.373365401388e+07 -6.785919861717e-04 5.465512865839e-05 1.141693057478e-03 0.000000000000e+00 5.164243543659e+07 9.654654049936e+07  1.596137660081e-03
1.700000000000e+01 1.363922198570e+06 1.000000000000e+00 6.370850933935e+01 0.000000000000e+00 7.571704248423e-03 -1.099471721090e+08 1.640975202604e+06 5.915572811570e+05 -4.330699764719e+07 -6.592190158310e-04 6.554089971529e-05 1.158895577283e-03 0.000000000000e+00 5.088753749166e+07 9.644418974197e+07  1.598268281733e-03
1.800000000000e+01 1.405587800678e+06 1.000000000000e+00 6.402490330132e+01 0.000000000000e+00 7.792888084253e-03 -1.100073690287e+08 1.639341346848e+06 1.526497477859e+05 -4.356825367971e+07 -6.517511059286e-04 6.541952757342e-05 1.152297092966e-03 0.000000000000e+00 5.114099098688e+07 9.611718842649e+07  1.586322206552e-03
1.900000000000e+01 1.446313787813e+06 1.000000000000e+00 6.430589305395e+01 0.000000000000e+00 8.052754892305e-03 -1.099792824075e+08 1.628816201681e+06 -5.033944132948e+05 -4.385577457069e+07 -6.400285411887e-04 6.463765964670e-05 1.138609085791e-03 0.000000000000e+00 5.144615046382e+07 9.553176293617e+07  1.564398790935e-03
2.000000000000e+01 1.486183576154e+06 1.000000000000e+00 6.455355247726e+01 0.000000000000e+00 8.114412007898e-03 -1.096236314902e+08 1.655454087808e+06 -5.536553679716e+05 -4.385162628753e+07 -6.269727290625e-04 6.661647404474e-05 1.136588171243e-03 0.000000000000e+00 5.134297104856e+07 9.516662706759e+07  1.552691381242e-03
2.100000000000e+01 1.525125193313e+06 1.000000000000e+00 6.481651523528e+01 0.000000000000e+00 8.496712874814e-03 -1.099851235260e+08 1.615770911622e+06 -1.617144602619e+06 -4.437179895461e+07 -6.210788770456e-04 6.366858095664e-05 1.116407841590e-03 0.000000000000e+00 5.199135569442e+07 9.458422696159e+07  1.528935522989e-03
2.200000000000e+01 1.563296833678e+06 1.000000000000e+00 6.506310122499e+01 0.000000000000e+00 8.687183528605e-03 -1.099888448209e+08 1.612272842680e+06 -1.943695631728e+06 -4.455782080427e+07 -6.143077135821e-04 6.340872440662e-05 1.111188186353e-03 0.000000000000e+00 5.216345375229e+07 9.430411808003e+07  1.518810924891e-03
2.300000000000e+01 1.600764539823e+06 1.000000000000e+00 6.528885384095e+01 0.000000000000e+00 8.879920106017e-03 -1.099904085154e+08 1.607224290641e+06 -2.376127389832e+06 -4.476766738070e+07 -6.065714922538e-04 6.303368911231e-05 1.102920736748e-03 0.000000000000e+00 5.237806776197e+07 9.393450150401e+07  1.505085758946e-03
2.400000000000e+01 1.637574359506e+06 1.000000000000e+00 6.549323373189e+01 0.000000000000e+00 9.064005289058e-03 -1.099848854785e+08 1.602294129174e+06 -2.788886152140e+06 -4.496200551235e+07 -5.991480774214e-04 6.266744854618e-05 1.094807970467e-03 0.000000000000e+00 5.257859238099e+07 9.357599389291e+07  1.491749519473e-03
2.500000000000e+01 1.673781468520e+06 1.000000000000e+00 6.567656887115e+01 0.000000000000e+00 9.200034307093e-03 -1.099566748360e+08 1.604410908828e+06 -3.056113490038e+06 -4.509851231943e+07 -5.930300007220e-04 6.282469503475e-05 1.089952636465e-03 0.000000000000e+00 5.270376688181e+07 9.332019976032e+07  1.482530529602e-03
2.600000000000e+01 1.709418523614e+06 1.000000000000e+00 6.583945735160e+01 0.000000000000e+00 9.407513454738e-03 -1.099495904846e+08 1.592729753074e+06 -3.557862176721e+06 -4.530455720732e+07 -5.851137718354e-04 6.195695203589e-05 1.078969352510e-03 0.000000000000e+00 5.293733662288e+07 9.288753267833e+07  1.466072579686e-03
2.700000000000e+01 1.744518252958e+06 1.000000000000e+00 6.598257455872e+01 0.000000000000e+00 9.567671858838e-03 -1.099178892159e+08 1.588044308768e+06 -3.918294835953e+06 -4.545390240741e+07 -5.783891887093e-04 6.160889045888e-05 1.071128961170e-03 0.000000000000e+00 5.309669548642e+07 9.255230307413e+07  1.453536267892e-03
2.800000000000e+01 1.779123736624e+06 1.000000000000e+00 6.610660138963e+01 0.000000000000e+00 9.634621317882e-03 -1.097252725181e+08 1.600349331640e+06 -4.029957531815e+06 -4.547366049229e+07 -5.705009824932e-04 6.252297787227e-05 1.067715361334e-03 0.000000000000e+00 5.307629684739e+07 9.228411694578e+07  1.444419431746e-03
2.900000000000e+01 1.813258572512e+06 1.000000000000e+00 6.621219494693e+01 0.000000000000e+00 9.866711185734e-03 -1.098173155590e+08 1.578555613628e+06 -4.606653201449e+06 -4.571187485840e+07 -5.650717618439e-04 6.090401596275e-05 1.055143198632e-03 0.000000000000e+00 5.337861453961e+07 9.187867346547e+07  1.428283161485e-03
3.000000000000e+01 1.846933369340e+06 1.000000000000e+00 6.629998132215e+01 0.000000000000e+00 1.000612781105e-02 -1.097486602237e+08 1.573752205826e+06 -4.936418451531e+06 -4.582156819781e+07 -5.584473824987e-04 6.054719138316e-05 1.046969099092e-03 0.000000000000e+00 5.350221562435e+07 9.153888454096e+07  1.415515034739e-03
3.100000000000e+01 1.880068628646e+06 1.000000000000e+00 6.640753140309e+01 0.000000000000e+00 1.014082713087e-02 -1.096847119027e+08 1.569089126490e+06 -5.262075160597e+06 -4.593824231484e+07 -5.517385490858e-04 6.020079120398e-05 1.039206888531e-03 0.000000000000e+00 5.362834312605e+07 9.120587225496e+07  1.403071377507e-03
3.200000000000e+01 1.912746246969e+06 1.000000000000e+00 6.650903880484e+01 0.000000000000e+00 1.027105514330e-02 -1.096110483325e+08 1.564305254078e+06 -5.586357071693e+06 -4.604946919619e+07 -5.448711894561e-04 5.984541782475e-05 1.031293415998e-03 0.000000000000e+00 5.374895820013e+07 9.086571543374e+07  1.390365856649e-03
3.300000000000e+01 1.944992534906e+06 1.000000000000e+00 6.660028937794e+01 0.000000000000e+00 1.039683187047e-02 -1.095255312813e+08 1.559375594914e+06 -5.909362101041e+06 -4.615316646200e+07 -5.378432291095e-04 5.947921457261e-05 1.023147699066e-03 0.000000000000e+00 5.386268661477e+07 9.051663063022e+07  1.377320930801e-03
3.400000000000e+01 1.976830061260e+06 1.000000000000e+00 6.668024539975e+01 0.000000000000e+00 1.053071683099e-02 -1.094519632445e+08 1.551241794293e+06 -6.252574841372e+06 -4.626255748084e+07 -5.310476070440e-04 5.887498938363e-05 1.014462892268e-03 0.000000000000e+00 5.398903185557e+07 9.016166476109e+07  1.363918401237e-03
3.500000000000e+01 2.008299346037e+06 1.000000000000e+00 6.674866253792e+01 0.000000000000e+00 1.063573622959e-02 -1.093138083159e+08 1.548968868497e+06 -6.557103326728e+06 -4.633692847994e+07 -5.231537868728e-04 5.870614346732e-05 1.005914185635e-03 0.000000000000e+00 5.406928004086e+07 8.978267686660e+07  1.349866764873e-03
3.600000000000e+01 2.039444670270e+06 1.000000000000e+00 6.680556866818e+01 0.000000000000e+00 1.074963351083e-02 -1.091722601521e+08 1.543136378951e+06 -6.897825737129e+06 -4.641711078437e+07 -5.149180837660e-04 5.827287281535e-05 9.962369816992e-04 0.000000000000e+00 5.416239889119e+07 8.937094107430e+07  1.334464828089e-03
3.700000000000e+01 2.070350557002e+06 1.000000000000e+00 6.685110794378e+01 0.000000000000e+00 1.086139036981e-02 -1.089765825054e+08 1.536193485554e+06 -7.280509307307e+06 -4.648966414323e+07 -5.049552178473e-04 5.775711502012e-05 9.847178595647e-04 0.000000000000e+00 5.424891865199e+07 8.887694705554e+07  1.316014859064e-03
3.800000000000e+01 2.103243222582e+06 1.000000000000e+00 6.688582001012e+01 0.000000000000e+00 1.101284600596e-02 -1.078408259681e+08 1.507391057072e+06 -8.595829318234e+06 -4.655619435192e+07 -4.602988529962e-04 5.561750604719e-05 9.383342383388e-04 0.000000000000e+00 5.433094987943e+07 8.677556716226e+07  1.238361930729e-03
3.900000000000e+01 2.133056538292e+06 1.000000000000e+00 6.690898244266e+01 0.000000000000e+00 1.110240451215e-02 -1.079325153431e+08 1.507308757204e+06 -8.670218815930e+06 -4.661463856692e+07 -4.615336732234e-04 5.561139234274e-05 9.377419849816e-04 0.000000000000e+00 5.440579090865e+07 8.679371058022e+07  1.238729488490e-03
4.000000000000e+01 2.162442325665e+06 1.000000000000e+00 6.692120017537e+01 0.000000000000e+00 1.116817606596e-02 -1.080581861027e+08 1.511341139645e+06 -8.618767851400e+06 -4.664169451153e+07 -4.651965092090e-04 5.591094075260e-05 9.406579558923e-04 0.000000000000e+00 5.443954948855e+07 8.694720008595e+07  1.244272510141e-03
4.200000000000e+01 2.219725180735e+06 1.000000000000e+00 6.697479474535e+01 0.000000000000e+00 1.133939643205e-02 -1.083205034720e+08 1.510244447100e+06 -8.697227849937e+06 -4.676352473170e+07 -4.704146033190e-04 5.582947216355e-05 9.422688498387e-04 0.000000000000e+00 5.459375201788e+07 8.711138463293e+07  1.249707286325e-03
4.400000000000e+01 2.275490823827e+06 1.000000000000e+00 6.700716875484e+01 0.000000000000e+00 1.148349753771e-02 -1.085467438380e+08 1.511913291423e+06 -8.712474772637e+06 -4.684813579713e+07 -4.756751201990e-04 5.595344345609e-05 9.448452322832e-04 0.000000000000e+00 5.470245146927e+07 8.729731796164e+07  1.256117457041e-03
5.000000000000e+01 2.427012687700e+06 1.000000000000e+00 6.679476010346e+01 0.000000000000e+00 1.178461538339e-02 -1.088758955768e+08 1.513538692641e+06 -8.725197780624e+06 -4.687885345700e+07 -4.867598145582e-04 5.607418754658e-05 9.455136050673e-04 0.000000000000e+00 5.482664893815e+07 8.758778949827e+07  1.265149028782e-03
6.500000000000e+01 2.758397040128e+06 1.000000000000e+00 6.601327659906e+01 0.000000000000e+00 1.213386878373e-02 -1.089233907787e+08 1.542829402603e+06 -8.198141319258e+06 -4.646626002364e+07 -5.038488210095e-04 5.825006885803e-05 9.497650889647e-04 0.000000000000e+00 5.452926404053e+07 8.810561816758e+07  1.282433074482e-03
8.000000000000e+01 3.013450394319e+06 1.000000000000e+00 6.501253176179e+01 0.000000000000e+00 1.254050313427e-02 -1.086931539963e+08 1.505246446396e+06 -8.631867837447e+06 -4.618073082185e+07 -5.059025394448e-04 5.545819211126e-05 9.230498765084e-04 0.000000000000e+00 5.450191755187e+07 8.758874285979e+07  1.258633609799e-03
1.000000000000e+02 3.314130012925e+06 1.000000000000e+00 6.391116478821e+01 0.000000000000e+00 1.267940836545e-02 -1.081327392738e+08 1.510159585617e+06 -8.346594106603e+06 -4.554503956366e+07 -5.086985250575e-04 5.582316816764e-05 9.100343683496e-04 0.000000000000e+00 5.400812431470e+07 8.738393089869e+07  1.248686734220e-03
1.860000000000e+02 3.912611211329e+06 1.000000000000e+00 6.127460376810e+01 0.000000000000e+00 1.299327758189e-02 -1.064925581738e+08 1.474443868416e+06 -8.313920619270e+06 -4.412698762524e+07 -5.004480133385e-04 5.317000060415e-05 8.585774544522e-04 0.000000000000e+00 5.297782213942e+07 8.609334741604e+07  1.194051082500e-03
2.720000000000e+02 4.202932549007e+06 1.000000000000e+00 5.927316669568e+01 0.000000000000e+00 1.290838527833e-02 -1.050499907028e+08 1.436311679906e+06 -8.409141256045e+06 -4.302548524773e+07 -4.877798812949e-04 5.033732374345e-05 8.141277424931e-04 0.000000000000e+00 5.216153906885e+07 8.484445261043e+07  1.142562849812e-03
3.580000000000e+02 4.344298240405e+06 1.000000000000e+00 5.786901994477e+01 0.000000000000e+00 1.261516858196e-02 -1.036613382224e+08 1.442149454847e+06 -7.989784922705e+06 -4.199348165985e+07 -4.745329224300e-04 5.077098702472e-05 7.913722730389e-04 0.000000000000e+00 5.121486826831e+07 8.403779151632e+07  1.111178134158e-03
4.440000000000e+02 4.416427118122e+06 1.000000000000e+00 5.679914782248e+01 0.000000000000e+00 1.249026734914e-02 -1.027448012121e+08 1.421154434580e+06 -8.056787472928e+06 -4.136541113856e+07 -4.638184528378e-04 4.921135694774e-05 7.655552732398e-04 0.000000000000e+00 5.072233327452e+07 8.323109984170e+07  1.078678065473e-03
5.300000000000e+02 4.455391635668e+06 1.000000000000e+00 5.597604575726e+01 0.000000000000e+00 1.227617071362e-02 -1.019464228329e+08 1.423438248155e+06 -7.803328568172e+06 -4.076264529188e+07 -4.565528444868e-04 4.938101167051e-05 7.525810153967e-04 0.000000000000e+00 5.017079889763e+07 8.277937680812e+07  1.061002893856e-03
6.160000000000e+02 4.477907108613e+06 1.000000000000e+00 5.534879647688e+01 0.000000000000e+00 1.214550609262e-02 -1.013618979504e+08 1.417175393992e+06 -7.741100268430e+06 -4.034969435436e+07 -4.501800979596e-04 4.891577107551e-05 7.395541745649e-04 0.000000000000e+00 4.981756419105e+07 8.234899353085e+07  1.043893350131e-03
7.020000000000e+02 4.491717382568e+06 1.000000000000e+00 5.488766014466e+01 0.000000000000e+00 1.204521664207e-02 -1.009284799529e+08 1.412558129986e+06 -7.695261923365e+06 -4.004494928959e+07 -4.454008176035e-04 4.857277432079e-05 7.299376392615e-04 0.000000000000e+00 4.955623038863e+07 8.202960272273e+07  1.031204931173e-03
7.880000000000e+02 4.501335968617e+06 1.000000000000e+00 5.452634167833e+01 0.000000000000e+00 1.195464947625e-02 -1.005813726697e+08 1.408936050544e+06 -7.659422277144e+06 -3.980389067877e+07 -4.414618669136e-04 4.830370556221e-05 7.223152205765e-04 0.000000000000e+00 4.934822854187e+07 8.177276024295e+07  1.021029983646e-03
8.740000000000e+02 4.509722027139e+06 1.000000000000e+00 5.394399340208e+01 0.000000000000e+00 1.182923632908e-02 -1.000166747703e+08 1.402906664583e+06 -7.648567328620e+06 -3.942794696549e+07 -4.344509971439e-04 4.785580831946e-05 7.087547807429e-04 0.000000000000e+00 4.903106302148e+07 8.131604719281e+07  1.002931086635e-03
9.370000000000e+02 4.515095897328e+06 1.000000000000e+00 5.354017270868e+01 0.000000000000e+00 1.175700360753e-02 -9.962606788009e+07 1.393754489484e+06 -7.690157598312e+06 -3.918218923854e+07 -4.290708853654e-04 4.717593245490e-05 6.980818551532e-04 0.000000000000e+00 4.883280490565e+07 8.096010570295e+07  9.887484041046e-04
1.000000000000e+03 4.519285921139e+06 1.000000000000e+00 5.322023067899e+01 0.000000000000e+00 1.163441212897e-02 -9.930811803755e+07 1.395551929247e+06 -7.526878940391e+06 -3.892602372368e+07 -4.267760389087e-04 4.730945655161e-05 6.946317718955e-04 0.000000000000e+00 4.858700690054e+07 8.083125895402e+07  9.837773305279e-04
1.100000000000e+03 4.523431225789e+06 1.000000000000e+00 5.289815608429e+01 0.000000000000e+00 1.154275033056e-02 -9.897124798295e+07 1.392069463014e+06 -7.492508774960e+06 -3.870208144955e+07 -4.225815784912e-04 4.705075906003e-05 6.875905221438e-04 0.000000000000e+00 4.838861273582e+07 8.058038450077e+07  9.739406175992e-04
1.200000000000e+03 4.526692600566e+06 1.000000000000e+00 5.262163515619e+01 0.000000000000e+00 1.146652990150e-02 -9.868762229004e+07 1.389127702149e+06 -7.463451477229e+06 -3.851164983131e+07 -4.191200842894e-04 4.683222825290e-05 6.815966188105e-04 0.000000000000e+00 4.822090786619e+07 8.036966367203e+07  9.656532508957e-04
1.300000000000e+03 4.529597981427e+06 1.000000000000e+00 5.235621144567e+01 0.000000000000e+00 1.141343026512e-02 -9.843153828897e+07 1.382671658026e+06 -7.499274350177e+06 -3.835282872443e+07 -4.155074625049e-04 4.635263640378e-05 6.743669852742e-04 0.000000000000e+00 4.809454712119e+07 8.012970881946e+07  9.560687725149e-04
1.400000000000e+03 4.532337490768e+06 1.000000000000e+00 5.208448068311e+01 0.000000000000e+00 1.131900517664e-02 -9.813923599444e+07 1.383438171223e+06 -7.407248247651e+06 -3.814257992974e+07 -4.124597610824e-04 4.640957738409e-05 6.699758567082e-04 0.000000000000e+00 4.789635472395e+07 7.996260488528e+07  9.496264168038e-04
1.500000000000e+03 4.534977377075e+06 1.000000000000e+00 5.179637439515e+01 0.000000000000e+00 1.123810246311e-02 -9.784241195632e+07 1.380366032256e+06 -7.376914689277e+06 -3.794375091918e+07 -4.088199457731e-04 4.618136134656e-05 6.637174541983e-04 0.000000000000e+00 4.772102585493e+07 7.974214609985e+07  9.409536094362e-04
1.600000000000e+03 4.537538418873e+06 1.000000000000e+00 5.148575268733e+01 0.000000000000e+00 1.114909228747e-02 -9.751943819928e+07 1.377030592073e+06 -7.343996137937e+06 -3.772842108691e+07 -4.048217428531e-04 4.593358579014e-05 6.569421780495e-04 0.000000000000e+00 4.753061847471e+07 7.950209631601e+07  9.315190975871e-04
1.700000000000e+03 4.540025723056e+06 1.000000000000e+00 5.114882389448e+01 0.000000000000e+00 1.105063282434e-02 -9.716590180694e+07 1.373387336045e+06 -7.308055104718e+06 -3.749380822837e+07 -4.004045830259e-04 4.566294391377e-05 6.495629388234e-04 0.000000000000e+00 4.732258838001e+07 7.923915766305e+07  9.211944054380e-04
1.800000000000e+03 4.542439112818e+06 1.000000000000e+00 5.078330093099e+01 0.000000000000e+00 1.094191488312e-02 -9.677914200606e+07 1.369409421159e+06 -7.268828129005e+06 -3.723823460207e+07 -3.955319536848e-04 4.536744166509e-05 6.415272060870e-04 0.000000000000e+00 4.709540157905e+07 7.895135515678e+07  9.099020859361e-04
1.900000000000e+03 4.544778400875e+06 1.000000000000e+00 5.038789693194e+01 0.000000000000e+00 1.082247893153e-02 -9.635766579820e+07 1.365081835129e+06 -7.226167668606e+06 -3.696075764231e+07 -3.901834101836e-04 4.504596384567e-05 6.328054503967e-04 0.000000000000e+00 4.684819703637e+07 7.863759657031e+07  8.975987058977e-04
2.000000000000e+03 4.547042746701e+06 1.000000000000e+00 4.996201032882e+01 0.000000000000e+00 1.069211631905e-02 -9.590077142796e+07 1.360397490955e+06 -7.180002099247e+06 -3.666093478699e+07 -3.843493253438e-04 4.469798399278e-05 6.233838940609e-04 0.000000000000e+00 4.658056943807e+07 7.829739023641e+07  8.842639830381e-04