 TITLE = "Time curves in points"
 VARIABLES = "TIME"  "PRESSURE1"  "SATURATION1"  "TEMPERATURE1"  "DISPLACEMENT_X1"  "DISPLACEMENT_Y1"  "STRESS_XX"  "STRESS_XY"  "STRESS_YY"  "STRESS_ZZ"  "STRAIN_XX"  "STRAIN_XY"  "STRAIN_YY"  "STRAIN_PLS"  p_(1st_Invariant)  q_(2nd_Invariant)   Effective_Strain
 ZONE T="POINT=POINT9"
0.000000000000e+00 1.000000000000e+05 1.000000000000e+00 2.500000000000e+01 0.000000000000e+00 0.000000000000e+00 -6.854419775061e+07 7.586938602830e+05 -6.954707405871e+06 -1.965222756120e+07 0.000000000000e+00 0.000000000000e+00 0.000000000000e+00 0.000000000000e+00 3.171704423923e+07 5.633990941714e+07  0.000000000000e+00
1.000000000000e-03 1.375363517933e+05 1.000000000000e+00 2.500341908267e+01 0.000000000000e+00 -1.420359050337e-03 -9.972037399295e+07 1.527923393735e+06 2.404115295992e+07 -1.970740948264e+07 -1.155922646205e-03 5.714276534217e-05 1.153324427811e-03 0.000000000000e+00 3.179554350522e+07 1.087357670194e+08  2.002314688359e-03
2.000000000000e-03 1.596543381659e+05 1.000000000000e+00 2.501822584451e+01 0.000000000000e+00 -1.419746644872e-03 -9.976368077523e+07 1.543554889513e+06 2.413955750944e+07 -1.969563951972e+07 -1.157968353884e-03 5.830396217137e-05 1.156542283885e-03 0.000000000000e+00 3.177325426184e+07 1.088547737968e+08  2.006967409724e-03
3.000000000000e-03 1.750698772340e+05 1.000000000000e+00 2.505297113902e+01 0.000000000000e+00 -1.418966144438e-03 -9.981614123968e+07 1.559299874140e+06 2.423177721940e+07 -1.969498408987e+07 -1.159941229958e-03 5.947358960078e-05 1.159943242861e-03 0.000000000000e+00 3.175978270338e+07 1.089757650874e+08  2.011717996887e-03
4.000000000000e-03 1.857698442851e+05 1.000000000000e+00 2.511281051277e+01 0.000000000000e+00 -1.418191192781e-03 -9.988024307970e+07 1.575222807153e+06 2.431914836474e+07 -1.970757133799e+07 -1.161854629086e-03 6.065643605317e-05 1.163655983189e-03 0.000000000000e+00 3.175622201765e+07 1.091017555737e+08  2.016689893557e-03
1.000000000000e-02 2.016789111645e+05 1.000000000000e+00 2.596897761954e+01 0.000000000000e+00 -1.415332185974e-03 -1.002161950033e+08 1.595340942448e+06 2.429830554239e+07 -2.010223021146e+07 -1.159674085234e-03 6.215092610367e-05 1.177540579373e-03 0.000000000000e+00 3.200670655746e+07 1.093361478478e+08  2.026967515056e-03
2.000000000000e-02 1.999775638072e+05 1.000000000000e+00 2.761199352605e+01 0.000000000000e+00 -1.407823415046e-03 -1.008668617473e+08 1.618749083103e+06 2.418382711862e+07 -2.089152578312e+07 -1.154525014492e-03 6.388981655235e-05 1.202605216295e-03 0.000000000000e+00 3.252485347061e+07 1.097297559444e+08  2.044473244163e-03
3.000000000000e-02 1.899417015385e+05 1.000000000000e+00 2.912015010583e+01 0.000000000000e+00 -1.398339777115e-03 -1.014755466447e+08 1.640615448147e+06 2.407896462435e+07 -2.162325599752e+07 -1.149954759860e-03 6.551417509847e-05 1.225888874471e-03 0.000000000000e+00 3.300661267262e+07 1.101026028431e+08  2.061017357994e-03
4.000000000000e-02 1.766791345000e+05 1.000000000000e+00 3.042920762065e+01 0.000000000000e+00 -1.386686532036e-03 -1.020049062572e+08 1.660848400639e+06 2.398673951095e+07 -2.226118990477e+07 -1.145922000342e-03 6.701719442647e-05 1.246158058243e-03 0.000000000000e+00 3.342645221701e+07 1.104272986647e+08  2.075456813543e-03
5.000000000000e-02 1.624755312972e+05 1.000000000000e+00 3.155418858050e+01 0.000000000000e+00 -1.374638239893e-03 -1.024647514793e+08 1.679841243684e+06 2.391086245456e+07 -2.281112648559e+07 -1.142575749875e-03 6.842809133835e-05 1.263765983436e-03 0.000000000000e+00 3.378833850345e+07 1.107144327131e+08  2.088200034081e-03
6.000000000000e-02 1.480496644926e+05 1.000000000000e+00 3.252595810313e+01 0.000000000000e+00 -1.360839871058e-03 -1.028663078870e+08 1.698002811137e+06 2.385844423732e+07 -2.328429137295e+07 -1.139916006343e-03 6.977723634918e-05 1.279393716898e-03 0.000000000000e+00 3.409738500754e+07 1.109779188747e+08  2.099824932893e-03
7.000000000000e-02 1.342905906219e+05 1.000000000000e+00 3.337380556941e+01 0.000000000000e+00 -1.347453143037e-03 -1.032173834075e+08 1.715356267300e+06 2.381489575328e+07 -2.369716403734e+07 -1.137620683856e-03 7.106635023552e-05 1.293111472168e-03 0.000000000000e+00 3.436655056385e+07 1.112108711991e+08  2.110104200144e-03
8.000000000000e-02 1.218339376391e+05 1.000000000000e+00 3.412173675870e+01 0.000000000000e+00 -1.333503284124e-03 -1.035267624940e+08 1.732048681449e+06 2.377896503441e+07 -2.406085816195e+07 -1.135603268155e-03 7.230635814375e-05 1.305285541524e-03 0.000000000000e+00 3.460288520718e+07 1.114186403887e+08  2.119277301976e-03
9.000000000000e-02 1.115908105104e+05 1.000000000000e+00 3.478854305609e+01 0.000000000000e+00 -1.326991110162e-03 -1.037902083151e+08 1.749672219999e+06 2.376823354400e+07 -2.437521912119e+07 -1.133712134452e-03 7.361553529322e-05 1.316563207509e-03 0.000000000000e+00 3.479906463076e+07 1.116110584798e+08  2.127793060522e-03
1.000000000000e-01 1.045672230919e+05 1.000000000000e+00 3.538879924497e+01 0.000000000000e+00 -1.308871077350e-03 -1.040566301450e+08 1.764052023794e+06 2.372662483679e+07 -2.467672435487e+07 -1.132409036599e-03 7.468374928938e-05 1.326216507064e-03 0.000000000000e+00 3.500224322103e+07 1.117839102627e+08  2.135357814065e-03
2.000000000000e-01 1.257458991114e+05 1.000000000000e+00 3.885749387717e+01 0.000000000000e+00 -1.162497176830e-03 -1.051191953895e+08 1.778772381397e+06 2.297842648341e+07 -2.643071882784e+07 -1.106727379540e-03 7.577726156845e-05 1.363574648649e-03 0.000000000000e+00 3.619049591130e+07 1.119399948646e+08  2.147210584195e-03
3.000000000000e-01 1.562400302842e+05 1.000000000000e+00 4.116519256362e+01 0.000000000000e+00 -1.005205621842e-03 -1.057334397894e+08 1.788219065024e+06 2.237637176443e+07 -2.760198888563e+07 -1.086037855105e-03 7.647901520935e-05 1.384716932661e-03 0.000000000000e+00 3.698635230353e+07 1.118786626987e+08  2.149027997281e-03
4.000000000000e-01 1.873099542003e+05 1.000000000000e+00 4.284986262779e+01 0.000000000000e+00 -8.583814928416e-04 -1.061474772770e+08 1.795465726487e+06 2.187795979853e+07 -2.846476735987e+07 -1.069370332744e-03 7.701733863227e-05 1.398250545828e-03 0.000000000000e+00 3.757809494611e+07 1.117560922707e+08  2.147486940650e-03
5.000000000000e-01 2.167971535766e+05 1.000000000000e+00 4.415870676282e+01 0.000000000000e+00 -7.171517944312e-04 -1.064156853973e+08 1.800772583912e+06 2.141063714401e+07 -2.914324943773e+07 -1.054131585750e-03 7.741156232671e-05 1.406093610123e-03 0.000000000000e+00 3.804943256368e+07 1.115476360876e+08  2.142073289457e-03
6.000000000000e-01 2.441751596801e+05 1.000000000000e+00 4.522029208765e+01 0.000000000000e+00 -5.819763301021e-04 -1.066230147102e+08 1.805444973213e+06 2.099371047321e+07 -2.970196131376e+07 -1.041080233402e-03 7.775865410339e-05 1.411359917747e-03 0.000000000000e+00 3.844375518357e+07 1.113384163920e+08  2.136179535350e-03
7.000000000000e-01 2.695236752065e+05 1.000000000000e+00 4.610823884779e+01 0.000000000000e+00 -4.528146149268e-04 -1.068065756981e+08 1.810128328789e+06 2.063800831481e+07 -3.017448622300e+07 -1.030347287754e-03 7.810656051761e-05 1.415699048492e-03 0.000000000000e+00 3.878101786877e+07 1.111669198100e+08  2.131380517074e-03
8.000000000000e-01 2.931001235804e+05 1.000000000000e+00 4.686835921443e+01 0.000000000000e+00 -3.283445359183e-04 -1.069685034579e+08 1.814346633044e+06 2.031398935490e+07 -3.058632190523e+07 -1.021064993492e-03 7.841992026224e-05 1.418960812464e-03 0.000000000000e+00 3.908027866941e+07 1.110082506933e+08  2.126810704475e-03
9.000000000000e-01 3.149678557638e+05 1.000000000000e+00 4.753046193221e+01 0.000000000000e+00 -2.080423663591e-04 -1.071172620838e+08 1.818702496356e+06 2.001823449783e+07 -3.095145322034e+07 -1.013028293608e-03 7.874349867967e-05 1.421537652334e-03 0.000000000000e+00 3.935016026878e+07 1.108657297581e+08  2.122652844591e-03
1.000000000000e+00 3.353127053504e+05 1.000000000000e+00 4.811530562709e+01 0.000000000000e+00 -9.148414749952e-05 -1.072558554473e+08 1.823143093104e+06 1.974338561429e+07 -3.128024594925e+07 -1.005963745751e-03 7.907337158096e-05 1.423541280876e-03 0.000000000000e+00 3.959757192743e+07 1.107349415297e+08  2.118778315337e-03
2.000000000000e+00 4.697379123725e+05 1.000000000000e+00 5.129669055427e+01 0.000000000000e+00 8.324248666017e-04 -1.079161107138e+08 1.800836894360e+06 1.745544055142e+07 -3.327942898101e+07 -9.562321430411e-04 7.741633967430e-05 1.412815834006e-03 0.000000000000e+00 4.124669971447e+07 1.092752149262e+08  2.068668236771e-03
3.000000000000e+00 5.733073288959e+05 1.000000000000e+00 5.334711595520e+01 0.000000000000e+00 1.677530326792e-03 -1.081838279873e+08 1.775819761855e+06 1.496960588390e+07 -3.482460127312e+07 -9.087838137778e-04 7.555792411681e-05 1.377876945777e-03 0.000000000000e+00 4.267960779217e+07 1.073469345155e+08  1.998437430414e-03
4.000000000000e+00 6.596594521673e+05 1.000000000000e+00 5.484331796413e+01 0.000000000000e+00 2.382213257030e-03 -1.084604659954e+08 1.759031074241e+06 1.313916232122e+07 -3.598188007565e+07 -8.760742985548e-04 7.431076446549e-05 1.352873683257e-03 0.000000000000e+00 4.376772791660e+07 1.059977758534e+08  1.949245369797e-03
5.000000000000e+00 7.354601088473e+05 1.000000000000e+00 5.604440460970e+01 0.000000000000e+00 3.005866960296e-03 -1.086657736453e+08 1.744420863886e+06 1.153914386490e+07 -3.694524149036e+07 -8.479180158614e-04 7.322543455334e-05 1.329226421712e-03 0.000000000000e+00 4.469062375691e+07 1.047903873797e+08  1.904985240028e-03
6.000000000000e+00 8.041390172580e+05 1.000000000000e+00 5.709454683571e+01 0.000000000000e+00 3.567531253073e-03 -1.088305930386e+08 1.731173889208e+06 1.010254353146e+07 -3.779438772617e+07 -8.225001617133e-04 7.224137357731e-05 1.307406698085e-03 0.000000000000e+00 4.550747907778e+07 1.036902387925e+08  1.864622604975e-03
7.000000000000e+00 8.678837873012e+05 1.000000000000e+00 5.796631081853e+01 0.000000000000e+00 4.074796841542e-03 -1.089704402652e+08 1.719289526441e+06 8.836326739803e+06 -3.852257650214e+07 -8.006474755922e-04 7.135853520030e-05 1.287422800360e-03 0.000000000000e+00 4.621889667584e+07 1.027179081662e+08  1.828808842888e-03
8.000000000000e+00 9.273815372719e+05 1.000000000000e+00 5.880767307389e+01 0.000000000000e+00 4.541706814582e-03 -1.091119673994e+08 1.708701943000e+06 7.676092156456e+06 -3.920851013976e+07 -7.804266626091e-04 7.057202900182e-05 1.269805908090e-03 0.000000000000e+00 4.688146179424e+07 1.018371938393e+08  1.796497826543e-03
9.000000000000e+00 9.837160277888e+05 1.000000000000e+00 5.957121528383e+01 0.000000000000e+00 4.840597583425e-03 -1.091821590778e+08 1.723851079827e+06 7.074627982860e+06 -3.967814564513e+07 -7.655901776067e-04 7.169739345183e-05 1.264909414699e-03 0.000000000000e+00 4.726189224669e+07 1.013659218823e+08  1.780434755778e-03
1.000000000000e+01 1.037379885510e+06 1.000000000000e+00 6.026073689987e+01 0.000000000000e+00 5.373948256130e-03 -1.093637381065e+08 1.690267273491e+06 5.662976639606e+06 -4.039832782918e+07 -7.455849175520e-04 6.920259640975e-05 1.239226274500e-03 0.000000000000e+00 4.803302976536e+07 1.003149009622e+08  1.740659083922e-03
1.100000000000e+01 1.088673730551e+06 1.000000000000e+00 6.090878637885e+01 0.000000000000e+00 5.748888262310e-03 -1.094819513234e+08 1.681949564588e+06 4.767880613113e+06 -4.092992300933e+07 -7.302307303438e-04 6.858470946262e-05 1.225724814493e-03 0.000000000000e+00 4.854799790653e+07 9.964353382289e+07  1.716045382268e-03
1.200000000000e+01 1.137991997085e+06 1.000000000000e+00 6.149982089458e+01 0.000000000000e+00 5.882913320984e-03 -1.093124831671e+08 1.718659886817e+06 4.529070937748e+06 -4.115837078215e+07 -7.154509958337e-04 7.131176197107e-05 1.225339943827e-03 0.000000000000e+00 4.864726100383e+07 9.927222057990e+07  1.704480827293e-03
1.300000000000e+01 1.185597007461e+06 1.000000000000e+00 6.203604973873e+01 0.000000000000e+00 6.430555387356e-03 -1.096867217656e+08 1.666946523545e+06 3.175141141420e+06 -4.186528491988e+07 -7.030944758049e-04 6.747019784231e-05 1.201307933650e-03 0.000000000000e+00 4.945895518135e+07 9.844505990325e+07  1.672056293322e-03
1.400000000000e+01 1.232205373400e+06 1.000000000000e+00 6.252137324457e+01 0.000000000000e+00 6.742228244815e-03 -1.097565839887e+08 1.659683444347e+06 2.445991584833e+06 -4.227563634007e+07 -6.904477341984e-04 6.693065481622e-05 1.189466860013e-03 0.000000000000e+00 4.986207624797e+07 9.787657421453e+07  1.651136978203e-03
1.500000000000e+01 1.277367066716e+06 1.000000000000e+00 6.295962165415e+01 0.000000000000e+00 7.034899968167e-03 -1.098322846632e+08 1.653202526596e+06 1.787319653103e+06 -4.265012028828e+07 -6.793500697474e-04 6.644921521181e-05 1.178911306339e-03 0.000000000000e+00 5.023169509946e+07 9.737418502337e+07  1.632632340202e-03
1.600000000000e+01 1.321228592736e+06 1.000000000000e+00 6.335431298003e+01 0.000000000000e+00 7.876551771223e-03 -1.106202543619e+08 1.539675883064e+06 1.562127228802e+05 -4.351477081654e+07 -6.765019246508e-04 5.801580740656e-05 1.150442925695e-03 0.000000000000e+00 5.132627081853e+07 9.668492642574e+07  1.602981015015e-03
1.700000000000e+01 1.363922198573e+06 1.000000000000e+00 6.370850933870e+01 0.000000000000e+00 7.571704249987e-03 -1.099471721595e+08 1.640975204064e+06 5.915572744648e+05 -4.330699766412e+07 -6.592190170783e-04 6.554089982370e-05 1.158895577664e-03 0.000000000000e+00 5.088753751638e+07 9.644418978109e+07  1.598268283067e-03
1.800000000000e+01 1.405587800680e+06 1.000000000000e+00 6.402490330082e+01 0.000000000000e+00 7.818732162630e-03 -1.099738192505e+08 1.634919346713e+06 3.301188753823e+04 -4.359408010414e+07 -6.495457041153e-04 6.509103613483e-05 1.148812668207e-03 0.000000000000e+00 5.117829582236e+07 9.598732621925e+07  1.581327616527e-03
1.900000000000e+01 1.446313787815e+06 1.000000000000e+00 6.430589302134e+01 0.000000000000e+00 8.052754890857e-03 -1.099792823501e+08 1.628816202232e+06 -5.033944048525e+05 -4.385577453965e+07 -6.400285402098e-04 6.463765968768e-05 1.138609084951e-03 0.000000000000e+00 5.144615043153e+07 9.553176289390e+07  1.564398789401e-03
2.000000000000e+01 1.486183576155e+06 1.000000000000e+00 6.455355247475e+01 0.000000000000e+00 8.273783343716e-03 -1.099792180776e+08 1.623039401944e+06 -1.002798728553e+06 -4.409304527105e+07 -6.312132400646e-04 6.420852595194e-05 1.128872694380e-03 0.000000000000e+00 5.169168735906e+07 9.510368717805e+07  1.548454490776e-03
2.100000000000e+01 1.525125193316e+06 1.000000000000e+00 6.481651523440e+01 0.000000000000e+00 8.485024970814e-03 -1.099890833270e+08 1.617647046850e+06 -1.481195905340e+06 -4.433220228543e+07 -6.226966887964e-04 6.380795100214e-05 1.119986631205e-03 0.000000000000e+00 5.193416050594e+07 9.470136509162e+07  1.533540854003e-03
2.200000000000e+01 1.563296833681e+06 1.000000000000e+00 6.506310122449e+01 0.000000000000e+00 8.687183530586e-03 -1.099888448078e+08 1.612272842553e+06 -1.943695665047e+06 -4.455782081016e+07 -6.143077128770e-04 6.340872439719e-05 1.111188185335e-03 0.000000000000e+00 5.216345376100e+07 9.430411804066e+07  1.518810923395e-03
2.300000000000e+01 1.600764539826e+06 1.000000000000e+00 6.528885384062e+01 0.000000000000e+00 8.839579643502e-03 -1.099196478782e+08 1.618186308066e+06 -2.199524919508e+06 -4.469345844833e+07 -6.066995717895e-04 6.384801040672e-05 1.106723925301e-03 0.000000000000e+00 5.227087708202e+07 9.402001442805e+07  1.508840897547e-03
2.400000000000e+01 1.637574359413e+06 1.000000000000e+00 6.549323373170e+01 0.000000000000e+00 9.064005293274e-03 -1.099848854356e+08 1.602294128310e+06 -2.788886205917e+06 -4.496200551555e+07 -5.991480757089e-04 6.266744848199e-05 1.094807968588e-03 0.000000000000e+00 5.257859238568e+07 9.357599381007e+07  1.491749516393e-03
2.500000000000e+01 1.673781468571e+06 1.000000000000e+00 6.567656887101e+01 0.000000000000e+00 9.239798677241e-03 -1.099706644152e+08 1.597433271053e+06 -3.183431601798e+06 -4.514090462667e+07 -5.919750422525e-04 6.230635622862e-05 1.086798249440e-03 0.000000000000e+00 5.276500021455e+07 9.322593830888e+07  1.478705031894e-03
2.600000000000e+01 1.709418523672e+06 1.000000000000e+00 6.583945735150e+01 0.000000000000e+00 9.407513454819e-03 -1.099495903886e+08 1.592729752235e+06 -3.557862214175e+06 -4.530455718973e+07 -5.851137689238e-04 6.195695197358e-05 1.078969350465e-03 0.000000000000e+00 5.293733659751e+07 9.288753256222e+07  1.466072575532e-03
2.700000000000e+01 1.744518244819e+06 1.000000000000e+00 6.598257455829e+01 0.000000000000e+00 9.478078352597e-03 -1.097650790906e+08 1.605814714278e+06 -3.670437120444e+06 -4.533370205500e+07 -5.771779685718e-04 6.292897772531e-05 1.075870520371e-03 0.000000000000e+00 5.292307275534e+07 9.262498283902e+07  1.457216769776e-03
2.800000000000e+01 1.779123733143e+06 1.000000000000e+00 6.610660138925e+01 0.000000000000e+00 9.720655686133e-03 -1.098737006087e+08 1.583308225591e+06 -4.267910693305e+06 -4.558957486779e+07 -5.717086347688e-04 6.125706713718e-05 1.063182492140e-03 0.000000000000e+00 5.324372872325e+07 9.221592271860e+07  1.440935692727e-03
2.900000000000e+01 1.813258576316e+06 1.000000000000e+00 6.621219494674e+01 0.000000000000e+00 9.866711187255e-03 -1.098173154976e+08 1.578555612881e+06 -4.606653233437e+06 -4.571187484953e+07 -5.650717598950e-04 6.090401590731e-05 1.055143197114e-03 0.000000000000e+00 5.337861452687e+07 9.187867338455e+07  1.428283158566e-03
3.000000000000e+01 1.846933371041e+06 1.000000000000e+00 6.629998132217e+01 0.000000000000e+00 1.000612781316e-02 -1.097486601477e+08 1.573752205968e+06 -4.936418486976e+06 -4.582156818563e+07 -5.584473801264e-04 6.054719139378e-05 1.046969097323e-03 0.000000000000e+00 5.350221560676e+07 9.153888444421e+07  1.415515031270e-03
3.100000000000e+01 1.880068626244e+06 1.000000000000e+00 6.640753140304e+01 0.000000000000e+00 1.014082713624e-02 -1.096847118371e+08 1.569089124117e+06 -5.262075260518e+06 -4.593824232511e+07 -5.517385462660e-04 6.020079102770e-05 1.039206885201e-03 0.000000000000e+00 5.362834314089e+07 9.120587211352e+07  1.403071372210e-03
3.200000000000e+01 1.912746246806e+06 1.000000000000e+00 6.650903880481e+01 0.000000000000e+00 1.019969359423e-02 -1.095482510904e+08 1.577815263008e+06 -5.406337051433e+06 -4.597662401748e+07 -5.452443985305e-04 6.084901848812e-05 1.035274195826e-03 0.000000000000e+00 5.364373738643e+07 9.096091253645e+07  1.394514030063e-03
3.300000000000e+01 1.944992529974e+06 1.000000000000e+00 6.660028937757e+01 0.000000000000e+00 1.039688236010e-02 -1.095255731140e+08 1.559367163192e+06 -5.909486959989e+06 -4.615321646937e+07 -5.378429254793e-04 5.947858821613e-05 1.023144918864e-03 0.000000000000e+00 5.386275884778e+07 9.051656317240e+07  1.377318010195e-03
3.400000000000e+01 1.976830068916e+06 1.000000000000e+00 6.668024540017e+01 0.000000000000e+00 1.046687195341e-02 -1.093611822522e+08 1.564000905198e+06 -6.088485297104e+06 -4.618609632002e+07 -5.305157275901e-04 5.982280905080e-05 1.017717660796e-03 0.000000000000e+00 5.387858795645e+07 9.021872428067e+07  1.366692249580e-03
3.500000000000e+01 2.008299345601e+06 1.000000000000e+00 6.674866253807e+01 0.000000000000e+00 1.063573622527e-02 -1.093138083572e+08 1.548968870449e+06 -6.557103256708e+06 -4.633692847135e+07 -5.231537887233e-04 5.870614361233e-05 1.005914187917e-03 0.000000000000e+00 5.406928002840e+07 8.978267696145e+07  1.349866768441e-03
3.600000000000e+01 2.039444675167e+06 1.000000000000e+00 6.680556866857e+01 0.000000000000e+00 1.074963351115e-02 -1.091722601142e+08 1.543136378473e+06 -6.897825769917e+06 -4.641711078297e+07 -5.149180824105e-04 5.827287277986e-05 9.962369804296e-04 0.000000000000e+00 5.416239888903e+07 8.937094101347e+07  1.334464825862e-03
3.700000000000e+01 2.070350550759e+06 1.000000000000e+00 6.685110794370e+01 0.000000000000e+00 1.086139037213e-02 -1.089765824939e+08 1.536193485236e+06 -7.280509333326e+06 -4.648966414754e+07 -5.049552172581e-04 5.775711499654e-05 9.847178587584e-04 0.000000000000e+00 5.424891865825e+07 8.887694702366e+07  1.316014857857e-03
3.800000000000e+01 2.103243222883e+06 1.000000000000e+00 6.688582001013e+01 0.000000000000e+00 1.101284601395e-02 -1.078408259273e+08 1.507391054680e+06 -8.595829422208e+06 -4.655619437087e+07 -4.602988507764e-04 5.561750586948e-05 9.383342351809e-04 0.000000000000e+00 5.433094990681e+07 8.677556703964e+07  1.238361926060e-03
3.900000000000e+01 2.133056541203e+06 1.000000000000e+00 6.690898244278e+01 0.000000000000e+00 1.110240451351e-02 -1.079325153227e+08 1.507308757145e+06 -8.670218811601e+06 -4.661463855954e+07 -4.615336727394e-04 5.561139233833e-05 9.377419848683e-04 0.000000000000e+00 5.440579089795e+07 8.679371056575e+07  1.238729488019e-03
4.000000000000e+01 2.162442325650e+06 1.000000000000e+00 6.692120017560e+01 0.000000000000e+00 1.118485476465e-02 -1.080646136419e+08 1.508287410054e+06 -8.679157392847e+06 -4.666173963580e+07 -4.646907131919e-04 5.568409226869e-05 9.391594489686e-04 0.000000000000e+00 5.446850355685e+07 8.690255459236e+07  1.242448694334e-03
4.200000000000e+01 2.219725187330e+06 1.000000000000e+00 6.697479474566e+01 0.000000000000e+00 1.133939643220e-02 -1.083205035694e+08 1.510244446785e+06 -8.697227817834e+06 -4.676352475139e+07 -4.704146062041e-04 5.582947214013e-05 9.422688517623e-04 0.000000000000e+00 5.459375204619e+07 8.711138474571e+07  1.249707290309e-03
4.400000000000e+01 2.275490824415e+06 1.000000000000e+00 6.700716875485e+01 0.000000000000e+00 1.148349754598e-02 -1.085467437294e+08 1.511913288557e+06 -8.712474915962e+06 -4.684813580753e+07 -4.756751157759e-04 5.595344324318e-05 9.448452273457e-04 0.000000000000e+00 5.470245148428e+07 8.729731774627e+07  1.256117449026e-03
5.000000000000e+01 2.427012691325e+06 1.000000000000e+00 6.679476010369e+01 0.000000000000e+00 1.178461537683e-02 -1.088758958216e+08 1.513538695679e+06 -8.725197606858e+06 -4.687885347840e+07 -4.867598228569e-04 5.607418777227e-05 9.455136123164e-04 0.000000000000e+00 5.482664896897e+07 8.758778985933e+07  1.265149041918e-03
6.500000000000e+01 2.758397042957e+06 1.000000000000e+00 6.601327659366e+01 0.000000000000e+00 1.229697586264e-02 -1.090322556324e+08 1.511435823834e+06 -8.697777768569e+06 -4.664881041263e+07 -5.011119296974e-04 5.591797443521e-05 9.379876067242e-04 0.000000000000e+00 5.479294793785e+07 8.778578812635e+07  1.268996121226e-03
8.000000000000e+01 3.013450391591e+06 1.000000000000e+00 6.501253197491e+01 0.000000000000e+00 1.254050314830e-02 -1.086931540124e+08 1.505246442887e+06 -8.631868180883e+06 -4.618073100431e+07 -5.059025332646e-04 5.545819185057e-05 9.230498705293e-04 0.000000000000e+00 5.450191773253e+07 8.758874257874e+07  1.258633599428e-03
1.000000000000e+02 3.314130008803e+06 1.000000000000e+00 6.391116481201e+01 0.000000000000e+00 1.274492972582e-02 -1.081754371629e+08 1.497230534052e+06 -8.548048214178e+06 -4.561828517098e+07 -5.075638955206e-04 5.486272433712e-05 9.052723383401e-04 0.000000000000e+00 5.411392351600e+07 8.725441695907e+07  1.243242705476e-03
1.860000000000e+02 3.912611204981e+06 1.000000000000e+00 6.127460364766e+01 0.000000000000e+00 1.299327751631e-02 -1.064925595121e+08 1.474443901314e+06 -8.313919170508e+06 -4.412698754976e+07 -5.004480658522e-04 5.317000304804e-05 8.585775054599e-04 0.000000000000e+00 5.297782207746e+07 8.609334980462e+07  1.194051171081e-03
2.720000000000e+02 4.202932554198e+06 1.000000000000e+00 5.927316690374e+01 0.000000000000e+00 1.280858632633e-02 -1.048815412551e+08 1.455824724210e+06 -8.126634469961e+06 -4.289019845017e+07 -4.865481257179e-04 5.178686417746e-05 8.195959134952e-04 0.000000000000e+00 5.196612472506e+07 8.492838307691e+07  1.146858767904e-03
3.580000000000e+02 4.344298235920e+06 1.000000000000e+00 5.786901994322e+01 0.000000000000e+00 1.261516858209e-02 -1.036613381625e+08 1.442149454502e+06 -7.989784943314e+06 -4.199348164755e+07 -4.745329206650e-04 5.077098699916e-05 7.913722718162e-04 0.000000000000e+00 5.121486825114e+07 8.403779144642e+07  1.111178131640e-03
4.440000000000e+02 4.416427124637e+06 1.000000000000e+00 5.679914792531e+01 0.000000000000e+00 1.243368139397e-02 -1.027011216705e+08 1.431609523683e+06 -7.884654330377e+06 -4.130066736937e+07 -4.646008384352e-04 4.998802070973e-05 7.695440213931e-04 0.000000000000e+00 5.062881445675e+07 8.333398235305e+07  1.083087782284e-03
5.300000000000e+02 4.455391632438e+06 1.000000000000e+00 5.597604571250e+01 0.000000000000e+00 1.227617072081e-02 -1.019464226646e+08 1.423438244397e+06 -7.803328714271e+06 -4.076264526951e+07 -4.565528390697e-04 4.938101139131e-05 7.525810091394e-04 0.000000000000e+00 5.017079888281e+07 8.277937654177e+07  1.061002883781e-03
6.160000000000e+02 4.477907093358e+06 1.000000000000e+00 5.534879648942e+01 0.000000000000e+00 1.214550611445e-02 -1.013618975406e+08 1.417175382408e+06 -7.741100752221e+06 -4.034969438095e+07 -4.501800817522e-04 4.891577021502e-05 7.395541575831e-04 0.000000000000e+00 4.981756422459e+07 8.234899277015e+07  1.043893321586e-03
7.020000000000e+02 4.491717405633e+06 1.000000000000e+00 5.488766012867e+01 0.000000000000e+00 1.204521679943e-02 -1.009284766499e+08 1.412558052428e+06 -7.695265249583e+06 -4.004494929090e+07 -4.454006948709e-04 4.857276855933e-05 7.299375157652e-04 0.000000000000e+00 4.955623039680e+07 8.202959706952e+07  1.031204719822e-03
7.880000000000e+02 4.501335977491e+06 1.000000000000e+00 5.452634195931e+01 0.000000000000e+00 1.195464952026e-02 -1.005813720447e+08 1.408936031971e+06 -7.659423299284e+06 -3.980389089611e+07 -4.414618356280e-04 4.830370418257e-05 7.223151906839e-04 0.000000000000e+00 4.934822874671e+07 8.177275883495e+07  1.021029931248e-03
8.740000000000e+02 4.509722045069e+06 1.000000000000e+00 5.394399347024e+01 0.000000000000e+00 1.182703858203e-02 -1.000340229361e+08 1.403102634469e+06 -7.601514379378e+06 -3.941903555443e+07 -4.354263528549e-04 4.787036608238e-05 7.101714664468e-04 0.000000000000e+00 4.901819095663e+07 8.136987209375e+07  1.005008312353e-03
9.370000000000e+02 4.515095919892e+06 1.000000000000e+00 5.354017271306e+01 0.000000000000e+00 1.172210178534e-02 -9.963549300205e+07 1.398948926072e+06 -7.560436302223e+06 -3.914610038782e+07 -4.307614043507e-04 4.756180488719e-05 7.015596316954e-04 0.000000000000e+00 4.878067656403e+07 8.107459284335e+07  9.933440956386e-04
1.000000000000e+03 4.519285921411e+06 1.000000000000e+00 5.322023068126e+01 0.000000000000e+00 1.163441217465e-02 -9.930811708231e+07 1.395551906720e+06 -7.526879911075e+06 -3.892602372910e+07 -4.267760032271e-04 4.730945487821e-05 6.946317360429e-04 0.000000000000e+00 4.858700690750e+07 8.083125731315e+07  9.837772691185e-04
1.100000000000e+03 4.523431231599e+06 1.000000000000e+00 5.289815608528e+01 0.000000000000e+00 1.154275031653e-02 -9.897124830190e+07 1.392069470710e+06 -7.492508456356e+06 -3.870208144999e+07 -4.225815903213e-04 4.705075963172e-05 6.875905339941e-04 0.000000000000e+00 4.838861273608e+07 8.058038504395e+07  9.739406379281e-04
1.200000000000e+03 4.526692601910e+06 1.000000000000e+00 5.262163516755e+01 0.000000000000e+00 1.146652987366e-02 -9.868762286565e+07 1.389127714556e+06 -7.463450871612e+06 -3.851164982602e+07 -4.191201058656e-04 4.683222917459e-05 6.815966411083e-04 0.000000000000e+00 4.822090785443e+07 8.036966467648e+07  9.656532885867e-04
1.300000000000e+03 4.529597953562e+06 1.000000000000e+00 5.235621146220e+01 0.000000000000e+00 1.139396876376e-02 -9.841706111013e+07 1.386319211051e+06 -7.435704053659e+06 -3.832941448748e+07 -4.158394103776e-04 4.662359748565e-05 6.758584960582e-04 0.000000000000e+00 4.806072655042e+07 8.016883820595e+07  9.577457908779e-04
1.400000000000e+03 4.532337486591e+06 1.000000000000e+00 5.208448068658e+01 0.000000000000e+00 1.131900505633e-02 -9.813923850090e+07 1.383438230942e+06 -7.407245676952e+06 -3.814257991164e+07 -4.124598548518e-04 4.640958182039e-05 6.699759515189e-04 0.000000000000e+00 4.789635469650e+07 7.996260920653e+07  9.496265787403e-04
1.500000000000e+03 4.534977393509e+06 1.000000000000e+00 5.179637439358e+01 0.000000000000e+00 1.123810239442e-02 -9.784241340946e+07 1.380366065514e+06 -7.376913212147e+06 -3.794375091144e+07 -4.088200000342e-04 4.618136381715e-05 6.637175087757e-04 0.000000000000e+00 4.772102584435e+07 7.974214859403e+07  9.409537028653e-04
1.600000000000e+03 4.537538419910e+06 1.000000000000e+00 5.148575268691e+01 0.000000000000e+00 1.114909228790e-02 -9.751943822056e+07 1.377030591849e+06 -7.343996136646e+06 -3.772842109276e+07 -4.048217434261e-04 4.593358577350e-05 6.569421783146e-04 0.000000000000e+00 4.753061848332e+07 7.950209633596e+07  9.315190982803e-04
1.700000000000e+03 4.540025723991e+06 1.000000000000e+00 5.114882390051e+01 0.000000000000e+00 1.108219352063e-02 -9.719395315937e+07 1.367440432932e+06 -7.404994541691e+06 -3.753130546724e+07 -4.000537358152e-04 4.522117396818e-05 6.473550857510e-04 0.000000000000e+00 4.737675105610e+07 7.918491835346e+07  9.188162399339e-04
1.800000000000e+03 4.542439111581e+06 1.000000000000e+00 5.078330093702e+01 0.000000000000e+00 1.094191488566e-02 -9.677914199070e+07 1.369409420532e+06 -7.268828158707e+06 -3.723823460839e+07 -3.955319528794e-04 4.536744161852e-05 6.415272052185e-04 0.000000000000e+00 4.709540158593e+07 7.895135511859e+07  9.099020844939e-04
1.900000000000e+03 4.544778414397e+06 1.000000000000e+00 5.038789692756e+01 0.000000000000e+00 1.085675384485e-02 -9.638203638545e+07 1.358609093319e+06 -7.335113670447e+06 -3.700075261750e+07 -3.896030757745e-04 4.456513159695e-05 6.302444122640e-04 0.000000000000e+00 4.690596755780e+07 7.857040267521e+07  8.947077121683e-04
2.000000000000e+03 4.547042748876e+06 1.000000000000e+00 4.996201021308e+01 0.000000000000e+00 1.069211636946e-02 -9.590077022373e+07 1.360397462656e+06 -7.180003262093e+06 -3.666093473439e+07 -3.843492825689e-04 4.469798189058e-05 6.233838489159e-04 0.000000000000e+00 4.658056940674e+07 7.829738822936e+07  8.842639074120e-04