 TITLE = "Time curves in points"
 VARIABLES = "TIME"  "PRESSURE1"  "SATURATION1"  "TEMPERATURE1"  "DISPLACEMENT_X1"  "DISPLACEMENT_Y1"  "STRESS_XX"  "STRESS_XY"  "STRESS_YY"  "STRESS_ZZ"  "STRAIN_XX"  "STRAIN_XY"  "STRAIN_YY"  "STRAIN_PLS"  p_(1st_Invariant)  q_(2nd_Invariant)   Effective_Strain
 ZONE T="POINT=POINT2"
0.000000000000e+00 -7.000000000000e+07 8.894919982500e-01 2.500000000000e+01 0.000000000000e+00 0.000000000000e+00 0.000000000000e+00 0.000000000000e+00 0.000000000000e+00 0.000000000000e+00 0.000000000000e+00 0.000000000000e+00 0.000000000000e+00 0.000000000000e+00 0.000000000000e+00 0.000000000000e+00  0.000000000000e+00
1.000000000000e-03 -6.999999537629e+07 6.684760111000e-01 3.309920026860e+01 0.000000000000e+00 1.043974262899e-04 2.100098682072e+07 -6.397360243614e+05 1.484832183186e+07 1.064879426976e+07 1.702074943385e-05 -4.540968113931e-04 -5.779119111201e-03 0.000000000000e+00 -1.549936764078e+07 9.086109781077e+06  5.840846179113e-03
2.000000000000e-03 -7.015897607413e+07 6.679155789141e-01 3.680474815993e+01 0.000000000000e+00 1.041210984636e-04 2.095065239433e+07 -6.448833189455e+05 1.479821615481e+07 1.061284740217e+07 1.718136087865e-05 -4.552552113061e-04 -5.806198810913e-03 0.000000000000e+00 -1.545390531710e+07 9.075660920923e+06  5.868029494676e-03
3.000000000000e-03 -7.037098642507e+07 6.671689085523e-01 3.938015743566e+01 0.000000000000e+00 1.037585333613e-04 2.089602131868e+07 -6.511619504185e+05 1.474003948760e+07 1.057405574573e+07 1.728042763221e-05 -4.578142312761e-04 -5.852906575245e-03 0.000000000000e+00 -1.540337218400e+07 9.064727724681e+06  5.914958692274e-03
4.000000000000e-03 -7.061767538443e+07 6.663004324713e-01 4.141326107397e+01 0.000000000000e+00 1.032819461214e-04 2.083855797596e+07 -6.581455040120e+05 1.467678794524e+07 1.053326183102e+07 1.735833133398e-05 -4.611839210417e-04 -5.911072988258e-03 0.000000000000e+00 -1.534953591741e+07 9.053570572768e+06  5.973421412787e-03
1.000000000000e-02 -7.212436535070e+07 6.610102006729e-01 4.814031306238e+01 0.000000000000e+00 1.098956422190e-04 2.052250965131e+07 -6.964233941874e+05 1.430263400467e+07 1.030483465981e+07 1.785029588918e-05 -4.859223384029e-04 -6.299575056534e-03 0.000000000000e+00 -1.504332610526e+07 8.999449098615e+06  6.364414769763e-03
2.000000000000e-02 -7.521838927218e+07 6.501913313028e-01 5.432127347822e+01 0.000000000000e+00 9.849241921227e-05 1.997569684061e+07 -7.600747991006e+05 1.361576083359e+07 9.901463277206e+06 1.954629631404e-05 -5.414555651066e-04 -7.098529218026e-03 0.000000000000e+00 -1.449764031714e+07 8.921918415963e+06  7.169921300775e-03
3.000000000000e-02 -7.885304567710e+07 6.375369879676e-01 5.823716234588e+01 0.000000000000e+00 9.873606444957e-05 1.941631838187e+07 -8.171404284171e+05 1.284227289788e+07 9.467244358521e+06 2.355112507212e-05 -6.134100767244e-04 -8.036579678808e-03 0.000000000000e+00 -1.390861187942e+07 8.876916031699e+06  8.118205087898e-03
4.000000000000e-02 -8.260242274851e+07 6.245444013984e-01 6.095065593314e+01 0.000000000000e+00 1.013141007234e-04 1.889750796463e+07 -8.573178445098e+05 1.206167568752e+07 9.044094810948e+06 2.974698659823e-05 -6.941189497369e-04 -8.997766831207e-03 0.000000000000e+00 -1.333442615437e+07 8.869445060538e+06  9.092510799030e-03
5.000000000000e-02 -8.623995729462e+07 6.178036151057e-01 6.295231972477e+01 0.000000000000e+00 1.048976833751e-04 1.829648534817e+07 -8.839505881155e+05 1.120645678885e+07 8.566216272227e+06 2.450789379138e-05 -7.806981506521e-04 -1.006754796498e-02 0.000000000000e+00 -1.268971946975e+07 8.848890413524e+06  1.017011926516e-02
6.000000000000e-02 -8.968091162473e+07 6.112976919426e-01 6.450103373033e+01 0.000000000000e+00 1.107815364865e-04 1.777904259509e+07 -8.957010343236e+05 1.038297771976e+07 8.125455280959e+06 2.119940391946e-05 -8.693620354219e-04 -1.108936603655e-02 0.000000000000e+00 -1.209582519860e+07 8.882668892026e+06  1.120164932066e-02
7.000000000000e-02 -9.292392862985e+07 6.047947078584e-01 6.575112424600e+01 0.000000000000e+00 1.166718030910e-04 1.733342103160e+07 -8.963727722302e+05 9.594638611929e+06 7.719504201221e+06 1.971259196539e-05 -9.581400783971e-04 -1.205682747785e-02 0.000000000000e+00 -1.154918794825e+07 8.962510365393e+06  1.218028102988e-02
8.000000000000e-02 -9.597684616067e+07 5.987103601926e-01 6.679366694606e+01 0.000000000000e+00 1.233464718012e-04 1.692964565646e+07 -8.900809355935e+05 8.837509410428e+06 7.337507299264e+06 1.824222147785e-05 -1.044880920256e-03 -1.297566154303e-02 0.000000000000e+00 -1.103488745538e+07 9.069047856664e+06  1.311030734049e-02
9.000000000000e-02 -9.886346673501e+07 5.929822442242e-01 6.768828995954e+01 0.000000000000e+00 1.294083871058e-04 1.655924980789e+07 -8.782091358930e+05 8.122314704007e+06 6.980244415281e+06 1.702121705334e-05 -1.128253662921e-03 -1.384004317951e-02 0.000000000000e+00 -1.055393630906e+07 9.188880522710e+06  1.398576162728e-02
1.000000000000e-01 -1.016032157363e+08 5.873455859507e-01 6.846872321335e+01 0.000000000000e+00 1.348269910381e-04 1.621956890761e+07 -8.618587413516e+05 7.450683257025e+06 6.647368058231e+06 1.682602245827e-05 -1.208254918852e-03 -1.465363541607e-02 0.000000000000e+00 -1.010587340762e+07 9.317255575086e+06  1.481065549757e-02
2.000000000000e-01 -1.181504397065e+08 5.520553191269e-01 7.270598278287e+01 0.000000000000e+00 2.287165952460e-04 1.422410613032e+07 -7.036301916685e+05 3.541215846201e+06 4.708040431565e+06 5.812058828042e-06 -1.665936768570e-03 -1.933861961686e-02 0.000000000000e+00 -7.491120802694e+06 1.022281036453e+07  1.955557914282e-02
3.000000000000e-01 -1.336338807773e+08 5.238622779239e-01 7.551347400633e+01 0.000000000000e+00 3.377381936687e-04 1.234412756808e+07 -6.109770234626e+05 2.891841840944e+05 3.027298621554e+06 -1.216648835188e-05 -2.026254777023e-03 -2.327188533947e-02 0.000000000000e+00 -5.220203457910e+06 1.099686295772e+07  2.352902002675e-02
4.000000000000e-01 -1.468337430341e+08 5.053221652510e-01 7.753845423633e+01 0.000000000000e+00 4.425281719394e-04 1.069056850886e+07 -5.602280779540e+05 -2.513808891642e+06 1.568619546908e+06 -4.223122281194e-05 -2.312365569143e-03 -2.658478841436e-02 0.000000000000e+00 -3.248459721375e+06 1.174978489912e+07  2.686393779709e-02
5.000000000000e-01 -1.576243848337e+08 4.899377774401e-01 7.910019766922e+01 0.000000000000e+00 5.443633703297e-04 9.381312865055e+06 -5.213415485982e+05 -4.719378916154e+06 4.220974408381e+05 -6.523563958232e-05 -2.530737468325e-03 -2.911540001184e-02 0.000000000000e+00 -1.694677129913e+06 1.239279248026e+07  2.941131258882e-02
6.000000000000e-01 -1.663707379049e+08 4.767885876003e-01 8.034131136759e+01 0.000000000000e+00 6.437024321257e-04 8.330905049501e+06 -4.874957893221e+05 -6.432939583130e+06 -4.763733107802e+05 -8.101717964987e-05 -2.697140197653e-03 -3.104228548252e-02 0.000000000000e+00 -4.738640518636e+05 1.289274709045e+07  3.135185463540e-02
7.000000000000e-01 -1.732967281379e+08 4.680998911494e-01 8.134433192503e+01 0.000000000000e+00 7.405749360722e-04 7.397718954698e+06 -4.594727813018e+05 -7.878590067276e+06 -1.249200623302e+06 -9.930753802036e-05 -2.830477218955e-03 -3.264383393613e-02 0.000000000000e+00 5.766905786268e+05 1.329192106777e+07  3.296092809856e-02
8.000000000000e-01 -1.786683255139e+08 4.623781747469e-01 8.216160035511e+01 0.000000000000e+00 8.352121006353e-04 6.594922022465e+06 -4.396899876275e+05 -9.077233859535e+06 -1.898762431604e+06 -1.184745953544e-04 -2.934998650859e-03 -3.394658737837e-02 0.000000000000e+00 1.460358089558e+06 1.360973110219e+07  3.426668460627e-02
9.000000000000e-01 -1.827329822397e+08 4.580426423490e-01 8.284030403583e+01 0.000000000000e+00 9.275985449797e-04 5.920516949380e+06 -4.250183199342e+05 -1.003793716062e+07 -2.427266391280e+06 -1.347988767886e-04 -3.014110961600e-03 -3.494942279385e-02 0.000000000000e+00 2.181562200841e+06 1.384492501382e+07  3.527072123008e-02
1.000000000000e+00 -1.857446759371e+08 4.548262752507e-01 8.340750001112e+01 0.000000000000e+00 1.017767651149e-03 5.350256971696e+06 -4.156797136302e+05 -1.083996722157e+07 -2.869146579313e+06 -1.489192828095e-04 -3.075579146676e-03 -3.574233584956e-02 0.000000000000e+00 2.786285609729e+06 1.404016868879e+07  3.606371565962e-02
2.000000000000e+00 -1.865346205097e+08 4.540266985726e-01 8.537368197315e+01 0.000000000000e+00 1.765506847058e-03 2.570654795336e+06 -3.905459208298e+05 -1.412245748726e+07 -4.778152901453e+06 -1.871886883191e-04 -3.251297568201e-03 -3.796491256228e-02 0.000000000000e+00 5.443318531127e+06 1.450682868745e+07  3.828806381776e-02
3.000000000000e+00 -1.779756228042e+08 4.632179860910e-01 8.594055505495e+01 0.000000000000e+00 2.399975928189e-03 9.028099278155e+05 -3.878215257802e+05 -1.568286703920e+07 -5.763218086007e+06 -1.982262442237e-04 -3.269990031133e-03 -3.821048941249e-02 0.000000000000e+00 6.847758399129e+06 1.447104831214e+07  3.853031244865e-02
4.000000000000e+00 -1.659453125512e+08 4.777255346243e-01 8.593358510471e+01 0.000000000000e+00 2.952404000130e-03 -1.999508334902e+05 -4.006731170253e+05 -1.639278762336e+07 -6.290061177074e+06 -2.014240185814e-04 -3.211449351420e-03 -3.754084829891e-02 0.000000000000e+00 7.627599877974e+06 1.418318939148e+07  3.785147890007e-02
5.000000000000e+00 -1.534804881397e+08 4.962754141622e-01 8.574019153169e+01 0.000000000000e+00 3.441795746262e-03 -1.079202237071e+06 -4.212245925546e+05 -1.672388041898e+07 -6.627545161661e+06 -2.108283183067e-04 -3.118636170348e-03 -3.658332826696e-02 0.000000000000e+00 8.143542605902e+06 1.375755485536e+07  3.687613359316e-02
6.000000000000e+00 -1.417531262708e+08 5.128625752759e-01 8.559242984498e+01 0.000000000000e+00 3.883390445424e-03 -1.697375755890e+06 -4.326928326014e+05 -1.676148114545e+07 -6.787452394101e+06 -2.038706071608e-04 -3.016692366242e-03 -3.538181784731e-02 0.000000000000e+00 8.415436431813e+06 1.329362139200e+07  3.566514521512e-02
7.000000000000e+00 -1.313745196677e+08 5.275460245788e-01 8.532214683156e+01 0.000000000000e+00 4.284707025570e-03 -2.150896998978e+06 -4.434527830062e+05 -1.672773713724e+07 -6.875308744445e+06 -1.924284766784e-04 -2.919988073382e-03 -3.419117964586e-02 0.000000000000e+00 8.584647626889e+06 1.290454536621e+07  3.446844105447e-02
8.000000000000e+00 -1.218730955128e+08 5.455280006145e-01 8.524103738388e+01 0.000000000000e+00 4.656165088645e-03 -2.614082750168e+06 -4.597298373699e+05 -1.674587196868e+07 -6.990187973992e+06 -1.932069528120e-04 -2.826157801072e-03 -3.315148699810e-02 0.000000000000e+00 8.783380897614e+06 1.255586004205e+07  3.341578706356e-02
9.000000000000e+00 -1.135456718087e+08 5.638272305561e-01 8.515896217983e+01 0.000000000000e+00 5.000104772538e-03 -3.084368763017e+06 -4.726327373688e+05 -1.676172832390e+07 -7.110861939929e+06 -1.962223861138e-04 -2.740045103915e-03 -3.221336492571e-02 0.000000000000e+00 8.985653008949e+06 1.220168685161e+07  3.246447198470e-02
1.000000000000e+01 -1.059793808678e+08 5.802612887756e-01 8.507174831353e+01 0.000000000000e+00 5.320527400416e-03 -3.479952538001e+06 -4.837647498506e+05 -1.667694800772e+07 -7.176058989961e+06 -1.953655926429e-04 -2.651486481207e-03 -3.123188081455e-02 0.000000000000e+00 9.110986511895e+06 1.182144141928e+07  3.147154355453e-02
1.100000000000e+01 -9.909822173684e+07 5.940697248586e-01 8.503712414976e+01 0.000000000000e+00 5.622814569152e-03 -3.781492672089e+06 -4.910025285902e+05 -1.648672218197e+07 -7.178109443827e+06 -1.897494154617e-04 -2.561802094315e-03 -3.020608548342e-02 0.000000000000e+00 9.148774765961e+06 1.142489900174e+07  3.043682815143e-02
1.200000000000e+01 -9.295714246533e+07 6.064074956181e-01 8.500709436570e+01 0.000000000000e+00 5.905838756018e-03 -4.037938522361e+06 -4.959850415093e+05 -1.626566539444e+07 -7.157186649708e+06 -1.855096844463e-04 -2.474127786629e-03 -2.919909911896e-02 0.000000000000e+00 9.153596855501e+06 1.103828350219e+07  2.942055425127e-02
1.300000000000e+01 -8.732663211938e+07 6.177177540097e-01 8.495625988002e+01 0.000000000000e+00 6.172399392171e-03 -4.242915404724e+06 -5.085974653694e+05 -1.606039917144e+07 -7.125950209889e+06 -1.828133929093e-04 -2.388669661376e-03 -2.822570217424e-02 0.000000000000e+00 9.143088262017e+06 1.070843636582e+07  2.843731484928e-02
1.400000000000e+01 -8.200086678903e+07 6.338216894031e-01 8.486705769884e+01 0.000000000000e+00 6.424694202921e-03 -4.498121309049e+06 -5.282557990281e+05 -1.593593273895e+07 -7.141953633345e+06 -1.896923734629e-04 -2.306506791372e-03 -2.737534441693e-02 0.000000000000e+00 9.192002560449e+06 1.041205487188e+07  2.757195117907e-02
1.500000000000e+01 -7.695663750149e+07 6.518493274379e-01 8.476324698110e+01 0.000000000000e+00 6.662851605035e-03 -4.741813870989e+06 -5.448819475495e+05 -1.579185896483e+07 -7.150446150787e+06 -1.993510173718e-04 -2.224435394601e-03 -2.653956685340e-02 0.000000000000e+00 9.228039662202e+06 1.010842221809e+07  2.671969308236e-02
1.600000000000e+01 -7.222794921433e+07 6.687652539924e-01 8.464730141971e+01 0.000000000000e+00 6.887638429418e-03 -4.931107703484e+06 -5.582203540845e+05 -1.559624964648e+07 -7.125079301545e+06 -2.047116347898e-04 -2.143673779282e-03 -2.567229646988e-02 0.000000000000e+00 9.217478883837e+06 9.802784064556e+06  2.583871720747e-02
1.700000000000e+01 -6.776362252554e+07 6.847516320724e-01 8.451638000480e+01 0.000000000000e+00 7.100305775050e-03 -5.084355013484e+06 -5.699134578225e+05 -1.535985025035e+07 -7.075211300327e+06 -2.069002606625e-04 -2.063406170514e-03 -2.478446032712e-02 0.000000000000e+00 9.173138854722e+06 9.490346720393e+06  2.493907185915e-02
1.800000000000e+01 -6.352440944421e+07 6.999404150534e-01 8.436963522402e+01 0.000000000000e+00 7.301700443592e-03 -5.204326146886e+06 -5.812123758874e+05 -1.508585880244e+07 -7.002427493399e+06 -2.065717973928e-04 -1.982885808795e-03 -2.386961461279e-02 0.000000000000e+00 9.097537480909e+06 9.171874529192e+06  2.401386876097e-02
1.900000000000e+01 -5.947137100735e+07 7.144609327813e-01 8.420550106524e+01 0.000000000000e+00 7.492382749664e-03 -5.297551123730e+06 -5.921131469699e+05 -1.477333075323e+07 -6.908675255965e+06 -2.037494823604e-04 -1.901827388918e-03 -2.293097891069e-02 0.000000000000e+00 8.993185710975e+06 8.841451083387e+06  2.306620850557e-02
2.000000000000e+01 -5.570661702804e+07 7.279403917637e-01 8.402769559491e+01 0.000000000000e+00 7.712619260755e-03 -5.367102905741e+06 -6.022575432488e+05 -1.445569227688e+07 -6.806468020270e+06 -1.992801787265e-04 -1.823722767509e-03 -2.201411111633e-02 0.000000000000e+00 8.876421067630e+06 8.525290180057e+06  2.214162864453e-02
2.100000000000e+01 -5.208363275323e+07 7.403246156712e-01 8.393963606883e+01 0.000000000000e+00 7.847340334764e-03 -5.400903375850e+06 -6.110619793275e+05 -1.406069218259e+07 -6.667853564983e+06 -1.930287511759e-04 -1.741904291795e-03 -2.104669308584e-02 0.000000000000e+00 8.709816374473e+06 8.169808695447e+06  2.116697013630e-02
2.200000000000e+01 -4.869858880613e+07 7.518073524590e-01 8.385004960054e+01 0.000000000000e+00 8.012703207791e-03 -5.429973171819e+06 -6.193662239312e+05 -1.368875934222e+07 -6.535609467057e+06 -1.858862221318e-04 -1.664345139751e-03 -2.011584379771e-02 0.000000000000e+00 8.551447327033e+06 7.838980191277e+06  2.022999262000e-02
2.300000000000e+01 -4.556372448480e+07 7.623569514084e-01 8.375183767144e+01 0.000000000000e+00 8.171559034156e-03 -5.443187176301e+06 -6.298508481307e+05 -1.332243410929e+07 -6.400817824838e+06 -1.790437480634e-04 -1.588933212888e-03 -1.921586217114e-02 0.000000000000e+00 8.388813036809e+06 7.526241865120e+06  1.932395047405e-02
2.400000000000e+01 -4.249966740168e+07 7.735265815316e-01 8.363904554005e+01 0.000000000000e+00 8.175528591295e-03 -5.434854172632e+06 -6.420139877555e+05 -1.283534095493e+07 -6.220357663449e+06 -1.745914482210e-04 -1.503198248875e-03 -1.823006469375e-02 0.000000000000e+00 8.163517597005e+06 7.127949075946e+06  1.832925918968e-02
2.500000000000e+01 -3.946992250502e+07 7.878662753442e-01 8.350995276333e+01 0.000000000000e+00 8.467304799660e-03 -5.431926353772e+06 -6.559506571754e+05 -1.255047041387e+07 -6.109694170523e+06 -1.689823556011e-04 -1.432315972851e-03 -1.738967107573e-02 0.000000000000e+00 8.030696979388e+06 6.899212453380e+06  1.748271302502e-02
2.600000000000e+01 -3.648795451244e+07 8.025711750676e-01 8.336809702068e+01 0.000000000000e+00 8.605263564419e-03 -5.404743253159e+06 -6.695309902985e+05 -1.212779650965e+07 -5.946476153903e+06 -1.649663419995e-04 -1.350070002307e-03 -1.644222706033e-02 0.000000000000e+00 7.826338638905e+06 6.572338679939e+06  1.652663600308e-02
2.700000000000e+01 -3.356096771340e+07 8.175875674108e-01 8.321341909910e+01 0.000000000000e+00 8.736973029645e-03 -5.357008305676e+06 -6.834574535908e+05 -1.167295716340e+07 -5.766351789326e+06 -1.605873196350e-04 -1.265126109453e-03 -1.546344987345e-02 0.000000000000e+00 7.598772419466e+06 6.234959649075e+06  1.553906266564e-02
2.800000000000e+01 -3.067654820469e+07 8.329529029988e-01 8.304585358356e+01 0.000000000000e+00 8.739978185129e-03 -5.289522883442e+06 -6.974319876032e+05 -1.108258048047e+07 -5.535670002070e+06 -1.576852110629e-04 -1.168759593576e-03 -1.437728185113e-02 0.000000000000e+00 7.302591121993e+06 5.801154576710e+06  1.444167615937e-02
2.900000000000e+01 -2.782238128983e+07 8.487208650065e-01 8.286538434584e+01 0.000000000000e+00 8.982688107103e-03 -5.199619289214e+06 -7.119559849474e+05 -1.066173407561e+07 -5.353306505691e+06 -1.504512773878e-04 -1.086120632123e-03 -1.339756433456e-02 0.000000000000e+00 7.071553290170e+06 5.526255916634e+06  1.345513504578e-02
3.000000000000e+01 -2.498527390263e+07 8.648790537061e-01 8.267204413062e+01 0.000000000000e+00 9.096845905417e-03 -5.085860858062e+06 -7.262227697104e+05 -1.009745918576e+07 -5.116349788855e+06 -1.445040771845e-04 -9.911993655856e-04 -1.229905057138e-02 0.000000000000e+00 6.766556610893e+06 5.152324488254e+06  1.234737591473e-02
3.100000000000e+01 -2.214935220433e+07 8.814778513777e-01 8.255052623530e+01 0.000000000000e+00 9.207172160047e-03 -4.947335447567e+06 -7.401523562732e+05 -9.489875096412e+06 -4.857227725825e+06 -1.377975858211e-04 -8.920964948584e-04 -1.114827334525e-02 0.000000000000e+00 6.431479423268e+06 4.763987856095e+06  1.118723782130e-02
3.200000000000e+01 -1.935151532260e+07 8.982243693000e-01 8.242766319951e+01 0.000000000000e+00 9.313519215694e-03 -4.793027970080e+06 -7.535494980056e+05 -8.855822345713e+06 -4.584218301673e+06 -1.303320600994e-04 -7.907678673561e-04 -9.965895492351e-03 0.000000000000e+00 6.077689539155e+06 4.370556131720e+06  9.995655315197e-03
3.300000000000e+01 -1.652325709043e+07 9.153678300352e-01 8.229794232776e+01 0.000000000000e+00 9.415960783063e-03 -4.608653825591e+06 -7.657163898738e+05 -8.170406645297e+06 -4.284386906435e+06 -1.217642429930e-04 -6.845755892426e-04 -8.718547238552e-03 0.000000000000e+00 5.687815792441e+06 3.962973071615e+06  8.739119886430e-03
3.400000000000e+01 -1.363663996599e+07 9.328905472607e-01 8.215991193400e+01 0.000000000000e+00 9.514357307342e-03 -4.385493522527e+06 -7.758815967737e+05 -7.420465997253e+06 -3.950507560198e+06 -1.117347425151e-04 -5.725042099691e-04 -7.389951714873e-03 0.000000000000e+00 5.252155693326e+06 3.539267987728e+06  7.401448497428e-03
3.500000000000e+01 -1.065695232401e+07 9.506820671359e-01 8.201296683173e+01 0.000000000000e+00 9.609139360917e-03 -4.121129843097e+06 -7.832525052173e+05 -6.596771857761e+06 -3.578370293814e+06 -1.000969256642e-04 -4.533762503309e-04 -5.963648173141e-03 0.000000000000e+00 4.765423998224e+06 3.099600477152e+06  5.966139970932e-03
3.600000000000e+01 -7.548473716874e+06 9.684051207575e-01 8.185688143611e+01 0.000000000000e+00 9.700004836434e-03 -3.810998714057e+06 -7.865068054984e+05 -5.693679154691e+06 -3.164145686052e+06 -8.614905269794e-05 -3.268505714880e-04 -4.425679155224e-03 0.000000000000e+00 4.222941184933e+06 2.652640362066e+06  4.419647436815e-03
3.700000000000e+01 -4.219405969535e+06 9.854150730342e-01 8.169151101146e+01 0.000000000000e+00 9.783335924564e-03 -3.461335094068e+06 -7.853056157878e+05 -4.694848092455e+06 -2.702846341393e+06 -6.975477517368e-05 -1.895363604142e-04 -2.735831876296e-03 0.000000000000e+00 3.619676509305e+06 2.209656075330e+06  2.721502625817e-03
3.800000000000e+01 2.090572040010e+06 1.000000000000e+00 8.151767926150e+01 0.000000000000e+00 9.772178664809e-03 -3.331686306393e+06 -7.861051959052e+05 -3.287031337681e+06 -2.133027597277e+06 -4.053710955883e-05 5.011122208572e-05 2.258624314952e-04 0.000000000000e+00 2.917248413784e+06 1.799759660929e+06  2.633368737564e-04
3.900000000000e+01 2.140131968261e+06 1.000000000000e+00 8.133875740798e+01 0.000000000000e+00 9.962946010350e-03 -3.394360951297e+06 -7.857001613699e+05 -3.384126852932e+06 -2.182624746019e+06 -4.018324340538e-05 4.504193539063e-05 1.762933182457e-04 0.000000000000e+00 2.987037516749e+06 1.818786015771e+06  2.141597353791e-04
4.000000000000e+01 2.169518500653e+06 1.000000000000e+00 8.114888570484e+01 0.000000000000e+00 1.003786770944e-02 -3.411281345150e+06 -7.856140674211e+05 -3.394040767874e+06 -2.190336258329e+06 -4.042903020308e-05 4.541608156075e-05 1.784004629044e-04 0.000000000000e+00 2.998552790451e+06 1.822504522137e+06  2.164755199639e-04
4.200000000000e+01 2.226801096840e+06 1.000000000000e+00 8.087411848960e+01 0.000000000000e+00 1.017816933433e-02 -3.444751298189e+06 -7.854481441131e+05 -3.414147269020e+06 -2.205875915503e+06 -4.089070491742e-05 4.613855788243e-05 1.826349078980e-04 0.000000000000e+00 3.021591494238e+06 1.829923660525e+06  2.210925802203e-04
4.400000000000e+01 2.282566929633e+06 1.000000000000e+00 8.057884049438e+01 0.000000000000e+00 1.030896565150e-02 -3.476966540628e+06 -7.852859941080e+05 -3.433724635801e+06 -2.220863100729e+06 -4.132516409982e-05 4.680864911292e-05 1.865510709003e-04 0.000000000000e+00 3.043851425719e+06 1.837218464496e+06  2.253696380509e-04
5.000000000000e+01 2.434089171439e+06 1.000000000000e+00 7.938388873310e+01 0.000000000000e+00 1.058254117446e-02 -3.560292850189e+06 -7.848299088199e+05 -3.487838305413e+06 -2.260177230463e+06 -4.231841353749e-05 4.812982013086e-05 1.937096097058e-04 0.000000000000e+00 3.102769462022e+06 1.857208915998e+06  2.333691992186e-04
6.500000000000e+01 2.765473789412e+06 1.000000000000e+00 7.672160528695e+01 0.000000000000e+00 1.104659428862e-02 -3.735591438202e+06 -7.838448884694e+05 -3.607926296129e+06 -2.344579332722e+06 -4.406635285389e-05 5.043985052221e-05 2.075369184501e-04 0.000000000000e+00 3.229365689018e+06 1.901806440088e+06  2.485786527728e-04
8.000000000000e+01 3.020527303980e+06 1.000000000000e+00 7.427524820287e+01 0.000000000000e+00 1.126672646198e-02 -3.864658247563e+06 -7.830701663177e+05 -3.702975485513e+06 -2.408184806533e+06 -4.507864844861e-05 5.145758667439e-05 2.134173916862e-04 0.000000000000e+00 3.325272846536e+06 1.936896023875e+06  2.552318257424e-04
1.000000000000e+02 3.321206853058e+06 1.000000000000e+00 7.180475267635e+01 0.000000000000e+00 1.145092434443e-02 -4.018487082915e+06 -7.821570962802e+05 -3.821182180367e+06 -2.486137824504e+06 -4.607862774599e-05 5.233258083647e-05 2.189707424153e-04 0.000000000000e+00 3.441935695929e+06 1.979897124349e+06  2.614907156036e-04
1.860000000000e+02 3.919689088708e+06 1.000000000000e+00 6.658180886271e+01 0.000000000000e+00 1.166966825433e-02 -4.314702905779e+06 -7.803566018284e+05 -4.054880528280e+06 -2.637437125539e+06 -4.764038196369e-05 5.353650298535e-05 2.286248401683e-04 0.000000000000e+00 3.669006853199e+06 2.066834841187e+06  2.720830198732e-04
2.720000000000e+02 4.210008652804e+06 1.000000000000e+00 6.332445352251e+01 0.000000000000e+00 1.165661121107e-02 -4.450657016039e+06 -7.796426323755e+05 -4.288955820469e+06 -2.747143437285e+06 -4.571352694842e-05 4.321630934614e-05 1.425913654478e-04 0.000000000000e+00 3.828918757931e+06 2.115696932443e+06  1.858583505088e-04
3.580000000000e+02 4.351376040264e+06 1.000000000000e+00 6.119532456338e+01 0.000000000000e+00 1.132521301302e-02 -4.508823082281e+06 -7.789689987085e+05 -4.236377467948e+06 -2.743074925215e+06 -4.756612205262e-05 5.132826811745e-05 2.148108994277e-04 0.000000000000e+00 3.829425158481e+06 2.128708746726e+06  2.579297448227e-04
4.440000000000e+02 4.423502148420e+06 1.000000000000e+00 5.963761485211e+01 0.000000000000e+00 1.132377255316e-02 -4.535832872451e+06 -7.788658600467e+05 -4.351482864434e+06 -2.786075073300e+06 -4.575603369725e-05 4.328052681350e-05 1.475992042399e-04 0.000000000000e+00 3.891130270062e+06 2.143120505404e+06  1.904003830842e-04
5.300000000000e+02 4.462470175486e+06 1.000000000000e+00 5.847322562562e+01 0.000000000000e+00 1.101784123066e-02 -4.542309921840e+06 -7.785828966464e+05 -4.281305250146e+06 -2.763223635750e+06 -4.696046295767e-05 4.942023162267e-05 2.027153577595e-04 0.000000000000e+00 3.862279602579e+06 2.141843972103e+06  2.452457671045e-04
6.160000000000e+02 4.484986292970e+06 1.000000000000e+00 5.760610232744e+01 0.000000000000e+00 1.089958510727e-02 -4.545306301987e+06 -7.784961676537e+05 -4.290369678669e+06 -2.765798591089e+06 -4.669163486679e-05 4.868558266718e-05 1.979891446112e-04 0.000000000000e+00 3.867158190582e+06 2.143862760818e+06  2.402813036362e-04
7.020000000000e+02 4.498791037789e+06 1.000000000000e+00 5.697669369464e+01 0.000000000000e+00 1.089860701652e-02 -4.547339153513e+06 -7.785264392612e+05 -4.346603908204e+06 -2.783895900311e+06 -4.558100888113e-05 4.396670104872e-05 1.584620778172e-04 0.000000000000e+00 3.892612987343e+06 2.148104229743e+06  2.005241438241e-04
7.880000000000e+02 4.508413578045e+06 1.000000000000e+00 5.650296312515e+01 0.000000000000e+00 1.072713861474e-02 -4.546121894751e+06 -7.783967398082e+05 -4.300764421898e+06 -2.767872581436e+06 -4.629132315385e-05 4.760899913917e-05 1.909421832506e-04 0.000000000000e+00 3.871586299362e+06 2.145639439842e+06  2.328961585117e-04
8.740000000000e+02 4.516798665952e+06 1.000000000000e+00 5.570721326158e+01 0.000000000000e+00 1.061159532089e-02 -4.541560771252e+06 -7.783546376636e+05 -4.303240811945e+06 -2.766299147453e+06 -4.600096108077e-05 4.689606092573e-05 1.863519892470e-04 0.000000000000e+00 3.870366910217e+06 2.145408535434e+06  2.280641236854e-04
9.370000000000e+02 4.522172514043e+06 1.000000000000e+00 5.519188179424e+01 0.000000000000e+00 1.061149689815e-02 -4.541698328854e+06 -7.783439516745e+05 -4.322763270023e+06 -2.772070535290e+06 -4.560018044041e-05 4.505621111293e-05 1.706697851667e-04 0.000000000000e+00 3.878844044722e+06 2.146983801516e+06  2.123212460022e-04
1.000000000000e+03 4.526362417709e+06 1.000000000000e+00 5.480037709690e+01 0.000000000000e+00 1.043711462445e-02 -4.535814504755e+06 -7.783013272682e+05 -4.308090249027e+06 -2.765000196474e+06 -4.557152848454e-05 4.585472904499e-05 1.796971717748e-04 0.000000000000e+00 3.869634983419e+06 2.145144085780e+06  2.210540229486e-04
1.100000000000e+03 4.530507843536e+06 1.000000000000e+00 5.441729922089e+01 0.000000000000e+00 1.035393102743e-02 -4.533139877529e+06 -7.782786240248e+05 -4.310428543480e+06 -2.764469825745e+06 -4.536564704104e-05 4.537441665643e-05 1.767092471979e-04 0.000000000000e+00 3.869346082252e+06 2.145004446035e+06  2.178927313489e-04
1.200000000000e+03 4.533769230213e+06 1.000000000000e+00 5.407980825422e+01 0.000000000000e+00 1.028480301177e-02 -4.530678685483e+06 -7.782598738973e+05 -4.312170856394e+06 -2.763872924516e+06 -4.519424290302e-05 4.497006199383e-05 1.741654605537e-04 0.000000000000e+00 3.868907488798e+06 2.144843274243e+06  2.152076271841e-04
1.300000000000e+03 4.536674565969e+06 1.000000000000e+00 5.375342285699e+01 0.000000000000e+00 1.021900672159e-02 -4.528190407158e+06 -7.782424861288e+05 -4.313705275795e+06 -2.763217499999e+06 -4.503084810788e-05 4.458361584562e-05 1.717242314220e-04 0.000000000000e+00 3.868371060984e+06 2.144657756003e+06  2.126334242917e-04
1.400000000000e+03 4.539414725333e+06 1.000000000000e+00 5.342073483322e+01 0.000000000000e+00 1.015102130297e-02 -4.525509486119e+06 -7.782253730353e+05 -4.315193728272e+06 -2.762484266206e+06 -4.486181127543e-05 4.418538655378e-05 1.692102050516e-04 0.000000000000e+00 3.867729160199e+06 2.144435322533e+06  2.099828494048e-04
1.500000000000e+03 4.542051305799e+06 1.000000000000e+00 5.307167415370e+01 0.000000000000e+00 1.007762648975e-02 -4.522514750776e+06 -7.782080386517e+05 -4.316710542262e+06 -2.761648782421e+06 -4.467912591319e-05 4.375787055994e-05 1.665184178969e-04 0.000000000000e+00 3.866958025153e+06 2.144162763902e+06  2.071442947782e-04
1.600000000000e+03 4.544612729936e+06 1.000000000000e+00 5.270009876698e+01 0.000000000000e+00 9.996848385256e-03 -4.519122581019e+06 -7.781902220258e+05 -4.318292054761e+06 -2.760690415317e+06 -4.447780749038e-05 4.329057691086e-05 1.635876663891e-04 0.000000000000e+00 3.866035017032e+06 2.143830634494e+06  2.040525492001e-04
1.700000000000e+03 4.547100256413e+06 1.000000000000e+00 5.230221775817e+01 0.000000000000e+00 9.996234352213e-03 -4.517042587872e+06 -7.782411597481e+05 -4.363370703023e+06 -2.774320011190e+06 -4.350466467214e-05 3.923278682883e-05 1.296211551052e-04 0.000000000000e+00 3.884911100695e+06 2.147060193036e+06  1.701501080617e-04
1.800000000000e+03 4.549515608751e+06 1.000000000000e+00 5.187574292629e+01 0.000000000000e+00 9.808741734974e-03 -4.510938716732e+06 -7.781526879714e+05 -4.321716499381e+06 -2.758349125018e+06 -4.400820396982e-05 4.221251319777e-05 1.568629151659e-04 0.000000000000e+00 3.863668113710e+06 2.142967860997e+06  1.969559345344e-04
1.900000000000e+03 4.551854748437e+06 1.000000000000e+00 5.141938749337e+01 0.000000000000e+00 9.700258928882e-03 -4.506090600940e+06 -7.781328575815e+05 -4.323575512576e+06 -2.756950462262e+06 -4.373700468222e-05 4.159539082546e-05 1.530303599352e-04 0.000000000000e+00 3.862205525259e+06 2.142435704377e+06  1.929114714662e-04