 TITLE = "Time curves in points"
 VARIABLES = "TIME"  "PRESSURE1"  "TEMPERATURE1"  "VELOCITY_X1" 
 ZONE T="POINT=POINT_LEFT"
0.000000000000e+00 1.000000000000e+06 2.500000000000e+01 0.000000000000e+00 
8.640000000000e+04 1.094634830787e+06 2.600000000000e+01 9.054545942927e-11 
1.728000000000e+05 1.111979033510e+06 2.700000000000e+01 1.111222228291e-10 
2.592000000000e+05 1.115072455112e+06 2.800000000000e+01 1.149168434110e-10 
3.456000000000e+05 1.115622052862e+06 2.900000000000e+01 1.155943324724e-10 
4.320000000000e+05 1.115719659576e+06 3.000000000000e+01 1.157147339354e-10 
5.184000000000e+05 1.115736995750e+06 3.100000000000e+01 1.157361206831e-10 
6.048000000000e+05 1.115740075348e+06 3.200000000000e+01 1.157399198534e-10 
6.912000000000e+05 1.115740622495e+06 3.300000000000e+01 1.157405948737e-10 
7.776000000000e+05 1.115740719723e+06 3.400000000000e+01 1.157407148075e-10 
8.640000000000e+05 1.115740737005e+06 3.500000000000e+01 1.157407361334e-10 
