 TITLE = "Time curves in points"
 VARIABLES = "TIME"  "PRESSURE1"  "TEMPERATURE1"  "VELOCITY_X1" 
 ZONE T="POINT=POINT_RIGHT"
0.000000000000e+00 1.000000000000e+06 2.500000000000e+01 0.000000000000e+00 
8.640000000000e+04 1.000000000000e+06 2.600000000000e+01 1.964390506679e-08 
1.728000000000e+05 1.000000000000e+06 2.700000000000e+01 2.243996341353e-08 
2.592000000000e+05 1.000000000000e+06 2.800000000000e+01 2.292740109783e-08 
3.456000000000e+05 1.000000000000e+06 2.900000000000e+01 2.301376380358e-08 
4.320000000000e+05 1.000000000000e+06 3.000000000000e+01 2.302909608744e-08 
5.184000000000e+05 1.000000000000e+06 3.100000000000e+01 2.303181916681e-08 
6.048000000000e+05 1.000000000000e+06 3.200000000000e+01 2.303230289120e-08 
6.912000000000e+05 1.000000000000e+06 3.300000000000e+01 2.303238883394e-08 
7.776000000000e+05 1.000000000000e+06 3.400000000000e+01 2.303240410617e-08 
8.640000000000e+05 1.000000000000e+06 3.500000000000e+01 2.303240682058e-08 
