 TITLE = "Profiles along polylines"
 VARIABLES = "DIST" "CONCENTRATION0" 
 ZONE T="TIME=0.000000000000e+00"
0.000000000000e+00 0.000000000000e+00 
1.000000000000e-02 0.000000000000e+00 
2.000000000000e-02 0.000000000000e+00 
3.000000000000e-02 0.000000000000e+00 
4.000000000000e-02 0.000000000000e+00 
5.000000000000e-02 0.000000000000e+00 
6.000000000000e-02 0.000000000000e+00 
7.000000000000e-02 0.000000000000e+00 
8.000000000000e-02 0.000000000000e+00 
9.000000000000e-02 0.000000000000e+00 
1.000000000000e-01 1.000000000000e+00 
1.100000000000e-01 1.000000000000e+00 
1.200000000000e-01 1.000000000000e+00 
1.300000000000e-01 1.000000000000e+00 
1.400000000000e-01 1.000000000000e+00 
1.500000000000e-01 1.000000000000e+00 
1.600000000000e-01 1.000000000000e+00 
1.700000000000e-01 1.000000000000e+00 
1.800000000000e-01 1.000000000000e+00 
1.900000000000e-01 1.000000000000e+00 
2.000000000000e-01 1.000000000000e+00 
2.100000000000e-01 1.000000000000e+00 
2.200000000000e-01 1.000000000000e+00 
2.300000000000e-01 1.000000000000e+00 
2.400000000000e-01 1.000000000000e+00 
2.500000000000e-01 1.000000000000e+00 
2.600000000000e-01 1.000000000000e+00 
2.700000000000e-01 1.000000000000e+00 
2.800000000000e-01 1.000000000000e+00 
2.900000000000e-01 1.000000000000e+00 
3.000000000000e-01 1.000000000000e+00 
3.100000000000e-01 0.000000000000e+00 
3.200000000000e-01 0.000000000000e+00 
3.300000000000e-01 0.000000000000e+00 
3.400000000000e-01 0.000000000000e+00 
3.500000000000e-01 0.000000000000e+00 
3.600000000000e-01 0.000000000000e+00 
3.700000000000e-01 0.000000000000e+00 
3.800000000000e-01 0.000000000000e+00 
3.900000000000e-01 0.000000000000e+00 
4.000000000000e-01 0.000000000000e+00 
4.100000000000e-01 0.000000000000e+00 
4.200000000000e-01 0.000000000000e+00 
4.300000000000e-01 0.000000000000e+00 
4.400000000000e-01 0.000000000000e+00 
4.500000000000e-01 0.000000000000e+00 
4.600000000000e-01 0.000000000000e+00 
4.700000000000e-01 0.000000000000e+00 
4.800000000000e-01 0.000000000000e+00 
4.900000000000e-01 0.000000000000e+00 
5.000000000000e-01 0.000000000000e+00 
5.100000000000e-01 0.000000000000e+00 
5.200000000000e-01 0.000000000000e+00 
5.300000000000e-01 0.000000000000e+00 
5.400000000000e-01 0.000000000000e+00 
5.500000000000e-01 0.000000000000e+00 
5.600000000000e-01 0.000000000000e+00 
5.700000000000e-01 0.000000000000e+00 
5.800000000000e-01 0.000000000000e+00 
5.900000000000e-01 0.000000000000e+00 
6.000000000000e-01 0.000000000000e+00 
6.100000000000e-01 0.000000000000e+00 
6.200000000000e-01 0.000000000000e+00 
6.300000000000e-01 0.000000000000e+00 
6.400000000000e-01 0.000000000000e+00 
6.500000000000e-01 0.000000000000e+00 
6.600000000000e-01 0.000000000000e+00 
6.700000000000e-01 0.000000000000e+00 
6.800000000000e-01 0.000000000000e+00 
6.900000000000e-01 0.000000000000e+00 
7.000000000000e-01 0.000000000000e+00 
7.100000000000e-01 0.000000000000e+00 
7.200000000000e-01 0.000000000000e+00 
7.300000000000e-01 0.000000000000e+00 
7.400000000000e-01 0.000000000000e+00 
7.500000000000e-01 0.000000000000e+00 
7.600000000000e-01 0.000000000000e+00 
7.700000000000e-01 0.000000000000e+00 
7.800000000000e-01 0.000000000000e+00 
7.900000000000e-01 0.000000000000e+00 
8.000000000000e-01 0.000000000000e+00 
8.100000000000e-01 0.000000000000e+00 
8.200000000000e-01 0.000000000000e+00 
8.300000000000e-01 0.000000000000e+00 
8.400000000000e-01 0.000000000000e+00 
8.500000000000e-01 0.000000000000e+00 
8.600000000000e-01 0.000000000000e+00 
8.700000000000e-01 0.000000000000e+00 
8.800000000000e-01 0.000000000000e+00 
8.900000000000e-01 0.000000000000e+00 
9.000000000000e-01 0.000000000000e+00 
9.100000000000e-01 0.000000000000e+00 
9.200000000000e-01 0.000000000000e+00 
9.300000000000e-01 0.000000000000e+00 
9.400000000000e-01 0.000000000000e+00 
9.500000000000e-01 0.000000000000e+00 
9.600000000000e-01 0.000000000000e+00 
9.700000000000e-01 0.000000000000e+00 
9.800000000000e-01 0.000000000000e+00 
9.900000000000e-01 0.000000000000e+00 
1.000000000000e+00 0.000000000000e+00 
 ZONE T="TIME=1.000000000000e-02"
0.000000000000e+00 0.000000000000e+00 
1.000000000000e-02 -1.167823212098e-37 
2.000000000000e-02 0.000000000000e+00 
3.000000000000e-02 -2.051771957799e-36 
4.000000000000e-02 -7.460988937451e-37 
5.000000000000e-02 -1.635306361488e-37 
6.000000000000e-02 -3.274409768711e-38 
7.000000000000e-02 -2.976736153374e-39 
8.000000000000e-02 -2.706123775794e-40 
9.000000000000e-02 0.000000000000e+00 
1.000000000000e-01 2.429737920925e-01 
1.100000000000e-01 7.845835239172e-01 
1.200000000000e-01 9.771039630048e-01 
1.300000000000e-01 9.961493777823e-01 
1.400000000000e-01 9.992992923842e-01 
1.500000000000e-01 9.999149831246e-01 
1.600000000000e-01 9.999781772224e-01 
1.700000000000e-01 9.999976134180e-01 
1.800000000000e-01 9.999994394287e-01 
1.900000000000e-01 9.999998764967e-01 
2.000000000000e-01 9.999999692955e-01 
2.100000000000e-01 9.999999933956e-01 
2.200000000000e-01 9.999999987157e-01 
2.300000000000e-01 9.999999997686e-01 
2.400000000000e-01 9.999999999607e-01 
2.500000000000e-01 9.999999999937e-01 
2.600000000000e-01 9.999999999990e-01 
2.700000000000e-01 9.999999999999e-01 
2.800000000000e-01 1.000000000000e+00 
2.900000000000e-01 1.000000000000e+00 
3.000000000000e-01 1.000000000000e+00 
3.100000000000e-01 7.570261905753e-01 
3.200000000000e-01 2.154165743198e-01 
3.300000000000e-01 2.289600113440e-02 
3.400000000000e-01 3.850527520824e-03 
3.500000000000e-01 7.007723488589e-04 
3.600000000000e-01 8.504142877177e-05 
3.700000000000e-01 2.182495506730e-05 
3.800000000000e-01 2.403903573693e-06 
3.900000000000e-01 5.806865319127e-07 
4.000000000000e-01 6.839445637275e-08 
4.100000000000e-01 1.251839745707e-08 
4.200000000000e-01 1.885921063596e-09 
4.300000000000e-01 2.636654684597e-10 
4.400000000000e-01 5.400315935214e-11 
4.500000000000e-01 8.733647444146e-12 
4.600000000000e-01 1.370312507907e-12 
4.700000000000e-01 2.289000969158e-13 
4.800000000000e-01 3.295078290562e-14 
4.900000000000e-01 5.316055193423e-15 
5.000000000000e-01 7.907672501116e-16 
5.100000000000e-01 1.230402406998e-16 
5.200000000000e-01 1.891134418261e-17 
5.300000000000e-01 2.821990497723e-18 
5.400000000000e-01 4.079722525838e-19 
5.500000000000e-01 5.727878995173e-20 
5.600000000000e-01 7.835694840353e-21 
5.700000000000e-01 1.047685537036e-21 
5.800000000000e-01 1.372818171655e-22 
5.900000000000e-01 1.766827783508e-23 
6.000000000000e-01 2.237617286220e-24 
6.100000000000e-01 2.792998727972e-25 
6.200000000000e-01 3.440564672141e-26 
6.300000000000e-01 4.187566319585e-27 
6.400000000000e-01 5.040799990715e-28 
6.500000000000e-01 6.006503264023e-29 
6.600000000000e-01 7.090261778008e-30 
6.700000000000e-01 8.296927441091e-31 
6.800000000000e-01 9.630548555916e-32 
6.900000000000e-01 1.109431214830e-32 
7.000000000000e-01 1.269049859533e-33 
7.100000000000e-01 1.442044847102e-34 
7.200000000000e-01 1.628454137022e-35 
7.300000000000e-01 1.828218633242e-36 
7.400000000000e-01 2.041182336524e-37 
7.500000000000e-01 2.267093546339e-38 
7.600000000000e-01 2.505607043105e-39 
7.700000000000e-01 2.756287174468e-40 
7.800000000000e-01 3.018611763712e-41 
7.900000000000e-01 3.291976754335e-42 
8.000000000000e-01 3.575701502107e-43 
8.100000000000e-01 3.869034624552e-44 
8.200000000000e-01 4.171160317610e-45 
8.300000000000e-01 4.481205050145e-46 
8.400000000000e-01 4.798244548901e-47 
8.500000000000e-01 5.121310989245e-48 
8.600000000000e-01 5.449400310641e-49 
8.700000000000e-01 5.781479579949e-50 
8.800000000000e-01 6.116494330424e-51 
8.900000000000e-01 6.453375809443e-52 
9.000000000000e-01 6.791048073517e-53 
9.100000000000e-01 7.128434874875e-54 
9.200000000000e-01 7.464466289827e-55 
9.300000000000e-01 7.798085045041e-56 
9.400000000000e-01 8.128252503858e-57 
9.500000000000e-01 8.453954280589e-58 
9.600000000000e-01 8.774205456523e-59 
9.700000000000e-01 9.088055376866e-60 
9.800000000000e-01 9.394592013174e-61 
9.900000000000e-01 9.692945880831e-62 
1.000000000000e+00 1.810325823708e-62 
 ZONE T="TIME=2.000000000000e-02"
0.000000000000e+00 0.000000000000e+00 
1.000000000000e-02 -4.274524912081e-38 
2.000000000000e-02 -4.663118085907e-38 
3.000000000000e-02 -8.591441806761e-37 
4.000000000000e-02 -9.796401797004e-37 
5.000000000000e-02 -1.710160311796e-37 
6.000000000000e-02 -1.554691192542e-38 
7.000000000000e-02 -4.988126181263e-37 
8.000000000000e-02 -3.629688858325e-35 
9.000000000000e-02 -3.299717143932e-36 
1.000000000000e-01 1.176841739618e-02 
1.100000000000e-01 2.765123666851e-01 
1.200000000000e-01 7.522413517836e-01 
1.300000000000e-01 9.646837046887e-01 
1.400000000000e-01 9.960540838791e-01 
1.500000000000e-01 9.989215460187e-01 
1.600000000000e-01 9.998443545795e-01 
1.700000000000e-01 9.999808701852e-01 
1.800000000000e-01 9.999944972473e-01 
1.900000000000e-01 9.999992223776e-01 
2.000000000000e-01 9.999997251664e-01 
2.100000000000e-01 9.999999033906e-01 
2.200000000000e-01 9.999999691881e-01 
2.300000000000e-01 9.999999908387e-01 
2.400000000000e-01 9.999999974513e-01 
2.500000000000e-01 9.999999993354e-01 
2.600000000000e-01 9.999999998370e-01 
2.700000000000e-01 9.999999999622e-01 
2.800000000000e-01 9.999999999917e-01 
2.900000000000e-01 9.999999999983e-01 
3.000000000000e-01 9.999999999996e-01 
3.100000000000e-01 9.882316013011e-01 
3.200000000000e-01 7.234877416739e-01 
3.300000000000e-01 2.477584099416e-01 
3.400000000000e-01 3.531666179232e-02 
3.500000000000e-01 3.945732434207e-03 
3.600000000000e-01 1.078233073434e-03 
3.700000000000e-01 1.556215094942e-04 
3.800000000000e-01 1.936222801882e-05 
3.900000000000e-01 5.765554250333e-06 
4.000000000000e-01 6.606539024729e-07 
4.100000000000e-01 1.782404731247e-07 
4.200000000000e-01 2.666567667845e-08 
4.300000000000e-01 3.669548665744e-09 
4.400000000000e-01 1.093629291797e-09 
4.500000000000e-01 1.279451090788e-10 
4.600000000000e-01 3.475661884321e-11 
4.700000000000e-01 4.583057502812e-12 
4.800000000000e-01 8.203288164271e-13 
4.900000000000e-01 1.792783103071e-13 
5.000000000000e-01 2.451620294165e-14 
5.100000000000e-01 6.084045004246e-15 
5.200000000000e-01 1.029404579838e-15 
5.300000000000e-01 2.102301706145e-16 
5.400000000000e-01 3.980030366468e-17 
5.500000000000e-01 6.140487567443e-18 
5.600000000000e-01 1.412222659292e-18 
5.700000000000e-01 2.355024102697e-19 
5.800000000000e-01 4.892865084522e-20 
5.900000000000e-01 8.988941008953e-21 
6.000000000000e-01 1.641525067486e-21 
6.100000000000e-01 3.346648633751e-22 
6.200000000000e-01 5.762137094187e-23 
6.300000000000e-01 1.059838721611e-23 
6.400000000000e-01 1.831867854089e-24 
6.500000000000e-01 3.198659735207e-25 
6.600000000000e-01 5.588143843038e-26 
6.700000000000e-01 9.526703801140e-27 
6.800000000000e-01 1.593440591545e-27 
6.900000000000e-01 2.618887219732e-28 
7.000000000000e-01 4.221331908542e-29 
7.100000000000e-01 6.659117962585e-30 
7.200000000000e-01 1.027100858151e-30 
7.300000000000e-01 1.549382846786e-31 
7.400000000000e-01 2.288367916863e-32 
7.500000000000e-01 3.314107430839e-33 
7.600000000000e-01 4.714034893495e-34 
7.700000000000e-01 6.596369702095e-35 
7.800000000000e-01 9.094018229941e-36 
7.900000000000e-01 1.236900496930e-36 
8.000000000000e-01 1.661746373712e-37 
8.100000000000e-01 2.207521528123e-38 
8.200000000000e-01 2.902395301807e-39 
8.300000000000e-01 3.779805310317e-40 
8.400000000000e-01 4.879201861769e-41 
8.500000000000e-01 6.246856039944e-42 
8.600000000000e-01 7.936730902380e-43 
8.700000000000e-01 1.001141437324e-43 
8.800000000000e-01 1.254311148163e-44 
8.900000000000e-01 1.561469261987e-45 
9.000000000000e-01 1.932079348541e-46 
9.100000000000e-01 2.376896133886e-47 
9.200000000000e-01 2.908084117218e-48 
9.300000000000e-01 3.539339435227e-49 
9.400000000000e-01 4.286014129926e-50 
9.500000000000e-01 5.165241879304e-51 
9.600000000000e-01 6.196064159015e-52 
9.700000000000e-01 7.399555719103e-53 
9.800000000000e-01 8.798948183952e-54 
9.900000000000e-01 1.041975051751e-54 
1.000000000000e+00 2.199451567435e-55 
 ZONE T="TIME=3.000000000000e-02"
0.000000000000e+00 0.000000000000e+00 
1.000000000000e-02 -2.137262456041e-38 
2.000000000000e-02 -2.350988701645e-38 
3.000000000000e-02 -3.996680792796e-37 
4.000000000000e-02 -7.181201852296e-37 
5.000000000000e-02 -2.362646496859e-37 
6.000000000000e-02 0.000000000000e+00 
7.000000000000e-02 0.000000000000e+00 
8.000000000000e-02 -1.193758229992e-35 
9.000000000000e-02 -1.255902359299e-35 
1.000000000000e-01 1.075636387371e-03 
1.100000000000e-01 1.519356363068e-02 
1.200000000000e-01 3.047385906942e-01 
1.300000000000e-01 7.332174352563e-01 
1.400000000000e-01 9.522285269094e-01 
1.500000000000e-01 9.950359332773e-01 
1.600000000000e-01 9.987926714384e-01 
1.700000000000e-01 9.997526653457e-01 
1.800000000000e-01 9.999736979907e-01 
1.900000000000e-01 9.999930697336e-01 
2.000000000000e-01 9.999986633436e-01 
2.100000000000e-01 9.999997579546e-01 
2.200000000000e-01 9.999998778637e-01 
2.300000000000e-01 9.999999446524e-01 
2.400000000000e-01 9.999999776186e-01 
2.500000000000e-01 9.999999918315e-01 
2.600000000000e-01 9.999999972659e-01 
2.700000000000e-01 9.999999991488e-01 
2.800000000000e-01 9.999999997508e-01 
2.900000000000e-01 9.999999999309e-01 
3.000000000000e-01 9.999999999817e-01 
3.100000000000e-01 9.989243542628e-01 
3.200000000000e-01 9.848063822489e-01 
3.300000000000e-01 6.952613862109e-01 
3.400000000000e-01 2.667827060171e-01 
3.500000000000e-01 4.777223251374e-02 
3.600000000000e-01 4.963556996691e-03 
3.700000000000e-01 1.206734063927e-03 
3.800000000000e-01 2.477893392966e-04 
3.900000000000e-01 2.635404007249e-05 
4.000000000000e-01 6.965393557202e-06 
4.100000000000e-01 1.326887613156e-06 
4.200000000000e-01 1.560640522995e-07 
4.300000000000e-01 4.763597399775e-08 
4.400000000000e-01 7.046709589437e-09 
4.500000000000e-01 9.226393071662e-10 
4.600000000000e-01 3.029245742262e-10 
4.700000000000e-01 3.579606064313e-11 
4.800000000000e-01 9.102223829363e-12 
4.900000000000e-01 1.721031171288e-12 
5.000000000000e-01 2.307149141228e-13 
5.100000000000e-01 7.409516217739e-14 
5.200000000000e-01 8.161713457227e-15 
5.300000000000e-01 2.299803548282e-15 
5.400000000000e-01 3.677654158086e-16 
5.500000000000e-01 5.846624519929e-17 
5.600000000000e-01 1.581544286939e-17 
5.700000000000e-01 1.959050535117e-18 
5.800000000000e-01 5.797615793800e-19 
5.900000000000e-01 7.727444807366e-20 
6.000000000000e-01 2.012439172063e-20 
6.100000000000e-01 3.325382842874e-21 
6.200000000000e-01 7.140516286221e-22 
6.300000000000e-01 1.379896718621e-22 
6.400000000000e-01 2.170750673415e-23 
6.500000000000e-01 5.512193464179e-24 
6.600000000000e-01 8.997017691873e-25 
6.700000000000e-01 2.194261687033e-25 
6.800000000000e-01 3.617496298574e-26 
6.900000000000e-01 8.141080442977e-27 
7.000000000000e-01 1.399991011185e-27 
7.100000000000e-01 2.917563173866e-28 
7.200000000000e-01 5.383954651363e-29 
7.300000000000e-01 1.128071534756e-29 
7.400000000000e-01 2.034630715988e-30 
7.500000000000e-01 3.947954404493e-31 
7.600000000000e-01 7.482745003186e-32 
7.700000000000e-01 1.425789537534e-32 
7.800000000000e-01 2.619063575576e-33 
7.900000000000e-01 5.080046299177e-34 
8.000000000000e-01 8.577680852741e-35 
8.100000000000e-01 1.699022212237e-35 
8.200000000000e-01 2.750594749935e-36 
8.300000000000e-01 5.536671716894e-37 
8.400000000000e-01 8.987226149772e-38 
8.500000000000e-01 1.674804631085e-38 
8.600000000000e-01 2.595651191685e-39 
8.700000000000e-01 4.491532912539e-40 
8.800000000000e-01 7.467506988553e-41 
8.900000000000e-01 1.210357857528e-41 
9.000000000000e-01 1.904965890050e-42 
9.100000000000e-01 2.921301934501e-43 
9.200000000000e-01 4.385817757081e-44 
9.300000000000e-01 6.474532700726e-45 
9.400000000000e-01 9.431948311483e-46 
9.500000000000e-01 1.359648488943e-46 
9.600000000000e-01 1.943413706199e-47 
9.700000000000e-01 2.758230811080e-48 
9.800000000000e-01 3.890606428472e-49 
9.900000000000e-01 5.456935472801e-50 
1.000000000000e+00 1.336870261243e-50 
 ZONE T="TIME=4.000000000000e-02"
0.000000000000e+00 0.000000000000e+00 
1.000000000000e-02 -8.196887260383e-39 
2.000000000000e-02 0.000000000000e+00 
3.000000000000e-02 -1.528142656069e-37 
4.000000000000e-02 -4.044769198057e-37 
5.000000000000e-02 -4.231779662960e-37 
6.000000000000e-02 0.000000000000e+00 
7.000000000000e-02 -3.419619929665e-38 
8.000000000000e-02 -4.978514436444e-36 
9.000000000000e-02 -1.000504742772e-35 
1.000000000000e-01 3.504138907116e-04 
1.100000000000e-01 1.691193199924e-03 
1.200000000000e-01 2.850652641029e-02 
1.300000000000e-01 3.184884397056e-01 
1.400000000000e-01 7.189255996589e-01 
1.500000000000e-01 9.399233197184e-01 
1.600000000000e-01 9.936006841179e-01 
1.700000000000e-01 9.988914461927e-01 
1.800000000000e-01 9.996710326690e-01 
1.900000000000e-01 9.999603017538e-01 
2.000000000000e-01 9.999935897966e-01 
2.100000000000e-01 9.999980732825e-01 
2.200000000000e-01 9.999996861558e-01 
2.300000000000e-01 9.999998335099e-01 
2.400000000000e-01 9.999999196777e-01 
2.500000000000e-01 9.999999648653e-01 
2.600000000000e-01 9.999999849289e-01 
2.700000000000e-01 9.999999939253e-01 
2.800000000000e-01 9.999999977223e-01 
2.900000000000e-01 9.999999992008e-01 
3.000000000000e-01 9.999999997355e-01 
3.100000000000e-01 9.996495872474e-01 
3.200000000000e-01 9.983087849203e-01 
3.300000000000e-01 9.714937195183e-01 
3.400000000000e-01 6.815108915056e-01 
3.500000000000e-01 2.810755077373e-01 
3.600000000000e-01 6.007533138417e-02 
3.700000000000e-01 6.399316691728e-03 
3.800000000000e-01 1.109051304321e-03 
3.900000000000e-01 3.292270686015e-04 
4.000000000000e-01 3.980744112953e-05 
4.100000000000e-01 6.462258579023e-06 
4.200000000000e-01 2.012639672809e-06 
4.300000000000e-01 2.369713479777e-07 
4.400000000000e-01 4.886083769726e-08 
4.500000000000e-01 1.249210242130e-08 
4.600000000000e-01 1.377404069824e-09 
4.700000000000e-01 3.792700141708e-10 
4.800000000000e-01 7.309393749499e-11 
4.900000000000e-01 7.993544575382e-12 
5.000000000000e-01 2.284103287037e-12 
5.100000000000e-01 4.457843807862e-13 
5.200000000000e-01 5.733859226374e-14 
5.300000000000e-01 1.872618019359e-14 
5.400000000000e-01 2.577456358815e-15 
5.500000000000e-01 6.810832346059e-16 
5.600000000000e-01 1.189049180489e-16 
5.700000000000e-01 1.795293105267e-17 
5.800000000000e-01 5.552145329026e-18 
5.900000000000e-01 6.717420041508e-19 
6.000000000000e-01 1.914103085092e-19 
6.100000000000e-01 2.647855730855e-20 
6.200000000000e-01 5.419098986299e-21 
6.300000000000e-01 1.206044032579e-21 
6.400000000000e-01 1.956683651534e-22 
6.500000000000e-01 4.236683377877e-23 
6.600000000000e-01 8.728603725442e-24 
6.700000000000e-01 1.550867152730e-24 
6.800000000000e-01 3.686599015351e-25 
6.900000000000e-01 6.043903774896e-26 
7.000000000000e-01 1.464970107687e-26 
7.100000000000e-01 1.863727605996e-27 
7.200000000000e-01 5.234636077585e-28 
7.300000000000e-01 8.469905458045e-29 
7.400000000000e-01 1.988756262975e-29 
7.500000000000e-01 3.410716275199e-30 
7.600000000000e-01 6.816171220512e-31 
7.700000000000e-01 1.344339556345e-31 
7.800000000000e-01 2.479754563706e-32 
7.900000000000e-01 5.520788303236e-33 
8.000000000000e-01 8.223741634918e-34 
8.100000000000e-01 2.117454720431e-34 
8.200000000000e-01 3.410879719576e-35 
8.300000000000e-01 8.038396283404e-36 
8.400000000000e-01 1.433490321566e-36 
8.500000000000e-01 2.964316982318e-37 
8.600000000000e-01 6.032907304745e-38 
8.700000000000e-01 1.174404481122e-38 
8.800000000000e-01 2.447372284068e-39 
8.900000000000e-01 4.632311223003e-40 
9.000000000000e-01 9.100320816677e-41 
9.100000000000e-01 1.725304500322e-41 
9.200000000000e-01 3.078599758129e-42 
9.300000000000e-01 6.113673997889e-43 
9.400000000000e-01 1.039991078082e-43 
9.500000000000e-01 2.188102758587e-44 
9.600000000000e-01 3.884866153691e-45 
9.700000000000e-01 8.348932637982e-46 
9.800000000000e-01 1.247783429633e-46 
9.900000000000e-01 2.600815269900e-47 
1.000000000000e+00 8.907885786407e-48 
 ZONE T="TIME=5.000000000000e-02"
0.000000000000e+00 0.000000000000e+00 
1.000000000000e-02 -2.884089961987e-39 
2.000000000000e-02 -3.058308314953e-39 
3.000000000000e-02 -6.171345341817e-38 
4.000000000000e-02 -2.063794059114e-37 
5.000000000000e-02 -3.299636185682e-37 
6.000000000000e-02 -2.350988701645e-37 
7.000000000000e-02 1.880790961316e-37 
8.000000000000e-02 -3.086206986523e-36 
9.000000000000e-02 -2.336314361345e-36 
1.000000000000e-01 8.649115657449e-05 
1.100000000000e-01 5.732059455114e-04 
1.200000000000e-01 2.134041254812e-03 
1.300000000000e-01 4.200463635552e-02 
1.400000000000e-01 3.288027851165e-01 
1.500000000000e-01 7.078487207026e-01 
1.600000000000e-01 9.287624913620e-01 
1.700000000000e-01 9.913120291083e-01 
1.800000000000e-01 9.989212518234e-01 
1.900000000000e-01 9.996270155123e-01 
2.000000000000e-01 9.999375431380e-01 
2.100000000000e-01 9.999928353975e-01 
2.200000000000e-01 9.999979225645e-01 
2.300000000000e-01 9.999994786327e-01 
2.400000000000e-01 9.999997685627e-01 
2.500000000000e-01 9.999998825328e-01 
2.600000000000e-01 9.999999441894e-01 
2.700000000000e-01 9.999999748168e-01 
2.800000000000e-01 9.999999891182e-01 
2.900000000000e-01 9.999999955041e-01 
3.000000000000e-01 9.999999982288e-01 
3.100000000000e-01 9.999135061418e-01 
3.200000000000e-01 9.994268334489e-01 
3.300000000000e-01 9.978659383567e-01 
3.400000000000e-01 9.579945458115e-01 
3.500000000000e-01 6.711980846430e-01 
3.600000000000e-01 2.921514578224e-01 
3.700000000000e-01 7.123666260429e-02 
3.800000000000e-01 8.688327685793e-03 
3.900000000000e-01 1.078885428455e-03 
4.000000000000e-01 3.730577798369e-04 
4.100000000000e-01 6.238067536348e-05 
4.200000000000e-01 7.442652370762e-06 
4.300000000000e-01 2.382986377209e-06 
4.400000000000e-01 4.243628356720e-07 
4.500000000000e-01 4.965516407965e-08 
4.600000000000e-01 1.584045110932e-08 
4.700000000000e-01 2.605685466095e-09 
4.800000000000e-01 3.407448864882e-10 
4.900000000000e-01 1.175554830244e-10 
5.000000000000e-01 1.413576485656e-11 
5.100000000000e-01 2.730241296623e-12 
5.200000000000e-01 7.448511195796e-13 
5.300000000000e-01 8.368929758308e-14 
5.400000000000e-01 2.239743627982e-14 
5.500000000000e-01 4.570447965940e-15 
5.600000000000e-01 5.787321674823e-16 
5.700000000000e-01 1.407465608367e-16 
5.800000000000e-01 3.156021931442e-17 
5.900000000000e-01 4.311869824669e-18 
6.000000000000e-01 1.426996010621e-18 
6.100000000000e-01 1.664960564236e-19 
6.200000000000e-01 4.408674749749e-20 
6.300000000000e-01 8.462837974714e-21 
6.400000000000e-01 1.758354022614e-21 
6.500000000000e-01 3.409728547517e-22 
6.600000000000e-01 7.096139868515e-23 
6.700000000000e-01 1.397578063195e-23 
6.800000000000e-01 2.452642782740e-24 
6.900000000000e-01 5.201849235846e-25 
7.000000000000e-01 8.354599714498e-26 
7.100000000000e-01 2.104517439910e-26 
7.200000000000e-01 3.696505835888e-27 
7.300000000000e-01 9.415445049233e-28 
7.400000000000e-01 1.561237473380e-28 
7.500000000000e-01 4.069730074918e-29 
7.600000000000e-01 6.037117671422e-30 
7.700000000000e-01 1.670952862509e-30 
7.800000000000e-01 2.127837060378e-31 
7.900000000000e-01 6.257095426680e-32 
8.000000000000e-01 8.244730727444e-33 
8.100000000000e-01 2.077648317911e-33 
8.200000000000e-01 3.658016781346e-34 
8.300000000000e-01 7.751821308220e-35 
8.400000000000e-01 1.616279285901e-35 
8.500000000000e-01 3.253948350871e-36 
8.600000000000e-01 6.818022976529e-37 
8.700000000000e-01 1.336265328261e-37 
8.800000000000e-01 2.681154915049e-38 
8.900000000000e-01 5.295304386661e-39 
9.000000000000e-01 1.022553226339e-39 
9.100000000000e-01 1.992354281600e-40 
9.200000000000e-01 3.981639986811e-41 
9.300000000000e-01 6.741059836510e-42 
9.400000000000e-01 1.495058754091e-42 
9.500000000000e-01 2.530895659809e-43 
9.600000000000e-01 5.609806925637e-44 
9.700000000000e-01 1.044465181536e-44 
9.800000000000e-01 2.315329562789e-45 
9.900000000000e-01 4.876494425386e-46 
1.000000000000e+00 2.107829008312e-46 
 ZONE T="TIME=6.000000000000e-02"
0.000000000000e+00 0.000000000000e+00 
1.000000000000e-02 -1.400491316409e-39 
2.000000000000e-02 -1.928545419318e-39 
3.000000000000e-02 -2.681596487813e-38 
4.000000000000e-02 -1.065291755433e-37 
5.000000000000e-02 -2.262826625333e-37 
6.000000000000e-02 -2.174664549021e-37 
7.000000000000e-02 -1.175494350822e-37 
8.000000000000e-02 -8.933757066249e-37 
9.000000000000e-02 -2.633107345842e-36 
1.000000000000e-01 3.334608501229e-05 
1.100000000000e-01 1.148352440976e-04 
1.200000000000e-01 1.063737656473e-03 
1.300000000000e-01 2.193295840113e-03 
1.400000000000e-01 5.463509026704e-02 
1.500000000000e-01 3.378162533099e-01 
1.600000000000e-01 6.988247018363e-01 
1.700000000000e-01 9.184832124497e-01 
1.800000000000e-01 9.886389816188e-01 
1.900000000000e-01 9.986980505671e-01 
2.000000000000e-01 9.996003469624e-01 
2.100000000000e-01 9.999107296194e-01 
2.200000000000e-01 9.999906192781e-01 
2.300000000000e-01 9.999981046053e-01 
2.400000000000e-01 9.999993392273e-01 
2.500000000000e-01 9.999996801366e-01 
2.600000000000e-01 9.999998291675e-01 
2.700000000000e-01 9.999999165169e-01 
2.800000000000e-01 9.999999607875e-01 
2.900000000000e-01 9.999999821676e-01 
3.000000000000e-01 9.999999921643e-01 
3.100000000000e-01 9.999666498119e-01 
3.200000000000e-01 9.998851620972e-01 
3.300000000000e-01 9.989362642465e-01 
3.400000000000e-01 9.978067116006e-01 
3.500000000000e-01 9.453644427461e-01 
3.600000000000e-01 6.621844810620e-01 
3.700000000000e-01 3.011749620080e-01 
3.800000000000e-01 8.151649469188e-02 
3.900000000000e-01 1.136160327771e-02 
4.000000000000e-01 1.301798458099e-03 
4.100000000000e-01 3.994615921855e-04 
4.200000000000e-01 8.921452618682e-05 
4.300000000000e-01 9.720709823425e-06 
4.400000000000e-01 2.326604764793e-06 
4.500000000000e-01 6.132883103964e-07 
4.600000000000e-01 6.739580909665e-08 
4.700000000000e-01 1.560758631613e-08 
4.800000000000e-01 4.129541181177e-09 
4.900000000000e-01 4.812554874715e-10 
5.000000000000e-01 1.247581519584e-10 
5.100000000000e-01 2.774810479573e-11 
5.200000000000e-01 3.273507948513e-12 
5.300000000000e-01 9.959728730178e-13 
5.400000000000e-01 1.702098193871e-13 
5.500000000000e-01 2.052570617578e-14 
5.600000000000e-01 6.937635424130e-15 
5.700000000000e-01 1.043355508336e-15 
5.800000000000e-01 1.797896316282e-16 
5.900000000000e-01 5.113277834285e-17 
6.000000000000e-01 6.197783793247e-18 
6.100000000000e-01 1.690755697207e-18 
6.200000000000e-01 2.622732279244e-19 
6.300000000000e-01 4.803933500898e-20 
6.400000000000e-01 8.885708468216e-21 
6.500000000000e-01 2.526601461990e-21 
6.600000000000e-01 3.182907619265e-22 
6.700000000000e-01 9.897311572954e-23 
6.800000000000e-01 1.697079204006e-23 
6.900000000000e-01 2.856972737467e-24 
7.000000000000e-01 7.408279111227e-25 
7.100000000000e-01 1.013698111694e-25 
7.200000000000e-01 3.111633272227e-26 
7.300000000000e-01 5.261891512855e-27 
7.400000000000e-01 1.137758708477e-27 
7.500000000000e-01 2.414883750255e-28 
7.600000000000e-01 5.304032368947e-29 
7.700000000000e-01 1.072875894102e-29 
7.800000000000e-01 2.385641625053e-30 
7.900000000000e-01 4.291904431164e-31 
8.000000000000e-01 9.653989771545e-32 
8.100000000000e-01 1.658076972791e-32 
8.200000000000e-01 4.076260452539e-33 
8.300000000000e-01 7.225264728183e-34 
8.400000000000e-01 1.843874744246e-34 
8.500000000000e-01 2.930634282251e-35 
8.600000000000e-01 7.998904918385e-36 
8.700000000000e-01 1.093696831654e-36 
8.800000000000e-01 3.288970578630e-37 
8.900000000000e-01 4.169877923604e-38 
9.000000000000e-01 1.082389423295e-38 
9.100000000000e-01 1.897766598041e-39 
9.200000000000e-01 4.059410180683e-40 
9.300000000000e-01 7.873298977509e-41 
9.400000000000e-01 1.636355271462e-41 
9.500000000000e-01 3.045876155423e-42 
9.600000000000e-01 7.000932430158e-43 
9.700000000000e-01 1.154486587173e-43 
9.800000000000e-01 2.758064264314e-44 
9.900000000000e-01 5.168816931036e-45 
1.000000000000e+00 2.678565933776e-45 
 ZONE T="TIME=7.000000000000e-02"
0.000000000000e+00 0.000000000000e+00 
1.000000000000e-02 -6.678945175127e-40 
2.000000000000e-02 -1.563480347814e-39 
3.000000000000e-02 -1.046924656201e-38 
4.000000000000e-02 -4.812179998679e-38 
5.000000000000e-02 -1.359165343138e-37 
6.000000000000e-02 -1.778603100136e-37 
7.000000000000e-02 -1.089457393430e-37 
8.000000000000e-02 -1.808851546053e-37 
9.000000000000e-02 -1.267714124682e-36 
1.000000000000e-01 9.480976478918e-06 
1.100000000000e-01 5.626841010444e-05 
1.200000000000e-01 1.922327350643e-04 
1.300000000000e-01 1.369049390050e-03 
1.400000000000e-01 2.339022702413e-03 
1.500000000000e-01 6.677506684739e-02 
1.600000000000e-01 3.457448127519e-01 
1.700000000000e-01 6.911475253764e-01 
1.800000000000e-01 9.089873857735e-01 
1.900000000000e-01 9.854609223197e-01 
2.000000000000e-01 9.984550881198e-01 
2.100000000000e-01 9.995918869158e-01 
2.200000000000e-01 9.998884864452e-01 
2.300000000000e-01 9.999862265262e-01 
2.400000000000e-01 9.999981358716e-01 
2.500000000000e-01 9.999992577874e-01 
2.600000000000e-01 9.999995944308e-01 
2.700000000000e-01 9.999997777145e-01 
2.800000000000e-01 9.999998853144e-01 
2.900000000000e-01 9.999999431324e-01 
3.000000000000e-01 9.999999727847e-01 
3.100000000000e-01 9.999905057081e-01 
3.200000000000e-01 9.999437252229e-01 
3.300000000000e-01 9.998077596291e-01 
3.400000000000e-01 9.986309626945e-01 
3.500000000000e-01 9.976609873456e-01 
3.600000000000e-01 9.332247949053e-01 
3.700000000000e-01 6.542556253693e-01 
3.800000000000e-01 3.088519081988e-01 
3.900000000000e-01 9.101274298542e-02 
4.000000000000e-01 1.454004351811e-02 
4.100000000000e-01 1.544410658763e-03 
4.200000000000e-01 4.075158639798e-04 
4.300000000000e-01 1.119041330777e-04 
4.400000000000e-01 1.423447621967e-05 
4.500000000000e-01 1.997175883658e-06 
4.600000000000e-01 7.302179547444e-07 
4.700000000000e-01 1.090461010042e-07 
4.800000000000e-01 1.435066651933e-08 
4.900000000000e-01 5.213680830929e-09 
5.000000000000e-01 8.123901417180e-10 