 TITLE = "Time curves in points"
 VARIABLES = "TIME"  "PRESSURE1"  "SATURATION1" 
 ZONE T="POINT=POINT6"
0.000000000000e+00 -3.326851463260e+03 7.707553588313e-01 
5.000000000000e-01 -3.331064421304e+03 7.705439808279e-01 
1.000000000000e+00 -3.335194691362e+03 7.703370876213e-01 
1.500000000000e+00 -3.338992163746e+03 7.701478466886e-01 
2.000000000000e+00 -3.341936496136e+03 7.700034827140e-01 
2.500000000000e+00 -3.343179618638e+03 7.699481027911e-01 
3.000000000000e+00 -3.341539289805e+03 7.700428431146e-01 
3.500000000000e+00 -3.335542851987e+03 7.703634223169e-01 
4.000000000000e+00 -3.323513254149e+03 7.709955435601e-01 
4.500000000000e+00 -3.303687134128e+03 7.720286910645e-01 
5.000000000000e+00 -3.274355815070e+03 7.735488231199e-01 
5.500000000000e+00 -3.234040442330e+03 7.756954917246e-01 
6.000000000000e+00 -3.181990663012e+03 7.785163909420e-01 
6.500000000000e+00 -3.117843653884e+03 7.819817921673e-01 
7.000000000000e+00 -3.041663053327e+03 7.860855188871e-01 
7.500000000000e+00 -2.954217147586e+03 7.909643232160e-01 
8.000000000000e+00 -2.857997971927e+03 7.964169252319e-01 
8.500000000000e+00 -2.754498947767e+03 8.023174831113e-01 
9.000000000000e+00 -2.646038828638e+03 8.087628364662e-01 
9.500000000000e+00 -2.534867994998e+03 8.153753040906e-01 
1.000000000000e+01 -2.422530856681e+03 8.224070848095e-01 
1.050000000000e+01 -2.311601333394e+03 8.294167967281e-01 
1.100000000000e+01 -2.202588838974e+03 8.364902600407e-01 
1.150000000000e+01 -2.097804078129e+03 8.434174832115e-01 
1.200000000000e+01 -1.997118639173e+03 8.501396867459e-01 
1.250000000000e+01 -1.901041996814e+03 8.568373117847e-01 
1.300000000000e+01 -1.810140508719e+03 8.632636170753e-01 
1.350000000000e+01 -1.724559304623e+03 8.694463984111e-01 
1.400000000000e+01 -1.644366527201e+03 8.753133489327e-01 
1.450000000000e+01 -1.569282073438e+03 8.809038338309e-01 
1.500000000000e+01 -1.499076385544e+03 8.862018015665e-01 
1.550000000000e+01 -1.433524774094e+03 8.911970623922e-01 
1.600000000000e+01 -1.372346233399e+03 8.959331268094e-01 
1.650000000000e+01 -1.315456361999e+03 9.003830707825e-01 
1.700000000000e+01 -1.262401316230e+03 9.045719118528e-01 
1.750000000000e+01 -1.212950943614e+03 9.084903502456e-01 
1.800000000000e+01 -1.166737688864e+03 9.121835181128e-01 
1.850000000000e+01 -1.123678463950e+03 9.156344250319e-01 
1.900000000000e+01 -1.083370410909e+03 9.189105628707e-01 
1.950000000000e+01 -1.045805148291e+03 9.219934583907e-01 
2.000000000000e+01 -1.010663923910e+03 9.248798743167e-01 
2.050000000000e+01 -9.777205577156e+02 9.275817322724e-01 
2.100000000000e+01 -9.469732128970e+02 9.301053056805e-01 
2.150000000000e+01 -9.181442427648e+02 9.324732918746e-01 
2.200000000000e+01 -8.910208131030e+02 9.347132567019e-01 
2.250000000000e+01 -8.656578093941e+02 9.368187025520e-01 
2.300000000000e+01 -8.419066843002e+02 9.387918434094e-01 
2.350000000000e+01 -8.195757557744e+02 9.406481953478e-01 
2.400000000000e+01 -7.985091185902e+02 9.423991743952e-01 
2.450000000000e+01 -7.866951260848e+02 9.433610579673e-01 
2.500000000000e+01 -7.907871623829e+02 9.429751713742e-01 
2.550000000000e+01 -8.085114710018e+02 9.414429574157e-01 
2.600000000000e+01 -8.346129574664e+02 9.392107145013e-01 
2.650000000000e+01 -8.652870518816e+02 9.366020601404e-01 
2.700000000000e+01 -8.982349319919e+02 9.338101714336e-01 
2.750000000000e+01 -9.320783013512e+02 9.309752941965e-01 
2.800000000000e+01 -9.654259176375e+02 9.281901809648e-01 
2.850000000000e+01 -9.984212928933e+02 9.254382270933e-01 
2.900000000000e+01 -1.030706681766e+03 9.227456811572e-01 
2.950000000000e+01 -1.061993594770e+03 9.201382612593e-01 
3.000000000000e+01 -1.092566406184e+03 9.175922009464e-01 
3.050000000000e+01 -1.122387058110e+03 9.151522375960e-01 
3.100000000000e+01 -1.151231026916e+03 9.128087294245e-01 
3.150000000000e+01 -1.179319531814e+03 9.105274287046e-01 
3.200000000000e+01 -1.206787872442e+03 9.083036108589e-01 
3.250000000000e+01 -1.233351157153e+03 9.061734150001e-01 
3.300000000000e+01 -1.259181405368e+03 9.041022666204e-01 
3.350000000000e+01 -1.284381656049e+03 9.020821599451e-01 
3.400000000000e+01 -1.309038054278e+03 9.001148566094e-01 
3.450000000000e+01 -1.333077198220e+03 8.982122353578e-01 
3.500000000000e+01 -1.356578181358e+03 8.963524029399e-01 
3.550000000000e+01 -1.379592781250e+03 8.945314671600e-01 
3.600000000000e+01 -1.402187617867e+03 8.927483773942e-01 
3.650000000000e+01 -1.424286769900e+03 8.910443941951e-01 
3.700000000000e+01 -1.445941947973e+03 8.893746301428e-01 
3.750000000000e+01 -1.467187337413e+03 8.877366303109e-01 
3.800000000000e+01 -1.488054226497e+03 8.861281412706e-01 
3.850000000000e+01 -1.508574131640e+03 8.845551967652e-01 
3.900000000000e+01 -1.528730015118e+03 8.830216969901e-01 
3.950000000000e+01 -1.548547424512e+03 8.815139404590e-01 
4.000000000000e+01 -1.568045054330e+03 8.800306284520e-01 
4.050000000000e+01 -1.587240752338e+03 8.785705081368e-01 
4.100000000000e+01 -1.606158142958e+03 8.771441455084e-01 
4.150000000000e+01 -1.624804224050e+03 8.757632043385e-01 
4.200000000000e+01 -1.643188307835e+03 8.744016584469e-01 
4.250000000000e+01 -1.661320384880e+03 8.730588555727e-01 
4.300000000000e+01 -1.679210667887e+03 8.717341041122e-01 
4.350000000000e+01 -1.696870469194e+03 8.704266782974e-01 
4.400000000000e+01 -1.714323324082e+03 8.691489593023e-01 
4.450000000000e+01 -1.731573491351e+03 8.678890251212e-01 
4.500000000000e+01 -1.748624269984e+03 8.666437000921e-01 
4.550000000000e+01 -1.765481537354e+03 8.654126136928e-01 
4.600000000000e+01 -1.782152193729e+03 8.641953229749e-01 
4.650000000000e+01 -1.798644054092e+03 8.629914063534e-01 
4.700000000000e+01 -1.814991284014e+03 8.618280811479e-01 
4.750000000000e+01 -1.831191301526e+03 8.606775945000e-01 
4.800000000000e+01 -1.847243164516e+03 8.595376243743e-01 
4.850000000000e+01 -1.863150961001e+03 8.584079302570e-01 
4.900000000000e+01 -1.878921774355e+03 8.572880501187e-01 
4.950000000000e+01 -1.894568001901e+03 8.561771692933e-01 
5.000000000000e+01 -1.910138490179e+03 8.550819732044e-01 
5.050000000000e+01 -1.925637214355e+03 8.539970259084e-01 
5.100000000000e+01 -1.941047325360e+03 8.529182986765e-01 
5.150000000000e+01 -1.956359379324e+03 8.518464992327e-01 
5.200000000000e+01 -1.971565970164e+03 8.507821859466e-01 
5.250000000000e+01 -1.986659024727e+03 8.497259837107e-01 
5.300000000000e+01 -2.001621197652e+03 8.486854391408e-01 
5.350000000000e+01 -2.016448141322e+03 8.477011942286e-01 
5.400000000000e+01 -2.031137969716e+03 8.467259238437e-01 
5.450000000000e+01 -2.045692887582e+03 8.457595510847e-01 
5.500000000000e+01 -2.060115968450e+03 8.448019046255e-01 
5.550000000000e+01 -2.074410444515e+03 8.438527884821e-01 
5.600000000000e+01 -2.088579545588e+03 8.429120004942e-01 
5.650000000000e+01 -2.102626475740e+03 8.419793370440e-01 
5.700000000000e+01 -2.116554420664e+03 8.410545940570e-01 
5.750000000000e+01 -2.130366573314e+03 8.401375661804e-01 
5.800000000000e+01 -2.144066166095e+03 8.392280452215e-01 
5.850000000000e+01 -2.157656505964e+03 8.383258182922e-01 
5.900000000000e+01 -2.171141036993e+03 8.374306642250e-01 
5.950000000000e+01 -2.184523414336e+03 8.365423493409e-01 
6.000000000000e+01 -2.197807601097e+03 8.356606221006e-01 
6.050000000000e+01 -2.210998129044e+03 8.347851980896e-01 
6.100000000000e+01 -2.224100437142e+03 8.339157423225e-01 
6.150000000000e+01 -2.237122037119e+03 8.330518076568e-01 
6.200000000000e+01 -2.250077943677e+03 8.321929394764e-01 
6.250000000000e+01 -2.262985742618e+03 8.313778111882e-01 
6.300000000000e+01 -2.275833255076e+03 8.305663285752e-01 
6.350000000000e+01 -2.288615536677e+03 8.297588820940e-01 
6.400000000000e+01 -2.301330176292e+03 8.289556604726e-01 
6.450000000000e+01 -2.313975956068e+03 8.281567607512e-01 
6.500000000000e+01 -2.326552348396e+03 8.273622290420e-01 
6.550000000000e+01 -2.339059281299e+03 8.265720789348e-01 
6.600000000000e+01 -2.351497012774e+03 8.257863010881e-01 
6.650000000000e+01 -2.363866059586e+03 8.250048686058e-01 
6.700000000000e+01 -2.376167154788e+03 8.242277402360e-01 
6.750000000000e+01 -2.388401239085e+03 8.234548613123e-01 
6.800000000000e+01 -2.400569446590e+03 8.226861648901e-01 
6.850000000000e+01 -2.412673111735e+03 8.219215715978e-01 
6.900000000000e+01 -2.424713797463e+03 8.211609881567e-01 
6.950000000000e+01 -2.436693353165e+03 8.204043041669e-01 
7.000000000000e+01 -2.448613993493e+03 8.196513877594e-01 
7.050000000000e+01 -2.460478492203e+03 8.189020746409e-01 
7.100000000000e+01 -2.472290503983e+03 8.181561502674e-01 
7.150000000000e+01 -2.484055498319e+03 8.174132982608e-01 
7.200000000000e+01 -2.495784250466e+03 8.166729111645e-01 
7.250000000000e+01 -2.507477740632e+03 8.159642031722e-01 
7.300000000000e+01 -2.519112660768e+03 8.152759995146e-01 
7.350000000000e+01 -2.530694304003e+03 8.145908529349e-01 
7.400000000000e+01 -2.542223642109e+03 8.139087496777e-01 
7.450000000000e+01 -2.553700923141e+03 8.132296950898e-01 
7.500000000000e+01 -2.565126324450e+03 8.125536902861e-01 
7.550000000000e+01 -2.576500086578e+03 8.118807287935e-01 
7.600000000000e+01 -2.587822544542e+03 8.112107965056e-01 
7.650000000000e+01 -2.599094130170e+03 8.105438723925e-01 
7.700000000000e+01 -2.610315376477e+03 8.098799287265e-01 
7.750000000000e+01 -2.621486915885e+03 8.092189314627e-01 
7.800000000000e+01 -2.632609477939e+03 8.085608405572e-01 
7.850000000000e+01 -2.643683895452e+03 8.079056097615e-01 
7.900000000000e+01 -2.654711122892e+03 8.072531856896e-01 
7.950000000000e+01 -2.665692249279e+03 8.066035071697e-01 
8.000000000000e+01 -2.676628526331e+03 8.059565037472e-01 
8.050000000000e+01 -2.687521409630e+03 8.053120934737e-01 
8.100000000000e+01 -2.698372640367e+03 8.046701784589e-01 
8.150000000000e+01 -2.709184378034e+03 8.040306376242e-01 
8.200000000000e+01 -2.719959432325e+03 8.033933141572e-01 
8.250000000000e+01 -2.730701887281e+03 8.027579817241e-01 
8.300000000000e+01 -2.741418838092e+03 8.021242509909e-01 
8.350000000000e+01 -2.752124705363e+03 8.014971716220e-01 
8.400000000000e+01 -2.762767468546e+03 8.009017731766e-01 
8.450000000000e+01 -2.773359698951e+03 8.003091196553e-01 
8.500000000000e+01 -2.783906118884e+03 7.997189849430e-01 
8.550000000000e+01 -2.794408881479e+03 7.991312664544e-01 
8.600000000000e+01 -2.804869253218e+03 7.985459035256e-01 
8.650000000000e+01 -2.815288160865e+03 7.979628509612e-01 
8.700000000000e+01 -2.825666394567e+03 7.973820693443e-01 
8.750000000000e+01 -2.836004703877e+03 7.968035204825e-01 
8.800000000000e+01 -2.846303837999e+03 7.962271655559e-01 
8.850000000000e+01 -2.856564569117e+03 7.956529640559e-01 
8.900000000000e+01 -2.866787714254e+03 7.950808727405e-01 
8.950000000000e+01 -2.876974148066e+03 7.945108450244e-01 
9.000000000000e+01 -2.887124808688e+03 7.939428307190e-01 
9.050000000000e+01 -2.897240725836e+03 7.933767745905e-01 
9.100000000000e+01 -2.907323035014e+03 7.928126156169e-01 
9.150000000000e+01 -2.917373014841e+03 7.922502850396e-01 
9.200000000000e+01 -2.927392095163e+03 7.916897059322e-01 
9.250000000000e+01 -2.937381952755e+03 7.911307881889e-01 
9.300000000000e+01 -2.947344563134e+03 7.905734257501e-01 
9.350000000000e+01 -2.957282329233e+03 7.900174898729e-01 
9.400000000000e+01 -2.967198406905e+03 7.894628120205e-01 
9.450000000000e+01 -2.977097135033e+03 7.889091612487e-01 
9.500000000000e+01 -2.986985269542e+03 7.883561797790e-01 
9.550000000000e+01 -2.996876300818e+03 7.878031582077e-01 
9.600000000000e+01 -3.006757717745e+03 7.872705347572e-01 
9.650000000000e+01 -3.016569998863e+03 7.867530448042e-01 
9.700000000000e+01 -3.026335312047e+03 7.862379685447e-01 
9.750000000000e+01 -3.036061109942e+03 7.857249357446e-01 
9.800000000000e+01 -3.045750794179e+03 7.852137801662e-01 
9.850000000000e+01 -3.055406274880e+03 7.847044094197e-01 
9.900000000000e+01 -3.065028811056e+03 7.841967628383e-01 
9.950000000000e+01 -3.074619345314e+03 7.836907949229e-01 
1.000000000000e+02 -3.084178657237e+03 7.831864678357e-01 
1.005000000000e+02 -3.093707444399e+03 7.826837474656e-01 
1.010000000000e+02 -3.103206366389e+03 7.821826013044e-01 
1.015000000000e+02 -3.112676068720e+03 7.816829973069e-01 
1.020000000000e+02 -3.122117210426e+03 7.811849025574e-01 
1.025000000000e+02 -3.131530471515e+03 7.806882829133e-01 
1.030000000000e+02 -3.140916570540e+03 7.801931021566e-01 
1.035000000000e+02 -3.150276273247e+03 7.796993215698e-01 
1.040000000000e+02 -3.159610419865e+03 7.792068985908e-01 
1.045000000000e+02 -3.168919935282e+03 7.787157862907e-01 
1.050000000000e+02 -3.178205843372e+03 7.782259326679e-01 
1.055000000000e+02 -3.187469312978e+03 7.777372783658e-01 
1.060000000000e+02 -3.196711718243e+03 7.772497536462e-01 
1.065000000000e+02 -3.205934690336e+03 7.767632757761e-01 
1.070000000000e+02 -3.215140266907e+03 7.762777415978e-01 
1.075000000000e+02 -3.224331125056e+03 7.757930158877e-01 
1.080000000000e+02 -3.233511084359e+03 7.753089063110e-01 
1.085000000000e+02 -3.242686356171e+03 7.748251014010e-01 
1.090000000000e+02 -3.251868017399e+03 7.743441401507e-01 
1.095000000000e+02 -3.261009422684e+03 7.738875065953e-01 
1.100000000000e+02 -3.270099174860e+03 7.734334727848e-01 
1.105000000000e+02 -3.279148695564e+03 7.729814259846e-01 
1.110000000000e+02 -3.288163702308e+03 7.725310831313e-01 
1.115000000000e+02 -3.297147293817e+03 7.720822943677e-01 
1.120000000000e+02 -3.306101386015e+03 7.716349680330e-01 
1.125000000000e+02 -3.315027311945e+03 7.711890406707e-01 
1.130000000000e+02 -3.323926090894e+03 7.707444638308e-01 
1.135000000000e+02 -3.332798561742e+03 7.703011976104e-01 
1.140000000000e+02 -3.341645456845e+03 7.698592071075e-01 
1.145000000000e+02 -3.350467446631e+03 7.694184602929e-01 
1.150000000000e+02 -3.359265168182e+03 7.689789266517e-01 
1.155000000000e+02 -3.368039244081e+03 7.685405762888e-01 
1.160000000000e+02 -3.376790295388e+03 7.681033793144e-01 
1.165000000000e+02 -3.385518956389e+03 7.676673051497e-01 
1.170000000000e+02 -3.394225891770e+03 7.672323217127e-01 
1.175000000000e+02 -3.402911790575e+03 7.667983956855e-01 
1.180000000000e+02 -3.411577390528e+03 7.663654913860e-01 
1.185000000000e+02 -3.420223480272e+03 7.659335706396e-01 
1.190000000000e+02 -3.428850940910e+03 7.655025908319e-01 
1.195000000000e+02 -3.437460748373e+03 7.650725047486e-01 
1.200000000000e+02 -3.446054001080e+03 7.646432592723e-01 
1.205000000000e+02 -3.454631983483e+03 7.642147923789e-01 
1.210000000000e+02 -3.463196246225e+03 7.637870293074e-01 
1.215000000000e+02 -3.471748708277e+03 7.633598776799e-01 
1.220000000000e+02 -3.480291869457e+03 7.629332174361e-01 
1.225000000000e+02 -3.488829389072e+03 7.625068735304e-01 
1.230000000000e+02 -3.497367067563e+03 7.620805694006e-01 
1.235000000000e+02 -3.505902165937e+03 7.616660800203e-01 
1.240000000000e+02 -3.514400307403e+03 7.612619297876e-01 
1.245000000000e+02 -3.522860162510e+03 7.608596176549e-01 
1.250000000000e+02 -3.531288162307e+03 7.604588134778e-01 
1.255000000000e+02 -3.539688618689e+03 7.600593088143e-01 
1.260000000000e+02 -3.548064166603e+03 7.596609796896e-01 
1.265000000000e+02 -3.556416518844e+03 7.592637466562e-01 
1.270000000000e+02 -3.564746877402e+03 7.588675544066e-01 
1.275000000000e+02 -3.573056156872e+03 7.584723610580e-01 
1.280000000000e+02 -3.581345097235e+03 7.580781327962e-01 
1.285000000000e+02 -3.589614329666e+03 7.576848407953e-01 
1.290000000000e+02 -3.597864420066e+03 7.572924592037e-01 
1.295000000000e+02 -3.606095893558e+03 7.569009640069e-01 
1.300000000000e+02 -3.614309255279e+03 7.565103320778e-01 
1.305000000000e+02 -3.622505001642e+03 7.561205406550e-01 
1.310000000000e+02 -3.630683629537e+03 7.557315669227e-01 
1.315000000000e+02 -3.638845644684e+03 7.553433876319e-01 
1.320000000000e+02 -3.646991571402e+03 7.549559786575e-01 
1.325000000000e+02 -3.655121962644e+03 7.545693145416e-01 
1.330000000000e+02 -3.663237405934e+03 7.541833682169e-01 
1.335000000000e+02 -3.671338534818e+03 7.537981104895e-01 
1.340000000000e+02 -3.679426037022e+03 7.534135096612e-01 
1.345000000000e+02 -3.687500673980e+03 7.530295306494e-01 
1.350000000000e+02 -3.695563316693e+03 7.526461333671e-01 
1.355000000000e+02 -3.703614951731e+03 7.522632724052e-01 
1.360000000000e+02 -3.711656730574e+03 7.518808948229e-01 
1.365000000000e+02 -3.719690050605e+03 7.514989364850e-01 
1.370000000000e+02 -3.727716699941e+03 7.511173155143e-01 
1.375000000000e+02 -3.735738992273e+03 7.507359260950e-01 
1.380000000000e+02 -3.743760224558e+03 7.503546179496e-01 
1.385000000000e+02 -3.751784698218e+03 7.499758362240e-01 
1.390000000000e+02 -3.759792411245e+03 7.496163030256e-01 
1.395000000000e+02 -3.767772135081e+03 7.492591112225e-01 
1.400000000000e+02 -3.775720771521e+03 7.489033318019e-01 
1.405000000000e+02 -3.783641493581e+03 7.485488054631e-01 
1.410000000000e+02 -3.791537582374e+03 7.481953787405e-01 
1.415000000000e+02 -3.799411475568e+03 7.478429410195e-01 
1.420000000000e+02 -3.807264906701e+03 7.474914150168e-01 
1.425000000000e+02 -3.815099138801e+03 7.471407450342e-01 
1.430000000000e+02 -3.822915139635e+03 7.467908886970e-01 
1.435000000000e+02 -3.830713685566e+03 7.464418121577e-01 
1.440000000000e+02 -3.838495429000e+03 7.460934870497e-01 
1.445000000000e+02 -3.846260938943e+03 7.457458886677e-01 
1.450000000000e+02 -3.854010727212e+03 7.453989948017e-01 
1.455000000000e+02 -3.861745276462e+03 7.450527845244e-01 
1.460000000000e+02 -3.869465044782e+03 7.447072379593e-01 
1.465000000000e+02 -3.877170476325e+03 7.443623358255e-01 
1.470000000000e+02 -3.884862016022e+03 7.440180588104e-01 
1.475000000000e+02 -3.892540111789e+03 7.436743874578e-01 
1.480000000000e+02 -3.900205221113e+03 7.433313018879e-01 
1.485000000000e+02 -3.907857819658e+03 7.429887814293e-01 
1.490000000000e+02 -3.915498407377e+03 7.426468043519e-01 
1.495000000000e+02 -3.923127513265e+03 7.423053476590e-01 
1.500000000000e+02 -3.930745712424e+03 7.419643863670e-01 
1.505000000000e+02 -3.938353626577e+03 7.416238934604e-01 
1.510000000000e+02 -3.945951936730e+03 7.412838393572e-01 
1.515000000000e+02 -3.953541419974e+03 7.409441903563e-01 
1.520000000000e+02 -3.961122966055e+03 7.406049078946e-01 
1.525000000000e+02 -3.968697611133e+03 7.402659471047e-01 
1.530000000000e+02 -3.976266593051e+03 7.399272544574e-01 
1.535000000000e+02 -3.983831483375e+03 7.395887621730e-01 
1.540000000000e+02 -3.991394340489e+03 7.392503816471e-01 
1.545000000000e+02 -3.998958001295e+03 7.389118866393e-01 
1.550000000000e+02 -4.006516229042e+03 7.385838295734e-01 
1.555000000000e+02 -4.014054331347e+03 7.382614572333e-01 
1.560000000000e+02 -4.021571560272e+03 7.379399854305e-01 
1.565000000000e+02 -4.029066026126e+03 7.376195003331e-01 
1.570000000000e+02 -4.036537842121e+03 7.372999930868e-01 
1.575000000000e+02 -4.043988662026e+03 7.369813868783e-01 
1.580000000000e+02 -4.051420290422e+03 7.366636013168e-01 
1.585000000000e+02 -4.058834229300e+03 7.363465710881e-01 
1.590000000000e+02 -4.066231658666e+03 7.360302456522e-01 
1.595000000000e+02 -4.073613510625e+03 7.357145854747e-01 
1.600000000000e+02 -4.080980545072e+03 7.353995585418e-01 
1.605000000000e+02 -4.088333395562e+03 7.350851382661e-01 
1.610000000000e+02 -4.095672618631e+03 7.347713013811e-01 
1.615000000000e+02 -4.102998710657e+03 7.344580271660e-01 
1.620000000000e+02 -4.110312129154e+03 7.341452965497e-01 
1.625000000000e+02 -4.117613298941e+03 7.338330918253e-01 
1.630000000000e+02 -4.124902634867e+03 7.335213957294e-01 
1.635000000000e+02 -4.132180542181e+03 7.332101913943e-01 
1.640000000000e+02 -4.139447420692e+03 7.328994621750e-01 
1.645000000000e+02 -4.146703675845e+03 7.325891912009e-01 
1.650000000000e+02 -4.153949724796e+03 7.322793611195e-01 
1.655000000000e+02 -4.161185997060e+03 7.319699540584e-01 
1.660000000000e+02 -4.168412937507e+03 7.316609515033e-01 
1.665000000000e+02 -4.175631017081e+03 7.313523338661e-01 
1.670000000000e+02 -4.182840741576e+03 7.310440801221e-01 
1.675000000000e+02 -4.190041218359e+03 7.307362341759e-01 
1.680000000000e+02 -4.197222777127e+03 7.304292436806e-01 
1.685000000000e+02 -4.204348377663e+03 7.301248060547e-01 
1.690000000000e+02 -4.211322024857e+03 7.298272911523e-01 
1.695000000000e+02 -4.217947695070e+03 7.295455718075e-01 
1.700000000000e+02 -4.223885262733e+03 7.292949648810e-01 
1.705000000000e+02 -4.228609808584e+03 7.290989974535e-01 
1.710000000000e+02 -4.231379062954e+03 7.289907893740e-01 
1.715000000000e+02 -4.231213781619e+03 7.290138471106e-01 
1.720000000000e+02 -4.226894499581e+03 7.292221135843e-01 
1.725000000000e+02 -4.216980479698e+03 7.296790207180e-01 
1.730000000000e+02 -4.199853344206e+03 7.304554267298e-01 
1.735000000000e+02 -4.173788522066e+03 7.316263198769e-01 
1.740000000000e+02 -4.137055579812e+03 7.332662879628e-01 
1.745000000000e+02 -4.088039875615e+03 7.354441406418e-01 
1.750000000000e+02 -4.025366985978e+03 7.382175444473e-01 
1.755000000000e+02 -3.948196452693e+03 7.417463988634e-01 
1.760000000000e+02 -3.856721596532e+03 7.459466948052e-01 
1.765000000000e+02 -3.751180141855e+03 7.508293351438e-01 
1.770000000000e+02 -3.633076634532e+03 7.565393187123e-01 
1.775000000000e+02 -3.504375377616e+03 7.628015029395e-01 
1.780000000000e+02 -3.367477980832e+03 7.697019418499e-01 
1.785000000000e+02 -3.224947984480e+03 7.770129132146e-01 
1.790000000000e+02 -3.079968613137e+03 7.846946260700e-01 
1.795000000000e+02 -2.934607623047e+03 7.926547757895e-01 
1.800000000000e+02 -2.792294682439e+03 8.006232907361e-01 
1.805000000000e+02 -2.653956258874e+03 8.087028127838e-01 
1.810000000000e+02 -2.521099125150e+03 8.165887299591e-01 
1.815000000000e+02 -2.394088903291e+03 8.245022576234e-01 
1.820000000000e+02 -2.273857171288e+03 8.320832897090e-01 
1.825000000000e+02 -2.160194175760e+03 8.395066310340e-01 
1.830000000000e+02 -2.053920238676e+03 8.464996160341e-01 
1.835000000000e+02 -1.953818114142e+03 8.533098585487e-01 
1.840000000000e+02 -1.860203484893e+03 8.598481734068e-01 
1.845000000000e+02 -1.772778584414e+03 8.660700979913e-01 
1.850000000000e+02 -1.691400608875e+03 8.719632873617e-01 
1.855000000000e+02 -1.615651996403e+03 8.775189187290e-01 
1.860000000000e+02 -1.545021241003e+03 8.828042577922e-01 
1.865000000000e+02 -1.479124305049e+03 8.877850062820e-01 
1.870000000000e+02 -1.417744916140e+03 8.924623520169e-01 
1.875000000000e+02 -1.360474082656e+03 8.969091673765e-01 
1.880000000000e+02 -1.307158926943e+03 9.010781745867e-01 
1.885000000000e+02 -1.257370643798e+03 9.050068652062e-01 
1.890000000000e+02 -1.210850254591e+03 9.086903860650e-01 
1.895000000000e+02 -1.167268053501e+03 9.121693594749e-01 
1.900000000000e+02 -1.126545726549e+03 9.154294113357e-01 
1.905000000000e+02 -1.088302986301e+03 9.185283600320e-01 
1.910000000000e+02 -1.052527472492e+03 9.214612412414e-01 
1.915000000000e+02 -1.025790784460e+03 9.236370559100e-01 
1.920000000000e+02 -1.015232238576e+03 9.244568239336e-01 
1.925000000000e+02 -1.020208570778e+03 9.239836941758e-01 
1.930000000000e+02 -1.036300356049e+03 9.225933190274e-01 
1.935000000000e+02 -1.059283425221e+03 9.206396854693e-01 
1.940000000000e+02 -1.086112034676e+03 9.183760363819e-01 
1.945000000000e+02 -1.115043477073e+03 9.159672177793e-01 
1.950000000000e+02 -1.144728028898e+03 9.135363635374e-01 
1.955000000000e+02 -1.174610808294e+03 9.110944438676e-01 
1.960000000000e+02 -1.204369419387e+03 9.086691804159e-01 
1.965000000000e+02 -1.233718385769e+03 9.063036811456e-01 
1.970000000000e+02 -1.262427404096e+03 9.039928522037e-01 
1.975000000000e+02 -1.290487931671e+03 9.017364934225e-01 
1.980000000000e+02 -1.318008177447e+03 8.995401275352e-01 
1.985000000000e+02 -1.344834047791e+03 8.974110595604e-01 
1.990000000000e+02 -1.371008472881e+03 8.953350238539e-01 
1.995000000000e+02 -1.396704571574e+03 8.932981444614e-01 
2.000000000000e+02 -1.421921689754e+03 8.913390715407e-01 
2.005000000000e+02 -1.446419937763e+03 8.894461732895e-01 
2.010000000000e+02 -1.470339726603e+03 8.875986371947e-01 
2.015000000000e+02 -1.493813288956e+03 8.857862795371e-01 
2.020000000000e+02 -1.516878361405e+03 8.840206320010e-01 
2.025000000000e+02 -1.539326216246e+03 8.823097774238e-01 
2.030000000000e+02 -1.561275963627e+03 8.806372245309e-01 
2.035000000000e+02 -1.582817466827e+03 8.789961617318e-01 
2.040000000000e+02 -1.604034694972e+03 8.773859698461e-01 
2.045000000000e+02 -1.624813438041e+03 8.758445906139e-01 
2.050000000000e+02 -1.645156497692e+03 8.743358181919e-01 
2.055000000000e+02 -1.665137535402e+03 8.728541067001e-01 
2.060000000000e+02 -1.684810849689e+03 8.713954957211e-01 
2.065000000000e+02 -1.704234199328e+03 8.699589904362e-01 
2.070000000000e+02 -1.723303930112e+03 8.685642327803e-01 
2.075000000000e+02 -1.742045813304e+03 8.671936231991e-01 
2.080000000000e+02 -1.760510224099e+03 8.658434701602e-01 
2.085000000000e+02 -1.778736616415e+03 8.645109547954e-01 
2.090000000000e+02 -1.796773191176e+03 8.631926764601e-01 
2.095000000000e+02 -1.814580920900e+03 8.619184962188e-01 
2.100000000000e+02 -1.832076391932e+03 8.606745060676e-01 
2.105000000000e+02 -1.849325588785e+03 8.594480620567e-01 
2.110000000000e+02 -1.866363527969e+03 8.582367338983e-01 
2.115000000000e+02 -1.883220876709e+03 8.570384040726e-01 
2.120000000000e+02 -1.899942842978e+03 8.558499941051e-01 
2.125000000000e+02 -1.916509302287e+03 8.546882200317e-01 
2.130000000000e+02 -1.932909408936e+03 8.535388346722e-01 
2.135000000000e+02 -1.949163913343e+03 8.523996983218e-01 
2.140000000000e+02 -1.965282380751e+03 8.512701957819e-01 
2.145000000000e+02 -1.981273719500e+03 8.501497620759e-01 
2.150000000000e+02 -1.997155066110e+03 8.490373051848e-01 
2.155000000000e+02 -2.012838218587e+03 8.479828034020e-01 
2.160000000000e+02 -2.028259532976e+03 8.469577951178e-01 
2.165000000000e+02 -2.043468069473e+03 8.459468853042e-01 
2.170000000000e+02 -2.058485849296e+03 8.449486461173e-01 
2.175000000000e+02 -2.073326907684e+03 8.439621663591e-01 
2.180000000000e+02 -2.088001897968e+03 8.429867521880e-01 
2.185000000000e+02 -2.102519714708e+03 8.420218227643e-01 
2.190000000000e+02 -2.116888229985e+03 8.410668631616e-01 
2.195000000000e+02 -2.131114683688e+03 8.401213994563e-01 
2.200000000000e+02 -2.145205976179e+03 8.391849801118e-01 
2.205000000000e+02 -2.159168843863e+03 8.382571647883e-01 
2.210000000000e+02 -2.173010053928e+03 8.373375120737e-01 
2.215000000000e+02 -2.186736718828e+03 8.364255597164e-01 
2.220000000000e+02 -2.200356625338e+03 8.355208040293e-01 
2.225000000000e+02 -2.213878947314e+03 8.346226555828e-01 
2.230000000000e+02 -2.227315797627e+03 8.337303430661e-01 
2.235000000000e+02 -2.240687244127e+03 8.328426038255e-01 
2.240000000000e+02 -2.254023422309e+03 8.319690977099e-01 
2.245000000000e+02 -2.267215752347e+03 8.311352927206e-01 
2.250000000000e+02 -2.280297512494e+03 8.303083354606e-01 
2.255000000000e+02 -2.293281285718e+03 8.294875056169e-01 
2.260000000000e+02 -2.306173266040e+03 8.286724468993e-01 
2.265000000000e+02 -2.318977397789e+03 8.278629300297e-01 
2.270000000000e+02 -2.331696686431e+03 8.270587779412e-01 
2.275000000000e+02 -2.344333703510e+03 8.262598372321e-01 
2.280000000000e+02 -2.356890815542e+03 8.254659653330e-01 
2.285000000000e+02 -2.369370298642e+03 8.246770241391e-01 
2.290000000000e+02 -2.381774411113e+03 8.238928759727e-01 
2.295000000000e+02 -2.394105455170e+03 8.231133800987e-01 
2.300000000000e+02 -2.406365825729e+03 8.223383899359e-01 
2.305000000000e+02 -2.418558082289e+03 8.215677488848e-01 
2.310000000000e+02 -2.430685015571e+03 8.208012864362e-01 
2.315000000000e+02 -2.442749807753e+03 8.200388087461e-01 
2.320000000000e+02 -2.454756211924e+03 8.192800880961e-01 
2.325000000000e+02 -2.466708991305e+03 8.185248371211e-01 
2.330000000000e+02 -2.478614850309e+03 8.177726543156e-01 
2.335000000000e+02 -2.490485264449e+03 8.170228591359e-01 
2.340000000000e+02 -2.502345064972e+03 8.162818915416e-01 
2.345000000000e+02 -2.514109238885e+03 8.155857401289e-01 
2.350000000000e+02 -2.525799961680e+03 8.148938250489e-01 
2.355000000000e+02 -2.537425684533e+03 8.142057005818e-01 
2.360000000000e+02 -2.548990332152e+03 8.135211600302e-01 
2.365000000000e+02 -2.560496197772e+03 8.128400821602e-01 
2.370000000000e+02 -2.571944907827e+03 8.121623800372e-01 
2.375000000000e+02 -2.583337789444e+03 8.114879816999e-01 
2.380000000000e+02 -2.594676030514e+03 8.108168218389e-01 
2.385000000000e+02 -2.605960765703e+03 8.101488373449e-01 
2.390000000000e+02 -2.617193123837e+03 8.094839648727e-01 
2.395000000000e+02 -2.628374255064e+03 8.088221394600e-01 
2.400000000000e+02 -2.639505358639e+03 8.081632930739e-01 
2.405000000000e+02 -2.650587706145e+03 8.075073533784e-01 
2.410000000000e+02 -2.661622671424e+03 8.068542421135e-01 
2.415000000000e+02 -2.672611771206e+03 8.062038728620e-01 
2.420000000000e+02 -2.683556714459e+03 8.055561483286e-01 
2.425000000000e+02 -2.694459470159e+03 8.049109566061e-01 
2.430000000000e+02 -2.705322418139e+03 8.042681628382e-01 
2.435000000000e+02 -2.716148562126e+03 8.036275974422e-01 
2.440000000000e+02 -2.726942071676e+03 8.029890262637e-01 
2.445000000000e+02 -2.737709590947e+03 8.023520787284e-01 
2.450000000000e+02 -2.748465801376e+03 8.017159435916e-01 
2.455000000000e+02 -2.759179358183e+03 8.011101739254e-01 
2.460000000000e+02 -2.769822903443e+03 8.005144964939e-01 
2.465000000000e+02 -2.780412745529e+03 7.999217754542e-01 
2.470000000000e+02 -2.790954377510e+03 7.993317247062e-01 
2.475000000000e+02 -2.801450519546e+03 7.987442042058e-01 
2.480000000000e+02 -2.811902901958e+03 7.981591248289e-01 
2.485000000000e+02 -2.822312831042e+03 7.975764188392e-01 
2.490000000000e+02 -2.832681412015e+03 7.969960284230e-01 
2.495000000000e+02 -2.843009658590e+03 7.964179001025e-01 
2.500000000000e+02 -2.853298554310e+03 7.958419816173e-01 
2.505000000000e+02 -2.863549080622e+03 7.952682205155e-01 
2.510000000000e+02 -2.873762248492e+03 7.946965625439e-01 
2.515000000000e+02 -2.883939116394e+03 7.941269507259e-01 
2.520000000000e+02 -2.894080805770e+03 7.935593245706e-01 
2.525000000000e+02 -2.904188536000e+03 7.929936182496e-01 