 TITLE = "Time curves in points"
 VARIABLES = "TIME"  "PRESSURE1"  "SATURATION1" 
 ZONE T="POINT=POINT8"
0.000000000000e+00 -3.107139637107e+03 7.819987725903e-01 
5.000000000000e-01 -3.109262088078e+03 7.818974436689e-01 
1.000000000000e+00 -3.097940847147e+03 7.825447423290e-01 
1.500000000000e+00 -3.060972581008e+03 7.846036790537e-01 
2.000000000000e+00 -2.989774189059e+03 7.885764570917e-01 
2.500000000000e+00 -2.884161747751e+03 7.946736646523e-01 
3.000000000000e+00 -2.750402227778e+03 8.023811693945e-01 
3.500000000000e+00 -2.598727944992e+03 8.114877865763e-01 
4.000000000000e+00 -2.439064091272e+03 8.213307527460e-01 
4.500000000000e+00 -2.280729545742e+03 8.313857882842e-01 
5.000000000000e+00 -2.128897115074e+03 8.413974476918e-01 
5.500000000000e+00 -1.987359233253e+03 8.508691794754e-01 
6.000000000000e+00 -1.856875195503e+03 8.600064834412e-01 
6.500000000000e+00 -1.738016890572e+03 8.685305295938e-01 
7.000000000000e+00 -1.630556664582e+03 8.763856222005e-01 
7.500000000000e+00 -1.533447667426e+03 8.836588102683e-01 
8.000000000000e+00 -1.445653199983e+03 8.903248989662e-01 
8.500000000000e+00 -1.366316499345e+03 8.964530963685e-01 
9.000000000000e+00 -1.294668577466e+03 9.020632180756e-01 
9.500000000000e+00 -1.229749769403e+03 9.071969608501e-01 
1.000000000000e+01 -1.170645725641e+03 9.119064677548e-01 
1.050000000000e+01 -1.116883671197e+03 9.162114584146e-01 
1.100000000000e+01 -1.067714702498e+03 9.202242162214e-01 
1.150000000000e+01 -1.022834891615e+03 9.239060640109e-01 
1.200000000000e+01 -9.815868345628e+02 9.272875925979e-01 
1.250000000000e+01 -9.438007514608e+02 9.303862440083e-01 
1.300000000000e+01 -9.089732340948e+02 9.332465201702e-01 
1.350000000000e+01 -8.767891340763e+02 9.359106389621e-01 
1.400000000000e+01 -8.471881046613e+02 9.383673048938e-01 
1.450000000000e+01 -8.197926199547e+02 9.406428635568e-01 
1.500000000000e+01 -7.943010293314e+02 9.427597331777e-01 
1.550000000000e+01 -7.706491074877e+02 9.447230784297e-01 
1.600000000000e+01 -7.486671492853e+02 9.465491041074e-01 
1.650000000000e+01 -7.281447500390e+02 9.482549108434e-01 
1.700000000000e+01 -7.089107031016e+02 9.498544626273e-01 
1.750000000000e+01 -6.908566182536e+02 9.513533396884e-01 
1.800000000000e+01 -6.740379828729e+02 9.527495508156e-01 
1.850000000000e+01 -6.583352193406e+02 9.540538506093e-01 
1.900000000000e+01 -6.436229281659e+02 9.552764737193e-01 
1.950000000000e+01 -6.297964372651e+02 9.564259790636e-01 
2.000000000000e+01 -6.167674608317e+02 9.575095960332e-01 
2.050000000000e+01 -6.044603814428e+02 9.585329069808e-01 
2.100000000000e+01 -5.928461071457e+02 9.594783610587e-01 
2.150000000000e+01 -5.819866969263e+02 9.603581699279e-01 
2.200000000000e+01 -5.718177464265e+02 9.611823791630e-01 
2.250000000000e+01 -5.622730978378e+02 9.619562731633e-01 
2.300000000000e+01 -5.532951932543e+02 9.626844550196e-01 
2.350000000000e+01 -5.448343385519e+02 9.633709042061e-01 
2.400000000000e+01 -5.368470063194e+02 9.640191103852e-01 
2.450000000000e+01 -5.631384362907e+02 9.618134865620e-01 
2.500000000000e+01 -6.247512595214e+02 9.566399395937e-01 
2.550000000000e+01 -6.928232378431e+02 9.508685320263e-01 
2.600000000000e+01 -7.582856736302e+02 9.453340582393e-01 
2.650000000000e+01 -8.186867440550e+02 9.402362364931e-01 
2.700000000000e+01 -8.745125103915e+02 9.355300868062e-01 
2.750000000000e+01 -9.257246218437e+02 9.312423280661e-01 
2.800000000000e+01 -9.736422639110e+02 9.272554458536e-01 
2.850000000000e+01 -1.018296939816e+03 9.235408945678e-01 
2.900000000000e+01 -1.060479287709e+03 9.200328264923e-01 
2.950000000000e+01 -1.100343290554e+03 9.167232068317e-01 
3.000000000000e+01 -1.138179626930e+03 9.136530491989e-01 
3.050000000000e+01 -1.174356279885e+03 9.107187046154e-01 
3.100000000000e+01 -1.208893476142e+03 9.079286391231e-01 
3.150000000000e+01 -1.242038363265e+03 9.052734130536e-01 
3.200000000000e+01 -1.273943594681e+03 9.027180853550e-01 
3.250000000000e+01 -1.304668993309e+03 9.002643503295e-01 
3.300000000000e+01 -1.334350725080e+03 8.979168090037e-01 
3.350000000000e+01 -1.363076220119e+03 8.956453155494e-01 
3.400000000000e+01 -1.390876730355e+03 8.934474168346e-01 
3.450000000000e+01 -1.417803709225e+03 8.913581378381e-01 
3.500000000000e+01 -1.444000745307e+03 8.893390485865e-01 
3.550000000000e+01 -1.469493608683e+03 8.873745158204e-01 
3.600000000000e+01 -1.494302640898e+03 8.854629956033e-01 
3.650000000000e+01 -1.518480242245e+03 8.836204351177e-01 
3.700000000000e+01 -1.542120008683e+03 8.818223514387e-01 
3.750000000000e+01 -1.565233785017e+03 8.800644797599e-01 
3.800000000000e+01 -1.587830226803e+03 8.783461561215e-01 
3.850000000000e+01 -1.609930038398e+03 8.766900432214e-01 
3.900000000000e+01 -1.631601724003e+03 8.750852049005e-01 
3.950000000000e+01 -1.652865822631e+03 8.735106959058e-01 
4.000000000000e+01 -1.673729002545e+03 8.719660073743e-01 
4.050000000000e+01 -1.694196300577e+03 8.704507658137e-01 
4.100000000000e+01 -1.714288246965e+03 8.689797506249e-01 
4.150000000000e+01 -1.734051031582e+03 8.675362297144e-01 
4.200000000000e+01 -1.753492267489e+03 8.661163073305e-01 
4.250000000000e+01 -1.772614429090e+03 8.647197987974e-01 
4.300000000000e+01 -1.791418196724e+03 8.633466569980e-01 
4.350000000000e+01 -1.809912561591e+03 8.620205738990e-01 
4.400000000000e+01 -1.828149288132e+03 8.607249621516e-01 
4.450000000000e+01 -1.846141243161e+03 8.594468266023e-01 
4.500000000000e+01 -1.863892855344e+03 8.581858468440e-01 
4.550000000000e+01 -1.881407189585e+03 8.569418021175e-01 
4.600000000000e+01 -1.898687082495e+03 8.557164718820e-01 
4.650000000000e+01 -1.915750652517e+03 8.545205522269e-01 
4.700000000000e+01 -1.932621183608e+03 8.533391062909e-01 
4.750000000000e+01 -1.949299658363e+03 8.521712489475e-01 
4.800000000000e+01 -1.965784027204e+03 8.510171200729e-01 
4.850000000000e+01 -1.982069784370e+03 8.498770346472e-01 
4.900000000000e+01 -1.998150958835e+03 8.487577599309e-01 
4.950000000000e+01 -2.014041950214e+03 8.476983264124e-01 
5.000000000000e+01 -2.029776566875e+03 8.466532319411e-01 
5.050000000000e+01 -2.045360609779e+03 8.456181930709e-01 
5.100000000000e+01 -2.060797999988e+03 8.445929452236e-01 
5.150000000000e+01 -2.076091209228e+03 8.435773185912e-01 
5.200000000000e+01 -2.091242134656e+03 8.425711828267e-01 
5.250000000000e+01 -2.106252707557e+03 8.415744075565e-01 
5.300000000000e+01 -2.121125937363e+03 8.405867951332e-01 
5.350000000000e+01 -2.135865193309e+03 8.396081245611e-01 
5.400000000000e+01 -2.150471962228e+03 8.386382941411e-01 
5.450000000000e+01 -2.164945833991e+03 8.376773254155e-01 
5.500000000000e+01 -2.179285264981e+03 8.367253159874e-01 
5.550000000000e+01 -2.193488245174e+03 8.357823963016e-01 
5.600000000000e+01 -2.207552541544e+03 8.348487138178e-01 
5.650000000000e+01 -2.221475645463e+03 8.339244365986e-01 
5.700000000000e+01 -2.235254851561e+03 8.330097471637e-01 
5.750000000000e+01 -2.248886643767e+03 8.321116682467e-01 
5.800000000000e+01 -2.262388814227e+03 8.312557671749e-01 
5.850000000000e+01 -2.275789436578e+03 8.304085979838e-01 
5.900000000000e+01 -2.289090133115e+03 8.295677648673e-01 
5.950000000000e+01 -2.302292608180e+03 8.287331611087e-01 
6.000000000000e+01 -2.315398780920e+03 8.279046669209e-01 
6.050000000000e+01 -2.328410738164e+03 8.270821521678e-01 
6.100000000000e+01 -2.341330910906e+03 8.262654657847e-01 
6.150000000000e+01 -2.354162196764e+03 8.254544282089e-01 
6.200000000000e+01 -2.366908693162e+03 8.246487869999e-01 
6.250000000000e+01 -2.379575721144e+03 8.238482144643e-01 
6.300000000000e+01 -2.392167081125e+03 8.230524721553e-01 
6.350000000000e+01 -2.404684252822e+03 8.222614627572e-01 
6.400000000000e+01 -2.417126957433e+03 8.214751983011e-01 
6.450000000000e+01 -2.429493866546e+03 8.206937577048e-01 
6.500000000000e+01 -2.441783090996e+03 8.199172567027e-01 
6.550000000000e+01 -2.453992487391e+03 8.191458284247e-01 
6.600000000000e+01 -2.466119702060e+03 8.183796208087e-01 
6.650000000000e+01 -2.478162148714e+03 8.176187979103e-01 
6.700000000000e+01 -2.490117020026e+03 8.168635388187e-01 
6.750000000000e+01 -2.501981551232e+03 8.161317082083e-01 
6.800000000000e+01 -2.513773612118e+03 8.154337687174e-01 
6.850000000000e+01 -2.525504095135e+03 8.147392546657e-01 
6.900000000000e+01 -2.537173217075e+03 8.140483859743e-01 
6.950000000000e+01 -2.548781515487e+03 8.133611314412e-01 
7.000000000000e+01 -2.560329682570e+03 8.126774508508e-01 
7.050000000000e+01 -2.571818544507e+03 8.119972962289e-01 
7.100000000000e+01 -2.583249144780e+03 8.113206072049e-01 
7.150000000000e+01 -2.594622831176e+03 8.106473059721e-01 
7.200000000000e+01 -2.605941468895e+03 8.099772852289e-01 
7.250000000000e+01 -2.617208207045e+03 8.093103647462e-01 
7.300000000000e+01 -2.628425766615e+03 8.086463863548e-01 
7.350000000000e+01 -2.639595464925e+03 8.079852708058e-01 
7.400000000000e+01 -2.650717321636e+03 8.073270134853e-01 
7.450000000000e+01 -2.661790492238e+03 8.066716606537e-01 
7.500000000000e+01 -2.672813667617e+03 8.060192866493e-01 
7.550000000000e+01 -2.683785285551e+03 8.053699817691e-01 
7.600000000000e+01 -2.694703711533e+03 8.047238413008e-01 
7.650000000000e+01 -2.705567229995e+03 8.040809662473e-01 
7.700000000000e+01 -2.716374108975e+03 8.034414591035e-01 
7.750000000000e+01 -2.727122484811e+03 8.028054310512e-01 
7.800000000000e+01 -2.737810325270e+03 8.021730039526e-01 
7.850000000000e+01 -2.748435359269e+03 8.015502805736e-01 
7.900000000000e+01 -2.759003227180e+03 8.009555111556e-01 
7.950000000000e+01 -2.769526431950e+03 8.003662492246e-01 
8.000000000000e+01 -2.780005276143e+03 7.997794778291e-01 
8.050000000000e+01 -2.790439992231e+03 7.991951844863e-01 
8.100000000000e+01 -2.800830862096e+03 7.986133538981e-01 
8.150000000000e+01 -2.811178279368e+03 7.980339647486e-01 
8.200000000000e+01 -2.821482768379e+03 7.974569886348e-01 
8.250000000000e+01 -2.831745016136e+03 7.968823883404e-01 
8.300000000000e+01 -2.841965945263e+03 7.963101139121e-01 
8.350000000000e+01 -2.852147075884e+03 7.957400833876e-01 
8.400000000000e+01 -2.862290425354e+03 7.951721875452e-01 
8.450000000000e+01 -2.872397376694e+03 7.946063497950e-01 
8.500000000000e+01 -2.882468311919e+03 7.940425471768e-01 
8.550000000000e+01 -2.892502848263e+03 7.934807986289e-01 
8.600000000000e+01 -2.902500133446e+03 7.929211495701e-01 
8.650000000000e+01 -2.912459097192e+03 7.923636580980e-01 
8.700000000000e+01 -2.922378551524e+03 7.918083895838e-01 
8.750000000000e+01 -2.932257276034e+03 7.912554117124e-01 
8.800000000000e+01 -2.942094038485e+03 7.907047932922e-01 
8.850000000000e+01 -2.951887580090e+03 7.901566050671e-01 
8.900000000000e+01 -2.961636585732e+03 7.896109213739e-01 
8.950000000000e+01 -2.971339628562e+03 7.890678233097e-01 
9.000000000000e+01 -2.980995164720e+03 7.885273988714e-01 
9.050000000000e+01 -2.990601482603e+03 7.879897459033e-01 
9.100000000000e+01 -3.000156545744e+03 7.874634025202e-01 
9.150000000000e+01 -3.009669871941e+03 7.869608837133e-01 
9.200000000000e+01 -3.019151754612e+03 7.864602658734e-01 
9.250000000000e+01 -3.028602419291e+03 7.859613021730e-01 
9.300000000000e+01 -3.038022242480e+03 7.854639733714e-01 
9.350000000000e+01 -3.047411692872e+03 7.849682554539e-01 
9.400000000000e+01 -3.056771303572e+03 7.844741210251e-01 
9.450000000000e+01 -3.066101765938e+03 7.839815346676e-01 
9.500000000000e+01 -3.075403946034e+03 7.834904520045e-01 
9.550000000000e+01 -3.084679014114e+03 7.830008131999e-01 
9.600000000000e+01 -3.093928980029e+03 7.825125161157e-01 
9.650000000000e+01 -3.103156021328e+03 7.820254489540e-01 
9.700000000000e+01 -3.112361474770e+03 7.815395411149e-01 
9.750000000000e+01 -3.121545649261e+03 7.810547740264e-01 
9.800000000000e+01 -3.130708112788e+03 7.805711675518e-01 
9.850000000000e+01 -3.139848021145e+03 7.800887635457e-01 
9.900000000000e+01 -3.148964338472e+03 7.796076145561e-01 
9.950000000000e+01 -3.158055967550e+03 7.791277769516e-01 
1.000000000000e+02 -3.167121828916e+03 7.786493066113e-01 
1.005000000000e+02 -3.176160865246e+03 7.781722587060e-01 
1.010000000000e+02 -3.185172057459e+03 7.776966866962e-01 
1.015000000000e+02 -3.194154399750e+03 7.772226436772e-01 
1.020000000000e+02 -3.203106926375e+03 7.767501807537e-01 
1.025000000000e+02 -3.212028632431e+03 7.762793514976e-01 
1.030000000000e+02 -3.220918465953e+03 7.758102122104e-01 
1.035000000000e+02 -3.229775313911e+03 7.753428226412e-01 
1.040000000000e+02 -3.238597960577e+03 7.748772482742e-01 
1.045000000000e+02 -3.247384984063e+03 7.744168995869e-01 
1.050000000000e+02 -3.256138415906e+03 7.739752383478e-01 
1.055000000000e+02 -3.264868182744e+03 7.735388251921e-01 
1.060000000000e+02 -3.273575000403e+03 7.731035624604e-01 
1.065000000000e+02 -3.282259073901e+03 7.726694402691e-01 
1.070000000000e+02 -3.290920652937e+03 7.722364465418e-01 
1.075000000000e+02 -3.299560072418e+03 7.718045651082e-01 
1.080000000000e+02 -3.308177763635e+03 7.713737751194e-01 
1.085000000000e+02 -3.316774294966e+03 7.709440491093e-01 
1.090000000000e+02 -3.325350449736e+03 7.705153492621e-01 
1.095000000000e+02 -3.333907630701e+03 7.700876082806e-01 
1.100000000000e+02 -3.342447271502e+03 7.696607564506e-01 
1.105000000000e+02 -3.350970156548e+03 7.692347542066e-01 
1.110000000000e+02 -3.359476357475e+03 7.688095961808e-01 
1.115000000000e+02 -3.367965467474e+03 7.683853005930e-01 
1.120000000000e+02 -3.376436835113e+03 7.679618981410e-01 
1.125000000000e+02 -3.384889716516e+03 7.675394245613e-01 
1.130000000000e+02 -3.393323354557e+03 7.671179166642e-01 
1.135000000000e+02 -3.401737019004e+03 7.666974102437e-01 
1.140000000000e+02 -3.410130022092e+03 7.662779392245e-01 
1.145000000000e+02 -3.418501720572e+03 7.658595355040e-01 
1.150000000000e+02 -3.426851503598e+03 7.654422295450e-01 
1.155000000000e+02 -3.435178785326e+03 7.650260507025e-01 
1.160000000000e+02 -3.443482993977e+03 7.646110277576e-01 
1.165000000000e+02 -3.451763566417e+03 7.641971891575e-01 
1.170000000000e+02 -3.460019936289e+03 7.637845636172e-01 
1.175000000000e+02 -3.468251483150e+03 7.633731828069e-01 
1.180000000000e+02 -3.476457561669e+03 7.629630796712e-01 
1.185000000000e+02 -3.484637459221e+03 7.625542907307e-01 
1.190000000000e+02 -3.492790279170e+03 7.621468622559e-01 
1.195000000000e+02 -3.500915123269e+03 7.617481413172e-01 
1.200000000000e+02 -3.509017877324e+03 7.613627866426e-01 
1.205000000000e+02 -3.517102901197e+03 7.609780091369e-01 
1.210000000000e+02 -3.525170321992e+03 7.605940722611e-01 
1.215000000000e+02 -3.533220396289e+03 7.602109643415e-01 
1.220000000000e+02 -3.541253378947e+03 7.598286736125e-01 
1.225000000000e+02 -3.549269617975e+03 7.594471841030e-01 
1.230000000000e+02 -3.557269560830e+03 7.590664752539e-01 
1.235000000000e+02 -3.565253806961e+03 7.586865195467e-01 
1.240000000000e+02 -3.573223381228e+03 7.583072702151e-01 
1.245000000000e+02 -3.581179509993e+03 7.579286708451e-01 
1.250000000000e+02 -3.589122915065e+03 7.575506870287e-01 
1.255000000000e+02 -3.597053701829e+03 7.571733123279e-01 
1.260000000000e+02 -3.604971559016e+03 7.567965597947e-01 
1.265000000000e+02 -3.612875964617e+03 7.564204527082e-01 
1.270000000000e+02 -3.620766315969e+03 7.560450185414e-01 
1.275000000000e+02 -3.628642001107e+03 7.556702855402e-01 
1.280000000000e+02 -3.636502432293e+03 7.552962810623e-01 
1.285000000000e+02 -3.644347057410e+03 7.549230309777e-01 
1.290000000000e+02 -3.652175361021e+03 7.545505595715e-01 
1.295000000000e+02 -3.659986860961e+03 7.541788896700e-01 
1.300000000000e+02 -3.667781103129e+03 7.538080428636e-01 
1.305000000000e+02 -3.675557654754e+03 7.534380398124e-01 
1.310000000000e+02 -3.683316085304e+03 7.530689011887e-01 
1.315000000000e+02 -3.691055981006e+03 7.527006468792e-01 
1.320000000000e+02 -3.698776930524e+03 7.523332967275e-01 
1.325000000000e+02 -3.706478495958e+03 7.519668719864e-01 
1.330000000000e+02 -3.714160208522e+03 7.516013954724e-01 
1.335000000000e+02 -3.721821564577e+03 7.512368917434e-01 
1.340000000000e+02 -3.729462019586e+03 7.508733873898e-01 
1.345000000000e+02 -3.737080907576e+03 7.505109151427e-01 
1.350000000000e+02 -3.744677430220e+03 7.501495142686e-01 
1.355000000000e+02 -3.752251068242e+03 7.498015033315e-01 
1.360000000000e+02 -3.759808315834e+03 7.494630279069e-01 
1.365000000000e+02 -3.767351562192e+03 7.491251596419e-01 
1.370000000000e+02 -3.774881029360e+03 7.487879113998e-01 
1.375000000000e+02 -3.782396924416e+03 7.484512741619e-01 
1.380000000000e+02 -3.789899555738e+03 7.481152346425e-01 
1.385000000000e+02 -3.797389277971e+03 7.477797774682e-01 
1.390000000000e+02 -3.804866574627e+03 7.474448817618e-01 
1.395000000000e+02 -3.812332166795e+03 7.471105164877e-01 
1.400000000000e+02 -3.819787244996e+03 7.467766305758e-01 
1.405000000000e+02 -3.827232598057e+03 7.464431890137e-01 
1.410000000000e+02 -3.834668404682e+03 7.461101825922e-01 
1.415000000000e+02 -3.842094415551e+03 7.457776208363e-01 
1.420000000000e+02 -3.849510165843e+03 7.454455230781e-01 
1.425000000000e+02 -3.856915113998e+03 7.451139124138e-01 
1.430000000000e+02 -3.864308711833e+03 7.447828125616e-01 
1.435000000000e+02 -3.871690439342e+03 7.444522462262e-01 
1.440000000000e+02 -3.879059815910e+03 7.441222345383e-01 
1.445000000000e+02 -3.886416399793e+03 7.437927970353e-01 
1.450000000000e+02 -3.893759787005e+03 7.434639516645e-01 
1.455000000000e+02 -3.901089605241e+03 7.431357150380e-01 
1.460000000000e+02 -3.908405508452e+03 7.428081026573e-01 
1.465000000000e+02 -3.915707172305e+03 7.424811291016e-01 
1.470000000000e+02 -3.922994288326e+03 7.421548082875e-01 
1.475000000000e+02 -3.930266558354e+03 7.418291537138e-01 
1.480000000000e+02 -3.937523686015e+03 7.415041788534e-01 
1.485000000000e+02 -3.944765373240e+03 7.411798972977e-01 
1.490000000000e+02 -3.951991312798e+03 7.408563231022e-01 
1.495000000000e+02 -3.959201178012e+03 7.405334712645e-01 
1.500000000000e+02 -3.966394627984e+03 7.402113574442e-01 
1.505000000000e+02 -3.973571253289e+03 7.398900005953e-01 
1.510000000000e+02 -3.980730627818e+03 7.395694203480e-01 
1.515000000000e+02 -3.987872210792e+03 7.392496418325e-01 
1.520000000000e+02 -3.994995317171e+03 7.389306969296e-01 
1.525000000000e+02 -4.002099534785e+03 7.386208788399e-01 
1.530000000000e+02 -4.009190328922e+03 7.383174830591e-01 
1.535000000000e+02 -4.016269761355e+03 7.380145536570e-01 
1.540000000000e+02 -4.023338030785e+03 7.377121044603e-01 
1.545000000000e+02 -4.030395356185e+03 7.374101264034e-01 
1.550000000000e+02 -4.037442034300e+03 7.371086072613e-01 
1.555000000000e+02 -4.044478425127e+03 7.368075321599e-01 
1.560000000000e+02 -4.051505037692e+03 7.365068801555e-01 
1.565000000000e+02 -4.058522811698e+03 7.362066128919e-01 
1.570000000000e+02 -4.065532583964e+03 7.359066954651e-01 
1.575000000000e+02 -4.072534674206e+03 7.356071135047e-01 
1.580000000000e+02 -4.079528954420e+03 7.353078710854e-01 
1.585000000000e+02 -4.086515050969e+03 7.350089828071e-01 
1.590000000000e+02 -4.093492496643e+03 7.347104675535e-01 
1.595000000000e+02 -4.100460811335e+03 7.344123450658e-01 
1.600000000000e+02 -4.107419539491e+03 7.341146342793e-01 
1.605000000000e+02 -4.114368262085e+03 7.338173527522e-01 
1.610000000000e+02 -4.121306598668e+03 7.335205165249e-01 
1.615000000000e+02 -4.128234206092e+03 7.332241401329e-01 
1.620000000000e+02 -4.135150773229e+03 7.329282368134e-01 
1.625000000000e+02 -4.142056013795e+03 7.326328188024e-01 
1.630000000000e+02 -4.148949665246e+03 7.323378973535e-01 
1.635000000000e+02 -4.155831484188e+03 7.320434829331e-01 
1.640000000000e+02 -4.162701237616e+03 7.317495856086e-01 
1.645000000000e+02 -4.169558703074e+03 7.314562150158e-01 
1.650000000000e+02 -4.176403664201e+03 7.311633805573e-01 
1.655000000000e+02 -4.183235905681e+03 7.308710916236e-01 
1.660000000000e+02 -4.190055208872e+03 7.305793577814e-01 
1.665000000000e+02 -4.196861347865e+03 7.302881889434e-01 
1.670000000000e+02 -4.203654080945e+03 7.299975957526e-01 
1.675000000000e+02 -4.209205691805e+03 7.297645373753e-01 
1.680000000000e+02 -4.208919643302e+03 7.297997974962e-01 
1.685000000000e+02 -4.194459127775e+03 7.304799748522e-01 
1.690000000000e+02 -4.155557529744e+03 7.322601716518e-01 
1.695000000000e+02 -4.082836948917e+03 7.355446638647e-01 
1.700000000000e+02 -3.970440524494e+03 7.406513583861e-01 
1.705000000000e+02 -3.819139236984e+03 7.476639573802e-01 
1.710000000000e+02 -3.634914174372e+03 7.565071569727e-01 
1.715000000000e+02 -3.428525384406e+03 7.667298205289e-01 
1.720000000000e+02 -3.211683698580e+03 7.778612793214e-01 
1.725000000000e+02 -2.995118297043e+03 7.894402017427e-01 
1.730000000000e+02 -2.787496500096e+03 8.010802881415e-01 
1.735000000000e+02 -2.593492989504e+03 8.124368858744e-01 
1.740000000000e+02 -2.414601112755e+03 8.233828286427e-01 
1.745000000000e+02 -2.251684464266e+03 8.336637533135e-01 
1.750000000000e+02 -2.104171326598e+03 8.433335075628e-01 
1.755000000000e+02 -1.970706057838e+03 8.522726860314e-01 
1.760000000000e+02 -1.849952381951e+03 8.606868248815e-01 
1.765000000000e+02 -1.740862346034e+03 8.684797353932e-01 
1.770000000000e+02 -1.642402796603e+03 8.756421225758e-01 
1.775000000000e+02 -1.553204354987e+03 8.822753903675e-01 
1.780000000000e+02 -1.472131647301e+03 8.883932538722e-01 
1.785000000000e+02 -1.398363560463e+03 8.940239720354e-01 
1.790000000000e+02 -1.331156273790e+03 8.992584308336e-01 
1.795000000000e+02 -1.269741579961e+03 9.040836417983e-01 
1.800000000000e+02 -1.213486384687e+03 9.085295513287e-01 
1.805000000000e+02 -1.161716984760e+03 9.126569021472e-01 
1.810000000000e+02 -1.114103267758e+03 9.164684809044e-01 
1.815000000000e+02 -1.070099919010e+03 9.200553360512e-01 
1.820000000000e+02 -1.029528515004e+03 9.233796392128e-01 
1.825000000000e+02 -9.918693911565e+02 9.264647966680e-01 
1.830000000000e+02 -9.570072428963e+02 9.293200268755e-01 
1.835000000000e+02 -9.246421460048e+02 9.319735843048e-01 
1.840000000000e+02 -8.944244244866e+02 9.344613700991e-01 
1.845000000000e+02 -8.663351227993e+02 9.367895927290e-01 
1.850000000000e+02 -8.402027972018e+02 9.389576022707e-01 
1.855000000000e+02 -8.157646526163e+02 9.409866652672e-01 
1.860000000000e+02 -7.928250241225e+02 9.428902439830e-01 
1.865000000000e+02 -7.713667156672e+02 9.446706338693e-01 
1.870000000000e+02 -7.512600690136e+02 9.463400290317e-01 
1.875000000000e+02 -7.323515564810e+02 9.479108790007e-01 
1.880000000000e+02 -7.145135062683e+02 9.493935684647e-01 
1.885000000000e+02 -6.976405599913e+02 9.507950295368e-01 
1.890000000000e+02 -6.817690544630e+02 9.521117668073e-01 
1.895000000000e+02 -6.668664874908e+02 9.533488534623e-01 
1.900000000000e+02 -6.528311170828e+02 9.545145368066e-01 
1.905000000000e+02 -6.395772728038e+02 9.556158029365e-01 
1.910000000000e+02 -6.270318053912e+02 9.566586267597e-01 
1.915000000000e+02 -6.480811752815e+02 9.548331322524e-01 
1.920000000000e+02 -7.060325378088e+02 9.498837194164e-01 
1.925000000000e+02 -7.729816846375e+02 9.441975714706e-01 
1.930000000000e+02 -8.385226813904e+02 9.386511314232e-01 
1.935000000000e+02 -8.995799127051e+02 9.334954654044e-01 
1.940000000000e+02 -9.562711813562e+02 9.287695473551e-01 
1.945000000000e+02 -1.008659899574e+03 9.244063036779e-01 
1.950000000000e+02 -1.057788038474e+03 9.203165960763e-01 
1.955000000000e+02 -1.103669734262e+03 9.165086153029e-01 
1.960000000000e+02 -1.147097840312e+03 9.129826868579e-01 
1.965000000000e+02 -1.188197223317e+03 9.096472538326e-01 
1.970000000000e+02 -1.227107510144e+03 9.065178639190e-01 
1.975000000000e+02 -1.264353990471e+03 9.035330682432e-01 
1.980000000000e+02 -1.299895229719e+03 9.006870703846e-01 
1.985000000000e+02 -1.333952295247e+03 8.979918679427e-01 
1.990000000000e+02 -1.366769341844e+03 8.953957770180e-01 
1.995000000000e+02 -1.398302113724e+03 8.929036930516e-01 
2.000000000000e+02 -1.428680025916e+03 8.905591531543e-01 
2.005000000000e+02 -1.458154461455e+03 8.882868378352e-01 
2.010000000000e+02 -1.486708558628e+03 8.860859123923e-01 
2.015000000000e+02 -1.514342552875e+03 8.839717730209e-01 
2.020000000000e+02 -1.541223787512e+03 8.819263506297e-01 
2.025000000000e+02 -1.567420026382e+03 8.799334292598e-01 
2.030000000000e+02 -1.592923293688e+03 8.779935251217e-01 
2.035000000000e+02 -1.617751097072e+03 8.761439657287e-01 
2.040000000000e+02 -1.642001409199e+03 8.743476156390e-01 
2.045000000000e+02 -1.665706432468e+03 8.725918815839e-01 
2.050000000000e+02 -1.688875221321e+03 8.708760739169e-01 
2.055000000000e+02 -1.711513110842e+03 8.692129092610e-01 
2.060000000000e+02 -1.733688020142e+03 8.675926370095e-01 
2.065000000000e+02 -1.755419204014e+03 8.660049226025e-01 
2.070000000000e+02 -1.776722318440e+03 8.644486590970e-01 
2.075000000000e+02 -1.797596191591e+03 8.629259045769e-01 
2.080000000000e+02 -1.818071212249e+03 8.614680737612e-01 
2.085000000000e+02 -1.838209226579e+03 8.600369450777e-01 
2.090000000000e+02 -1.858019239715e+03 8.586292284770e-01 
2.095000000000e+02 -1.877517019622e+03 8.572438299360e-01 
2.100000000000e+02 -1.896710758440e+03 8.558807445982e-01 
2.105000000000e+02 -1.915617803322e+03 8.545543975270e-01 
2.110000000000e+02 -1.934267078030e+03 8.532479758548e-01 
2.115000000000e+02 -1.952653546248e+03 8.519601254820e-01 
2.120000000000e+02 -1.970772840595e+03 8.506911627791e-01 
2.125000000000e+02 -1.988622971259e+03 8.494412573017e-01 
2.130000000000e+02 -2.006197925817e+03 8.482407892986e-01 
2.135000000000e+02 -2.023544184246e+03 8.470882778304e-01 
2.140000000000e+02 -2.040678711556e+03 8.459498874970e-01 
2.145000000000e+02 -2.057604763396e+03 8.448253948208e-01 
2.150000000000e+02 -2.074327110354e+03 8.437144829071e-01 
2.155000000000e+02 -2.090854432058e+03 8.426165864560e-01 
2.160000000000e+02 -2.107191006753e+03 8.415314148609e-01 
2.165000000000e+02 -2.123337141683e+03 8.404589346184e-01 
2.170000000000e+02 -2.139291692722e+03 8.393992114354e-01 
2.175000000000e+02 -2.155053501021e+03 8.383523167920e-01 
2.180000000000e+02 -2.170621789678e+03 8.373183006949e-01 
2.185000000000e+02 -2.185996072618e+03 8.362971966329e-01 
2.190000000000e+02 -2.201175956959e+03 8.352890338327e-01 
2.195000000000e+02 -2.216160746068e+03 8.342938637815e-01 
2.200000000000e+02 -2.230949147426e+03 8.333117794306e-01 
2.205000000000e+02 -2.245538671852e+03 8.323432239971e-01 
2.210000000000e+02 -2.259941755105e+03 8.314251772319e-01 
2.215000000000e+02 -2.274206057725e+03 8.305230348185e-01 
2.220000000000e+02 -2.288338041203e+03 8.296292931181e-01 
2.225000000000e+02 -2.302341855475e+03 8.287436923488e-01 
2.230000000000e+02 -2.316221966038e+03 8.278659532984e-01 
2.235000000000e+02 -2.329983582931e+03 8.269957515228e-01 
2.240000000000e+02 -2.343634239862e+03 8.261326217746e-01 
2.245000000000e+02 -2.357181907567e+03 8.252760691129e-01 
2.250000000000e+02 -2.370630773394e+03 8.244258246730e-01 
2.255000000000e+02 -2.383981637619e+03 8.235818279616e-01 
2.260000000000e+02 -2.397233494596e+03 8.227441331608e-01 
2.265000000000e+02 -2.410384668054e+03 8.219128392350e-01 
2.270000000000e+02 -2.423433308031e+03 8.210880587058e-01 
2.275000000000e+02 -2.436377623081e+03 8.202699023005e-01 
2.280000000000e+02 -2.449215812909e+03 8.194584831458e-01 
2.285000000000e+02 -2.461946036608e+03 8.186539182467e-01 
2.290000000000e+02 -2.474566307892e+03 8.178563350108e-01 
2.295000000000e+02 -2.487074166181e+03 8.170658927287e-01 
2.300000000000e+02 -2.499466740449e+03 8.162917692345e-01 
2.305000000000e+02 -2.511758989346e+03 8.155620851192e-01 
2.310000000000e+02 -2.523971887259e+03 8.148387840302e-01 
2.315000000000e+02 -2.536106744879e+03 8.141201240864e-01 
2.320000000000e+02 -2.548165054410e+03 8.134060177221e-01 
2.325000000000e+02 -2.560148505104e+03 8.126963661571e-01 
2.330000000000e+02 -2.572059049983e+03 8.119910555093e-01 
2.335000000000e+02 -2.583899062207e+03 8.112899479468e-01 
2.340000000000e+02 -2.595671983835e+03 8.105928449151e-01 
2.345000000000e+02 -2.607382230692e+03 8.098994915737e-01 
2.350000000000e+02 -2.619032559131e+03 8.092097245267e-01 
2.355000000000e+02 -2.630623715500e+03 8.085234949250e-01 
2.360000000000e+02 -2.642155146483e+03 8.078408300517e-01 
2.365000000000e+02 -2.653625672488e+03 8.071617951451e-01 
2.370000000000e+02 -2.665033870567e+03 8.064864711673e-01 
2.375000000000e+02 -2.676378282605e+03 8.058149422732e-01 
2.380000000000e+02 -2.687657466848e+03 8.051472926381e-01 
2.385000000000e+02 -2.698870011395e+03 8.044836054256e-01 
2.390000000000e+02 -2.710014426925e+03 8.038239693147e-01 
2.395000000000e+02 -2.721089227507e+03 8.031684730625e-01 
2.400000000000e+02 -2.732092714624e+03 8.025172190477e-01 
2.405000000000e+02 -2.743022945982e+03 8.018703247545e-01 
2.410000000000e+02 -2.753879210409e+03 8.012477614123e-01 
2.415000000000e+02 -2.764677543023e+03 8.006429625323e-01 
2.420000000000e+02 -2.775423126424e+03 8.000411283520e-01 
2.425000000000e+02 -2.786116514460e+03 7.994422278454e-01 
2.430000000000e+02 -2.796758401769e+03 7.988462228195e-01 
2.435000000000e+02 -2.807349556840e+03 7.982530709973e-01 
2.440000000000e+02 -2.817890916940e+03 7.976627210299e-01 
2.445000000000e+02 -2.828383628787e+03 7.970751102428e-01 
2.450000000000e+02 -2.838829217425e+03 7.964901555753e-01 
2.455000000000e+02 -2.849230220583e+03 7.959077197449e-01 
2.460000000000e+02 -2.859588720204e+03 7.953276880889e-01 
2.465000000000e+02 -2.869905644785e+03 7.947500071323e-01 
2.470000000000e+02 -2.880180918760e+03 7.941746781698e-01 
2.475000000000e+02 -2.890413866190e+03 7.936017360783e-01 
2.480000000000e+02 -2.900603505981e+03 7.930312334749e-01 
2.485000000000e+02 -2.910748766983e+03 7.924632286423e-01 
2.490000000000e+02 -2.920848537437e+03 7.918977828769e-01 
2.495000000000e+02 -2.930901705280e+03 7.913349580315e-01 
2.500000000000e+02 -2.940907168849e+03 7.907748157979e-01 
2.505000000000e+02 -2.950863801352e+03 7.902174197249e-01 
2.510000000000e+02 -2.960770428190e+03 7.896628364146e-01 
2.515000000000e+02 -2.970625767907e+03 7.891111389196e-01 
2.520000000000e+02 -2.980428398074e+03 7.885624086033e-01 
2.525000000000e+02 -2.990176543971e+03 7.880167476104e-01 