 TITLE = "Time curves in points"
 VARIABLES = "TIME"  "PRESSURE1"  "SATURATION1" 
 ZONE T="POINT=POINT2"
0.000000000000e+00 -5.547004031523e+03 6.815121258180e-01 
5.000000000000e-01 -5.550426708320e+03 6.814004778100e-01 
1.000000000000e+00 -5.553875782638e+03 6.812877223802e-01 
1.500000000000e+00 -5.557358102734e+03 6.811738581315e-01 
2.000000000000e+00 -5.560876658734e+03 6.810587951627e-01 
2.500000000000e+00 -5.564429647075e+03 6.809428760883e-01 
3.000000000000e+00 -5.568015268035e+03 6.808271326849e-01 
3.500000000000e+00 -5.571634244021e+03 6.807102903358e-01 
4.000000000000e+00 -5.575285121316e+03 6.805924002407e-01 
4.500000000000e+00 -5.578964585297e+03 6.804735767218e-01 
5.000000000000e+00 -5.582666683254e+03 6.803540253984e-01 
5.500000000000e+00 -5.586386224690e+03 6.802339219610e-01 
6.000000000000e+00 -5.590112894293e+03 6.801136212629e-01 
6.500000000000e+00 -5.593828921150e+03 6.799937258813e-01 
7.000000000000e+00 -5.597509680301e+03 6.798750663345e-01 
7.500000000000e+00 -5.601121410271e+03 6.797587832225e-01 
8.000000000000e+00 -5.604619690531e+03 6.796463809903e-01 
8.500000000000e+00 -5.607943284732e+03 6.795399202968e-01 
9.000000000000e+00 -5.611010148893e+03 6.794421477025e-01 
9.500000000000e+00 -5.613720839156e+03 6.793563852338e-01 
1.000000000000e+01 -5.615950159464e+03 6.792868213061e-01 
1.050000000000e+01 -5.617544521272e+03 6.792385843575e-01 
1.100000000000e+01 -5.618318029333e+03 6.792178722571e-01 
1.150000000000e+01 -5.618048884846e+03 6.792320684002e-01 
1.200000000000e+01 -5.616474801595e+03 6.792898927713e-01 
1.250000000000e+01 -5.613287910586e+03 6.794015690650e-01 
1.300000000000e+01 -5.608128788339e+03 6.795790201605e-01 
1.350000000000e+01 -5.600585592440e+03 6.798358812753e-01 
1.400000000000e+01 -5.590196237626e+03 6.801874337839e-01 
1.450000000000e+01 -5.576431758126e+03 6.806511414001e-01 
1.500000000000e+01 -5.558711251457e+03 6.812515003565e-01 
1.550000000000e+01 -5.536392815581e+03 6.820087952729e-01 
1.600000000000e+01 -5.508790424499e+03 6.829410414175e-01 
1.650000000000e+01 -5.475183371996e+03 6.840799120941e-01 
1.700000000000e+01 -5.434893348156e+03 6.854521029383e-01 
1.750000000000e+01 -5.387202789893e+03 6.870727807898e-01 
1.800000000000e+01 -5.331387679988e+03 6.889683803774e-01 
1.850000000000e+01 -5.266785109925e+03 6.912267920582e-01 
1.900000000000e+01 -5.192909702615e+03 6.938477433928e-01 
1.950000000000e+01 -5.109584844016e+03 6.968265827863e-01 
2.000000000000e+01 -5.016505099739e+03 7.002112456248e-01 
2.050000000000e+01 -4.913804505676e+03 7.040100121463e-01 
2.100000000000e+01 -4.802064001103e+03 7.082098307373e-01 
2.150000000000e+01 -4.681650993354e+03 7.128481382424e-01 
2.200000000000e+01 -4.553810752318e+03 7.178722342380e-01 
2.250000000000e+01 -4.419316480551e+03 7.232627402487e-01 
2.300000000000e+01 -4.279756068305e+03 7.289922481197e-01 
2.350000000000e+01 -4.136366243662e+03 7.350663382837e-01 
2.400000000000e+01 -3.990837371520e+03 7.413796150832e-01 
2.450000000000e+01 -3.844663441149e+03 7.478944295413e-01 
2.500000000000e+01 -3.699248706589e+03 7.546235087187e-01 
2.550000000000e+01 -3.557065306121e+03 7.613796993398e-01 
2.600000000000e+01 -3.420011309834e+03 7.680738227372e-01 
2.650000000000e+01 -3.291025340645e+03 7.745107808072e-01 
2.700000000000e+01 -3.171739329584e+03 7.806367240102e-01 
2.750000000000e+01 -3.064125783382e+03 7.862455300136e-01 
2.800000000000e+01 -2.968211515962e+03 7.913882226463e-01 
2.850000000000e+01 -2.884605568152e+03 7.959627772382e-01 
2.900000000000e+01 -2.812407820976e+03 7.999148140771e-01 
2.950000000000e+01 -2.750362888077e+03 8.033938039173e-01 
3.000000000000e+01 -2.697563669804e+03 8.064180081811e-01 
3.050000000000e+01 -2.653058468172e+03 8.089712593061e-01 
3.100000000000e+01 -2.615701526982e+03 8.111111598874e-01 
3.150000000000e+01 -2.584553488359e+03 8.128915136517e-01 
3.200000000000e+01 -2.558778947948e+03 8.143605582499e-01 
3.250000000000e+01 -2.537699161936e+03 8.155779001369e-01 
3.300000000000e+01 -2.520731391995e+03 8.165679700062e-01 
3.350000000000e+01 -2.507366702625e+03 8.173383677816e-01 
3.400000000000e+01 -2.497183331211e+03 8.179184724454e-01 
3.450000000000e+01 -2.489832506226e+03 8.183406744110e-01 
3.500000000000e+01 -2.484991053864e+03 8.186143537947e-01 
3.550000000000e+01 -2.482387625579e+03 8.187497383620e-01 
3.600000000000e+01 -2.481786745315e+03 8.187613802989e-01 
3.650000000000e+01 -2.482982212845e+03 8.186620389299e-01 
3.700000000000e+01 -2.485800331223e+03 8.184624768798e-01 
3.750000000000e+01 -2.490092531605e+03 8.181718836835e-01 
3.800000000000e+01 -2.495718374338e+03 8.178001078246e-01 
3.850000000000e+01 -2.502562989379e+03 8.173675616958e-01 
3.900000000000e+01 -2.510501187810e+03 8.168695881691e-01 
3.950000000000e+01 -2.519434020401e+03 8.163123355732e-01 
4.000000000000e+01 -2.529260439008e+03 8.156979155357e-01 
4.050000000000e+01 -2.539910829749e+03 8.150467673306e-01 
4.100000000000e+01 -2.551297876784e+03 8.143647479003e-01 
4.150000000000e+01 -2.563360639212e+03 8.136438199229e-01 
4.200000000000e+01 -2.576033089711e+03 8.128878080066e-01 
4.250000000000e+01 -2.589260958558e+03 8.120998777954e-01 
4.300000000000e+01 -2.602989740418e+03 8.112831851193e-01 
4.350000000000e+01 -2.617180680156e+03 8.104399972424e-01 
4.400000000000e+01 -2.631786636798e+03 8.095730154819e-01 
4.450000000000e+01 -2.646776364942e+03 8.086841000412e-01 
4.500000000000e+01 -2.662113700689e+03 8.077753371606e-01 
4.550000000000e+01 -2.677770237176e+03 8.068483894927e-01 
4.600000000000e+01 -2.693719850163e+03 8.059047814963e-01 
4.650000000000e+01 -2.709937923470e+03 8.049459511530e-01 
4.700000000000e+01 -2.726408822912e+03 8.039728668845e-01 
4.750000000000e+01 -2.743113441924e+03 8.029837603416e-01 
4.800000000000e+01 -2.760018765024e+03 8.020086144336e-01 
4.850000000000e+01 -2.777077682359e+03 8.010263430045e-01 
4.900000000000e+01 -2.794262594664e+03 8.000536198532e-01 
4.950000000000e+01 -2.811559721287e+03 7.990861496318e-01 
5.000000000000e+01 -2.828961185872e+03 7.981132525385e-01 
5.050000000000e+01 -2.846455775949e+03 7.971355518743e-01 
5.100000000000e+01 -2.864036891886e+03 7.961534038150e-01 
5.150000000000e+01 -2.881694570220e+03 7.951673678955e-01 
5.200000000000e+01 -2.899425324186e+03 7.941776396210e-01 
5.250000000000e+01 -2.917226399821e+03 7.931843863342e-01 
5.300000000000e+01 -2.935094482678e+03 7.921877959220e-01 
5.350000000000e+01 -2.953028056793e+03 7.911879636840e-01 
5.400000000000e+01 -2.971025168666e+03 7.901850455702e-01 
5.450000000000e+01 -2.989084395254e+03 7.891769915455e-01 
5.500000000000e+01 -3.007196055641e+03 7.881860564531e-01 
5.550000000000e+01 -3.025302119426e+03 7.872043609600e-01 
5.600000000000e+01 -3.043384730474e+03 7.862344062811e-01 
5.650000000000e+01 -3.061442127219e+03 7.852832041973e-01 
5.700000000000e+01 -3.079470713415e+03 7.843337577431e-01 
5.750000000000e+01 -3.097474382968e+03 7.833858664296e-01 
5.800000000000e+01 -3.115452311556e+03 7.824396062499e-01 
5.850000000000e+01 -3.133409762160e+03 7.814946661311e-01 
5.900000000000e+01 -3.151341562182e+03 7.805513496554e-01 
5.950000000000e+01 -3.169252961948e+03 7.796093553464e-01 
6.000000000000e+01 -3.187143664416e+03 7.786687339553e-01 
6.050000000000e+01 -3.205021219219e+03 7.777290792954e-01 
6.100000000000e+01 -3.222884418950e+03 7.767905115266e-01 
6.150000000000e+01 -3.240736809875e+03 7.758503771771e-01 
6.200000000000e+01 -3.258572658995e+03 7.749317352661e-01 
6.250000000000e+01 -3.276354861471e+03 7.740208450947e-01 
6.300000000000e+01 -3.294072949996e+03 7.731207853925e-01 
6.350000000000e+01 -3.311729729695e+03 7.722404288400e-01 
6.400000000000e+01 -3.329323754492e+03 7.713634009397e-01 
6.450000000000e+01 -3.346860842073e+03 7.704893935834e-01 
6.500000000000e+01 -3.364340093757e+03 7.696184485174e-01 
6.550000000000e+01 -3.381766326309e+03 7.687503517816e-01 
6.600000000000e+01 -3.399144752109e+03 7.678848408545e-01 
6.650000000000e+01 -3.416473100849e+03 7.670220186648e-01 
6.700000000000e+01 -3.433756892271e+03 7.661616294159e-01 
6.750000000000e+01 -3.450998928838e+03 7.653035288751e-01 
6.800000000000e+01 -3.468203872579e+03 7.644475147488e-01 
6.850000000000e+01 -3.485375031645e+03 7.635920523933e-01 
6.900000000000e+01 -3.502513900884e+03 7.627474278424e-01 
6.950000000000e+01 -3.519599347331e+03 7.619180677884e-01 
7.000000000000e+01 -3.536615196100e+03 7.610886036420e-01 
7.050000000000e+01 -3.553563158851e+03 7.602811044633e-01 
7.100000000000e+01 -3.570450776487e+03 7.594799241390e-01 
7.150000000000e+01 -3.587277297782e+03 7.586817862596e-01 
7.200000000000e+01 -3.604045713052e+03 7.578865532589e-01 
7.250000000000e+01 -3.620758565201e+03 7.570941031617e-01 
7.300000000000e+01 -3.637420235414e+03 7.563042416338e-01 
7.350000000000e+01 -3.654030184468e+03 7.555169769150e-01 
7.400000000000e+01 -3.670594559368e+03 7.547320480133e-01 
7.450000000000e+01 -3.687114483623e+03 7.539493910618e-01 
7.500000000000e+01 -3.703591256978e+03 7.531689484491e-01 
7.550000000000e+01 -3.720030936940e+03 7.523904850519e-01 
7.600000000000e+01 -3.736435404365e+03 7.516117840390e-01 
7.650000000000e+01 -3.752805317870e+03 7.508469637051e-01 
7.700000000000e+01 -3.769122305188e+03 7.500972729772e-01 
7.750000000000e+01 -3.785371437678e+03 7.493474977874e-01 
7.800000000000e+01 -3.801560353654e+03 7.486153670646e-01 
7.850000000000e+01 -3.817685581258e+03 7.478954640412e-01 
7.900000000000e+01 -3.833755193759e+03 7.471781841875e-01 
7.950000000000e+01 -3.849767328938e+03 7.464635675816e-01 
8.000000000000e+01 -3.865729603147e+03 7.457512993227e-01 
8.050000000000e+01 -3.881638251100e+03 7.450415492028e-01 
8.100000000000e+01 -3.897499151821e+03 7.443340659130e-01 
8.150000000000e+01 -3.913315492856e+03 7.436286863868e-01 
8.200000000000e+01 -3.929089596865e+03 7.429253290971e-01 
8.250000000000e+01 -3.944820248153e+03 7.422240380840e-01 
8.300000000000e+01 -3.960516860244e+03 7.415244262393e-01 
8.350000000000e+01 -3.976175112534e+03 7.408264587790e-01 
8.400000000000e+01 -3.991806217502e+03 7.401278585054e-01 
8.450000000000e+01 -4.007400273124e+03 7.394460754947e-01 
8.500000000000e+01 -4.022941318979e+03 7.387690764983e-01 
8.550000000000e+01 -4.038423065827e+03 7.380919766489e-01 
8.600000000000e+01 -4.053853218918e+03 7.374281444048e-01 
8.650000000000e+01 -4.069230468299e+03 7.367724266726e-01 
8.700000000000e+01 -4.084554044292e+03 7.361190901617e-01 
8.750000000000e+01 -4.099832171691e+03 7.354677930145e-01 
8.800000000000e+01 -4.115058268241e+03 7.348188062489e-01 
8.850000000000e+01 -4.130245770559e+03 7.341715975896e-01 
8.900000000000e+01 -4.145388120543e+03 7.335264036411e-01 
8.950000000000e+01 -4.160491533521e+03 7.328829904073e-01 
9.000000000000e+01 -4.175554212565e+03 7.322414112107e-01 
9.050000000000e+01 -4.190584009525e+03 7.316013581701e-01 
9.100000000000e+01 -4.205577936310e+03 7.309629554451e-01 
9.150000000000e+01 -4.220540575169e+03 7.303260352356e-01 
9.200000000000e+01 -4.235475522156e+03 7.296883292716e-01 
9.250000000000e+01 -4.250379707191e+03 7.290604363713e-01 
9.300000000000e+01 -4.265244077441e+03 7.284456707636e-01 
9.350000000000e+01 -4.280058619944e+03 7.278318878916e-01 
9.400000000000e+01 -4.294821978497e+03 7.272178844391e-01 
9.450000000000e+01 -4.309536095349e+03 7.266239464884e-01 
9.500000000000e+01 -4.324203170967e+03 7.260335671707e-01 
9.550000000000e+01 -4.338823101405e+03 7.254451786493e-01 
9.600000000000e+01 -4.353400901783e+03 7.248585559505e-01 
9.650000000000e+01 -4.367936703059e+03 7.242737141180e-01 
9.700000000000e+01 -4.382431496755e+03 7.236905935840e-01 
9.750000000000e+01 -4.396889270864e+03 7.231090607862e-01 
9.800000000000e+01 -4.411306117091e+03 7.225292576511e-01 
9.850000000000e+01 -4.425694075659e+03 7.219507096830e-01 
9.900000000000e+01 -4.440041900085e+03 7.213738670045e-01 
9.950000000000e+01 -4.454360255284e+03 7.207983108176e-01 
1.000000000000e+02 -4.468646037048e+03 7.202241749953e-01 
1.005000000000e+02 -4.482906155763e+03 7.196499343713e-01 
1.010000000000e+02 -4.497134846033e+03 7.190798683013e-01 
1.015000000000e+02 -4.511329395698e+03 7.185209801844e-01 
1.020000000000e+02 -4.525484028251e+03 7.179634817951e-01 
1.025000000000e+02 -4.539584677012e+03 7.174061608049e-01 
1.030000000000e+02 -4.553647196130e+03 7.168548028747e-01 
1.035000000000e+02 -4.567664981745e+03 7.163129480004e-01 
1.040000000000e+02 -4.581642919744e+03 7.157726895493e-01 
1.045000000000e+02 -4.595577652500e+03 7.152341922569e-01 
1.050000000000e+02 -4.609475121352e+03 7.146971869951e-01 
1.055000000000e+02 -4.623332366046e+03 7.141618085184e-01 
1.060000000000e+02 -4.637155651635e+03 7.136278053678e-01 
1.065000000000e+02 -4.650944623182e+03 7.130952153261e-01 
1.070000000000e+02 -4.664698405269e+03 7.125640445194e-01 
1.075000000000e+02 -4.678422145627e+03 7.120341198557e-01 
1.080000000000e+02 -4.692113772973e+03 7.115055009592e-01 
1.085000000000e+02 -4.705779364925e+03 7.109779860568e-01 
1.090000000000e+02 -4.719413342724e+03 7.104517743610e-01 
1.095000000000e+02 -4.733028903572e+03 7.099245920194e-01 
1.100000000000e+02 -4.746615317623e+03 7.094021963447e-01 
1.105000000000e+02 -4.760175085638e+03 7.088926314128e-01 
1.110000000000e+02 -4.773695204124e+03 7.083843606313e-01 
1.115000000000e+02 -4.787177913619e+03 7.078759273381e-01 
1.120000000000e+02 -4.800623260891e+03 7.073680540394e-01 
1.125000000000e+02 -4.814029262603e+03 7.068764762134e-01 
1.130000000000e+02 -4.827401283376e+03 7.063863208268e-01 
1.135000000000e+02 -4.840737065060e+03 7.058975327531e-01 
1.140000000000e+02 -4.854040851610e+03 7.054099869791e-01 
1.145000000000e+02 -4.867311737577e+03 7.049237044293e-01 
1.150000000000e+02 -4.880548512170e+03 7.044387231758e-01 
1.155000000000e+02 -4.893760424301e+03 7.039547256753e-01 
1.160000000000e+02 -4.906935988486e+03 7.034721058797e-01 
1.165000000000e+02 -4.920089356076e+03 7.029903785497e-01 
1.170000000000e+02 -4.933210406401e+03 7.025098816619e-01 
1.175000000000e+02 -4.946307607732e+03 7.020303210954e-01 
1.180000000000e+02 -4.959380880534e+03 7.015517453286e-01 
1.185000000000e+02 -4.972427493354e+03 7.010738211449e-01 
1.190000000000e+02 -4.985454119929e+03 7.005955975539e-01 
1.195000000000e+02 -4.998457615398e+03 7.001232614952e-01 
1.200000000000e+02 -5.011432750322e+03 6.996588600023e-01 
1.205000000000e+02 -5.024373983785e+03 6.991954981798e-01 
1.210000000000e+02 -5.037279319225e+03 6.987322977859e-01 
1.215000000000e+02 -5.050151748071e+03 6.982694489948e-01 
1.220000000000e+02 -5.062988703923e+03 6.978166247981e-01 
1.225000000000e+02 -5.075793466915e+03 6.973676008614e-01 
1.230000000000e+02 -5.088567882615e+03 6.969196651729e-01 
1.235000000000e+02 -5.101311656659e+03 6.964728828940e-01 
1.240000000000e+02 -5.114023139594e+03 6.960272485675e-01 
1.245000000000e+02 -5.126707638460e+03 6.955826257295e-01 
1.250000000000e+02 -5.139365754917e+03 6.951389779637e-01 
1.255000000000e+02 -5.151994622367e+03 6.946963833748e-01 
1.260000000000e+02 -5.164600392791e+03 6.942546721143e-01 
1.265000000000e+02 -5.177179024657e+03 6.938139463016e-01 
1.270000000000e+02 -5.189730191524e+03 6.933742315364e-01 
1.275000000000e+02 -5.202265142653e+03 6.929351590607e-01 
1.280000000000e+02 -5.214770477657e+03 6.924971757591e-01 
1.285000000000e+02 -5.227258964433e+03 6.920584909043e-01 
1.290000000000e+02 -5.239722852086e+03 6.916202739164e-01 
1.295000000000e+02 -5.252166557067e+03 6.911936594681e-01 
1.300000000000e+02 -5.264582341395e+03 6.907713291611e-01 
1.305000000000e+02 -5.276970673980e+03 6.903498701338e-01 
1.310000000000e+02 -5.289324317876e+03 6.899281540582e-01 
1.315000000000e+02 -5.301648411123e+03 6.895067323912e-01 
1.320000000000e+02 -5.313947507049e+03 6.890956948749e-01 
1.325000000000e+02 -5.326214165527e+03 6.886899825873e-01 
1.330000000000e+02 -5.338456914914e+03 6.882850910735e-01 
1.335000000000e+02 -5.350670428975e+03 6.878812138966e-01 
1.340000000000e+02 -5.362859222925e+03 6.874781903912e-01 
1.345000000000e+02 -5.375021927781e+03 6.870760692154e-01 
1.350000000000e+02 -5.387161602002e+03 6.866747541711e-01 
1.355000000000e+02 -5.399275849009e+03 6.862743061095e-01 
1.360000000000e+02 -5.411371728110e+03 6.858745353905e-01 
1.365000000000e+02 -5.423441098095e+03 6.854756578403e-01 
1.370000000000e+02 -5.435491178652e+03 6.850774734325e-01 
1.375000000000e+02 -5.447521358293e+03 6.846800007103e-01 
1.380000000000e+02 -5.459530361710e+03 6.842832656453e-01 
1.385000000000e+02 -5.471518601185e+03 6.838869847844e-01 
1.390000000000e+02 -5.483493516035e+03 6.834908110134e-01 
1.395000000000e+02 -5.495445015164e+03 6.830968263029e-01 
1.400000000000e+02 -5.507378549530e+03 6.827075880736e-01 
1.405000000000e+02 -5.519287335711e+03 6.823189653195e-01 
1.410000000000e+02 -5.531171010450e+03 6.819311868043e-01 
1.415000000000e+02 -5.543024806625e+03 6.815434730966e-01 
1.420000000000e+02 -5.554856258251e+03 6.811563990965e-01 
1.425000000000e+02 -5.566661725499e+03 6.807740855598e-01 
1.430000000000e+02 -5.578443902031e+03 6.803938015153e-01 
1.435000000000e+02 -5.590205067732e+03 6.800142366302e-01 
1.440000000000e+02 -5.601942232056e+03 6.796354726074e-01 
1.445000000000e+02 -5.613655417511e+03 6.792575239689e-01 
1.450000000000e+02 -5.625350086468e+03 6.788802064598e-01 
1.455000000000e+02 -5.637022634646e+03 6.785036354739e-01 
1.460000000000e+02 -5.648672260365e+03 6.781278409862e-01 
1.465000000000e+02 -5.660306923654e+03 6.777525632314e-01 
1.470000000000e+02 -5.671917190329e+03 6.773781187934e-01 
1.475000000000e+02 -5.683511563256e+03 6.770042136205e-01 
1.480000000000e+02 -5.695085341531e+03 6.766310216167e-01 
1.485000000000e+02 -5.706640736650e+03 6.762584666263e-01 
1.490000000000e+02 -5.718179826962e+03 6.758861274754e-01 
1.495000000000e+02 -5.729704677454e+03 6.755133215527e-01 
1.500000000000e+02 -5.741208557035e+03 6.751412099560e-01 
1.505000000000e+02 -5.752702203250e+03 6.747792114915e-01 
1.510000000000e+02 -5.764172091397e+03 6.744187109631e-01 
1.515000000000e+02 -5.775619291306e+03 6.740588603167e-01 
1.520000000000e+02 -5.787044251044e+03 6.736992568905e-01 
1.525000000000e+02 -5.798447477012e+03 6.733392191116e-01 
1.530000000000e+02 -5.809830906592e+03 6.729798095201e-01 
1.535000000000e+02 -5.821189009773e+03 6.726311479239e-01 
1.540000000000e+02 -5.832530384796e+03 6.722832409185e-01 
1.545000000000e+02 -5.843851788306e+03 6.719359572849e-01 
1.550000000000e+02 -5.855152662507e+03 6.715893409785e-01 
1.555000000000e+02 -5.866433123688e+03 6.712433826808e-01 
1.560000000000e+02 -5.877697593696e+03 6.708979386711e-01 
1.565000000000e+02 -5.888939433884e+03 6.705532192173e-01 
1.570000000000e+02 -5.900166728680e+03 6.702089828614e-01 
1.575000000000e+02 -5.911377326419e+03 6.698652860326e-01 
1.580000000000e+02 -5.922568615825e+03 6.695222073005e-01 
1.585000000000e+02 -5.933742674062e+03 6.691796920700e-01 
1.590000000000e+02 -5.944905788230e+03 6.688375637565e-01 
1.595000000000e+02 -5.956051762365e+03 6.684959873260e-01 
1.600000000000e+02 -5.967180324989e+03 6.681546946808e-01 
1.605000000000e+02 -5.978300128402e+03 6.678130434996e-01 
1.610000000000e+02 -5.989403403938e+03 6.674719342135e-01 
1.615000000000e+02 -6.000495265318e+03 6.671371967784e-01 
1.620000000000e+02 -6.011568511028e+03 6.668046320710e-01 
1.625000000000e+02 -6.022620793046e+03 6.664725893982e-01 
1.630000000000e+02 -6.033656834974e+03 6.661410526852e-01 
1.635000000000e+02 -6.044668014697e+03 6.658091592994e-01 
1.640000000000e+02 -6.055657099583e+03 6.654777754159e-01 
1.645000000000e+02 -6.066630728228e+03 6.651496655760e-01 
1.650000000000e+02 -6.077584462689e+03 6.648266507760e-01 
1.655000000000e+02 -6.088514750373e+03 6.645043456868e-01 
1.660000000000e+02 -6.099429187420e+03 6.641825225361e-01 
1.665000000000e+02 -6.110323611565e+03 6.638613204112e-01 
1.670000000000e+02 -6.121201856941e+03 6.635406328396e-01 
1.675000000000e+02 -6.132062532697e+03 6.632204664181e-01 
1.680000000000e+02 -6.142903784159e+03 6.629009090511e-01 
1.685000000000e+02 -6.153729961378e+03 6.625818273168e-01 
1.690000000000e+02 -6.164538256185e+03 6.622632821783e-01 
1.695000000000e+02 -6.175332494046e+03 6.619451831189e-01 
1.700000000000e+02 -6.186108495682e+03 6.616276582703e-01 
1.705000000000e+02 -6.196872406895e+03 6.613105198984e-01 
1.710000000000e+02 -6.207618888693e+03 6.609939207884e-01 
1.715000000000e+02 -6.218352118108e+03 6.606770740336e-01 
1.720000000000e+02 -6.229072903120e+03 6.603600594809e-01 
1.725000000000e+02 -6.239777866157e+03 6.600435277071e-01 
1.730000000000e+02 -6.250466404396e+03 6.597357408688e-01 
1.735000000000e+02 -6.261136471925e+03 6.594300642253e-01 
1.740000000000e+02 -6.271781338685e+03 6.591250217293e-01 
1.745000000000e+02 -6.282402703201e+03 6.588206817128e-01 
1.750000000000e+02 -6.292987678845e+03 6.585164891643e-01 
1.755000000000e+02 -6.303534521889e+03 6.582128859935e-01 
1.760000000000e+02 -6.314037943438e+03 6.579106103280e-01 
1.765000000000e+02 -6.324476327858e+03 6.576190304165e-01 
1.770000000000e+02 -6.334835732024e+03 6.573303294112e-01 
1.775000000000e+02 -6.345092736124e+03 6.570446325975e-01 
1.780000000000e+02 -6.355217134215e+03 6.567628149516e-01 
1.785000000000e+02 -6.365164870849e+03 6.564861647046e-01 
1.790000000000e+02 -6.374882431766e+03 6.562162233560e-01 
1.795000000000e+02 -6.384310726808e+03 6.559547248651e-01 
1.800000000000e+02 -6.393369267715e+03 6.557040127507e-01 
1.805000000000e+02 -6.401954749695e+03 6.554670554949e-01 
1.810000000000e+02 -6.409943959082e+03 6.552474281060e-01 
1.815000000000e+02 -6.417193924962e+03 6.550492743213e-01 
1.820000000000e+02 -6.423527224801e+03 6.548777187879e-01 
1.825000000000e+02 -6.428734118025e+03 6.547388258234e-01 
1.830000000000e+02 -6.432563804615e+03 6.546398313269e-01 
1.835000000000e+02 -6.434717616855e+03 6.545893281704e-01 
1.840000000000e+02 -6.434847585751e+03 6.545973316344e-01 
1.845000000000e+02 -6.432550943715e+03 6.546754231979e-01 
1.850000000000e+02 -6.427363138251e+03 6.548369440444e-01 
1.855000000000e+02 -6.418754523032e+03 6.550970904253e-01 
1.860000000000e+02 -6.406117465064e+03 6.554732551402e-01 
1.865000000000e+02 -6.388768866655e+03 6.559849717770e-01 
1.870000000000e+02 -6.365958612301e+03 6.566536196526e-01 
1.875000000000e+02 -6.336873360472e+03 6.575023577517e-01 
1.880000000000e+02 -6.300612870530e+03 6.585865756851e-01 
1.885000000000e+02 -6.256247140176e+03 6.599088687000e-01 
1.890000000000e+02 -6.202865328684e+03 6.615267284338e-01 
1.895000000000e+02 -6.139644121831e+03 6.634514678909e-01 
1.900000000000e+02 -6.065705773342e+03 6.657186862981e-01 
1.905000000000e+02 -5.980248355296e+03 6.683626252171e-01 
1.910000000000e+02 -5.882953640511e+03 6.714215478917e-01 
1.915000000000e+02 -5.773541521536e+03 6.749231269435e-01 
1.920000000000e+02 -5.652050167012e+03 6.788899012767e-01 
1.925000000000e+02 -5.519212212658e+03 6.832849650824e-01 
1.930000000000e+02 -5.376227385759e+03 6.880603738451e-01 
1.935000000000e+02 -5.225249089360e+03 6.932593628043e-01 
1.940000000000e+02 -5.069286612180e+03 6.988146508431e-01 
1.945000000000e+02 -4.911399700379e+03 7.045500932313e-01 
1.950000000000e+02 -4.755423536997e+03 7.103816050573e-01 
1.955000000000e+02 -4.604345642599e+03 7.161935101695e-01 
1.960000000000e+02 -4.460613925897e+03 7.218454147130e-01 
1.965000000000e+02 -4.326208099099e+03 7.272523338261e-01 
1.970000000000e+02 -4.201804689449e+03 7.323861151415e-01 
1.975000000000e+02 -4.088261269391e+03 7.371763943627e-01 
1.980000000000e+02 -3.985105512410e+03 7.416059544709e-01 
1.985000000000e+02 -3.892147242130e+03 7.456858638040e-01 
1.990000000000e+02 -3.808719923673e+03 7.493888724529e-01 
1.995000000000e+02 -3.733861489607e+03 7.527660248821e-01 
2.000000000000e+02 -3.667079975034e+03 7.558684358730e-01 
2.005000000000e+02 -3.607605984441e+03 7.586258794588e-01 
2.010000000000e+02 -3.554639286084e+03 7.611075920665e-01 
2.015000000000e+02 -3.507441635935e+03 7.633428882976e-01 
2.020000000000e+02 -3.465479398265e+03 7.653585055209e-01 
2.025000000000e+02 -3.428320850562e+03 7.671580198399e-01 
2.030000000000e+02 -3.395446237189e+03 7.687480818370e-01 
2.035000000000e+02 -3.366380959984e+03 7.701524696789e-01 
2.040000000000e+02 -3.340739239403e+03 7.713898343752e-01 
2.045000000000e+02 -3.318172517009e+03 7.724770937993e-01 
2.050000000000e+02 -3.298399466470e+03 7.734427249582e-01 
2.055000000000e+02 -3.281160261031e+03 7.742937516184e-01 
2.060000000000e+02 -3.266203291213e+03 7.750257205769e-01 
2.065000000000e+02 -3.253359164887e+03 7.756517954605e-01 
2.070000000000e+02 -3.242431139027e+03 7.761825385743e-01 
2.075000000000e+02 -3.233290660773e+03 7.766380491291e-01 
2.080000000000e+02 -3.225780928616e+03 7.770094338783e-01 
2.085000000000e+02 -3.219774365911e+03 7.773030985573e-01 
2.090000000000e+02 -3.215166999652e+03 7.775237690795e-01 
2.095000000000e+02 -3.211846667644e+03 7.776782726668e-01 
2.100000000000e+02 -3.209720783752e+03 7.777713593823e-01 
2.105000000000e+02 -3.208706478144e+03 7.778072935178e-01 
2.110000000000e+02 -3.208728011931e+03 7.777899702045e-01 
2.115000000000e+02 -3.209719194350e+03 7.777227828088e-01 
2.120000000000e+02 -3.211617515176e+03 7.776089484618e-01 
2.125000000000e+02 -3.214361575888e+03 7.774516525568e-01 
2.130000000000e+02 -3.217901532622e+03 7.772534226530e-01 
2.135000000000e+02 -3.222188706906e+03 7.770167598244e-01 
2.140000000000e+02 -3.227177688446e+03 7.767435035617e-01 
2.145000000000e+02 -3.232828295809e+03 7.764356937127e-01 
2.150000000000e+02 -3.239097989429e+03 7.760959176391e-01 
2.155000000000e+02 -3.245946891778e+03 7.757287968242e-01 
2.160000000000e+02 -3.253348664290e+03 7.753424679219e-01 
2.165000000000e+02 -3.261253945717e+03 7.749306654372e-01 
2.170000000000e+02 -3.269638320246e+03 7.744947928578e-01 
2.175000000000e+02 -3.278461984272e+03 7.740354956945e-01 
2.180000000000e+02 -3.287698699397e+03 7.735542803857e-01 
2.185000000000e+02 -3.297322623560e+03 7.730629760077e-01 
2.190000000000e+02 -3.307309611990e+03 7.725597786897e-01 
2.195000000000e+02 -3.317636572696e+03 7.720400046433e-01 
2.200000000000e+02 -3.328273444250e+03 7.715051897681e-01 
2.205000000000e+02 -3.339212432803e+03 7.709556577379e-01 
2.210000000000e+02 -3.350425576214e+03 7.703928107993e-01 
2.215000000000e+02 -3.361899840363e+03 7.698172671653e-01 
2.220000000000e+02 -3.373612287257e+03 7.692301850973e-01 
2.225000000000e+02 -3.385561035848e+03 7.686316463805e-01 
2.230000000000e+02 -3.397717977498e+03 7.680230120535e-01 
2.235000000000e+02 -3.410079900833e+03 7.674044798671e-01 
2.240000000000e+02 -3.422630635011e+03 7.667768165914e-01 
2.245000000000e+02 -3.435359740657e+03 7.661405530040e-01 
2.250000000000e+02 -3.448254758380e+03 7.654962910972e-01 
2.255000000000e+02 -3.461308710131e+03 7.648444002847e-01 
2.260000000000e+02 -3.474509499470e+03 7.641854914656e-01 
2.265000000000e+02 -3.487853484984e+03 7.635177314647e-01 
2.270000000000e+02 -3.501327223240e+03 7.628527365763e-01 
2.275000000000e+02 -3.514907270127e+03 7.621916985784e-01 
2.280000000000e+02 -3.528582787991e+03 7.615247169211e-01 
2.285000000000e+02 -3.542339047797e+03 7.608539946308e-01 
2.290000000000e+02 -3.556171344169e+03 7.601961182966e-01 
2.295000000000e+02 -3.570076897278e+03 7.595349266373e-01 
2.300000000000e+02 -3.584050584909e+03 7.588707077892e-01 
2.305000000000e+02 -3.598083952491e+03 7.582038179222e-01 
2.310000000000e+02 -3.612179253004e+03 7.575341607133e-01 
2.315000000000e+02 -3.626326114181e+03 7.568622422574e-01 
2.320000000000e+02 -3.640526574253e+03 7.561879507342e-01 
2.325000000000e+02 -3.654778020747e+03 7.555114071723e-01 
2.330000000000e+02 -3.669075531143e+03 7.548328703373e-01 
2.335000000000e+02 -3.683417030346e+03 7.541524168896e-01 
2.340000000000e+02 -3.697801750413e+03 7.534700824927e-01 
2.345000000000e+02 -3.712231150686e+03 7.527858440667e-01 
2.350000000000e+02 -3.726695533791e+03 7.520998717253e-01 
2.355000000000e+02 -3.741206140075e+03 7.514092777952e-01 
2.360000000000e+02 -3.755749256526e+03 7.507354768481e-01 
2.365000000000e+02 -3.770306330560e+03 7.500658308101e-01 
2.370000000000e+02 -3.784864772089e+03 7.493932744796e-01 
2.375000000000e+02 -3.799430346938e+03 7.487307049963e-01 
2.380000000000e+02 -3.813992944043e+03 7.480799023567e-01 
2.385000000000e+02 -3.828561983195e+03 7.474289565121e-01 
2.390000000000e+02 -3.843128297490e+03 7.467782420630e-01 
2.395000000000e+02 -3.857694230916e+03 7.461276783743e-01 
2.400000000000e+02 -3.872258434380e+03 7.454773024696e-01 
2.405000000000e+02 -3.886826307518e+03 7.448269096805e-01 
2.410000000000e+02 -3.901387505234e+03 7.441769303698e-01 
2.415000000000e+02 -3.915951881671e+03 7.435269482182e-01 
2.420000000000e+02 -3.930516311618e+03 7.428770959118e-01 
2.425000000000e+02 -3.945077939541e+03 7.422274967734e-01 
2.430000000000e+02 -3.959644043066e+03 7.415778523670e-01 
2.435000000000e+02 -3.974206318378e+03 7.409285234893e-01 
2.440000000000e+02 -3.988779865250e+03 7.402768140578e-01 
2.445000000000e+02 -4.003350566006e+03 7.396358558604e-01 
2.450000000000e+02 -4.017906930703e+03 7.390014434065e-01 
2.455000000000e+02 -4.032440950230e+03 7.383664978941e-01 
2.460000000000e+02 -4.046955288941e+03 7.377341459251e-01 
2.465000000000e+02 -4.061445693840e+03 7.371158786073e-01 
2.470000000000e+02 -4.075919358599e+03 7.364984142171e-01 
2.475000000000e+02 -4.090368810949e+03 7.358820941059e-01 
2.480000000000e+02 -4.104801259569e+03 7.352665987023e-01 
2.485000000000e+02 -4.119215499707e+03 7.346519793036e-01 
2.490000000000e+02 -4.133609899197e+03 7.340383188220e-01 
2.495000000000e+02 -4.147988068654e+03 7.334254525633e-01 
2.500000000000e+02 -4.162352484218e+03 7.328132933084e-01 
2.505000000000e+02 -4.176700525410e+03 7.322019331781e-01 
2.510000000000e+02 -4.191034882068e+03 7.315912702118e-01 
2.515000000000e+02 -4.205354605739e+03 7.309813544848e-01 
2.520000000000e+02 -4.219663976836e+03 7.303720226542e-01 
2.525000000000e+02 -4.233963405276e+03 7.297613667417e-01 