 TITLE = "Time curves in points"
 VARIABLES = "TIME"  "PRESSURE1"  "SATURATION1" 
 ZONE T="POINT=POINT0"
0.000000000000e+00 -3.160000000000e+04 4.258094774412e-01 
5.000000000000e-01 -3.180000000000e+04 4.273518443707e-01 
1.000000000000e+00 -3.180000000000e+04 4.277743073514e-01 
1.500000000000e+00 -3.180000000000e+04 4.279066819820e-01 
2.000000000000e+00 -3.180000000000e+04 4.279485516020e-01 
2.500000000000e+00 -3.180000000000e+04 4.279554856546e-01 
3.000000000000e+00 -3.180000000000e+04 4.279465780726e-01 
3.500000000000e+00 -3.180000000000e+04 4.279296051724e-01 
4.000000000000e+00 -3.180000000000e+04 4.279081705300e-01 
4.500000000000e+00 -3.180000000000e+04 4.278841217431e-01 
5.000000000000e+00 -3.180000000000e+04 4.278584808750e-01 
5.500000000000e+00 -3.180000000000e+04 4.278318443067e-01 
6.000000000000e+00 -3.180000000000e+04 4.278045731932e-01 
6.500000000000e+00 -3.180000000000e+04 4.277768921434e-01 
7.000000000000e+00 -3.180000000000e+04 4.277489440146e-01 
7.500000000000e+00 -3.180000000000e+04 4.277208228161e-01 
8.000000000000e+00 -3.180000000000e+04 4.276925922861e-01 
8.500000000000e+00 -3.180000000000e+04 4.276642964203e-01 
9.000000000000e+00 -3.180000000000e+04 4.276359667453e-01 
9.500000000000e+00 -3.180000000000e+04 4.276076283228e-01 
1.000000000000e+01 -3.180000000000e+04 4.275799146483e-01 
1.050000000000e+01 -3.180000000000e+04 4.275524197658e-01 
1.100000000000e+01 -3.180000000000e+04 4.275249804371e-01 
1.150000000000e+01 -3.180000000000e+04 4.274976018615e-01 
1.200000000000e+01 -3.180000000000e+04 4.274703491270e-01 
1.250000000000e+01 -3.180000000000e+04 4.274433185024e-01 
1.300000000000e+01 -3.180000000000e+04 4.274166348742e-01 
1.350000000000e+01 -3.180000000000e+04 4.273904576708e-01 
1.400000000000e+01 -3.180000000000e+04 4.273649890785e-01 
1.450000000000e+01 -3.180000000000e+04 4.273404835205e-01 
1.500000000000e+01 -3.180000000000e+04 4.273172583634e-01 
1.550000000000e+01 -3.180000000000e+04 4.272957060547e-01 
1.600000000000e+01 -3.180000000000e+04 4.272763917851e-01 
1.650000000000e+01 -3.180000000000e+04 4.272599119535e-01 
1.700000000000e+01 -3.180000000000e+04 4.272469018760e-01 
1.750000000000e+01 -3.180000000000e+04 4.272381349262e-01 
1.800000000000e+01 -3.180000000000e+04 4.272345645645e-01 
1.850000000000e+01 -3.180000000000e+04 4.272373433801e-01 
1.900000000000e+01 -3.180000000000e+04 4.272479158769e-01 
1.950000000000e+01 -3.180000000000e+04 4.272681205383e-01 
2.000000000000e+01 -3.180000000000e+04 4.272999249709e-01 
2.050000000000e+01 -3.180000000000e+04 4.273455658898e-01 
2.100000000000e+01 -3.180000000000e+04 4.274076577040e-01 
2.150000000000e+01 -3.180000000000e+04 4.274892292131e-01 
2.200000000000e+01 -3.180000000000e+04 4.275946841418e-01 
2.250000000000e+01 -3.180000000000e+04 4.277303065148e-01 
2.300000000000e+01 -3.180000000000e+04 4.278995269989e-01 
2.350000000000e+01 -3.180000000000e+04 4.281073917527e-01 
2.400000000000e+01 -3.180000000000e+04 4.283605650510e-01 
2.450000000000e+01 -3.180000000000e+04 4.286675975783e-01 
2.500000000000e+01 -3.180000000000e+04 4.290420738309e-01 
2.550000000000e+01 -3.180000000000e+04 4.294918786518e-01 
2.600000000000e+01 -3.180000000000e+04 4.300281737802e-01 
2.650000000000e+01 -3.180000000000e+04 4.306614160200e-01 
2.700000000000e+01 -3.180000000000e+04 4.314208419585e-01 
2.750000000000e+01 -3.180000000000e+04 4.323216941881e-01 
2.800000000000e+01 -3.180000000000e+04 4.334619777913e-01 
2.850000000000e+01 -3.180000000000e+04 4.347798043604e-01 
2.900000000000e+01 -3.180000000000e+04 4.363001978122e-01 
2.950000000000e+01 -3.180000000000e+04 4.379734524048e-01 
3.000000000000e+01 -3.180000000000e+04 4.397672029380e-01 
3.050000000000e+01 -3.180000000000e+04 4.417151617153e-01 
3.100000000000e+01 -3.180000000000e+04 4.437357382227e-01 
3.150000000000e+01 -3.180000000000e+04 4.459219231838e-01 
3.200000000000e+01 -3.180000000000e+04 4.481451626007e-01 
3.250000000000e+01 -3.180000000000e+04 4.505376242612e-01 
3.300000000000e+01 -3.180000000000e+04 4.528620263368e-01 
3.350000000000e+01 -3.180000000000e+04 4.550920036225e-01 
3.400000000000e+01 -3.180000000000e+04 4.572126114518e-01 
3.450000000000e+01 -3.180000000000e+04 4.591422219450e-01 
3.500000000000e+01 -3.180000000000e+04 4.610105371628e-01 
3.550000000000e+01 -3.180000000000e+04 4.626904958543e-01 
3.600000000000e+01 -3.180000000000e+04 4.641802136444e-01 
3.650000000000e+01 -3.180000000000e+04 4.655531967397e-01 
3.700000000000e+01 -3.180000000000e+04 4.667605934173e-01 
3.750000000000e+01 -3.180000000000e+04 4.677962438348e-01 
3.800000000000e+01 -3.180000000000e+04 4.686943031586e-01 
3.850000000000e+01 -3.180000000000e+04 4.694274358323e-01 
3.900000000000e+01 -3.180000000000e+04 4.700281348767e-01 
3.950000000000e+01 -3.180000000000e+04 4.705042790867e-01 
4.000000000000e+01 -3.180000000000e+04 4.708823301828e-01 
4.050000000000e+01 -3.180000000000e+04 4.711740809047e-01 
4.100000000000e+01 -3.180000000000e+04 4.713896737583e-01 
4.150000000000e+01 -3.180000000000e+04 4.715382017626e-01 
4.200000000000e+01 -3.180000000000e+04 4.716281995744e-01 
4.250000000000e+01 -3.180000000000e+04 4.716646925331e-01 
4.300000000000e+01 -3.180000000000e+04 4.716526892023e-01 
4.350000000000e+01 -3.180000000000e+04 4.715976408689e-01 
4.400000000000e+01 -3.180000000000e+04 4.715060023197e-01 
4.450000000000e+01 -3.180000000000e+04 4.713809872488e-01 
4.500000000000e+01 -3.180000000000e+04 4.712253253412e-01 
4.550000000000e+01 -3.180000000000e+04 4.710420251007e-01 
4.600000000000e+01 -3.180000000000e+04 4.708340441667e-01 
4.650000000000e+01 -3.180000000000e+04 4.706045440715e-01 
4.700000000000e+01 -3.180000000000e+04 4.703574824045e-01 
4.750000000000e+01 -3.180000000000e+04 4.700953659922e-01 
4.800000000000e+01 -3.180000000000e+04 4.698157079015e-01 
4.850000000000e+01 -3.180000000000e+04 4.695143936419e-01 
4.900000000000e+01 -3.180000000000e+04 4.692010664488e-01 
4.950000000000e+01 -3.180000000000e+04 4.688765329081e-01 
5.000000000000e+01 -3.180000000000e+04 4.685417934975e-01 
5.050000000000e+01 -3.180000000000e+04 4.681979926303e-01 
5.100000000000e+01 -3.180000000000e+04 4.678460123873e-01 
5.150000000000e+01 -3.180000000000e+04 4.674908225311e-01 
5.200000000000e+01 -3.180000000000e+04 4.671413069675e-01 
5.250000000000e+01 -3.180000000000e+04 4.667776326798e-01 
5.300000000000e+01 -3.180000000000e+04 4.664056004430e-01 
5.350000000000e+01 -3.180000000000e+04 4.660280798624e-01 
5.400000000000e+01 -3.180000000000e+04 4.656466225666e-01 
5.450000000000e+01 -3.180000000000e+04 4.652655625033e-01 
5.500000000000e+01 -3.180000000000e+04 4.648903056455e-01 
5.550000000000e+01 -3.180000000000e+04 4.645271257139e-01 
5.600000000000e+01 -3.180000000000e+04 4.641601301767e-01 
5.650000000000e+01 -3.180000000000e+04 4.638017526470e-01 
5.700000000000e+01 -3.180000000000e+04 4.634418579841e-01 
5.750000000000e+01 -3.180000000000e+04 4.630784685843e-01 
5.800000000000e+01 -3.180000000000e+04 4.627128147748e-01 
5.850000000000e+01 -3.180000000000e+04 4.623454925749e-01 
5.900000000000e+01 -3.180000000000e+04 4.619767576905e-01 
5.950000000000e+01 -3.180000000000e+04 4.616076270611e-01 
6.000000000000e+01 -3.180000000000e+04 4.612414957872e-01 
6.050000000000e+01 -3.180000000000e+04 4.608764723124e-01 
6.100000000000e+01 -3.180000000000e+04 4.605178777681e-01 
6.150000000000e+01 -3.180000000000e+04 4.601625829073e-01 
6.200000000000e+01 -3.180000000000e+04 4.598089121984e-01 
6.250000000000e+01 -3.180000000000e+04 4.594577286091e-01 
6.300000000000e+01 -3.180000000000e+04 4.591283967346e-01 
6.350000000000e+01 -3.180000000000e+04 4.587981220878e-01 
6.400000000000e+01 -3.180000000000e+04 4.584655126421e-01 
6.450000000000e+01 -3.180000000000e+04 4.581312215440e-01 
6.500000000000e+01 -3.180000000000e+04 4.577963225077e-01 
6.550000000000e+01 -3.180000000000e+04 4.574612795199e-01 
6.600000000000e+01 -3.180000000000e+04 4.571258990986e-01 
6.650000000000e+01 -3.180000000000e+04 4.567900093776e-01 
6.700000000000e+01 -3.180000000000e+04 4.564571328246e-01 
6.750000000000e+01 -3.180000000000e+04 4.561295926308e-01 
6.800000000000e+01 -3.180000000000e+04 4.558144019494e-01 
6.850000000000e+01 -3.180000000000e+04 4.555041087351e-01 
6.900000000000e+01 -3.180000000000e+04 4.551951435110e-01 
6.950000000000e+01 -3.180000000000e+04 4.548862228261e-01 
7.000000000000e+01 -3.180000000000e+04 4.545771740817e-01 
7.050000000000e+01 -3.180000000000e+04 4.542687625002e-01 
7.100000000000e+01 -3.180000000000e+04 4.539659928616e-01 
7.150000000000e+01 -3.180000000000e+04 4.536661443140e-01 
7.200000000000e+01 -3.180000000000e+04 4.533683166645e-01 
7.250000000000e+01 -3.180000000000e+04 4.530744745279e-01 
7.300000000000e+01 -3.180000000000e+04 4.527905808077e-01 
7.350000000000e+01 -3.180000000000e+04 4.525075663710e-01 
7.400000000000e+01 -3.180000000000e+04 4.522242325261e-01 
7.450000000000e+01 -3.180000000000e+04 4.519416294670e-01 
7.500000000000e+01 -3.180000000000e+04 4.516598042568e-01 
7.550000000000e+01 -3.180000000000e+04 4.513825137252e-01 
7.600000000000e+01 -3.180000000000e+04 4.511107107147e-01 
7.650000000000e+01 -3.180000000000e+04 4.508405863470e-01 
7.700000000000e+01 -3.180000000000e+04 4.505705301780e-01 
7.750000000000e+01 -3.180000000000e+04 4.503001336897e-01 
7.800000000000e+01 -3.180000000000e+04 4.500304001970e-01 
7.850000000000e+01 -3.180000000000e+04 4.497630615237e-01 
7.900000000000e+01 -3.180000000000e+04 4.494983791653e-01 
7.950000000000e+01 -3.180000000000e+04 4.492367680937e-01 
8.000000000000e+01 -3.180000000000e+04 4.489794233891e-01 
8.050000000000e+01 -3.180000000000e+04 4.487245961163e-01 
8.100000000000e+01 -3.180000000000e+04 4.484892450299e-01 
8.150000000000e+01 -3.180000000000e+04 4.482560433890e-01 
8.200000000000e+01 -3.180000000000e+04 4.480278244203e-01 
8.250000000000e+01 -3.180000000000e+04 4.477982507092e-01 
8.300000000000e+01 -3.180000000000e+04 4.475681510969e-01 
8.350000000000e+01 -3.180000000000e+04 4.473385129727e-01 
8.400000000000e+01 -3.180000000000e+04 4.471095600428e-01 
8.450000000000e+01 -3.180000000000e+04 4.468827265470e-01 
8.500000000000e+01 -3.180000000000e+04 4.466615165123e-01 
8.550000000000e+01 -3.180000000000e+04 4.464415035247e-01 
8.600000000000e+01 -3.180000000000e+04 4.462218999238e-01 
8.650000000000e+01 -3.180000000000e+04 4.460064010399e-01 
8.700000000000e+01 -3.180000000000e+04 4.457937117322e-01 
8.750000000000e+01 -3.180000000000e+04 4.455822609809e-01 
8.800000000000e+01 -3.180000000000e+04 4.453713864144e-01 
8.850000000000e+01 -3.180000000000e+04 4.451608599834e-01 
8.900000000000e+01 -3.180000000000e+04 4.449506685790e-01 
8.950000000000e+01 -3.180000000000e+04 4.447410961337e-01 
9.000000000000e+01 -3.180000000000e+04 4.445328499777e-01 
9.050000000000e+01 -3.180000000000e+04 4.443258767069e-01 
9.100000000000e+01 -3.180000000000e+04 4.441212911549e-01 
9.150000000000e+01 -3.180000000000e+04 4.439213169174e-01 
9.200000000000e+01 -3.180000000000e+04 4.437275526198e-01 
9.250000000000e+01 -3.180000000000e+04 4.435390485389e-01 
9.300000000000e+01 -3.180000000000e+04 4.433498828724e-01 
9.350000000000e+01 -3.180000000000e+04 4.431600493335e-01 
9.400000000000e+01 -3.180000000000e+04 4.429725493826e-01 
9.450000000000e+01 -3.180000000000e+04 4.427866118214e-01 
9.500000000000e+01 -3.180000000000e+04 4.426013652782e-01 
9.550000000000e+01 -3.180000000000e+04 4.424163781483e-01 
9.600000000000e+01 -3.180000000000e+04 4.422315897392e-01 
9.650000000000e+01 -3.180000000000e+04 4.420472096280e-01 
9.700000000000e+01 -3.180000000000e+04 4.418634413692e-01 
9.750000000000e+01 -3.180000000000e+04 4.416804822897e-01 
9.800000000000e+01 -3.180000000000e+04 4.414993701614e-01 
9.850000000000e+01 -3.180000000000e+04 4.413196442537e-01 
9.900000000000e+01 -3.180000000000e+04 4.411407273632e-01 
9.950000000000e+01 -3.180000000000e+04 4.409623906752e-01 
1.000000000000e+02 -3.180000000000e+04 4.407845493967e-01 
1.005000000000e+02 -3.180000000000e+04 4.406074027907e-01 
1.010000000000e+02 -3.180000000000e+04 4.404352208368e-01 
1.015000000000e+02 -3.180000000000e+04 4.402657220895e-01 
1.020000000000e+02 -3.180000000000e+04 4.400974249670e-01 
1.025000000000e+02 -3.180000000000e+04 4.399297778563e-01 
1.030000000000e+02 -3.180000000000e+04 4.397626087107e-01 
1.035000000000e+02 -3.180000000000e+04 4.395958319178e-01 
1.040000000000e+02 -3.180000000000e+04 4.394294796233e-01 
1.045000000000e+02 -3.180000000000e+04 4.392656053215e-01 
1.050000000000e+02 -3.180000000000e+04 4.391045823899e-01 
1.055000000000e+02 -3.180000000000e+04 4.389464146830e-01 
1.060000000000e+02 -3.180000000000e+04 4.387931207890e-01 
1.065000000000e+02 -3.180000000000e+04 4.386410612241e-01 
1.070000000000e+02 -3.180000000000e+04 4.384889188645e-01 
1.075000000000e+02 -3.180000000000e+04 4.383366362341e-01 
1.080000000000e+02 -3.180000000000e+04 4.381843739374e-01 
1.085000000000e+02 -3.180000000000e+04 4.380322104525e-01 
1.090000000000e+02 -3.180000000000e+04 4.378801437709e-01 
1.095000000000e+02 -3.180000000000e+04 4.377237905463e-01 
1.100000000000e+02 -3.180000000000e+04 4.375661758418e-01 
1.105000000000e+02 -3.180000000000e+04 4.374082654817e-01 
1.110000000000e+02 -3.180000000000e+04 4.372504018377e-01 
1.115000000000e+02 -3.180000000000e+04 4.370938696170e-01 
1.120000000000e+02 -3.180000000000e+04 4.369403611063e-01 
1.125000000000e+02 -3.180000000000e+04 4.367901350657e-01 
1.130000000000e+02 -3.180000000000e+04 4.366414753150e-01 
1.135000000000e+02 -3.180000000000e+04 4.364935002483e-01 
1.140000000000e+02 -3.180000000000e+04 4.363458478309e-01 
1.145000000000e+02 -3.180000000000e+04 4.361983646578e-01 
1.150000000000e+02 -3.180000000000e+04 4.360510321865e-01 
1.155000000000e+02 -3.180000000000e+04 4.359045515912e-01 
1.160000000000e+02 -3.180000000000e+04 4.357592317220e-01 
1.165000000000e+02 -3.180000000000e+04 4.356149197312e-01 
1.170000000000e+02 -3.180000000000e+04 4.354713463873e-01 
1.175000000000e+02 -3.180000000000e+04 4.353283032909e-01 
1.180000000000e+02 -3.180000000000e+04 4.351859449376e-01 
1.185000000000e+02 -3.180000000000e+04 4.350494865191e-01 
1.190000000000e+02 -3.180000000000e+04 4.349137393489e-01 
1.195000000000e+02 -3.180000000000e+04 4.347779167435e-01 
1.200000000000e+02 -3.180000000000e+04 4.346419617626e-01 
1.205000000000e+02 -3.180000000000e+04 4.345059173390e-01 
1.210000000000e+02 -3.180000000000e+04 4.343698704396e-01 
1.215000000000e+02 -3.180000000000e+04 4.342339075938e-01 
1.220000000000e+02 -3.180000000000e+04 4.340989188852e-01 
1.225000000000e+02 -3.180000000000e+04 4.339653791845e-01 
1.230000000000e+02 -3.180000000000e+04 4.338356942915e-01 
1.235000000000e+02 -3.180000000000e+04 4.337075887213e-01 
1.240000000000e+02 -3.180000000000e+04 4.335800090421e-01 
1.245000000000e+02 -3.180000000000e+04 4.334526496025e-01 
1.250000000000e+02 -3.180000000000e+04 4.333254397453e-01 
1.255000000000e+02 -3.180000000000e+04 4.331983686916e-01 
1.260000000000e+02 -3.180000000000e+04 4.330714364773e-01 
1.265000000000e+02 -3.180000000000e+04 4.329447063188e-01 
1.270000000000e+02 -3.180000000000e+04 4.328182562253e-01 
1.275000000000e+02 -3.180000000000e+04 4.326921316405e-01 
1.280000000000e+02 -3.180000000000e+04 4.325669306892e-01 
1.285000000000e+02 -3.180000000000e+04 4.324435647747e-01 
1.290000000000e+02 -3.180000000000e+04 4.323333099272e-01 
1.295000000000e+02 -3.180000000000e+04 4.322229576203e-01 
1.300000000000e+02 -3.180000000000e+04 4.321127963860e-01 
1.305000000000e+02 -3.180000000000e+04 4.320028178839e-01 
1.310000000000e+02 -3.180000000000e+04 4.318929850117e-01 
1.315000000000e+02 -3.180000000000e+04 4.317832761650e-01 
1.320000000000e+02 -3.180000000000e+04 4.316741270184e-01 
1.325000000000e+02 -3.180000000000e+04 4.315671057742e-01 
1.330000000000e+02 -3.180000000000e+04 4.314611235478e-01 
1.335000000000e+02 -3.180000000000e+04 4.313557307576e-01 
1.340000000000e+02 -3.180000000000e+04 4.312507641264e-01 
1.345000000000e+02 -3.180000000000e+04 4.311461224242e-01 
1.350000000000e+02 -3.180000000000e+04 4.310417323294e-01 
1.355000000000e+02 -3.180000000000e+04 4.309375417929e-01 
1.360000000000e+02 -3.180000000000e+04 4.308335175900e-01 
1.365000000000e+02 -3.180000000000e+04 4.307296420029e-01 
1.370000000000e+02 -3.180000000000e+04 4.306277923314e-01 
1.375000000000e+02 -3.180000000000e+04 4.305270283745e-01 
1.380000000000e+02 -3.180000000000e+04 4.304261334077e-01 
1.385000000000e+02 -3.180000000000e+04 4.303250953043e-01 
1.390000000000e+02 -3.180000000000e+04 4.302244795383e-01 
1.395000000000e+02 -3.180000000000e+04 4.301250482740e-01 
1.400000000000e+02 -3.180000000000e+04 4.300267122618e-01 
1.405000000000e+02 -3.180000000000e+04 4.299291593618e-01 
1.410000000000e+02 -3.180000000000e+04 4.298321219291e-01 
1.415000000000e+02 -3.180000000000e+04 4.297354186392e-01 
1.420000000000e+02 -3.180000000000e+04 4.296389329543e-01 
1.425000000000e+02 -3.180000000000e+04 4.295425969953e-01 
1.430000000000e+02 -3.180000000000e+04 4.294463772413e-01 
1.435000000000e+02 -3.180000000000e+04 4.293503018244e-01 
1.440000000000e+02 -3.180000000000e+04 4.292544251006e-01 
1.445000000000e+02 -3.180000000000e+04 4.291587864862e-01 
1.450000000000e+02 -3.180000000000e+04 4.290636941685e-01 
1.455000000000e+02 -3.180000000000e+04 4.289692813122e-01 
1.460000000000e+02 -3.180000000000e+04 4.288754097952e-01 
1.465000000000e+02 -3.180000000000e+04 4.287833215593e-01 
1.470000000000e+02 -3.180000000000e+04 4.286928049713e-01 
1.475000000000e+02 -3.180000000000e+04 4.286031167348e-01 
1.480000000000e+02 -3.180000000000e+04 4.285138402756e-01 
1.485000000000e+02 -3.180000000000e+04 4.284247837606e-01 
1.490000000000e+02 -3.180000000000e+04 4.283358571905e-01 
1.495000000000e+02 -3.180000000000e+04 4.282470188266e-01 
1.500000000000e+02 -3.180000000000e+04 4.281583180493e-01 
1.505000000000e+02 -3.180000000000e+04 4.280699104137e-01 
1.510000000000e+02 -3.180000000000e+04 4.279818622245e-01 
1.515000000000e+02 -3.180000000000e+04 4.278941532218e-01 
1.520000000000e+02 -3.180000000000e+04 4.278067287424e-01 
1.525000000000e+02 -3.180000000000e+04 4.277195349462e-01 
1.530000000000e+02 -3.180000000000e+04 4.276325357318e-01 
1.535000000000e+02 -3.180000000000e+04 4.275476008039e-01 
1.540000000000e+02 -3.180000000000e+04 4.274633823725e-01 
1.545000000000e+02 -3.180000000000e+04 4.273793263591e-01 
1.550000000000e+02 -3.180000000000e+04 4.272959968785e-01 
1.555000000000e+02 -3.180000000000e+04 4.272133275803e-01 
1.560000000000e+02 -3.180000000000e+04 4.271310798530e-01 
1.565000000000e+02 -3.180000000000e+04 4.270491809946e-01 
1.570000000000e+02 -3.180000000000e+04 4.269677245126e-01 
1.575000000000e+02 -3.180000000000e+04 4.268867199282e-01 
1.580000000000e+02 -3.180000000000e+04 4.268061048545e-01 
1.585000000000e+02 -3.180000000000e+04 4.267258007495e-01 
1.590000000000e+02 -3.180000000000e+04 4.266457393374e-01 
1.595000000000e+02 -3.180000000000e+04 4.265658665072e-01 
1.600000000000e+02 -3.180000000000e+04 4.264861445530e-01 
1.605000000000e+02 -3.180000000000e+04 4.264065584285e-01 
1.610000000000e+02 -3.180000000000e+04 4.263271089616e-01 
1.615000000000e+02 -3.180000000000e+04 4.262478003826e-01 
1.620000000000e+02 -3.180000000000e+04 4.261686323734e-01 
1.625000000000e+02 -3.180000000000e+04 4.260898897779e-01 
1.630000000000e+02 -3.180000000000e+04 4.260120390160e-01 
1.635000000000e+02 -3.180000000000e+04 4.259353119692e-01 
1.640000000000e+02 -3.180000000000e+04 4.258592327054e-01 
1.645000000000e+02 -3.180000000000e+04 4.257833734729e-01 
1.650000000000e+02 -3.180000000000e+04 4.257076818539e-01 
1.655000000000e+02 -3.180000000000e+04 4.256324523597e-01 
1.660000000000e+02 -3.180000000000e+04 4.255577598156e-01 
1.665000000000e+02 -3.180000000000e+04 4.254834679751e-01 
1.670000000000e+02 -3.180000000000e+04 4.254094508027e-01 
1.675000000000e+02 -3.180000000000e+04 4.253356912429e-01 
1.680000000000e+02 -3.180000000000e+04 4.252621868007e-01 
1.685000000000e+02 -3.180000000000e+04 4.251889196791e-01 
1.690000000000e+02 -3.180000000000e+04 4.251158638663e-01 
1.695000000000e+02 -3.180000000000e+04 4.250429924758e-01 
1.700000000000e+02 -3.180000000000e+04 4.249702811300e-01 
1.705000000000e+02 -3.180000000000e+04 4.248977141962e-01 
1.710000000000e+02 -3.180000000000e+04 4.248252841430e-01 
1.715000000000e+02 -3.180000000000e+04 4.247534498577e-01 
1.720000000000e+02 -3.180000000000e+04 4.246823212532e-01 
1.725000000000e+02 -3.180000000000e+04 4.246116878457e-01 
1.730000000000e+02 -3.180000000000e+04 4.245413572573e-01 
1.735000000000e+02 -3.180000000000e+04 4.244712703859e-01 
1.740000000000e+02 -3.180000000000e+04 4.244014805254e-01 
1.745000000000e+02 -3.180000000000e+04 4.243330868443e-01 
1.750000000000e+02 -3.180000000000e+04 4.242653443971e-01 
1.755000000000e+02 -3.180000000000e+04 4.241977133205e-01 
1.760000000000e+02 -3.180000000000e+04 4.241301544926e-01 
1.765000000000e+02 -3.180000000000e+04 4.240626734663e-01 
1.770000000000e+02 -3.180000000000e+04 4.239952720529e-01 
1.775000000000e+02 -3.180000000000e+04 4.239282194197e-01 
1.780000000000e+02 -3.180000000000e+04 4.238621723691e-01 
1.785000000000e+02 -3.180000000000e+04 4.237963885158e-01 
1.790000000000e+02 -3.180000000000e+04 4.237306349905e-01 
1.795000000000e+02 -3.180000000000e+04 4.236648756143e-01 
1.800000000000e+02 -3.180000000000e+04 4.235991258798e-01 
1.805000000000e+02 -3.180000000000e+04 4.235334864423e-01 
1.810000000000e+02 -3.180000000000e+04 4.234681971201e-01 
1.815000000000e+02 -3.180000000000e+04 4.234035070930e-01 
1.820000000000e+02 -3.180000000000e+04 4.233394288057e-01 
1.825000000000e+02 -3.180000000000e+04 4.232758805543e-01 
1.830000000000e+02 -3.180000000000e+04 4.232127931173e-01 
1.835000000000e+02 -3.180000000000e+04 4.231501406300e-01 
1.840000000000e+02 -3.180000000000e+04 4.230879538373e-01 
1.845000000000e+02 -3.180000000000e+04 4.230263338230e-01 
1.850000000000e+02 -3.180000000000e+04 4.229654138791e-01 
1.855000000000e+02 -3.180000000000e+04 4.229053423288e-01 
1.860000000000e+02 -3.180000000000e+04 4.228464963344e-01 
1.865000000000e+02 -3.180000000000e+04 4.227893495534e-01 
1.870000000000e+02 -3.180000000000e+04 4.227339646689e-01 
1.875000000000e+02 -3.180000000000e+04 4.226804528204e-01 
1.880000000000e+02 -3.180000000000e+04 4.226290724620e-01 
1.885000000000e+02 -3.180000000000e+04 4.225802175818e-01 
1.890000000000e+02 -3.180000000000e+04 4.225344043975e-01 
1.895000000000e+02 -3.180000000000e+04 4.224922716611e-01 
1.900000000000e+02 -3.180000000000e+04 4.224545914709e-01 
1.905000000000e+02 -3.180000000000e+04 4.224222878663e-01 
1.910000000000e+02 -3.180000000000e+04 4.223964601236e-01 
1.915000000000e+02 -3.180000000000e+04 4.223784106826e-01 
1.920000000000e+02 -3.180000000000e+04 4.223696760911e-01 
1.925000000000e+02 -3.180000000000e+04 4.223720691415e-01 
1.930000000000e+02 -3.180000000000e+04 4.223877161436e-01 
1.935000000000e+02 -3.180000000000e+04 4.224190875279e-01 
1.940000000000e+02 -3.180000000000e+04 4.224690354702e-01 
1.945000000000e+02 -3.180000000000e+04 4.225409231503e-01 
1.950000000000e+02 -3.180000000000e+04 4.226386460251e-01 
1.955000000000e+02 -3.180000000000e+04 4.227678239870e-01 
1.960000000000e+02 -3.180000000000e+04 4.229338876869e-01 
1.965000000000e+02 -3.180000000000e+04 4.231429826058e-01 
1.970000000000e+02 -3.180000000000e+04 4.234010934965e-01 
1.975000000000e+02 -3.180000000000e+04 4.237133904861e-01 
1.980000000000e+02 -3.180000000000e+04 4.240912273573e-01 
1.985000000000e+02 -3.180000000000e+04 4.245441041819e-01 
1.990000000000e+02 -3.180000000000e+04 4.250769490336e-01 
1.995000000000e+02 -3.180000000000e+04 4.256883209619e-01 
2.000000000000e+02 -3.180000000000e+04 4.263873309650e-01 
2.005000000000e+02 -3.180000000000e+04 4.271712391350e-01 
2.010000000000e+02 -3.180000000000e+04 4.280452816701e-01 
2.015000000000e+02 -3.180000000000e+04 4.290079547478e-01 
2.020000000000e+02 -3.180000000000e+04 4.300446124766e-01 
2.025000000000e+02 -3.180000000000e+04 4.311480625120e-01 
2.030000000000e+02 -3.180000000000e+04 4.323337492177e-01 
2.035000000000e+02 -3.180000000000e+04 4.336759536421e-01 
2.040000000000e+02 -3.180000000000e+04 4.350474197030e-01 
2.045000000000e+02 -3.180000000000e+04 4.364561941886e-01 
2.050000000000e+02 -3.180000000000e+04 4.378389297825e-01 
2.055000000000e+02 -3.180000000000e+04 4.391574124101e-01 
2.060000000000e+02 -3.180000000000e+04 4.404605737008e-01 
2.065000000000e+02 -3.180000000000e+04 4.417132453972e-01 
2.070000000000e+02 -3.180000000000e+04 4.429030315228e-01 
2.075000000000e+02 -3.180000000000e+04 4.440377626745e-01 
2.080000000000e+02 -3.180000000000e+04 4.451408966982e-01 
2.085000000000e+02 -3.180000000000e+04 4.461748894375e-01 
2.090000000000e+02 -3.180000000000e+04 4.471473040075e-01 
2.095000000000e+02 -3.180000000000e+04 4.480450719744e-01 
2.100000000000e+02 -3.180000000000e+04 4.489090748283e-01 
2.105000000000e+02 -3.180000000000e+04 4.497449584207e-01 
2.110000000000e+02 -3.180000000000e+04 4.504818776290e-01 
2.115000000000e+02 -3.180000000000e+04 4.511393976248e-01 
2.120000000000e+02 -3.180000000000e+04 4.517381220752e-01 
2.125000000000e+02 -3.180000000000e+04 4.522744293835e-01 
2.130000000000e+02 -3.180000000000e+04 4.527501571402e-01 
2.135000000000e+02 -3.180000000000e+04 4.531788263474e-01 
2.140000000000e+02 -3.180000000000e+04 4.535642790791e-01 
2.145000000000e+02 -3.180000000000e+04 4.539015823269e-01 
2.150000000000e+02 -3.180000000000e+04 4.541927506417e-01 
2.155000000000e+02 -3.180000000000e+04 4.544454597710e-01 
2.160000000000e+02 -3.180000000000e+04 4.546571926271e-01 
2.165000000000e+02 -3.180000000000e+04 4.548315712672e-01 
2.170000000000e+02 -3.180000000000e+04 4.549721886801e-01 
2.175000000000e+02 -3.180000000000e+04 4.550821874914e-01 
2.180000000000e+02 -3.180000000000e+04 4.551642413389e-01 
2.185000000000e+02 -3.180000000000e+04 4.552206809703e-01 
2.190000000000e+02 -3.180000000000e+04 4.552535689344e-01 
2.195000000000e+02 -3.180000000000e+04 4.552647612784e-01 
2.200000000000e+02 -3.180000000000e+04 4.552559623135e-01 
2.205000000000e+02 -3.180000000000e+04 4.552287199609e-01 
2.210000000000e+02 -3.180000000000e+04 4.551844283763e-01 
2.215000000000e+02 -3.180000000000e+04 4.551243525966e-01 
2.220000000000e+02 -3.180000000000e+04 4.550496590472e-01 
2.225000000000e+02 -3.180000000000e+04 4.549613899595e-01 
2.230000000000e+02 -3.180000000000e+04 4.548604798945e-01 
2.235000000000e+02 -3.180000000000e+04 4.547478424432e-01 
2.240000000000e+02 -3.180000000000e+04 4.546243542642e-01 
2.245000000000e+02 -3.180000000000e+04 4.544908417628e-01 
2.250000000000e+02 -3.180000000000e+04 4.543479989549e-01 
2.255000000000e+02 -3.180000000000e+04 4.541967945115e-01 
2.260000000000e+02 -3.180000000000e+04 4.540409552044e-01 
2.265000000000e+02 -3.180000000000e+04 4.538779209075e-01 
2.270000000000e+02 -3.180000000000e+04 4.537081369559e-01 
2.275000000000e+02 -3.180000000000e+04 4.535329703418e-01 
2.280000000000e+02 -3.180000000000e+04 4.533528870069e-01 
2.285000000000e+02 -3.180000000000e+04 4.531680025187e-01 
2.290000000000e+02 -3.180000000000e+04 4.529834442538e-01 
2.295000000000e+02 -3.180000000000e+04 4.527971058504e-01 
2.300000000000e+02 -3.180000000000e+04 4.526061458009e-01 
2.305000000000e+02 -3.180000000000e+04 4.524103510066e-01 
2.310000000000e+02 -3.180000000000e+04 4.522102189691e-01 
2.315000000000e+02 -3.180000000000e+04 4.520071840832e-01 
2.320000000000e+02 -3.180000000000e+04 4.518014758519e-01 
2.325000000000e+02 -3.180000000000e+04 4.515930687993e-01 
2.330000000000e+02 -3.180000000000e+04 4.513846955344e-01 
2.335000000000e+02 -3.180000000000e+04 4.511778036960e-01 
2.340000000000e+02 -3.180000000000e+04 4.509697667366e-01 
2.345000000000e+02 -3.180000000000e+04 4.507594905538e-01 
2.350000000000e+02 -3.180000000000e+04 4.505466691834e-01 
2.355000000000e+02 -3.180000000000e+04 4.503312941061e-01 
2.360000000000e+02 -3.180000000000e+04 4.501138199041e-01 
2.365000000000e+02 -3.180000000000e+04 4.498951612248e-01 
2.370000000000e+02 -3.180000000000e+04 4.496770120586e-01 
2.375000000000e+02 -3.180000000000e+04 4.494591643969e-01 
2.380000000000e+02 -3.180000000000e+04 4.492417121634e-01 
2.385000000000e+02 -3.180000000000e+04 4.490261732225e-01 
2.390000000000e+02 -3.180000000000e+04 4.488111069599e-01 
2.395000000000e+02 -3.180000000000e+04 4.486037471616e-01 
2.400000000000e+02 -3.180000000000e+04 4.484034738286e-01 
2.405000000000e+02 -3.180000000000e+04 4.482044873111e-01 
2.410000000000e+02 -3.180000000000e+04 4.480066352977e-01 
2.415000000000e+02 -3.180000000000e+04 4.478066063269e-01 
2.420000000000e+02 -3.180000000000e+04 4.476050732844e-01 
2.425000000000e+02 -3.180000000000e+04 4.474029968475e-01 
2.430000000000e+02 -3.180000000000e+04 4.472007075991e-01 
2.435000000000e+02 -3.180000000000e+04 4.469981791664e-01 
2.440000000000e+02 -3.180000000000e+04 4.467990218634e-01 
2.445000000000e+02 -3.180000000000e+04 4.466019699514e-01 
2.450000000000e+02 -3.180000000000e+04 4.464048052086e-01 
2.455000000000e+02 -3.180000000000e+04 4.462072871056e-01 
2.460000000000e+02 -3.180000000000e+04 4.460127197864e-01 
2.465000000000e+02 -3.180000000000e+04 4.458201191775e-01 
2.470000000000e+02 -3.180000000000e+04 4.456280304013e-01 
2.475000000000e+02 -3.180000000000e+04 4.454358478237e-01 
2.480000000000e+02 -3.180000000000e+04 4.452434139201e-01 
2.485000000000e+02 -3.180000000000e+04 4.450507181401e-01 
2.490000000000e+02 -3.180000000000e+04 4.448578151279e-01 
2.495000000000e+02 -3.180000000000e+04 4.446652370267e-01 
2.500000000000e+02 -3.180000000000e+04 4.444734336253e-01 
2.505000000000e+02 -3.180000000000e+04 4.442822738443e-01 
2.510000000000e+02 -3.180000000000e+04 4.440931974660e-01 
2.515000000000e+02 -3.180000000000e+04 4.439079438403e-01 
2.520000000000e+02 -3.180000000000e+04 4.437277869861e-01 
2.525000000000e+02 -3.180000000000e+04 4.435518593262e-01 