VARIABLES  = "X","Y","Z", "PRESSURE1", "SATURATION1"
ZONE T="0.000000000000e+00s", N=201, E=200, F=FEPOINT, ET=QUADRILATERAL
STRANDID=1, SOLUTIONTIME=0.000000000000e+00
0.000000000000e+00 0.000000000000e+00 0.000000000000e+00 -3.160000000000e+04 4.258094774412e-01 
0.000000000000e+00 0.000000000000e+00 1.250000000000e-03 -2.547014309114e+04 4.387506614398e-01 
0.000000000000e+00 0.000000000000e+00 2.500000000000e-03 -2.133107038750e+04 4.620059485680e-01 
0.000000000000e+00 0.000000000000e+00 3.750000000000e-03 -1.866503103158e+04 4.806259308557e-01 
0.000000000000e+00 0.000000000000e+00 5.000000000000e-03 -1.677809457482e+04 4.959859843957e-01 
0.000000000000e+00 0.000000000000e+00 6.250000000000e-03 -1.535824559763e+04 5.094141537346e-01 
0.000000000000e+00 0.000000000000e+00 7.500000000000e-03 -1.422651458606e+04 5.213222499985e-01 
0.000000000000e+00 0.000000000000e+00 8.750000000000e-03 -1.331339873101e+04 5.315464709725e-01 
0.000000000000e+00 0.000000000000e+00 1.000000000000e-02 -1.253679007782e+04 5.411642865587e-01 
0.000000000000e+00 0.000000000000e+00 1.125000000000e-02 -1.187787048505e+04 5.503730321586e-01 
0.000000000000e+00 0.000000000000e+00 1.250000000000e-02 -1.132028471999e+04 5.584027146024e-01 
0.000000000000e+00 0.000000000000e+00 1.375000000000e-02 -1.083088596156e+04 5.655241188758e-01 
0.000000000000e+00 0.000000000000e+00 1.500000000000e-02 -1.038982405857e+04 5.719823784577e-01 
0.000000000000e+00 0.000000000000e+00 1.625000000000e-02 -9.985933417561e+03 5.783349068183e-01 
0.000000000000e+00 0.000000000000e+00 1.750000000000e-02 -9.617872352644e+03 5.846986717306e-01 
0.000000000000e+00 0.000000000000e+00 1.875000000000e-02 -9.284659544979e+03 5.907092452368e-01 
0.000000000000e+00 0.000000000000e+00 2.000000000000e-02 -8.981726661007e+03 5.964098946814e-01 
0.000000000000e+00 0.000000000000e+00 2.125000000000e-02 -8.704883713431e+03 6.018211930229e-01 
0.000000000000e+00 0.000000000000e+00 2.250000000000e-02 -8.450039945840e+03 6.069505790974e-01 
0.000000000000e+00 0.000000000000e+00 2.375000000000e-02 -8.215650582535e+03 6.118581677963e-01 
0.000000000000e+00 0.000000000000e+00 2.500000000000e-02 -7.998640953971e+03 6.165318145450e-01 
0.000000000000e+00 0.000000000000e+00 2.625000000000e-02 -7.796522942024e+03 6.210021104636e-01 
0.000000000000e+00 0.000000000000e+00 2.750000000000e-02 -7.607956315356e+03 6.253081174390e-01 
0.000000000000e+00 0.000000000000e+00 2.875000000000e-02 -7.432007225827e+03 6.294343365196e-01 
0.000000000000e+00 0.000000000000e+00 3.000000000000e-02 -7.267192113162e+03 6.334009942885e-01 
0.000000000000e+00 0.000000000000e+00 3.125000000000e-02 -7.112383956134e+03 6.371973944564e-01 
0.000000000000e+00 0.000000000000e+00 3.250000000000e-02 -6.966742863620e+03 6.408427178774e-01 
0.000000000000e+00 0.000000000000e+00 3.375000000000e-02 -6.829222243963e+03 6.443705564834e-01 
0.000000000000e+00 0.000000000000e+00 3.500000000000e-02 -6.698977325378e+03 6.478107900784e-01 
0.000000000000e+00 0.000000000000e+00 3.625000000000e-02 -6.575690188563e+03 6.511449510828e-01 
0.000000000000e+00 0.000000000000e+00 3.750000000000e-02 -6.458704221407e+03 6.543318169703e-01 
0.000000000000e+00 0.000000000000e+00 3.875000000000e-02 -6.347560676378e+03 6.573794078968e-01 
0.000000000000e+00 0.000000000000e+00 4.000000000000e-02 -6.241680733899e+03 6.603658047952e-01 
0.000000000000e+00 0.000000000000e+00 4.125000000000e-02 -6.140739943578e+03 6.632955956534e-01 
0.000000000000e+00 0.000000000000e+00 4.250000000000e-02 -6.044385863101e+03 6.661183578304e-01 
0.000000000000e+00 0.000000000000e+00 4.375000000000e-02 -5.952233971461e+03 6.688709210285e-01 
0.000000000000e+00 0.000000000000e+00 4.500000000000e-02 -5.864174540003e+03 6.715323558880e-01 
0.000000000000e+00 0.000000000000e+00 4.625000000000e-02 -5.779854878742e+03 6.741196085037e-01 
0.000000000000e+00 0.000000000000e+00 4.750000000000e-02 -5.698989693264e+03 6.766640175512e-01 
0.000000000000e+00 0.000000000000e+00 4.875000000000e-02 -5.621466629656e+03 6.791320300876e-01 
0.000000000000e+00 0.000000000000e+00 5.000000000000e-02 -5.547004031523e+03 6.815121258180e-01 
0.000000000000e+00 0.000000000000e+00 5.125000000000e-02 -5.475346547456e+03 6.838299478421e-01 
0.000000000000e+00 0.000000000000e+00 5.250000000000e-02 -5.406456479028e+03 6.860798079952e-01 
0.000000000000e+00 0.000000000000e+00 5.375000000000e-02 -5.340153726987e+03 6.882464513251e-01 
0.000000000000e+00 0.000000000000e+00 5.500000000000e-02 -5.276214797295e+03 6.903684993970e-01 
0.000000000000e+00 0.000000000000e+00 5.625000000000e-02 -5.214507092755e+03 6.924761856417e-01 
0.000000000000e+00 0.000000000000e+00 5.750000000000e-02 -5.155016363095e+03 6.945379994630e-01 
0.000000000000e+00 0.000000000000e+00 5.875000000000e-02 -5.097600424784e+03 6.965293860678e-01 
0.000000000000e+00 0.000000000000e+00 6.000000000000e-02 -5.042093910780e+03 6.984606862453e-01 
0.000000000000e+00 0.000000000000e+00 6.125000000000e-02 -4.988365757078e+03 7.003722656201e-01 
0.000000000000e+00 0.000000000000e+00 6.250000000000e-02 -4.936439303768e+03 7.022566849416e-01 
0.000000000000e+00 0.000000000000e+00 6.375000000000e-02 -4.886247270249e+03 7.040776216927e-01 
0.000000000000e+00 0.000000000000e+00 6.500000000000e-02 -4.837663725590e+03 7.058412245769e-01 
0.000000000000e+00 0.000000000000e+00 6.625000000000e-02 -4.790574111319e+03 7.075513216685e-01 
0.000000000000e+00 0.000000000000e+00 6.750000000000e-02 -4.744886875689e+03 7.092564840023e-01 
0.000000000000e+00 0.000000000000e+00 6.875000000000e-02 -4.700609381578e+03 7.109532697029e-01 
0.000000000000e+00 0.000000000000e+00 7.000000000000e-02 -4.657711747847e+03 7.125955636890e-01 
0.000000000000e+00 0.000000000000e+00 7.125000000000e-02 -4.616105584090e+03 7.141891823831e-01 
0.000000000000e+00 0.000000000000e+00 7.250000000000e-02 -4.575707294458e+03 7.157372076716e-01 
0.000000000000e+00 0.000000000000e+00 7.375000000000e-02 -4.536442398512e+03 7.172423080696e-01 
0.000000000000e+00 0.000000000000e+00 7.500000000000e-02 -4.498249049983e+03 7.187350287181e-01 
0.000000000000e+00 0.000000000000e+00 7.625000000000e-02 -4.461135685911e+03 7.202148688242e-01 
0.000000000000e+00 0.000000000000e+00 7.750000000000e-02 -4.425095054007e+03 7.216528423197e-01 
0.000000000000e+00 0.000000000000e+00 7.875000000000e-02 -4.390066351624e+03 7.230509818288e-01 
0.000000000000e+00 0.000000000000e+00 8.000000000000e-02 -4.355990970332e+03 7.244115468973e-01 
0.000000000000e+00 0.000000000000e+00 8.125000000000e-02 -4.322816110857e+03 7.257365811243e-01 
0.000000000000e+00 0.000000000000e+00 8.250000000000e-02 -4.290494015647e+03 7.270279066055e-01 
0.000000000000e+00 0.000000000000e+00 8.375000000000e-02 -4.258982857812e+03 7.283105648223e-01 
0.000000000000e+00 0.000000000000e+00 8.500000000000e-02 -4.228274844924e+03 7.295960994718e-01 
0.000000000000e+00 0.000000000000e+00 8.625000000000e-02 -4.198400074518e+03 7.308595987285e-01 
0.000000000000e+00 0.000000000000e+00 8.750000000000e-02 -4.169324831528e+03 7.320896837113e-01 
0.000000000000e+00 0.000000000000e+00 8.875000000000e-02 -4.141007214748e+03 7.332880612873e-01 
0.000000000000e+00 0.000000000000e+00 9.000000000000e-02 -4.113409117788e+03 7.344562992299e-01 
0.000000000000e+00 0.000000000000e+00 9.125000000000e-02 -4.086495789507e+03 7.355958292121e-01 
0.000000000000e+00 0.000000000000e+00 9.250000000000e-02 -4.060235436167e+03 7.367079627204e-01 
0.000000000000e+00 0.000000000000e+00 9.375000000000e-02 -4.034598881222e+03 7.377938937335e-01 
0.000000000000e+00 0.000000000000e+00 9.500000000000e-02 -4.009559816957e+03 7.388678870295e-01 
0.000000000000e+00 0.000000000000e+00 9.625000000000e-02 -3.985110572021e+03 7.399400642651e-01 
0.000000000000e+00 0.000000000000e+00 9.750000000000e-02 -3.961272681572e+03 7.409962311135e-01 
0.000000000000e+00 0.000000000000e+00 9.875000000000e-02 -3.938028153062e+03 7.420263543246e-01 
0.000000000000e+00 0.000000000000e+00 1.000000000000e-01 -3.915350413701e+03 7.430315689955e-01 
0.000000000000e+00 0.000000000000e+00 1.012500000000e-01 -3.893214997514e+03 7.440129337124e-01 
0.000000000000e+00 0.000000000000e+00 1.025000000000e-01 -3.871599337915e+03 7.449714259080e-01 
0.000000000000e+00 0.000000000000e+00 1.037500000000e-01 -3.850482568976e+03 7.459079502266e-01 
0.000000000000e+00 0.000000000000e+00 1.050000000000e-01 -3.829845352641e+03 7.468233458341e-01 
0.000000000000e+00 0.000000000000e+00 1.062500000000e-01 -3.809669727901e+03 7.477183928083e-01 
0.000000000000e+00 0.000000000000e+00 1.075000000000e-01 -3.789938978610e+03 7.485938178322e-01 
0.000000000000e+00 0.000000000000e+00 1.087500000000e-01 -3.770637513224e+03 7.494502420648e-01 
0.000000000000e+00 0.000000000000e+00 1.100000000000e-01 -3.751753466325e+03 7.503097332891e-01 
0.000000000000e+00 0.000000000000e+00 1.112500000000e-01 -3.733293928924e+03 7.511752341501e-01 
0.000000000000e+00 0.000000000000e+00 1.125000000000e-01 -3.715270647730e+03 7.520242100426e-01 
0.000000000000e+00 0.000000000000e+00 1.137500000000e-01 -3.697671136106e+03 7.528533472211e-01 
0.000000000000e+00 0.000000000000e+00 1.150000000000e-01 -3.680479833862e+03 7.536633584096e-01 
0.000000000000e+00 0.000000000000e+00 1.162500000000e-01 -3.663682241364e+03 7.544549134465e-01 
0.000000000000e+00 0.000000000000e+00 1.175000000000e-01 -3.647264828160e+03 7.552286378691e-01 
0.000000000000e+00 0.000000000000e+00 1.187500000000e-01 -3.631214945940e+03 7.559851168426e-01 
0.000000000000e+00 0.000000000000e+00 1.200000000000e-01 -3.615520751309e+03 7.567248986584e-01 
0.000000000000e+00 0.000000000000e+00 1.212500000000e-01 -3.600171137051e+03 7.574484978514e-01 
0.000000000000e+00 0.000000000000e+00 1.225000000000e-01 -3.585155670779e+03 7.581563979858e-01 
0.000000000000e+00 0.000000000000e+00 1.237500000000e-01 -3.570464540018e+03 7.588490541513e-01 
0.000000000000e+00 0.000000000000e+00 1.250000000000e-01 -3.556088502917e+03 7.595268952054e-01 
0.000000000000e+00 0.000000000000e+00 1.262500000000e-01 -3.542018843907e+03 7.601903257937e-01 
0.000000000000e+00 0.000000000000e+00 1.275000000000e-01 -3.528247333708e+03 7.608397282201e-01 
0.000000000000e+00 0.000000000000e+00 1.287500000000e-01 -3.514766191062e+03 7.614754255815e-01 
0.000000000000e+00 0.000000000000e+00 1.300000000000e-01 -3.501569767130e+03 7.621102024058e-01 
0.000000000000e+00 0.000000000000e+00 1.312500000000e-01 -3.488662197926e+03 7.627462124855e-01 
0.000000000000e+00 0.000000000000e+00 1.325000000000e-01 -3.476051316726e+03 7.633703185385e-01 
0.000000000000e+00 0.000000000000e+00 1.337500000000e-01 -3.463731050836e+03 7.639800728438e-01 
0.000000000000e+00 0.000000000000e+00 1.350000000000e-01 -3.451693449300e+03 7.645758653038e-01 
0.000000000000e+00 0.000000000000e+00 1.362500000000e-01 -3.439930773076e+03 7.651580729254e-01 
0.000000000000e+00 0.000000000000e+00 1.375000000000e-01 -3.428435717345e+03 7.657270520698e-01 
0.000000000000e+00 0.000000000000e+00 1.387500000000e-01 -3.417201379616e+03 7.662831396257e-01 
0.000000000000e+00 0.000000000000e+00 1.400000000000e-01 -3.406221230524e+03 7.668266544099e-01 
0.000000000000e+00 0.000000000000e+00 1.412500000000e-01 -3.395489087328e+03 7.673578984395e-01 
0.000000000000e+00 0.000000000000e+00 1.425000000000e-01 -3.384999089792e+03 7.678771580909e-01 
0.000000000000e+00 0.000000000000e+00 1.437500000000e-01 -3.374745678196e+03 7.683847051576e-01 
0.000000000000e+00 0.000000000000e+00 1.450000000000e-01 -3.364723573262e+03 7.688807978158e-01 
0.000000000000e+00 0.000000000000e+00 1.462500000000e-01 -3.354927757787e+03 7.693656815096e-01 
0.000000000000e+00 0.000000000000e+00 1.475000000000e-01 -3.345353459808e+03 7.698395897612e-01 
0.000000000000e+00 0.000000000000e+00 1.487500000000e-01 -3.335996137159e+03 7.703027449167e-01 
0.000000000000e+00 0.000000000000e+00 1.500000000000e-01 -3.326851463260e+03 7.707553588313e-01 
0.000000000000e+00 0.000000000000e+00 1.512500000000e-01 -3.317915314051e+03 7.711976335000e-01 
0.000000000000e+00 0.000000000000e+00 1.525000000000e-01 -3.309183755930e+03 7.716297616407e-01 
0.000000000000e+00 0.000000000000e+00 1.537500000000e-01 -3.300653034623e+03 7.720519272318e-01 
0.000000000000e+00 0.000000000000e+00 1.550000000000e-01 -3.292319564899e+03 7.724643060099e-01 
0.000000000000e+00 0.000000000000e+00 1.562500000000e-01 -3.284179921039e+03 7.728670659305e-01 
0.000000000000e+00 0.000000000000e+00 1.575000000000e-01 -3.276230828023e+03 7.732603676745e-01 
0.000000000000e+00 0.000000000000e+00 1.587500000000e-01 -3.268469149964e+03 7.736443539273e-01 
0.000000000000e+00 0.000000000000e+00 1.600000000000e-01 -3.260892357350e+03 7.740191334070e-01 
0.000000000000e+00 0.000000000000e+00 1.612500000000e-01 -3.253498709588e+03 7.743893753221e-01 
0.000000000000e+00 0.000000000000e+00 1.625000000000e-01 -3.246288428881e+03 7.747601822202e-01 
0.000000000000e+00 0.000000000000e+00 1.637500000000e-01 -3.239266296894e+03 7.751265562823e-01 
0.000000000000e+00 0.000000000000e+00 1.650000000000e-01 -3.232431799186e+03 7.754830798399e-01 
0.000000000000e+00 0.000000000000e+00 1.662500000000e-01 -3.225782633651e+03 7.758298858973e-01 
0.000000000000e+00 0.000000000000e+00 1.675000000000e-01 -3.219315931701e+03 7.761671336557e-01 
0.000000000000e+00 0.000000000000e+00 1.687500000000e-01 -3.213028480237e+03 7.764949885106e-01 
0.000000000000e+00 0.000000000000e+00 1.700000000000e-01 -3.206917216430e+03 7.768136088591e-01 
0.000000000000e+00 0.000000000000e+00 1.712500000000e-01 -3.200979219709e+03 7.771231457694e-01 
0.000000000000e+00 0.000000000000e+00 1.725000000000e-01 -3.195211703953e+03 7.774237433795e-01 
0.000000000000e+00 0.000000000000e+00 1.737500000000e-01 -3.189612010256e+03 7.777155392672e-01 
0.000000000000e+00 0.000000000000e+00 1.750000000000e-01 -3.184177600205e+03 7.779986647938e-01 
0.000000000000e+00 0.000000000000e+00 1.762500000000e-01 -3.178906049629e+03 7.782732454241e-01 
0.000000000000e+00 0.000000000000e+00 1.775000000000e-01 -3.173795042792e+03 7.785394010240e-01 
0.000000000000e+00 0.000000000000e+00 1.787500000000e-01 -3.168842366977e+03 7.787972461372e-01 
0.000000000000e+00 0.000000000000e+00 1.800000000000e-01 -3.164045907447e+03 7.790468902441e-01 
0.000000000000e+00 0.000000000000e+00 1.812500000000e-01 -3.159403642731e+03 7.792884380028e-01 
0.000000000000e+00 0.000000000000e+00 1.825000000000e-01 -3.154913640239e+03 7.795219894747e-01 
0.000000000000e+00 0.000000000000e+00 1.837500000000e-01 -3.150574052151e+03 7.797476403342e-01 
0.000000000000e+00 0.000000000000e+00 1.850000000000e-01 -3.146383111583e+03 7.799654820667e-01 
0.000000000000e+00 0.000000000000e+00 1.862500000000e-01 -3.142339128992e+03 7.801756021519e-01 
0.000000000000e+00 0.000000000000e+00 1.875000000000e-01 -3.138440488816e+03 7.803780842371e-01 
0.000000000000e+00 0.000000000000e+00 1.887500000000e-01 -3.134685646323e+03 7.805730082984e-01 
0.000000000000e+00 0.000000000000e+00 1.900000000000e-01 -3.131073124663e+03 7.807604507924e-01 
0.000000000000e+00 0.000000000000e+00 1.912500000000e-01 -3.127601512094e+03 7.809404847986e-01 
0.000000000000e+00 0.000000000000e+00 1.925000000000e-01 -3.124269459393e+03 7.811131801522e-01 
0.000000000000e+00 0.000000000000e+00 1.937500000000e-01 -3.121075677412e+03 7.812786035698e-01 
0.000000000000e+00 0.000000000000e+00 1.950000000000e-01 -3.118018934799e+03 7.814368187666e-01 
0.000000000000e+00 0.000000000000e+00 1.962500000000e-01 -3.115098055848e+03 7.815878865665e-01 
0.000000000000e+00 0.000000000000e+00 1.975000000000e-01 -3.112311918480e+03 7.817318650062e-01 
0.000000000000e+00 0.000000000000e+00 1.987500000000e-01 -3.109659452359e+03 7.818688094317e-01 
0.000000000000e+00 0.000000000000e+00 2.000000000000e-01 -3.107139637107e+03 7.819987725903e-01 
0.000000000000e+00 0.000000000000e+00 2.012500000000e-01 -3.104751500640e+03 7.821218047156e-01 
0.000000000000e+00 0.000000000000e+00 2.025000000000e-01 -3.102494117604e+03 7.822379536084e-01 
0.000000000000e+00 0.000000000000e+00 2.037500000000e-01 -3.100366607903e+03 7.823472647119e-01 
0.000000000000e+00 0.000000000000e+00 2.050000000000e-01 -3.098368135321e+03 7.824497811825e-01 
0.000000000000e+00 0.000000000000e+00 2.062500000000e-01 -3.096497906235e+03 7.825455439561e-01 
0.000000000000e+00 0.000000000000e+00 2.075000000000e-01 -3.094755168402e+03 7.826345918097e-01 
0.000000000000e+00 0.000000000000e+00 2.087500000000e-01 -3.093139209830e+03 7.827169614203e-01 
0.000000000000e+00 0.000000000000e+00 2.100000000000e-01 -3.091649357717e+03 7.827926874181e-01 
0.000000000000e+00 0.000000000000e+00 2.112500000000e-01 -3.090284977470e+03 7.828618024377e-01 
0.000000000000e+00 0.000000000000e+00 2.125000000000e-01 -3.089045471781e+03 7.829243371648e-01 
0.000000000000e+00 0.000000000000e+00 2.137500000000e-01 -3.087930279769e+03 7.829803203804e-01 
0.000000000000e+00 0.000000000000e+00 2.150000000000e-01 -3.086938876193e+03 7.830297790009e-01 
0.000000000000e+00 0.000000000000e+00 2.162500000000e-01 -3.086070770709e+03 7.830727381156e-01 
0.000000000000e+00 0.000000000000e+00 2.175000000000e-01 -3.085325507195e+03 7.831092210219e-01 
0.000000000000e+00 0.000000000000e+00 2.187500000000e-01 -3.084702663127e+03 7.831392492561e-01 
0.000000000000e+00 0.000000000000e+00 2.200000000000e-01 -3.084201849006e+03 7.831628426234e-01 
0.000000000000e+00 0.000000000000e+00 2.212500000000e-01 -3.083822707834e+03 7.831800192235e-01 
0.000000000000e+00 0.000000000000e+00 2.225000000000e-01 -3.083564914647e+03 7.831907954748e-01 
0.000000000000e+00 0.000000000000e+00 2.237500000000e-01 -3.083428176086e+03 7.831951861357e-01 
0.000000000000e+00 0.000000000000e+00 2.250000000000e-01 -3.083412230021e+03 7.831932043234e-01 
0.000000000000e+00 0.000000000000e+00 2.262500000000e-01 -3.083516845217e+03 7.831848615308e-01 
0.000000000000e+00 0.000000000000e+00 2.275000000000e-01 -3.083741821043e+03 7.831701676402e-01 
0.000000000000e+00 0.000000000000e+00 2.287500000000e-01 -3.084086987228e+03 7.831491309361e-01 
0.000000000000e+00 0.000000000000e+00 2.300000000000e-01 -3.084552203656e+03 7.831217581141e-01 
0.000000000000e+00 0.000000000000e+00 2.312500000000e-01 -3.085137360202e+03 7.830880542893e-01 
0.000000000000e+00 0.000000000000e+00 2.325000000000e-01 -3.085842376614e+03 7.830480230015e-01 
0.000000000000e+00 0.000000000000e+00 2.337500000000e-01 -3.086667202426e+03 7.830016662183e-01 
0.000000000000e+00 0.000000000000e+00 2.350000000000e-01 -3.087611816921e+03 7.829489843369e-01 
0.000000000000e+00 0.000000000000e+00 2.362500000000e-01 -3.088676229130e+03 7.828899761827e-01 
0.000000000000e+00 0.000000000000e+00 2.375000000000e-01 -3.089860477867e+03 7.828246390066e-01 
0.000000000000e+00 0.000000000000e+00 2.387500000000e-01 -3.091164631811e+03 7.827529684799e-01 
0.000000000000e+00 0.000000000000e+00 2.400000000000e-01 -3.092588789620e+03 7.826749586872e-01 
0.000000000000e+00 0.000000000000e+00 2.412500000000e-01 -3.094133080094e+03 7.825906021170e-01 
0.000000000000e+00 0.000000000000e+00 2.425000000000e-01 -3.095797662369e+03 7.824998896502e-01 
0.000000000000e+00 0.000000000000e+00 2.437500000000e-01 -3.097582726156e+03 7.824028105469e-01 
0.000000000000e+00 0.000000000000e+00 2.450000000000e-01 -3.099488492029e+03 7.822993524298e-01 
0.000000000000e+00 0.000000000000e+00 2.462500000000e-01 -3.101515211739e+03 7.821895012670e-01 
0.000000000000e+00 0.000000000000e+00 2.475000000000e-01 -3.103663168586e+03 7.820732413510e-01 
0.000000000000e+00 0.000000000000e+00 2.487500000000e-01 -3.105932677831e+03 7.819505546587e-01 
0.000000000000e+00 0.000000000000e+00 2.500000000000e-01 -3.108324111924e+03 7.818876021816e-01 
1  2  2  1
2  3  3  2
3  4  4  3
4  5  5  4
5  6  6  5
6  7  7  6
7  8  8  7
8  9  9  8
9  10  10  9
10  11  11  10
11  12  12  11
12  13  13  12
13  14  14  13
14  15  15  14
15  16  16  15
16  17  17  16
17  18  18  17
18  19  19  18
19  20  20  19
20  21  21  20
21  22  22  21
22  23  23  22
23  24  24  23
24  25  25  24
25  26  26  25
26  27  27  26
27  28  28  27
28  29  29  28
29  30  30  29
30  31  31  30
31  32  32  31
32  33  33  32
33  34  34  33
34  35  35  34
35  36  36  35
36  37  37  36
37  38  38  37
38  39  39  38
39  40  40  39
40  41  41  40
41  42  42  41
42  43  43  42
43  44  44  43
44  45  45  44
45  46  46  45
46  47  47  46
47  48  48  47
48  49  49  48
49  50  50  49
50  51  51  50
51  52  52  51
52  53  53  52
53  54  54  53
54  55  55  54
55  56  56  55
56  57  57  56
57  58  58  57
58  59  59  58
59  60  60  59
60  61  61  60
61  62  62  61
62  63  63  62
63  64  64  63
64  65  65  64
65  66  66  65
66  67  67  66
67  68  68  67
68  69  69  68
69  70  70  69
70  71  71  70
71  72  72  71
72  73  73  72
73  74  74  73
74  75  75  74
75  76  76  75
76  77  77  76
77  78  78  77
78  79  79  78
79  80  80  79
80  81  81  80
81  82  82  81
82  83  83  82
83  84  84  83
84  85  85  84
85  86  86  85
86  87  87  86
87  88  88  87
88  89  89  88
89  90  90  89
90  91  91  90
91  92  92  91
92  93  93  92
93  94  94  93
94  95  95  94
95  96  96  95
96  97  97  96
97  98  98  97
98  99  99  98
99  100  100  99
100  101  101  100
101  102  102  101
102  103  103  102
103  104  104  103
104  105  105  104
105  106  106  105
106  107  107  106
107  108  108  107
108  109  109  108
109  110  110  109
110  111  111  110
111  112  112  111
112  113  113  112
113  114  114  113
114  115  115  114
115  116  116  115
116  117  117  116
117  118  118  117
118  119  119  118
119  120  120  119
120  121  121  120
121  122  122  121
122  123  123  122
123  124  124  123
124  125  125  124
125  126  126  125
126  127  127  126
127  128  128  127
128  129  129  128
129  130  130  129
130  131  131  130
131  132  132  131
132  133  133  132
133  134  134  133
134  135  135  134
135  136  136  135
136  137  137  136
137  138  138  137
138  139  139  138
139  140  140  139
140  141  141  140
141  142  142  141
142  143  143  142
143  144  144  143
144  145  145  144
145  146  146  145
146  147  147  146
147  148  148  147
148  149  149  148
149  150  150  149
150  151  151  150
151  152  152  151
152  153  153  152
153  154  154  153
154  155  155  154
155  156  156  155
156  157  157  156
157  158  158  157
158  159  159  158
159  160  160  159
160  161  161  160
161  162  162  161
162  163  163  162
163  164  164  163
164  165  165  164
165  166  166  165
166  167  167  166
167  168  168  167
168  169  169  168
169  170  170  169
170  171  171  170
171  172  172  171
172  173  173  172
173  174  174  173
174  175  175  174
175  176  176  175
176  177  177  176
177  178  178  177
178  179  179  178
179  180  180  179
180  181  181  180
181  182  182  181
182  183  183  182
183  184  184  183
184  185  185  184
185  186  186  185
186  187  187  186
187  188  188  187
188  189  189  188
189  190  190  189
190  191  191  190
191  192  192  191
192  193  193  192
193  194  194  193
194  195  195  194
195  196  196  195
196  197  197  196
197  198  198  197
198  199  199  198
199  200  200  199
200  201  201  200
VARIABLES  = "X","Y","Z", "PRESSURE1", "SATURATION1"
ZONE T="2.400000000000e+01s", N=201, E=200, F=FEPOINT, ET=QUADRILATERAL
STRANDID=1, SOLUTIONTIME=2.400000000000e+01
0.000000000000e+00 0.000000000000e+00 0.000000000000e+00 -3.180000000000e+04 4.283605650510e-01 
0.000000000000e+00 0.000000000000e+00 1.250000000000e-03 -2.494881438135e+04 4.409968542292e-01 
0.000000000000e+00 0.000000000000e+00 2.500000000000e-03 -2.107455040310e+04 4.636725569880e-01 
0.000000000000e+00 0.000000000000e+00 3.750000000000e-03 -1.849869435594e+04 4.820635323974e-01 
0.000000000000e+00 0.000000000000e+00 5.000000000000e-03 -1.663029992479e+04 4.974733745823e-01 
0.000000000000e+00 0.000000000000e+00 6.250000000000e-03 -1.520446200889e+04 5.111722713398e-01 
0.000000000000e+00 0.000000000000e+00 7.500000000000e-03 -1.405629589147e+04 5.234859607297e-01 
0.000000000000e+00 0.000000000000e+00 8.750000000000e-03 -1.311953429975e+04 5.342426258359e-01 
0.000000000000e+00 0.000000000000e+00 1.000000000000e-02 -1.230774650339e+04 5.446103204517e-01 
0.000000000000e+00 0.000000000000e+00 1.125000000000e-02 -1.162644890864e+04 5.543993156104e-01 
0.000000000000e+00 0.000000000000e+00 1.250000000000e-02 -1.103898762881e+04 5.629365069296e-01 
0.000000000000e+00 0.000000000000e+00 1.375000000000e-02 -1.051181959022e+04 5.706721201427e-01 
0.000000000000e+00 0.000000000000e+00 1.500000000000e-02 -1.002692341398e+04 5.782802540479e-01 
0.000000000000e+00 0.000000000000e+00 1.625000000000e-02 -9.581086941305e+03 5.859820364414e-01 
0.000000000000e+00 0.000000000000e+00 1.750000000000e-02 -9.175781855078e+03 5.934340041441e-01 
0.000000000000e+00 0.000000000000e+00 1.875000000000e-02 -8.804635132971e+03 6.005851265444e-01 
0.000000000000e+00 0.000000000000e+00 2.000000000000e-02 -8.462004005302e+03 6.074947664021e-01 
0.000000000000e+00 0.000000000000e+00 2.125000000000e-02 -8.145119523323e+03 6.142034861757e-01 
0.000000000000e+00 0.000000000000e+00 2.250000000000e-02 -7.849470094563e+03 6.207118762047e-01 
0.000000000000e+00 0.000000000000e+00 2.375000000000e-02 -7.572302180240e+03 6.270732214762e-01 
0.000000000000e+00 0.000000000000e+00 2.500000000000e-02 -7.312343993166e+03 6.332885810768e-01 
0.000000000000e+00 0.000000000000e+00 2.625000000000e-02 -7.067311762363e+03 6.393453604121e-01 
0.000000000000e+00 0.000000000000e+00 2.750000000000e-02 -6.835599227006e+03 6.453051698563e-01 
0.000000000000e+00 0.000000000000e+00 2.875000000000e-02 -6.615287932080e+03 6.511912091866e-01 
0.000000000000e+00 0.000000000000e+00 3.000000000000e-02 -6.405778817771e+03 6.569336464110e-01 
0.000000000000e+00 0.000000000000e+00 3.125000000000e-02 -6.205853113871e+03 6.626036821463e-01 
0.000000000000e+00 0.000000000000e+00 3.250000000000e-02 -6.014662636563e+03 6.682589597070e-01 
0.000000000000e+00 0.000000000000e+00 3.375000000000e-02 -5.831536665364e+03 6.738493092845e-01 
0.000000000000e+00 0.000000000000e+00 3.500000000000e-02 -5.655912626457e+03 6.793658869880e-01 
0.000000000000e+00 0.000000000000e+00 3.625000000000e-02 -5.487288257764e+03 6.848020997281e-01 
0.000000000000e+00 0.000000000000e+00 3.750000000000e-02 -5.325197119378e+03 6.901701168254e-01 
0.000000000000e+00 0.000000000000e+00 3.875000000000e-02 -5.169040626643e+03 6.954916601251e-01 
0.000000000000e+00 0.000000000000e+00 4.000000000000e-02 -5.018707753452e+03 7.007949616080e-01 
0.000000000000e+00 0.000000000000e+00 4.125000000000e-02 -4.873714602016e+03 7.060251944293e-01 
0.000000000000e+00 0.000000000000e+00 4.250000000000e-02 -4.733888300938e+03 7.112325134752e-01 
0.000000000000e+00 0.000000000000e+00 4.375000000000e-02 -4.599071330412e+03 7.164085303547e-01 
0.000000000000e+00 0.000000000000e+00 4.500000000000e-02 -4.468805592016e+03 7.215037503694e-01 
0.000000000000e+00 0.000000000000e+00 4.625000000000e-02 -4.343122952743e+03 7.265326254988e-01 
0.000000000000e+00 0.000000000000e+00 4.750000000000e-02 -4.221540451765e+03 7.315342605622e-01 
0.000000000000e+00 0.000000000000e+00 4.875000000000e-02 -4.104255942376e+03 7.364867964342e-01 
0.000000000000e+00 0.000000000000e+00 5.000000000000e-02 -3.990837371520e+03 7.413796150832e-01 
0.000000000000e+00 0.000000000000e+00 5.125000000000e-02 -3.881314586699e+03 7.462165093397e-01 
0.000000000000e+00 0.000000000000e+00 5.250000000000e-02 -3.775454226796e+03 7.509920575176e-01 
0.000000000000e+00 0.000000000000e+00 5.375000000000e-02 -3.672970531857e+03 7.557506258251e-01 
0.000000000000e+00 0.000000000000e+00 5.500000000000e-02 -3.574057670679e+03 7.604109725001e-01 
0.000000000000e+00 0.000000000000e+00 5.625000000000e-02 -3.478165980793e+03 7.650373736235e-01 
0.000000000000e+00 0.000000000000e+00 5.750000000000e-02 -3.385533201960e+03 7.696069890982e-01 
0.000000000000e+00 0.000000000000e+00 5.875000000000e-02 -3.295917373325e+03 7.740795680943e-01 
0.000000000000e+00 0.000000000000e+00 6.000000000000e-02 -3.208953822666e+03 7.785266830754e-01 
0.000000000000e+00 0.000000000000e+00 6.125000000000e-02 -3.125087210031e+03 7.828921858265e-01 
0.000000000000e+00 0.000000000000e+00 6.250000000000e-02 -3.043940443075e+03 7.871677727918e-01 
0.000000000000e+00 0.000000000000e+00 6.375000000000e-02 -2.965221784008e+03 7.914228624129e-01 
0.000000000000e+00 0.000000000000e+00 6.500000000000e-02 -2.889506866961e+03 7.955976298006e-01 
0.000000000000e+00 0.000000000000e+00 6.625000000000e-02 -2.816481879848e+03 7.996308055455e-01 
0.000000000000e+00 0.000000000000e+00 6.750000000000e-02 -2.745745416059e+03 8.036409967406e-01 
0.000000000000e+00 0.000000000000e+00 6.875000000000e-02 -2.677453088301e+03 8.076204893717e-01 
0.000000000000e+00 0.000000000000e+00 7.000000000000e-02 -2.611592364318e+03 8.114653034227e-01 
0.000000000000e+00 0.000000000000e+00 7.125000000000e-02 -2.547815152243e+03 8.152095141857e-01 
0.000000000000e+00 0.000000000000e+00 7.250000000000e-02 -2.485872667008e+03 8.189605308407e-01 
0.000000000000e+00 0.000000000000e+00 7.375000000000e-02 -2.426083061045e+03 8.226857006536e-01 
0.000000000000e+00 0.000000000000e+00 7.500000000000e-02 -2.368381644351e+03 8.262821277370e-01 
0.000000000000e+00 0.000000000000e+00 7.625000000000e-02 -2.312491834130e+03 8.297702468445e-01 
0.000000000000e+00 0.000000000000e+00 7.750000000000e-02 -2.258189679541e+03 8.332211600193e-01 
0.000000000000e+00 0.000000000000e+00 7.875000000000e-02 -2.205569476533e+03 8.366396724668e-01 
0.000000000000e+00 0.000000000000e+00 8.000000000000e-02 -2.154884093363e+03 8.399556950045e-01 
0.000000000000e+00 0.000000000000e+00 8.125000000000e-02 -2.105893829722e+03 8.431649639854e-01 
0.000000000000e+00 0.000000000000e+00 8.250000000000e-02 -2.058399164641e+03 8.462797206965e-01 
0.000000000000e+00 0.000000000000e+00 8.375000000000e-02 -2.012235116070e+03 8.493606125616e-01 
0.000000000000e+00 0.000000000000e+00 8.500000000000e-02 -1.967381479769e+03 8.524284711437e-01 
0.000000000000e+00 0.000000000000e+00 8.625000000000e-02 -1.923974348372e+03 8.554341173119e-01 