 TITLE = "Time curves in points"
 VARIABLES = "TIME"  "PRESSURE1"  "SATURATION1" 
 ZONE T="POINT=POINT4"
0.000000000000e+00 -3.915350413701e+03 7.430315689955e-01 
5.000000000000e-01 -3.918495974587e+03 7.428901964843e-01 
1.000000000000e+00 -3.921706194041e+03 7.427460379958e-01 
1.500000000000e+00 -3.924966916869e+03 7.425996456795e-01 
2.000000000000e+00 -3.928269136880e+03 7.424514291879e-01 
2.500000000000e+00 -3.931596525505e+03 7.423021564352e-01 
3.000000000000e+00 -3.934916898136e+03 7.421533359593e-01 
3.500000000000e+00 -3.938174072185e+03 7.420075959739e-01 
4.000000000000e+00 -3.941277390884e+03 7.418691630841e-01 
4.500000000000e+00 -3.944093512544e+03 7.417442461710e-01 
5.000000000000e+00 -3.946434107270e+03 7.416415755074e-01 
5.500000000000e+00 -3.948048517566e+03 7.415727428730e-01 
6.000000000000e+00 -3.948617445150e+03 7.415524809400e-01 
6.500000000000e+00 -3.947747063619e+03 7.415989178000e-01 
7.000000000000e+00 -3.944966107320e+03 7.417336897156e-01 
7.500000000000e+00 -3.939725384802e+03 7.419819479284e-01 
8.000000000000e+00 -3.931403289969e+03 7.423720931391e-01 
8.500000000000e+00 -3.919311028406e+03 7.429355004324e-01 
9.000000000000e+00 -3.902708793764e+03 7.437057638893e-01 
9.500000000000e+00 -3.880825078763e+03 7.447177877137e-01 
1.000000000000e+01 -3.852876978352e+03 7.460068425803e-01 
1.050000000000e+01 -3.818107852992e+03 7.476068190463e-01 
1.100000000000e+01 -3.775813533774e+03 7.495579907996e-01 
1.150000000000e+01 -3.725425480162e+03 7.519694787010e-01 
1.200000000000e+01 -3.666805187307e+03 7.548123944678e-01 
1.250000000000e+01 -3.599802335685e+03 7.580566866130e-01 
1.300000000000e+01 -3.524378451596e+03 7.617247226826e-01 
1.350000000000e+01 -3.440887085111e+03 7.659149425005e-01 
1.400000000000e+01 -3.350376243760e+03 7.704867650116e-01 
1.450000000000e+01 -3.253355939265e+03 7.754414164261e-01 
1.500000000000e+01 -3.151164806559e+03 7.808531588974e-01 
1.550000000000e+01 -3.045237595342e+03 7.864747022094e-01 
1.600000000000e+01 -2.936513885894e+03 7.924875017096e-01 
1.650000000000e+01 -2.827275536676e+03 7.986003705844e-01 
1.700000000000e+01 -2.717959018474e+03 8.048819692214e-01 
1.750000000000e+01 -2.610152848396e+03 8.112394253103e-01 
1.800000000000e+01 -2.504141633388e+03 8.175762941735e-01 
1.850000000000e+01 -2.400869664849e+03 8.240412170581e-01 
1.900000000000e+01 -2.301135690123e+03 8.303067825989e-01 
1.950000000000e+01 -2.204699256381e+03 8.365550576734e-01 
2.000000000000e+01 -2.112870995029e+03 8.425973392514e-01 
2.050000000000e+01 -2.025168307045e+03 8.484001135799e-01 
2.100000000000e+01 -1.941344952754e+03 8.541593740969e-01 
2.150000000000e+01 -1.861851562178e+03 8.597210247810e-01 
2.200000000000e+01 -1.786572697913e+03 8.650661073734e-01 
2.250000000000e+01 -1.715558803898e+03 8.702014548272e-01 
2.300000000000e+01 -1.648609827632e+03 8.750892144307e-01 
2.350000000000e+01 -1.585496670716e+03 8.797627045602e-01 
2.400000000000e+01 -1.526057435121e+03 8.842301236582e-01 
2.450000000000e+01 -1.471313333226e+03 8.883772052065e-01 
2.500000000000e+01 -1.424193352542e+03 8.919505953665e-01 
2.550000000000e+01 -1.387003961992e+03 8.948003735034e-01 
2.600000000000e+01 -1.360581675739e+03 8.968250447531e-01 
2.650000000000e+01 -1.344043753768e+03 8.980730834886e-01 
2.700000000000e+01 -1.335782009080e+03 8.986725732551e-01 
2.750000000000e+01 -1.334098310389e+03 8.987581135200e-01 
2.800000000000e+01 -1.337453207714e+03 8.984513064617e-01 
2.850000000000e+01 -1.344616636693e+03 8.978489182176e-01 
2.900000000000e+01 -1.354630528356e+03 8.970261253349e-01 
2.950000000000e+01 -1.366775507888e+03 8.960392021285e-01 
3.000000000000e+01 -1.380528467498e+03 8.949289522179e-01 
3.050000000000e+01 -1.395491086423e+03 8.937261051223e-01 
3.100000000000e+01 -1.411354108236e+03 8.924664345558e-01 
3.150000000000e+01 -1.427843442282e+03 8.911793462971e-01 
3.200000000000e+01 -1.444786624490e+03 8.898595308513e-01 
3.250000000000e+01 -1.462049406978e+03 8.885170159201e-01 
3.300000000000e+01 -1.479546108213e+03 8.871582027647e-01 
3.350000000000e+01 -1.497225638438e+03 8.857866866798e-01 
3.400000000000e+01 -1.515012391136e+03 8.844179031467e-01 
3.450000000000e+01 -1.532808865366e+03 8.830559478933e-01 
3.500000000000e+01 -1.550596157561e+03 8.816957869575e-01 
3.550000000000e+01 -1.568366122435e+03 8.803379652700e-01 
3.600000000000e+01 -1.586111245042e+03 8.789830192019e-01 
3.650000000000e+01 -1.603824161038e+03 8.776358546893e-01 
3.700000000000e+01 -1.621454736454e+03 8.763202127430e-01 
3.750000000000e+01 -1.638986411895e+03 8.750176748529e-01 
3.800000000000e+01 -1.656429979064e+03 8.737223554811e-01 
3.850000000000e+01 -1.673791544845e+03 8.724338017723e-01 
3.900000000000e+01 -1.691083685512e+03 8.711510705163e-01 
3.950000000000e+01 -1.708319029598e+03 8.698773717379e-01 
4.000000000000e+01 -1.725461523318e+03 8.686228345980e-01 
4.050000000000e+01 -1.742517395654e+03 8.673751428462e-01 
4.100000000000e+01 -1.759498654888e+03 8.661334271073e-01 
4.150000000000e+01 -1.776419560663e+03 8.648966475525e-01 
4.200000000000e+01 -1.793301832892e+03 8.636632209790e-01 
4.250000000000e+01 -1.810150836187e+03 8.624450142243e-01 
4.300000000000e+01 -1.826909188868e+03 8.612534400903e-01 
4.350000000000e+01 -1.843580558164e+03 8.600684193948e-01 
4.400000000000e+01 -1.860173098871e+03 8.588893826829e-01 
4.450000000000e+01 -1.876699603537e+03 8.577154206117e-01 
4.500000000000e+01 -1.893177454189e+03 8.565453017476e-01 
4.550000000000e+01 -1.909613942015e+03 8.553841288644e-01 
4.600000000000e+01 -1.925974521428e+03 8.542383431616e-01 
4.650000000000e+01 -1.942260990753e+03 8.530980190054e-01 
4.700000000000e+01 -1.958477797048e+03 8.519628580242e-01 
4.750000000000e+01 -1.974635084352e+03 8.508321483324e-01 
4.800000000000e+01 -1.990747584895e+03 8.497048538947e-01 
4.850000000000e+01 -2.006822870185e+03 8.485926514221e-01 
4.900000000000e+01 -2.022792830214e+03 8.475304429404e-01 
4.950000000000e+01 -2.038647318569e+03 8.464772071471e-01 
5.000000000000e+01 -2.054391821405e+03 8.454314398652e-01 
5.050000000000e+01 -2.070032994036e+03 8.443926968630e-01 
5.100000000000e+01 -2.085578674841e+03 8.433604537981e-01 
5.150000000000e+01 -2.101036378374e+03 8.423342122680e-01 
5.200000000000e+01 -2.116412809634e+03 8.413135336697e-01 
5.250000000000e+01 -2.131712760800e+03 8.402981096396e-01 
5.300000000000e+01 -2.146937668612e+03 8.392878636490e-01 
5.350000000000e+01 -2.162088478646e+03 8.382827509725e-01 
5.400000000000e+01 -2.177170275079e+03 8.372824361535e-01 
5.450000000000e+01 -2.192192667260e+03 8.362862796086e-01 
5.500000000000e+01 -2.207167970401e+03 8.352934651226e-01 
5.550000000000e+01 -2.222111084470e+03 8.343030138200e-01 
5.600000000000e+01 -2.237036697677e+03 8.333139606985e-01 
5.650000000000e+01 -2.251960752579e+03 8.323292405742e-01 
5.700000000000e+01 -2.266821673861e+03 8.313807351768e-01 
5.750000000000e+01 -2.281579707940e+03 8.304484308632e-01 
5.800000000000e+01 -2.296240348276e+03 8.295223638266e-01 
5.850000000000e+01 -2.310808440631e+03 8.286022300342e-01 
5.900000000000e+01 -2.325288338881e+03 8.276877581140e-01 
5.950000000000e+01 -2.339684546863e+03 8.267786665070e-01 
6.000000000000e+01 -2.354001317663e+03 8.258746906783e-01 
6.050000000000e+01 -2.368242603022e+03 8.249755860434e-01 
6.100000000000e+01 -2.382412272495e+03 8.240811138160e-01 
6.150000000000e+01 -2.396514085526e+03 8.231910447724e-01 
6.200000000000e+01 -2.410550406549e+03 8.223052398155e-01 
6.250000000000e+01 -2.424522599435e+03 8.214236236846e-01 
6.300000000000e+01 -2.438435090943e+03 8.205459208072e-01 
6.350000000000e+01 -2.452295374346e+03 8.196716570433e-01 
6.400000000000e+01 -2.466112563194e+03 8.188002554614e-01 
6.450000000000e+01 -2.479897009771e+03 8.179310652524e-01 
6.500000000000e+01 -2.493660215736e+03 8.170633736648e-01 
6.550000000000e+01 -2.507400784298e+03 8.162121059662e-01 
6.600000000000e+01 -2.521063440407e+03 8.154017138951e-01 
6.650000000000e+01 -2.534644259392e+03 8.145984594011e-01 
6.700000000000e+01 -2.548147393060e+03 8.137998485686e-01 
6.750000000000e+01 -2.561576972721e+03 8.130056403373e-01 
6.800000000000e+01 -2.574937009343e+03 8.122155983216e-01 
6.850000000000e+01 -2.588230961783e+03 8.114295212542e-01 
6.900000000000e+01 -2.601462485345e+03 8.106471966738e-01 
6.950000000000e+01 -2.614634955836e+03 8.098684282753e-01 
7.000000000000e+01 -2.627751655527e+03 8.090930254621e-01 
7.050000000000e+01 -2.640815813119e+03 8.083208017431e-01 
7.100000000000e+01 -2.653830542661e+03 8.075515773739e-01 
7.150000000000e+01 -2.666798775325e+03 8.067851840915e-01 
7.200000000000e+01 -2.679723160539e+03 8.060214714486e-01 
7.250000000000e+01 -2.692605643008e+03 8.052603335864e-01 
7.300000000000e+01 -2.705448725293e+03 8.045016289972e-01 
7.350000000000e+01 -2.718255999110e+03 8.037451473135e-01 
7.400000000000e+01 -2.731033115346e+03 8.029905576959e-01 
7.450000000000e+01 -2.743785703672e+03 8.022375324957e-01 
7.500000000000e+01 -2.756513702689e+03 8.014970060753e-01 
7.550000000000e+01 -2.769180467234e+03 8.007836761410e-01 
7.600000000000e+01 -2.781782899930e+03 8.000788319237e-01 
7.650000000000e+01 -2.794325113507e+03 7.993773973017e-01 
7.700000000000e+01 -2.806810017376e+03 7.986792124602e-01 
7.750000000000e+01 -2.819241219063e+03 7.979840762505e-01 
7.800000000000e+01 -2.831622100608e+03 7.972918011534e-01 
7.850000000000e+01 -2.843955591808e+03 7.966022256926e-01 
7.900000000000e+01 -2.856244853645e+03 7.959151760360e-01 
7.950000000000e+01 -2.868492788122e+03 7.952304917163e-01 
8.000000000000e+01 -2.880702379290e+03 7.945480090277e-01 
8.050000000000e+01 -2.892876687517e+03 7.938675601841e-01 
8.100000000000e+01 -2.905018412159e+03 7.931889967051e-01 
8.150000000000e+01 -2.917130742801e+03 7.925121448542e-01 
8.200000000000e+01 -2.929216923594e+03 7.918368277495e-01 
8.250000000000e+01 -2.941279640546e+03 7.911628981303e-01 
8.300000000000e+01 -2.953321796825e+03 7.904901985431e-01 
8.350000000000e+01 -2.965346351151e+03 7.898185700124e-01 
8.400000000000e+01 -2.977356240094e+03 7.891478555768e-01 
8.450000000000e+01 -2.989354556618e+03 7.884778876917e-01 
8.500000000000e+01 -3.001344998616e+03 7.878117389413e-01 
8.550000000000e+01 -3.013296486596e+03 7.871667942134e-01 
8.600000000000e+01 -3.025189595832e+03 7.865396074155e-01 
8.650000000000e+01 -3.037026562758e+03 7.859154138796e-01 
8.700000000000e+01 -3.048809876423e+03 7.852940820669e-01 
8.750000000000e+01 -3.060541459244e+03 7.846755124027e-01 
8.800000000000e+01 -3.072223982285e+03 7.840595618763e-01 
8.850000000000e+01 -3.083859766355e+03 7.834461098686e-01 
8.900000000000e+01 -3.095451023304e+03 7.828350406546e-01 
8.950000000000e+01 -3.106999959795e+03 7.822262386093e-01 
9.000000000000e+01 -3.118508953956e+03 7.816195800357e-01 
9.050000000000e+01 -3.129979743255e+03 7.810149737357e-01 
9.100000000000e+01 -3.141415001260e+03 7.804122824251e-01 
9.150000000000e+01 -3.152816465218e+03 7.798114145213e-01 
9.200000000000e+01 -3.164186452748e+03 7.792122504999e-01 
9.250000000000e+01 -3.175526599595e+03 7.786147046755e-01 
9.300000000000e+01 -3.186839689398e+03 7.780186351485e-01 
9.350000000000e+01 -3.198127164982e+03 7.774239651923e-01 
9.400000000000e+01 -3.209391603493e+03 7.768305637236e-01 
9.450000000000e+01 -3.220635095379e+03 7.762383226753e-01 
9.500000000000e+01 -3.231859388185e+03 7.756471515590e-01 
9.550000000000e+01 -3.243066697715e+03 7.750569446206e-01 
9.600000000000e+01 -3.254256949382e+03 7.744746608124e-01 
9.650000000000e+01 -3.265404742061e+03 7.739076158375e-01 
9.700000000000e+01 -3.276503950999e+03 7.733533637292e-01 
9.750000000000e+01 -3.287555079477e+03 7.728015435879e-01 
9.800000000000e+01 -3.298559162741e+03 7.722521028330e-01 
9.850000000000e+01 -3.309517682321e+03 7.717049667734e-01 
9.900000000000e+01 -3.320432233597e+03 7.711600552221e-01 
9.950000000000e+01 -3.331304532308e+03 7.706172819441e-01 
1.000000000000e+02 -3.342136375318e+03 7.700765568627e-01 
1.005000000000e+02 -3.352929466355e+03 7.695377948496e-01 
1.010000000000e+02 -3.363685856661e+03 7.690008941793e-01 
1.015000000000e+02 -3.374407549147e+03 7.684657552621e-01 
1.020000000000e+02 -3.385096001392e+03 7.679323052770e-01 
1.025000000000e+02 -3.395753147239e+03 7.674004487894e-01 
1.030000000000e+02 -3.406380863115e+03 7.668700934602e-01 
1.035000000000e+02 -3.416980692553e+03 7.663411622200e-01 
1.040000000000e+02 -3.427554427747e+03 7.658135673732e-01 
1.045000000000e+02 -3.438103974087e+03 7.652872155755e-01 
1.050000000000e+02 -3.448630644198e+03 7.647620409619e-01 
1.055000000000e+02 -3.459136572537e+03 7.642379402611e-01 
1.060000000000e+02 -3.469623437202e+03 7.637148307013e-01 
1.065000000000e+02 -3.480092746326e+03 7.631926378592e-01 
1.070000000000e+02 -3.490546569954e+03 7.626712651764e-01 
1.075000000000e+02 -3.500986205815e+03 7.621528044883e-01 
1.080000000000e+02 -3.511398796726e+03 7.616449632680e-01 
1.085000000000e+02 -3.521775126963e+03 7.611508154365e-01 
1.090000000000e+02 -3.532116061930e+03 7.606592772416e-01 
1.095000000000e+02 -3.542422087009e+03 7.601694200941e-01 
1.100000000000e+02 -3.552693982123e+03 7.596812072212e-01 
1.105000000000e+02 -3.562932150681e+03 7.591946212124e-01 
1.110000000000e+02 -3.573137061372e+03 7.587096404633e-01 
1.115000000000e+02 -3.583309847568e+03 7.582262109920e-01 
1.120000000000e+02 -3.593451225745e+03 7.577442989237e-01 
1.125000000000e+02 -3.603562086189e+03 7.572638624139e-01 
1.130000000000e+02 -3.613643814389e+03 7.567848355560e-01 
1.135000000000e+02 -3.623697445569e+03 7.563071685027e-01 
1.140000000000e+02 -3.633724259995e+03 7.558308009551e-01 
1.145000000000e+02 -3.643725500648e+03 7.553556740483e-01 
1.150000000000e+02 -3.653702540777e+03 7.548817231927e-01 
1.155000000000e+02 -3.663656626874e+03 7.544088893291e-01 
1.160000000000e+02 -3.673589199622e+03 7.539371049879e-01 
1.165000000000e+02 -3.683501662084e+03 7.534663043340e-01 
1.170000000000e+02 -3.693394999484e+03 7.529964402017e-01 
1.175000000000e+02 -3.703270682482e+03 7.525274442501e-01 
1.180000000000e+02 -3.713130109817e+03 7.520592510963e-01 
1.185000000000e+02 -3.722974733729e+03 7.515917929267e-01 
1.190000000000e+02 -3.732805638371e+03 7.511250183082e-01 
1.195000000000e+02 -3.742624060270e+03 7.506588401621e-01 
1.200000000000e+02 -3.752431631571e+03 7.501979010448e-01 
1.205000000000e+02 -3.762214862728e+03 7.497459052019e-01 
1.210000000000e+02 -3.771969343847e+03 7.493081935099e-01 
1.215000000000e+02 -3.781695019252e+03 7.488731165394e-01 
1.220000000000e+02 -3.791393570652e+03 7.484392664236e-01 
1.225000000000e+02 -3.801065169841e+03 7.480066397023e-01 
1.230000000000e+02 -3.810710479281e+03 7.475752053712e-01 
1.235000000000e+02 -3.820330530215e+03 7.471449180098e-01 
1.240000000000e+02 -3.829925588469e+03 7.467157669991e-01 
1.245000000000e+02 -3.839496517313e+03 7.462877137281e-01 
1.250000000000e+02 -3.849043443751e+03 7.458607541890e-01 
1.255000000000e+02 -3.858567225162e+03 7.454348495530e-01 
1.260000000000e+02 -3.868068334048e+03 7.450099796499e-01 
1.265000000000e+02 -3.877547422532e+03 7.445861158578e-01 
1.270000000000e+02 -3.887005214431e+03 7.441632252236e-01 
1.275000000000e+02 -3.896442558962e+03 7.437412712703e-01 
1.280000000000e+02 -3.905860169019e+03 7.433202210558e-01 
1.285000000000e+02 -3.915259297809e+03 7.429000200772e-01 
1.290000000000e+02 -3.924640419598e+03 7.424806457604e-01 
1.295000000000e+02 -3.934004872194e+03 7.420620402297e-01 
1.300000000000e+02 -3.943353489692e+03 7.416441658637e-01 
1.305000000000e+02 -3.952687162260e+03 7.412269830581e-01 
1.310000000000e+02 -3.962007242958e+03 7.408104330376e-01 
1.315000000000e+02 -3.971314232857e+03 7.403944919627e-01 
1.320000000000e+02 -3.980609372335e+03 7.399791062692e-01 
1.325000000000e+02 -3.989893641095e+03 7.395642370309e-01 
1.330000000000e+02 -3.999168244056e+03 7.391499314623e-01 
1.335000000000e+02 -4.008427886146e+03 7.387453064534e-01 
1.340000000000e+02 -4.017663571485e+03 7.383442749137e-01 
1.345000000000e+02 -4.026876205792e+03 7.379505662593e-01 
1.350000000000e+02 -4.036066647091e+03 7.375578187894e-01 
1.355000000000e+02 -4.045235493112e+03 7.371660072211e-01 
1.360000000000e+02 -4.054383052129e+03 7.367751198564e-01 
1.365000000000e+02 -4.063509801023e+03 7.363851362484e-01 
1.370000000000e+02 -4.072616550859e+03 7.359960212733e-01 
1.375000000000e+02 -4.081703758892e+03 7.356077557521e-01 
1.380000000000e+02 -4.090771946355e+03 7.352203187773e-01 
1.385000000000e+02 -4.099821737330e+03 7.348336840464e-01 
1.390000000000e+02 -4.108853681434e+03 7.344478275629e-01 
1.395000000000e+02 -4.117868283258e+03 7.340627290191e-01 
1.400000000000e+02 -4.126866035098e+03 7.336783679849e-01 
1.405000000000e+02 -4.135847431810e+03 7.332947232117e-01 
1.410000000000e+02 -4.144812758485e+03 7.329117836397e-01 
1.415000000000e+02 -4.153762636108e+03 7.325295229462e-01 
1.420000000000e+02 -4.162697347684e+03 7.321479291674e-01 
1.425000000000e+02 -4.171617790254e+03 7.317669653432e-01 
1.430000000000e+02 -4.180524090919e+03 7.313866249570e-01 
1.435000000000e+02 -4.189417374992e+03 7.310068619586e-01 
1.440000000000e+02 -4.198297956891e+03 7.306276616798e-01 
1.445000000000e+02 -4.207166812874e+03 7.302489838485e-01 
1.450000000000e+02 -4.216024503087e+03 7.298708039822e-01 
1.455000000000e+02 -4.224871810451e+03 7.294930893534e-01 
1.460000000000e+02 -4.233709619076e+03 7.291158028304e-01 
1.465000000000e+02 -4.242538674828e+03 7.287387045103e-01 
1.470000000000e+02 -4.251359689055e+03 7.283652394670e-01 
1.475000000000e+02 -4.260164420066e+03 7.279995554035e-01 
1.480000000000e+02 -4.268948725331e+03 7.276385445153e-01 
1.485000000000e+02 -4.277712781154e+03 7.272850033778e-01 
1.490000000000e+02 -4.286457350796e+03 7.269322581892e-01 
1.495000000000e+02 -4.295182826220e+03 7.265802944109e-01 
1.500000000000e+02 -4.303889731150e+03 7.262290908651e-01 
1.505000000000e+02 -4.312578617347e+03 7.258786250358e-01 
1.510000000000e+02 -4.321249658088e+03 7.255288906633e-01 
1.515000000000e+02 -4.329903555163e+03 7.251798590748e-01 
1.520000000000e+02 -4.338540867913e+03 7.248315088033e-01 
1.525000000000e+02 -4.347161816197e+03 7.244838316952e-01 
1.530000000000e+02 -4.355766943886e+03 7.241368047385e-01 
1.535000000000e+02 -4.364356537888e+03 7.237904163478e-01 
1.540000000000e+02 -4.372931284760e+03 7.234446397570e-01 
1.545000000000e+02 -4.381491685143e+03 7.230994556281e-01 
1.550000000000e+02 -4.390038059875e+03 7.227548510035e-01 
1.555000000000e+02 -4.398570814965e+03 7.224108096148e-01 
1.560000000000e+02 -4.407090248311e+03 7.220673192362e-01 
1.565000000000e+02 -4.415596998308e+03 7.217243552053e-01 
1.570000000000e+02 -4.424091358611e+03 7.213819058871e-01 
1.575000000000e+02 -4.432573651826e+03 7.210399585477e-01 
1.580000000000e+02 -4.441044567119e+03 7.206984865328e-01 
1.585000000000e+02 -4.449504432479e+03 7.203574767082e-01 
1.590000000000e+02 -4.457953479832e+03 7.200169194924e-01 
1.595000000000e+02 -4.466392058631e+03 7.196768009338e-01 
1.600000000000e+02 -4.474820903923e+03 7.193370927810e-01 
1.605000000000e+02 -4.483240084230e+03 7.189977908507e-01 
1.610000000000e+02 -4.491650673487e+03 7.186587542633e-01 
1.615000000000e+02 -4.500053127751e+03 7.183211744286e-01 
1.620000000000e+02 -4.508442658839e+03 7.179897718298e-01 
1.625000000000e+02 -4.516814261693e+03 7.176586669504e-01 
1.630000000000e+02 -4.525168646691e+03 7.173350115325e-01 
1.635000000000e+02 -4.533506354162e+03 7.170120110280e-01 
1.640000000000e+02 -4.541827339116e+03 7.166896694074e-01 
1.645000000000e+02 -4.550132476340e+03 7.163679502551e-01 
1.650000000000e+02 -4.558421701340e+03 7.160468580895e-01 
1.655000000000e+02 -4.566695738819e+03 7.157263636667e-01 
1.660000000000e+02 -4.574954842449e+03 7.154064586917e-01 
1.665000000000e+02 -4.583199375381e+03 7.150871275766e-01 
1.670000000000e+02 -4.591429679976e+03 7.147683585195e-01 
1.675000000000e+02 -4.599646406698e+03 7.144501261154e-01 
1.680000000000e+02 -4.607849632247e+03 7.141324275785e-01 
1.685000000000e+02 -4.616039722472e+03 7.138152486098e-01 
1.690000000000e+02 -4.624216696605e+03 7.134985906882e-01 
1.695000000000e+02 -4.632380059033e+03 7.131824755776e-01 
1.700000000000e+02 -4.640527491089e+03 7.128669995909e-01 
1.705000000000e+02 -4.648653841015e+03 7.125523750299e-01 
1.710000000000e+02 -4.656749452780e+03 7.122389995368e-01 
1.715000000000e+02 -4.664796966097e+03 7.119275843353e-01 
1.720000000000e+02 -4.672767605858e+03 7.116193013073e-01 
1.725000000000e+02 -4.680617457759e+03 7.113159361153e-01 
1.730000000000e+02 -4.688282574429e+03 7.110200832683e-01 
1.735000000000e+02 -4.695672850870e+03 7.107353877083e-01 
1.740000000000e+02 -4.702666097269e+03 7.104667815687e-01 
1.745000000000e+02 -4.709101494294e+03 7.102207434384e-01 
1.750000000000e+02 -4.714772790573e+03 7.100055684487e-01 
1.755000000000e+02 -4.719419619871e+03 7.098317041591e-01 
1.760000000000e+02 -4.722722761420e+03 7.097119459273e-01 
1.765000000000e+02 -4.724292995382e+03 7.096618556250e-01 
1.770000000000e+02 -4.723668219568e+03 7.096998828613e-01 
1.775000000000e+02 -4.720306949600e+03 7.098476013763e-01 
1.780000000000e+02 -4.713584729113e+03 7.101298306625e-01 
1.785000000000e+02 -4.702798402284e+03 7.105744588487e-01 
1.790000000000e+02 -4.687166526840e+03 7.112123724845e-01 
1.795000000000e+02 -4.665844316694e+03 7.120768483153e-01 
1.800000000000e+02 -4.637940091671e+03 7.132028739671e-01 
1.805000000000e+02 -4.602543540661e+03 7.146259841662e-01 
1.810000000000e+02 -4.558751228209e+03 7.163812452509e-01 
1.815000000000e+02 -4.505707567616e+03 7.185273846736e-01 
1.820000000000e+02 -4.442820649404e+03 7.211266619431e-01 
1.825000000000e+02 -4.369789455437e+03 7.241462218481e-01 
1.830000000000e+02 -4.286286337181e+03 7.276066670681e-01 
1.835000000000e+02 -4.192359586745e+03 7.316487041032e-01 
1.840000000000e+02 -4.088929236668e+03 7.361415500742e-01 
1.845000000000e+02 -3.976431631650e+03 7.411156457313e-01 
1.850000000000e+02 -3.856377100108e+03 7.465448662953e-01 
1.855000000000e+02 -3.729830103032e+03 7.523900037070e-01 
1.860000000000e+02 -3.598683817322e+03 7.586617517075e-01 
1.865000000000e+02 -3.464183691869e+03 7.652354463837e-01 
1.870000000000e+02 -3.328375324355e+03 7.720278021257e-01 
1.875000000000e+02 -3.192246475505e+03 7.790623644994e-01 
1.880000000000e+02 -3.057889534218e+03 7.861381173751e-01 
1.885000000000e+02 -2.925956071274e+03 7.933779090332e-01 
1.890000000000e+02 -2.798524305900e+03 8.004806847484e-01 
1.895000000000e+02 -2.675487119071e+03 8.076157809855e-01 
1.900000000000e+02 -2.557808663027e+03 8.145255878509e-01 
1.905000000000e+02 -2.444958973409e+03 8.214522119951e-01 
1.910000000000e+02 -2.338004247952e+03 8.281431164348e-01 
1.915000000000e+02 -2.236891047951e+03 8.345715166522e-01 
1.920000000000e+02 -2.144488960106e+03 8.406225034548e-01 
1.925000000000e+02 -2.063428029985e+03 8.459255935725e-01 
1.930000000000e+02 -1.994937999030e+03 8.504710615603e-01 
1.935000000000e+02 -1.939593912721e+03 8.542584281937e-01 
1.940000000000e+02 -1.896545143276e+03 8.572051351474e-01 
1.945000000000e+02 -1.864170296415e+03 8.594244752704e-01 
1.950000000000e+02 -1.840689212799e+03 8.610209392868e-01 
1.955000000000e+02 -1.824440197591e+03 8.621144597239e-01 
1.960000000000e+02 -1.813998213205e+03 8.628098706965e-01 
1.965000000000e+02 -1.808210757421e+03 8.631750720170e-01 
1.970000000000e+02 -1.806152504685e+03 8.632778974600e-01 
1.975000000000e+02 -1.807079213500e+03 8.631710840394e-01 
1.980000000000e+02 -1.810406945052e+03 8.628959362581e-01 
1.985000000000e+02 -1.815668338742e+03 8.624844484006e-01 
1.990000000000e+02 -1.822497372248e+03 8.619670315648e-01 
1.995000000000e+02 -1.830600043306e+03 8.613662209649e-01 
2.000000000000e+02 -1.839741457328e+03 8.606941079133e-01 
2.005000000000e+02 -1.849733149445e+03 8.599638113269e-01 
2.010000000000e+02 -1.860422001256e+03 8.591859758342e-01 
2.015000000000e+02 -1.871681844514e+03 8.583693493090e-01 
2.020000000000e+02 -1.883416960443e+03 8.575205609850e-01 
2.025000000000e+02 -1.895544908909e+03 8.566450440680e-01 
2.030000000000e+02 -1.907994510581e+03 8.557529749651e-01 
2.035000000000e+02 -1.920693103415e+03 8.548478750046e-01 
2.040000000000e+02 -1.933597564940e+03 8.539329739814e-01 
2.045000000000e+02 -1.946670576092e+03 8.530072326088e-01 
2.050000000000e+02 -1.959881552904e+03 8.520727182500e-01 
2.055000000000e+02 -1.973209631048e+03 8.511308341143e-01 
2.060000000000e+02 -1.986636806811e+03 8.501827764749e-01 
2.065000000000e+02 -2.000152772659e+03 8.492310631942e-01 
2.070000000000e+02 -2.013714538576e+03 8.482994566835e-01 
2.075000000000e+02 -2.027281279279e+03 8.473909308521e-01 
2.080000000000e+02 -2.040843882281e+03 8.464832104116e-01 
2.085000000000e+02 -2.054395676243e+03 8.455767047558e-01 
2.090000000000e+02 -2.067932321509e+03 8.446716758061e-01 
2.095000000000e+02 -2.081448099981e+03 8.437684847604e-01 
2.100000000000e+02 -2.094938669316e+03 8.428674014231e-01 
2.105000000000e+02 -2.108402190141e+03 8.419685310444e-01 
2.110000000000e+02 -2.121840567982e+03 8.410717271442e-01 
2.115000000000e+02 -2.135256107202e+03 8.401768158326e-01 
2.120000000000e+02 -2.148653052801e+03 8.392835040119e-01 
2.125000000000e+02 -2.162034749395e+03 8.383915589567e-01 
2.130000000000e+02 -2.175406854877e+03 8.375006011592e-01 
2.135000000000e+02 -2.188775009323e+03 8.366102482610e-01 
2.140000000000e+02 -2.202145301854e+03 8.357200914046e-01 
2.145000000000e+02 -2.215524277057e+03 8.348296978378e-01 
2.150000000000e+02 -2.228917762752e+03 8.339386872604e-01 
2.155000000000e+02 -2.242329227097e+03 8.330468521190e-01 
2.160000000000e+02 -2.255755118092e+03 8.321645845819e-01 
2.165000000000e+02 -2.269132320611e+03 8.313085795776e-01 
2.170000000000e+02 -2.282450125780e+03 8.304644213043e-01 
2.175000000000e+02 -2.295710242870e+03 8.296241287360e-01 
2.180000000000e+02 -2.308916919541e+03 8.287874205856e-01 
2.185000000000e+02 -2.322074211560e+03 8.279540329257e-01 
2.190000000000e+02 -2.335186319775e+03 8.271236930969e-01 
2.195000000000e+02 -2.348257491378e+03 8.262961283315e-01 
2.200000000000e+02 -2.361291508032e+03 8.254710960375e-01 
2.205000000000e+02 -2.374292387704e+03 8.246483394902e-01 
2.210000000000e+02 -2.387264068112e+03 8.238276092720e-01 
2.215000000000e+02 -2.400209659138e+03 8.230087073820e-01 
2.220000000000e+02 -2.413133055368e+03 8.221913902241e-01 
2.225000000000e+02 -2.426037451523e+03 8.213754565744e-01 
2.230000000000e+02 -2.438926059503e+03 8.205607064679e-01 
2.235000000000e+02 -2.451802066637e+03 8.197469436949e-01 
2.240000000000e+02 -2.464667753249e+03 8.189340320365e-01 
2.245000000000e+02 -2.477525048224e+03 8.181218579305e-01 
2.250000000000e+02 -2.490377457755e+03 8.173102049748e-01 
2.255000000000e+02 -2.503228546000e+03 8.165065661345e-01 
2.260000000000e+02 -2.516036914512e+03 8.157340824858e-01 
2.265000000000e+02 -2.528785803759e+03 8.149788580835e-01 
2.270000000000e+02 -2.541480470228e+03 8.142269386040e-01 
2.275000000000e+02 -2.554124142324e+03 8.134781325925e-01 
2.280000000000e+02 -2.566720715486e+03 8.127322068706e-01 
2.285000000000e+02 -2.579273435072e+03 8.119889672060e-01 
2.290000000000e+02 -2.591786069426e+03 8.112481910593e-01 
2.295000000000e+02 -2.604261331607e+03 8.105097174446e-01 
2.300000000000e+02 -2.616702246234e+03 8.097733681911e-01 
2.305000000000e+02 -2.629111733442e+03 8.090389723381e-01 
2.310000000000e+02 -2.641492166954e+03 8.083063896902e-01 
2.315000000000e+02 -2.653846519193e+03 8.075754483644e-01 
2.320000000000e+02 -2.666177223599e+03 8.068460060762e-01 
2.325000000000e+02 -2.678486570596e+03 8.061179297724e-01 
2.330000000000e+02 -2.690776993250e+03 8.053910794559e-01 
2.335000000000e+02 -2.703051231128e+03 8.046652989500e-01 
2.340000000000e+02 -2.715311285326e+03 8.039404753801e-01 
2.345000000000e+02 -2.727558706814e+03 8.032165237501e-01 
2.350000000000e+02 -2.739795722739e+03 8.024933175005e-01 
2.355000000000e+02 -2.752025418810e+03 8.017749826478e-01 
2.360000000000e+02 -2.764219308780e+03 8.010792508887e-01 
2.365000000000e+02 -2.776363045517e+03 8.003995301352e-01 
2.370000000000e+02 -2.788458964053e+03 7.997225487250e-01 
2.375000000000e+02 -2.800510227468e+03 7.990481265676e-01 
2.380000000000e+02 -2.812519614405e+03 7.983761074888e-01 
2.385000000000e+02 -2.824490005713e+03 7.977063309245e-01 
2.390000000000e+02 -2.836424029825e+03 7.970386497134e-01 
2.395000000000e+02 -2.848324508885e+03 7.963729071642e-01 
2.400000000000e+02 -2.860194116567e+03 7.957089550164e-01 
2.405000000000e+02 -2.872035507290e+03 7.950466467632e-01 
2.410000000000e+02 -2.883851007812e+03 7.943858533027e-01 
2.415000000000e+02 -2.895643403222e+03 7.937264222544e-01 
2.420000000000e+02 -2.907415032886e+03 7.930682244005e-01 
2.425000000000e+02 -2.919168555511e+03 7.924111142907e-01 
2.430000000000e+02 -2.930906550793e+03 7.917549507161e-01 
2.435000000000e+02 -2.942631212717e+03 7.910996129664e-01 
2.440000000000e+02 -2.954346074817e+03 7.904449107247e-01 
2.445000000000e+02 -2.966053569526e+03 7.897907103556e-01 
2.450000000000e+02 -2.977756162981e+03 7.891368782844e-01 
2.455000000000e+02 -2.989456494267e+03 7.884832746250e-01 
2.460000000000e+02 -3.001157448938e+03 7.878327606152e-01 
2.465000000000e+02 -3.012829412878e+03 7.872013869271e-01 
2.470000000000e+02 -3.024452426873e+03 7.865881851737e-01 
2.475000000000e+02 -3.036027829233e+03 7.859775372570e-01 
2.480000000000e+02 -3.047557152418e+03 7.853693616557e-01 
2.485000000000e+02 -3.059042297486e+03 7.847635560638e-01 
2.490000000000e+02 -3.070485443660e+03 7.841600055736e-01 
2.495000000000e+02 -3.081888588970e+03 7.835586056467e-01 
2.500000000000e+02 -3.093253424435e+03 7.829592663929e-01 
2.505000000000e+02 -3.104582187226e+03 7.823618702707e-01 
2.510000000000e+02 -3.115876920645e+03 7.817663111507e-01 
2.515000000000e+02 -3.127139222527e+03 7.811725040935e-01 
2.520000000000e+02 -3.138371511143e+03 7.805803247598e-01 
2.525000000000e+02 -3.149575303230e+03 7.799896929174e-01 