 TITLE = "Time curves in points"
 VARIABLES = "TIME"  "PRESSURE1"  "SATURATION1" 
 ZONE T="POINT=POINT10"
0.000000000000e+00 -3.108324111924e+03 7.818876021816e-01 
5.000000000000e-01 -2.522257631987e+03 8.148868297670e-01 
1.000000000000e+00 -1.877482329447e+03 8.571061201530e-01 
1.500000000000e+00 -1.603495690292e+03 8.771177286785e-01 
2.000000000000e+00 -1.426535887355e+03 8.906719882032e-01 
2.500000000000e+00 -1.296939163309e+03 9.008851282053e-01 
3.000000000000e+00 -1.195676127076e+03 9.090119829991e-01 
3.500000000000e+00 -1.113278677353e+03 9.157061510589e-01 
4.000000000000e+00 -1.044403208026e+03 9.214082602668e-01 
4.500000000000e+00 -9.856839560298e+02 9.262936406690e-01 
5.000000000000e+00 -9.349602145600e+02 9.305139323962e-01 
5.500000000000e+00 -8.904331051421e+02 9.342263402870e-01 
6.000000000000e+00 -8.511894229954e+02 9.375304525760e-01 
6.500000000000e+00 -8.162515745958e+02 9.404713688302e-01 
7.000000000000e+00 -7.848168063413e+02 9.431171531840e-01 
7.500000000000e+00 -7.565091781920e+02 9.454998420200e-01 
8.000000000000e+00 -7.308076812236e+02 9.476628267927e-01 
8.500000000000e+00 -7.072941127859e+02 9.496414258322e-01 
9.000000000000e+00 -6.857226800594e+02 9.514567344681e-01 
9.500000000000e+00 -6.660279079570e+02 9.531142822971e-01 
1.000000000000e+01 -6.479415986155e+02 9.546362835621e-01 
1.050000000000e+01 -6.312438132679e+02 9.560413012709e-01 
1.100000000000e+01 -6.157605796011e+02 9.573440138123e-01 
1.150000000000e+01 -6.013500298022e+02 9.585563870994e-01 
1.200000000000e+01 -5.879809624683e+02 9.596580361339e-01 
1.250000000000e+01 -5.756439738859e+02 9.606715482220e-01 
1.300000000000e+01 -5.642115998626e+02 9.616106697403e-01 
1.350000000000e+01 -5.535819621141e+02 9.624837895747e-01 
1.400000000000e+01 -5.436693303742e+02 9.632979650468e-01 
1.450000000000e+01 -5.344024266245e+02 9.640590626537e-01 
1.500000000000e+01 -5.257199415121e+02 9.647721273634e-01 
1.550000000000e+01 -5.175680122851e+02 9.654415904507e-01 
1.600000000000e+01 -5.099014735051e+02 9.660711672862e-01 
1.650000000000e+01 -5.026788691900e+02 9.666642673713e-01 
1.700000000000e+01 -4.958960285008e+02 9.672076650395e-01 
1.750000000000e+01 -4.896270172697e+02 9.677008028221e-01 
1.800000000000e+01 -4.838252201087e+02 9.681571611439e-01 
1.850000000000e+01 -4.784429371582e+02 9.685804989796e-01 
1.900000000000e+01 -4.734394903000e+02 9.689740213402e-01 
1.950000000000e+01 -4.687798823482e+02 9.693404851999e-01 
2.000000000000e+01 -4.644336456709e+02 9.696822903428e-01 
2.050000000000e+01 -4.603739209929e+02 9.700015520355e-01 
2.100000000000e+01 -4.565768996197e+02 9.703001450528e-01 
2.150000000000e+01 -4.530213243647e+02 9.705797430487e-01 
2.200000000000e+01 -4.496881023612e+02 9.708418491033e-01 
2.250000000000e+01 -4.465601501290e+02 9.710878079799e-01 
2.300000000000e+01 -4.436220158249e+02 9.713188358878e-01 
2.350000000000e+01 -4.408597051944e+02 9.715360342174e-01 
2.400000000000e+01 -4.382605898381e+02 9.717403967887e-01 
2.450000000000e+01 -5.677533074465e+02 9.613598988456e-01 
2.500000000000e+01 -7.925060974980e+02 9.425857574643e-01 
2.550000000000e+01 -9.156127024218e+02 9.322603637350e-01 
2.600000000000e+01 -1.009015357164e+03 9.245081093211e-01 
2.650000000000e+01 -1.086589522820e+03 9.180695439815e-01 
2.700000000000e+01 -1.153961248371e+03 9.125843108194e-01 
2.750000000000e+01 -1.214080237508e+03 9.077281112607e-01 
2.800000000000e+01 -1.268670684880e+03 9.033609061324e-01 
2.850000000000e+01 -1.318874020722e+03 8.993628540693e-01 
2.900000000000e+01 -1.365520962090e+03 8.956777662947e-01 
2.950000000000e+01 -1.409205141392e+03 8.922437762772e-01 
3.000000000000e+01 -1.450367494785e+03 8.890742904632e-01 
3.050000000000e+01 -1.489356877998e+03 8.860721198659e-01 
3.100000000000e+01 -1.526446709329e+03 8.832419774367e-01 
3.150000000000e+01 -1.561860682643e+03 8.805505256705e-01 
3.200000000000e+01 -1.595780482811e+03 8.779726290608e-01 
3.250000000000e+01 -1.628357431691e+03 8.755521367947e-01 
3.300000000000e+01 -1.659721543633e+03 8.732311997429e-01 
3.350000000000e+01 -1.689981041490e+03 8.709920028662e-01 
3.400000000000e+01 -1.719228217803e+03 8.688462618754e-01 
3.450000000000e+01 -1.747545700500e+03 8.667790912360e-01 
3.500000000000e+01 -1.775005195918e+03 8.647745527638e-01 
3.550000000000e+01 -1.801668680570e+03 8.628288108967e-01 
3.600000000000e+01 -1.827592013574e+03 8.609895396931e-01 
3.650000000000e+01 -1.852827293963e+03 8.591978392356e-01 
3.700000000000e+01 -1.877420962940e+03 8.574516925494e-01 
3.750000000000e+01 -1.901413783095e+03 8.557482573546e-01 
3.800000000000e+01 -1.924855508864e+03 8.541080197168e-01 
3.850000000000e+01 -1.947792739517e+03 8.525024188890e-01 
3.900000000000e+01 -1.970260321601e+03 8.509296927736e-01 
3.950000000000e+01 -1.992287862040e+03 8.493877689790e-01 
4.000000000000e+01 -2.013896852417e+03 8.479227069964e-01 
4.050000000000e+01 -2.035095449591e+03 8.465151226164e-01 
4.100000000000e+01 -2.055899645845e+03 8.451337262603e-01 
4.150000000000e+01 -2.076326396280e+03 8.437773920788e-01 
4.200000000000e+01 -2.096391856999e+03 8.424450473111e-01 
4.250000000000e+01 -2.116111202087e+03 8.411356844066e-01 
4.300000000000e+01 -2.135498773353e+03 8.398483510757e-01 
4.350000000000e+01 -2.154567944645e+03 8.385821593045e-01 
4.400000000000e+01 -2.173331263228e+03 8.373362759625e-01 
4.450000000000e+01 -2.191800616110e+03 8.361099117570e-01 
4.500000000000e+01 -2.209987218086e+03 8.349023220310e-01 
4.550000000000e+01 -2.227901564590e+03 8.337128098945e-01 
4.600000000000e+01 -2.245553461511e+03 8.325407242436e-01 
4.650000000000e+01 -2.262953304868e+03 8.314246346567e-01 
4.700000000000e+01 -2.280113440971e+03 8.303401160721e-01 
4.750000000000e+01 -2.297045111460e+03 8.292700363007e-01 
4.800000000000e+01 -2.313757748685e+03 8.282137992532e-01 
4.850000000000e+01 -2.330260644167e+03 8.271708177036e-01 
4.900000000000e+01 -2.346561874555e+03 8.261405812307e-01 
4.950000000000e+01 -2.362669270568e+03 8.251225949343e-01 
5.000000000000e+01 -2.378589840064e+03 8.241164159327e-01 
5.050000000000e+01 -2.394330392881e+03 8.231216138446e-01 
5.100000000000e+01 -2.409897300859e+03 8.221377859764e-01 
5.150000000000e+01 -2.425296554519e+03 8.211645537322e-01 
5.200000000000e+01 -2.440533807574e+03 8.202015598020e-01 
5.250000000000e+01 -2.455614258051e+03 8.192484756779e-01 
5.300000000000e+01 -2.470542734117e+03 8.183049962257e-01 
5.350000000000e+01 -2.485323803727e+03 8.173708327538e-01 
5.400000000000e+01 -2.499961791423e+03 8.164457119541e-01 
5.450000000000e+01 -2.514461293858e+03 8.155844488376e-01 
5.500000000000e+01 -2.528827094259e+03 8.147339944256e-01 
5.550000000000e+01 -2.543063449398e+03 8.138912030774e-01 
5.600000000000e+01 -2.557174053141e+03 8.130558561281e-01 
5.650000000000e+01 -2.571162172490e+03 8.122277601803e-01 
5.700000000000e+01 -2.585030747657e+03 8.114067411802e-01 
5.750000000000e+01 -2.598782445173e+03 8.105926412749e-01 
5.800000000000e+01 -2.612419696319e+03 8.097853165374e-01 
5.850000000000e+01 -2.625944776108e+03 8.089846322900e-01 
5.900000000000e+01 -2.639359811457e+03 8.081904626219e-01 
5.950000000000e+01 -2.652666871547e+03 8.074026850385e-01 
6.000000000000e+01 -2.665867955490e+03 8.066211811931e-01 
6.050000000000e+01 -2.678965041979e+03 8.058458339467e-01 
6.100000000000e+01 -2.691960102154e+03 8.050765266072e-01 
6.150000000000e+01 -2.704855131241e+03 8.043131410556e-01 
6.200000000000e+01 -2.717652197623e+03 8.035555548406e-01 
6.250000000000e+01 -2.730353502508e+03 8.028036376460e-01 
6.300000000000e+01 -2.742961401693e+03 8.020572500029e-01 
6.350000000000e+01 -2.755478383599e+03 8.013313027042e-01 
6.400000000000e+01 -2.767907129840e+03 8.006355734076e-01 
6.450000000000e+01 -2.780250394993e+03 7.999443509956e-01 
6.500000000000e+01 -2.792510769552e+03 7.992577703900e-01 
6.550000000000e+01 -2.804690600676e+03 7.985757001551e-01 
6.600000000000e+01 -2.816791997487e+03 7.978980221855e-01 
6.650000000000e+01 -2.828816838109e+03 7.972246313115e-01 
6.700000000000e+01 -2.840766793205e+03 7.965554339804e-01 
6.750000000000e+01 -2.852643366394e+03 7.958903459937e-01 
6.800000000000e+01 -2.864447880943e+03 7.952292932524e-01 
6.850000000000e+01 -2.876181551116e+03 7.945722077603e-01 
6.900000000000e+01 -2.887845465912e+03 7.939190285363e-01 
6.950000000000e+01 -2.899440688221e+03 7.932696960587e-01 
7.000000000000e+01 -2.910968183499e+03 7.926241562642e-01 
7.050000000000e+01 -2.922428898712e+03 7.919823561228e-01 
7.100000000000e+01 -2.933823768813e+03 7.913442432771e-01 
7.150000000000e+01 -2.945153716217e+03 7.907097660715e-01 
7.200000000000e+01 -2.956419703428e+03 7.900788706043e-01 
7.250000000000e+01 -2.967622746738e+03 7.894514999610e-01 
7.300000000000e+01 -2.978763947027e+03 7.888275924892e-01 
7.350000000000e+01 -2.989844508381e+03 7.882070807565e-01 
7.400000000000e+01 -3.000865690292e+03 7.875898942288e-01 
7.450000000000e+01 -3.011828951062e+03 7.870116115270e-01 
7.500000000000e+01 -3.022735823292e+03 7.864357289505e-01 
7.550000000000e+01 -3.033587769171e+03 7.858627464428e-01 
7.600000000000e+01 -3.044386075622e+03 7.852925960588e-01 
7.650000000000e+01 -3.055131892327e+03 7.847252170986e-01 
7.700000000000e+01 -3.065826232684e+03 7.841605560583e-01 
7.750000000000e+01 -3.076469986628e+03 7.835985659524e-01 
7.800000000000e+01 -3.087063936551e+03 7.830392054734e-01 
7.850000000000e+01 -3.097608774005e+03 7.824824381098e-01 
7.900000000000e+01 -3.108105114869e+03 7.819282313449e-01 
7.950000000000e+01 -3.118553514424e+03 7.813765558616e-01 
8.000000000000e+01 -3.128954481190e+03 7.808273848111e-01 
8.050000000000e+01 -3.139308489550e+03 7.802806931469e-01 
8.100000000000e+01 -3.149615990842e+03 7.797364570388e-01 
8.150000000000e+01 -3.159877423200e+03 7.791946533535e-01 
8.200000000000e+01 -3.170093220775e+03 7.786552591679e-01 
8.250000000000e+01 -3.180263831397e+03 7.781182508359e-01 
8.300000000000e+01 -3.190389719277e+03 7.775836038465e-01 
8.350000000000e+01 -3.200471379765e+03 7.770512920440e-01 
8.400000000000e+01 -3.210509353270e+03 7.765212868933e-01 
8.450000000000e+01 -3.220504243232e+03 7.759935565306e-01 
8.500000000000e+01 -3.230456724638e+03 7.754680653140e-01 
8.550000000000e+01 -3.240367502732e+03 7.749447760054e-01 
8.600000000000e+01 -3.250237292640e+03 7.744236508453e-01 
8.650000000000e+01 -3.260066802415e+03 7.739309210479e-01 
8.700000000000e+01 -3.269856739075e+03 7.734414243114e-01 
8.750000000000e+01 -3.279607803607e+03 7.729538711671e-01 
8.800000000000e+01 -3.289320653824e+03 7.724682287169e-01 
8.850000000000e+01 -3.298995829987e+03 7.719844699511e-01 
8.900000000000e+01 -3.308633857805e+03 7.715025685844e-01 
8.950000000000e+01 -3.318235178961e+03 7.710225025351e-01 
9.000000000000e+01 -3.327800199964e+03 7.705442514786e-01 
9.050000000000e+01 -3.337329264603e+03 7.700677982272e-01 
9.100000000000e+01 -3.346822703588e+03 7.695931262458e-01 
9.150000000000e+01 -3.356280843656e+03 7.691202191975e-01 
9.200000000000e+01 -3.365703961272e+03 7.686490632605e-01 
9.250000000000e+01 -3.375092332039e+03 7.681796446545e-01 
9.300000000000e+01 -3.384446233044e+03 7.677119495250e-01 
9.350000000000e+01 -3.393765948508e+03 7.672459636608e-01 
9.400000000000e+01 -3.403051770070e+03 7.667816724794e-01 
9.450000000000e+01 -3.412303997947e+03 7.663190609697e-01 
9.500000000000e+01 -3.421522951710e+03 7.658581131523e-01 
9.550000000000e+01 -3.430708978557e+03 7.653988116665e-01 
9.600000000000e+01 -3.439862466033e+03 7.649411371334e-01 
9.650000000000e+01 -3.448983858421e+03 7.644850673370e-01 
9.700000000000e+01 -3.458073667868e+03 7.640305766675e-01 
9.750000000000e+01 -3.467132469510e+03 7.635776363657e-01 
9.800000000000e+01 -3.476160876753e+03 7.631262157600e-01 
9.850000000000e+01 -3.485159512569e+03 7.626762837010e-01 
9.900000000000e+01 -3.494128985506e+03 7.622278097615e-01 
9.950000000000e+01 -3.503069871143e+03 7.617854374936e-01 
1.000000000000e+02 -3.511982899638e+03 7.613622281874e-01 
1.005000000000e+02 -3.520868672675e+03 7.609392653980e-01 
1.010000000000e+02 -3.529727707823e+03 7.605175753128e-01 
1.015000000000e+02 -3.538560526199e+03 7.600971331266e-01 
1.020000000000e+02 -3.547367452465e+03 7.596779233913e-01 
1.025000000000e+02 -3.556148812720e+03 7.592599305845e-01 
1.030000000000e+02 -3.564904857145e+03 7.588431428000e-01 
1.035000000000e+02 -3.573635858343e+03 7.584275470609e-01 
1.040000000000e+02 -3.582341989643e+03 7.580131351199e-01 
1.045000000000e+02 -3.591023425393e+03 7.575998986780e-01 
1.050000000000e+02 -3.599680317280e+03 7.571878305155e-01 
1.055000000000e+02 -3.608312788216e+03 7.567769247827e-01 
1.060000000000e+02 -3.616920975563e+03 7.563671749407e-01 
1.065000000000e+02 -3.625505012435e+03 7.559585746532e-01 
1.070000000000e+02 -3.634065008956e+03 7.555511186791e-01 
1.075000000000e+02 -3.642601095440e+03 7.551448008148e-01 
1.080000000000e+02 -3.651113401190e+03 7.547396149054e-01 
1.085000000000e+02 -3.659602075853e+03 7.543355538270e-01 
1.090000000000e+02 -3.668067276339e+03 7.539326101103e-01 
1.095000000000e+02 -3.676509184423e+03 7.535307751020e-01 
1.100000000000e+02 -3.684928018836e+03 7.531300383891e-01 
1.105000000000e+02 -3.693324040964e+03 7.527303875282e-01 
1.110000000000e+02 -3.701697554309e+03 7.523318080710e-01 
1.115000000000e+02 -3.710048886713e+03 7.519342844113e-01 
1.120000000000e+02 -3.718378374529e+03 7.515378005382e-01 
1.125000000000e+02 -3.726686346703e+03 7.511423407940e-01 
1.130000000000e+02 -3.734973113073e+03 7.507478904308e-01 
1.135000000000e+02 -3.743238952401e+03 7.503544361806e-01 
1.140000000000e+02 -3.751484105800e+03 7.499623320107e-01 
1.145000000000e+02 -3.759708843377e+03 7.495957354043e-01 
1.150000000000e+02 -3.767913388450e+03 7.492281717240e-01 
1.155000000000e+02 -3.776097994513e+03 7.488615013095e-01 
1.160000000000e+02 -3.784262810085e+03 7.484957175013e-01 
1.165000000000e+02 -3.792407979940e+03 7.481308138136e-01 
1.170000000000e+02 -3.800533640191e+03 7.477667841488e-01 
1.175000000000e+02 -3.808639871754e+03 7.474036248837e-01 
1.180000000000e+02 -3.816726768878e+03 7.470413317953e-01 
1.185000000000e+02 -3.824794384951e+03 7.466799024933e-01 
1.190000000000e+02 -3.832842807361e+03 7.463193330615e-01 
1.195000000000e+02 -3.840872076070e+03 7.459596217112e-01 
1.200000000000e+02 -3.848882253610e+03 7.456007656401e-01 
1.205000000000e+02 -3.856873377807e+03 7.452427631545e-01 
1.210000000000e+02 -3.864845525631e+03 7.448856108048e-01 
1.215000000000e+02 -3.872798743568e+03 7.445293065094e-01 
1.220000000000e+02 -3.880733100290e+03 7.441738471910e-01 
1.225000000000e+02 -3.888648669435e+03 7.438192295505e-01 
1.230000000000e+02 -3.896545531731e+03 7.434654499709e-01 
1.235000000000e+02 -3.904423793594e+03 7.431125036840e-01 
1.240000000000e+02 -3.912283564573e+03 7.427603857818e-01 
1.245000000000e+02 -3.920124988732e+03 7.424090898089e-01 
1.250000000000e+02 -3.927948238229e+03 7.420586080517e-01 
1.255000000000e+02 -3.935753515942e+03 7.417089314201e-01 
1.260000000000e+02 -3.943541045947e+03 7.413600498747e-01 
1.265000000000e+02 -3.951311066056e+03 7.410119527609e-01 
1.270000000000e+02 -3.959063819938e+03 7.406646291620e-01 
1.275000000000e+02 -3.966799540841e+03 7.403180686289e-01 
1.280000000000e+02 -3.974518441452e+03 7.399722616336e-01 
1.285000000000e+02 -3.982220709619e+03 7.396271997614e-01 
1.290000000000e+02 -3.989906506520e+03 7.392828757924e-01 
1.295000000000e+02 -3.997575966407e+03 7.389392837128e-01 
1.300000000000e+02 -4.005229208480e+03 7.386052597657e-01 
1.305000000000e+02 -4.012866383774e+03 7.382786354612e-01 
1.310000000000e+02 -4.020487606988e+03 7.379524470315e-01 
1.315000000000e+02 -4.028092978247e+03 7.376269370597e-01 
1.320000000000e+02 -4.035682586509e+03 7.373021017387e-01 
1.325000000000e+02 -4.043256500236e+03 7.369779381390e-01 
1.330000000000e+02 -4.050814776352e+03 7.366544438246e-01 
1.335000000000e+02 -4.058357458704e+03 7.363316169194e-01 
1.340000000000e+02 -4.065884596252e+03 7.360094553276e-01 
1.345000000000e+02 -4.073396223241e+03 7.356879575841e-01 
1.350000000000e+02 -4.080892371548e+03 7.353671223246e-01 
1.355000000000e+02 -4.088373083064e+03 7.350469477558e-01 
1.360000000000e+02 -4.095838382971e+03 7.347274328004e-01 
1.365000000000e+02 -4.103288316730e+03 7.344085755120e-01 
1.370000000000e+02 -4.110722924702e+03 7.340903741634e-01 
1.375000000000e+02 -4.118142252956e+03 7.337728267825e-01 
1.380000000000e+02 -4.125546356680e+03 7.334559310070e-01 
1.385000000000e+02 -4.132935290463e+03 7.331396845005e-01 
1.390000000000e+02 -4.140309128381e+03 7.328240840918e-01 
1.395000000000e+02 -4.147667953908e+03 7.325091262078e-01 
1.400000000000e+02 -4.155011867934e+03 7.321948065298e-01 
1.405000000000e+02 -4.162340993512e+03 7.318811197903e-01 
1.410000000000e+02 -4.169655477564e+03 7.315680597001e-01 
1.415000000000e+02 -4.176955491130e+03 7.312556189378e-01 
1.420000000000e+02 -4.184241217923e+03 7.309437896400e-01 
1.425000000000e+02 -4.191512845690e+03 7.306325637708e-01 
1.430000000000e+02 -4.198770563550e+03 7.303219332359e-01 
1.435000000000e+02 -4.206014545301e+03 7.300118905971e-01 
1.440000000000e+02 -4.213244946408e+03 7.297024292011e-01 
1.445000000000e+02 -4.220461903513e+03 7.293935432003e-01 
1.450000000000e+02 -4.227665531469e+03 7.290852276796e-01 
1.455000000000e+02 -4.234855924088e+03 7.287774786247e-01 
1.460000000000e+02 -4.242033155237e+03 7.284702928747e-01 
1.465000000000e+02 -4.249197280263e+03 7.281636680613e-01 
1.470000000000e+02 -4.256348354255e+03 7.278711942870e-01 
1.475000000000e+02 -4.263486442155e+03 7.275828154341e-01 
1.480000000000e+02 -4.270611606095e+03 7.272949587373e-01 
1.485000000000e+02 -4.277723884226e+03 7.270076226238e-01 
1.490000000000e+02 -4.284823318331e+03 7.267208054057e-01 
1.495000000000e+02 -4.291909940272e+03 7.264345057960e-01 
1.500000000000e+02 -4.298983788087e+03 7.261487222577e-01 
1.505000000000e+02 -4.306044876894e+03 7.258634541808e-01 
1.510000000000e+02 -4.313093219890e+03 7.255787010323e-01 
1.515000000000e+02 -4.320128844172e+03 7.252944617170e-01 
1.520000000000e+02 -4.327151772592e+03 7.250107353118e-01 
1.525000000000e+02 -4.334162021070e+03 7.247275211736e-01 
1.530000000000e+02 -4.341159611240e+03 7.244448184284e-01 
1.535000000000e+02 -4.348144576461e+03 7.241626257280e-01 
1.540000000000e+02 -4.355116945006e+03 7.238809419303e-01 
1.545000000000e+02 -4.362076749334e+03 7.235997657239e-01 
1.550000000000e+02 -4.369024037042e+03 7.233190951851e-01 
1.555000000000e+02 -4.375958852765e+03 7.230389285110e-01 
1.560000000000e+02 -4.382881254902e+03 7.227592633416e-01 
1.565000000000e+02 -4.389791317491e+03 7.224800966852e-01 
1.570000000000e+02 -4.396689122697e+03 7.222014252220e-01 
1.575000000000e+02 -4.403574779739e+03 7.219232445386e-01 
1.580000000000e+02 -4.410448407029e+03 7.216455498508e-01 
1.585000000000e+02 -4.417310142999e+03 7.213683355650e-01 
1.590000000000e+02 -4.424160131533e+03 7.210915958682e-01 
1.595000000000e+02 -4.430998522872e+03 7.208153246903e-01 
1.600000000000e+02 -4.437825457540e+03 7.205395163545e-01 
1.605000000000e+02 -4.444641067162e+03 7.202641655433e-01 
1.610000000000e+02 -4.451445470930e+03 7.199892674418e-01 
1.615000000000e+02 -4.458238769968e+03 7.197148179653e-01 
1.620000000000e+02 -4.465021049063e+03 7.194408136888e-01 
1.625000000000e+02 -4.471792379122e+03 7.191672517483e-01 
1.630000000000e+02 -4.478552815168e+03 7.188941299214e-01 
1.635000000000e+02 -4.485302397827e+03 7.186214465673e-01 
1.640000000000e+02 -4.492041156802e+03 7.183492004863e-01 
1.645000000000e+02 -4.498769111955e+03 7.180773908764e-01 
1.650000000000e+02 -4.505486284690e+03 7.178135622228e-01 
1.655000000000e+02 -4.512192691458e+03 7.175534906993e-01 
1.660000000000e+02 -4.518888357922e+03 7.172936987592e-01 
1.665000000000e+02 -4.525573306159e+03 7.170343226839e-01 
1.670000000000e+02 -4.532247562762e+03 7.167753614416e-01 
1.675000000000e+02 -3.471559113013e+03 7.629602687542e-01 
1.680000000000e+02 -2.498082749575e+03 8.160722061928e-01 
1.685000000000e+02 -2.099563717040e+03 8.418404475124e-01 
1.690000000000e+02 -1.846705455016e+03 8.592952813549e-01 
1.695000000000e+02 -1.664295046507e+03 8.725988884881e-01 
1.700000000000e+02 -1.523210203792e+03 8.832270963497e-01 
1.705000000000e+02 -1.409102995120e+03 8.920178449367e-01 
1.710000000000e+02 -1.314302117351e+03 8.995087710804e-01 
1.715000000000e+02 -1.233798864096e+03 9.059522642168e-01 
1.720000000000e+02 -1.164153508162e+03 9.115738244795e-01 
1.725000000000e+02 -1.103260828767e+03 9.165194062686e-01 
1.730000000000e+02 -1.049440085269e+03 9.209889483156e-01 
1.735000000000e+02 -1.001475729141e+03 9.249796708064e-01 
1.740000000000e+02 -9.584243600102e+02 9.285617314794e-01 
1.745000000000e+02 -9.195842089627e+02 9.317928838161e-01 
1.750000000000e+02 -8.842248288750e+02 9.347489859004e-01 
1.755000000000e+02 -8.521149381148e+02 9.374524736907e-01 
1.760000000000e+02 -8.227471322301e+02 9.399245928659e-01 
1.765000000000e+02 -7.956914442053e+02 9.422017343856e-01 
1.770000000000e+02 -7.707816852110e+02 9.442985204793e-01 
1.775000000000e+02 -7.477812567227e+02 9.462343667275e-01 
1.780000000000e+02 -7.264302277759e+02 9.480311653758e-01 
1.785000000000e+02 -7.065196853330e+02 9.497065623889e-01 
1.790000000000e+02 -6.879350863488e+02 9.512704985379e-01 
1.795000000000e+02 -6.706856477482e+02 9.527222775541e-01 
1.800000000000e+02 -6.546139836551e+02 9.540747896295e-01 
1.805000000000e+02 -6.395845615549e+02 9.553394782599e-01 
1.810000000000e+02 -6.254859306150e+02 9.565257504033e-01 
1.815000000000e+02 -6.122243118715e+02 9.576415189082e-01 
1.820000000000e+02 -5.997215960880e+02 9.586933729770e-01 
1.825000000000e+02 -5.879953748015e+02 9.596568426198e-01 
1.830000000000e+02 -5.770390791483e+02 9.605569330025e-01 
1.835000000000e+02 -5.667713276818e+02 9.614003973566e-01 
1.840000000000e+02 -5.571255941325e+02 9.621927147240e-01 
1.845000000000e+02 -5.480449278378e+02 9.629385743918e-01 
1.850000000000e+02 -5.394804857435e+02 9.636419972683e-01 
1.855000000000e+02 -5.313894777025e+02 9.643065052438e-01 
1.860000000000e+02 -5.237343714516e+02 9.649351869133e-01 
1.865000000000e+02 -5.164818628785e+02 9.655307824689e-01 
1.870000000000e+02 -5.096023056417e+02 9.660957307850e-01 
1.875000000000e+02 -5.030690877669e+02 9.666322208038e-01 
1.880000000000e+02 -4.968762243693e+02 9.671305542237e-01 
1.885000000000e+02 -4.910958002444e+02 9.675852643423e-01 
1.890000000000e+02 -4.857009408305e+02 9.680096208463e-01 
1.895000000000e+02 -4.806559176903e+02 9.684064396443e-01 
1.900000000000e+02 -4.759317439368e+02 9.687780051477e-01 
1.905000000000e+02 -4.715005190116e+02 9.691265154481e-01 
1.910000000000e+02 -4.673391169379e+02 9.694537923800e-01 
1.915000000000e+02 -6.010479306347e+02 9.586254849958e-01 
1.920000000000e+02 -8.339411333962e+02 9.391050435092e-01 
1.925000000000e+02 -9.618572215143e+02 9.284219550734e-01 
1.930000000000e+02 -1.058878482288e+03 9.203693750742e-01 
1.935000000000e+02 -1.139436567961e+03 9.137606673132e-01 
1.940000000000e+02 -1.209464009197e+03 9.080972898616e-01 
1.945000000000e+02 -1.271930652579e+03 9.031000021389e-01 
1.950000000000e+02 -1.328651038412e+03 8.985903735597e-01 
1.955000000000e+02 -1.380844185304e+03 8.944671412624e-01 
1.960000000000e+02 -1.429350756433e+03 8.906924818034e-01 
1.965000000000e+02 -1.474777828613e+03 8.871946156366e-01 
1.970000000000e+02 -1.517577979257e+03 8.839159150007e-01 
1.975000000000e+02 -1.558109327922e+03 8.808355470703e-01 
1.980000000000e+02 -1.596653714290e+03 8.779061852024e-01 
1.985000000000e+02 -1.633435968274e+03 8.751762519892e-01 
1.990000000000e+02 -1.668647830391e+03 8.725705838674e-01 
1.995000000000e+02 -1.702446290090e+03 8.700707435194e-01 
2.000000000000e+02 -1.734963508293e+03 8.676975204590e-01 
2.005000000000e+02 -1.766317028556e+03 8.654087205287e-01 
2.010000000000e+02 -1.796607090175e+03 8.631975518022e-01 
2.015000000000e+02 -1.825919664807e+03 8.611082132252e-01 
2.020000000000e+02 -1.854331883735e+03 8.590909518348e-01 
2.025000000000e+02 -1.881911610704e+03 8.571327964569e-01 
2.030000000000e+02 -1.908719694394e+03 8.552374636626e-01 
2.035000000000e+02 -1.934832897484e+03 8.534095472612e-01 
2.040000000000e+02 -1.960309496583e+03 8.516261920446e-01 
2.045000000000e+02 -1.985194837204e+03 8.498842240347e-01 
2.050000000000e+02 -2.009526292936e+03 8.482128599811e-01 
2.055000000000e+02 -2.033317111403e+03 8.466331531931e-01 
2.060000000000e+02 -2.056589089018e+03 8.450878972253e-01 
2.065000000000e+02 -2.079366041449e+03 8.435755106309e-01 
2.070000000000e+02 -2.101671379935e+03 8.420944388934e-01 
2.075000000000e+02 -2.123527327755e+03 8.406432063931e-01 
2.080000000000e+02 -2.144954583741e+03 8.392204387419e-01 
2.085000000000e+02 -2.165972154075e+03 8.378248739488e-01 
2.090000000000e+02 -2.186597831719e+03 8.364553305718e-01 
2.095000000000e+02 -2.206848408745e+03 8.351106936239e-01 
2.100000000000e+02 -2.226739888180e+03 8.337899005072e-01 
2.105000000000e+02 -2.246287412939e+03 8.324919457369e-01 
2.110000000000e+02 -2.265506793891e+03 8.312632130480e-01 
2.115000000000e+02 -2.284415946136e+03 8.300681574878e-01 
2.120000000000e+02 -2.303029490378e+03 8.288917840887e-01 
2.125000000000e+02 -2.321360986794e+03 8.277332358632e-01 
2.130000000000e+02 -2.339422458263e+03 8.265917529930e-01 
2.135000000000e+02 -2.357225217968e+03 8.254666204945e-01 
2.140000000000e+02 -2.374779727713e+03 8.243571771949e-01 
2.145000000000e+02 -2.392095426464e+03 8.232628265696e-01 
2.150000000000e+02 -2.409180974152e+03 8.221830213239e-01 
2.155000000000e+02 -2.426044427908e+03 8.211172522563e-01 
2.160000000000e+02 -2.442693388399e+03 8.200650390109e-01 
2.165000000000e+02 -2.459134957470e+03 8.190259327585e-01 
2.170000000000e+02 -2.475375648330e+03 8.179995218743e-01 
2.175000000000e+02 -2.491421328717e+03 8.169854355294e-01 
2.180000000000e+02 -2.507277353465e+03 8.160097066705e-01 
2.185000000000e+02 -2.522949815230e+03 8.150818986205e-01 
2.190000000000e+02 -2.538444175483e+03 8.141646341449e-01 
2.195000000000e+02 -2.553765346462e+03 8.132576223757e-01 
2.200000000000e+02 -2.568917930339e+03 8.123605908704e-01 
2.205000000000e+02 -2.583906119247e+03 8.114732914630e-01 
2.210000000000e+02 -2.598733947821e+03 8.105954853055e-01 
2.215000000000e+02 -2.613405307446e+03 8.097269420301e-01 
2.220000000000e+02 -2.627923996220e+03 8.088674367900e-01 
2.225000000000e+02 -2.642293767399e+03 8.080167473922e-01 
2.230000000000e+02 -2.656518308590e+03 8.071746555304e-01 
2.235000000000e+02 -2.670601362359e+03 8.063409396415e-01 
2.240000000000e+02 -2.684546726155e+03 8.055153749133e-01 
2.245000000000e+02 -2.698358367318e+03 8.046977264727e-01 
2.250000000000e+02 -2.712040403052e+03 8.038877505750e-01 
2.255000000000e+02 -2.725596992161e+03 8.030852010155e-01 
2.260000000000e+02 -2.739032203033e+03 8.022898369455e-01 
2.265000000000e+02 -2.752349849862e+03 8.015050253424e-01 
2.270000000000e+02 -2.765553592308e+03 8.007673517012e-01 
2.275000000000e+02 -2.778646932552e+03 8.000341255122e-01 
2.280000000000e+02 -2.791633053056e+03 7.993069035530e-01 
2.285000000000e+02 -2.804514845811e+03 7.985855238785e-01 
2.290000000000e+02 -2.817294832141e+03 7.978698453033e-01 
2.295000000000e+02 -2.829975335471e+03 7.971597377198e-01 
2.300000000000e+02 -2.842558504928e+03 7.964550807807e-01 
2.305000000000e+02 -2.855046340769e+03 7.957557624747e-01 
2.310000000000e+02 -2.867440672532e+03 7.950616803515e-01 
2.315000000000e+02 -2.879743336746e+03 7.943727315646e-01 
2.320000000000e+02 -2.891956019296e+03 7.936888217078e-01 
2.325000000000e+02 -2.904080410923e+03 7.930098560987e-01 
2.330000000000e+02 -2.916118154066e+03 7.923357427614e-01 
2.335000000000e+02 -2.928070937313e+03 7.916663871328e-01 
2.340000000000e+02 -2.939940447380e+03 7.910016947561e-01 
2.345000000000e+02 -2.951728453165e+03 7.903415665697e-01 
2.350000000000e+02 -2.963436837636e+03 7.896858971231e-01 
2.355000000000e+02 -2.975067548337e+03 7.890345773511e-01 
2.360000000000e+02 -2.986622533897e+03 7.883874981291e-01 
2.365000000000e+02 -2.998103681966e+03 7.877445537493e-01 
2.370000000000e+02 -3.009512891906e+03 7.871338873589e-01 
2.375000000000e+02 -3.020852152678e+03 7.865351749209e-01 
2.380000000000e+02 -3.032123283075e+03 7.859400597392e-01 
2.385000000000e+02 -3.043327893535e+03 7.853484567660e-01 
2.390000000000e+02 -3.054467420182e+03 7.847602901783e-01 
2.395000000000e+02 -3.065543146636e+03 7.841754922050e-01 
2.400000000000e+02 -3.076556229577e+03 7.835940017763e-01 
2.405000000000e+02 -3.087507721829e+03 7.830157633059e-01 
2.410000000000e+02 -3.098398592443e+03 7.824407256298e-01 
2.415000000000e+02 -3.109229744202e+03 7.818688410828e-01 
2.420000000000e+02 -3.120002029236e+03 7.813000646736e-01 
2.425000000000e+02 -3.130716262274e+03 7.807343533852e-01 
2.430000000000e+02 -3.141373232228e+03 7.801716655637e-01 
2.435000000000e+02 -3.151973732774e+03 7.796119593024e-01 
2.440000000000e+02 -3.162518530548e+03 7.790551941235e-01 
2.445000000000e+02 -3.173008412927e+03 7.785013284527e-01 
2.450000000000e+02 -3.183444171338e+03 7.779503205022e-01 
2.455000000000e+02 -3.193826640454e+03 7.774021261995e-01 
2.460000000000e+02 -3.204156731046e+03 7.768566974533e-01 
2.465000000000e+02 -3.214435398876e+03 7.763139837976e-01 
2.470000000000e+02 -3.224663647894e+03 7.757739322219e-01 
2.475000000000e+02 -3.234842485012e+03 7.752364895606e-01 
2.480000000000e+02 -3.244972900100e+03 7.747016035486e-01 
2.485000000000e+02 -3.255055836011e+03 7.741810458147e-01 
2.490000000000e+02 -3.265092159979e+03 7.736796465266e-01 
2.495000000000e+02 -3.275082764874e+03 7.731801165182e-01 
2.500000000000e+02 -3.285028490107e+03 7.726828304673e-01 
2.505000000000e+02 -3.294930078176e+03 7.721877512518e-01 
2.510000000000e+02 -3.304788191175e+03 7.716948457691e-01 
2.515000000000e+02 -3.314603428810e+03 7.712040840357e-01 
2.520000000000e+02 -3.324376377104e+03 7.707154367504e-01 
2.525000000000e+02 -3.334107543601e+03 7.702288785384e-01 