 TITLE = "Time curves in points"
 VARIABLES = "TIME"  "TEMPERATURE1"  p_(1st_Invariant)  q_(2nd_Invariant)   Effective_Strain
 ZONE T="POINT=POINTp0_5"
0.000000000000e+00 0.000000000000e+00 -0.000000000000e+00 0.000000000000e+00  0.000000000000e+00
1.000000000000e-04 -2.082238808043e-05 -2.967891028909e+00 4.879864077214e+03  1.269350013908e-06
2.000000000000e-04 -3.771132520569e-05 -7.628186660672e+00 9.827987589378e+03  2.556429658642e-06
3.000000000000e-04 -5.102484703912e-05 -1.383098663267e+01 1.483906452152e+04  3.859861084547e-06
4.000000000000e-04 -6.110127668535e-05 -2.143404358425e+01 1.990810325391e+04  5.178348053120e-06
5.000000000000e-04 -6.825979721725e-05 -3.030256636581e+01 2.503041050102e+04  6.510671772846e-06
1.500000000000e-03 -3.138701202943e-05 -1.603293226845e+02 7.610725704267e+04  1.979509806886e-05
2.500000000000e-03 1.874806230262e-05 -2.958972745111e+02 1.293680529633e+05  3.364744469035e-05
3.500000000000e-03 4.846020908644e-05 -4.189374282883e+02 1.835016649675e+05  4.772691913738e-05
4.500000000000e-03 5.159600607385e-05 -5.242465343913e+02 2.377979372996e+05  6.184890889292e-05
5.500000000000e-03 3.495380610730e-05 -6.136277396193e+02 2.919121136759e+05  7.592373984225e-05
1.550000000000e-02 -9.302664466304e-06 -1.323877775704e+03 8.016147317712e+05  2.084950696415e-04
2.550000000000e-02 -7.262393125984e-06 -2.026629586703e+03 1.310159200289e+06  3.407643313685e-04
3.550000000000e-02 -8.413299838139e-06 -2.700500353733e+03 1.815525316164e+06  4.722068435038e-04
4.550000000000e-02 -1.325354418213e-05 -3.345392720465e+03 2.318311663041e+06  6.029783317887e-04
5.550000000000e-02 -1.026435842277e-05 -3.969642377629e+03 2.819045424049e+06  7.332160719384e-04
1.555000000000e-01 3.641602111430e-01 -1.225205752404e+05 7.470326177601e+06  1.942874030719e-03
2.555000000000e-01 1.464676313335e+00 -4.680320313471e+05 1.155782270299e+07  3.005837183195e-03
3.555000000000e-01 3.401181202106e+00 -1.070775013643e+06 1.492330298547e+07  3.881023840446e-03
4.555000000000e-01 6.050458685252e+00 -1.892535868435e+06 1.756603956377e+07  4.568271363935e-03
5.555000000000e-01 9.204850135562e+00 -2.868666338305e+06 1.956940478419e+07  5.089263875067e-03
5.555000000000e-01 9.204850135562e+00 -2.868666338256e+06 1.956940478221e+07  5.089263874550e-03
1.555500000000e+00 3.799388597725e+01 -1.072291333851e+07 2.208760723598e+07  5.744302788790e-03
2.555500000000e+00 5.883507829129e+01 -1.520512983100e+07 2.067836736674e+07  5.377875542434e-03
3.555500000000e+00 7.371971985483e+01 -1.737161748260e+07 1.876463197325e+07  4.880183159772e-03
4.555500000000e+00 8.468268637711e+01 -1.819087556154e+07 1.711156725175e+07  4.450258350756e-03
5.555500000000e+00 9.306037447701e+01 -1.826738286756e+07 1.581174651081e+07  4.112196559089e-03
6.555500000000e+00 9.967863996076e+01 -1.794553202151e+07 1.480984065924e+07  3.851615524084e-03
7.555500000000e+00 1.050545358484e+02 -1.741711900285e+07 1.403462603058e+07  3.649993689951e-03
8.555500000000e+00 1.095224271755e+02 -1.678885591399e+07 1.342752424832e+07  3.492096279725e-03
9.555500000000e+00 1.133063483666e+02 -1.612034942995e+07 1.294510427923e+07  3.366627453134e-03
1.055550000000e+01 1.165615363538e+02 -1.544490254113e+07 1.255607714635e+07  3.265449192601e-03
1.155550000000e+01 1.193988442314e+02 -1.478092797089e+07 1.223795998098e+07  3.182713833768e-03
1.255550000000e+01 1.218995577769e+02 -1.413829575864e+07 1.197446974092e+07  3.114186246737e-03
1.355550000000e+01 1.241246683096e+02 -1.352192206519e+07 1.175366559069e+07  3.056760694147e-03
1.455550000000e+01 1.261209133710e+02 -1.293384660520e+07 1.156667690121e+07  3.008129991574e-03
1.555550000000e+01 1.279247238603e+02 -1.237443297104e+07 1.140681337616e+07  2.966554052927e-03
1.655550000000e+01 1.295649560815e+02 -1.184309006176e+07 1.126896320931e+07  2.930703351801e-03
1.755550000000e+01 1.310648044627e+02 -1.133870543041e+07 1.114917656512e+07  2.899550584511e-03
1.855550000000e+01 1.324431009275e+02 -1.085989157427e+07 1.104434157695e+07  2.872286398509e-03
1.955550000000e+01 1.337153529025e+02 -1.040515656062e+07 1.095200547654e+07  2.848272867047e-03
2.055550000000e+01 1.348944453254e+02 -9.972990539184e+06 1.087020286085e+07  2.826998822725e-03
2.155550000000e+01 1.359911810718e+02 -9.561919550368e+06 1.079734432634e+07  2.808050891356e-03
2.255550000000e+01 1.370146927896e+02 -9.170535807941e+06 1.073213333243e+07  2.791091868885e-03
2.355550000000e+01 1.379727597868e+02 -8.797513171897e+06 1.067350343434e+07  2.775844395893e-03
2.455550000000e+01 1.388720546418e+02 -8.441613522259e+06 1.062057073790e+07  2.762078591658e-03
2.555550000000e+01 1.397183371815e+02 -8.101687603397e+06 1.057259733369e+07  2.749602543567e-03
2.655550000000e+01 1.405166085733e+02 -7.776672615531e+06 1.052896310819e+07  2.738254975645e-03
2.755550000000e+01 1.412712348479e+02 -7.465587966244e+06 1.048914364365e+07  2.727899500489e-03
2.855550000000e+01 1.419860467568e+02 -7.167530092863e+06 1.045269294641e+07  2.718420127294e-03
2.955550000000e+01 1.426644211279e+02 -6.881666897692e+06 1.041922954976e+07  2.709717647278e-03
3.055550000000e+01 1.433093476324e+02 -6.607232152639e+06 1.038842554912e+07  2.701706781909e-03
3.155550000000e+01 1.439234839501e+02 -6.343520078642e+06 1.035999775142e+07  2.694313881122e-03
3.255550000000e+01 1.445092016381e+02 -6.089880205289e+06 1.033370042312e+07  2.687475037117e-03
3.355550000000e+01 1.450686244976e+02 -5.845712581255e+06 1.030931949598e+07  2.681134577512e-03
3.455550000000e+01 1.456036608428e+02 -5.610463343745e+06 1.028666765930e+07  2.675243788773e-03
3.555550000000e+01 1.461160307853e+02 -5.383620664965e+06 1.026558048481e+07  2.669759908514e-03
3.655550000000e+01 1.466072894167e+02 -5.164711049754e+06 1.024591299377e+07  2.664645232623e-03
3.755550000000e+01 1.470788465980e+02 -4.953295968675e+06 1.022753699837e+07  2.659866423772e-03
3.855550000000e+01 1.475319839272e+02 -4.748968810110e+06 1.021033880758e+07  2.655393914879e-03
3.955550000000e+01 1.479678693476e+02 -4.551352113065e+06 1.019421723457e+07  2.651201390815e-03
4.055550000000e+01 1.483875697752e+02 -4.360095064117e+06 1.017908196524e+07  2.647265364098e-03
4.155550000000e+01 1.487920620536e+02 -4.174871236250e+06 1.016485220781e+07  2.643564823778e-03
4.255550000000e+01 1.491822424932e+02 -3.995376531021e+06 1.015145539050e+07  2.640080896489e-03
4.355550000000e+01 1.495589352046e+02 -3.821327335276e+06 1.013882631755e+07  2.636796627334e-03
4.455550000000e+01 1.499228994023e+02 -3.652458833583e+06 1.012690614371e+07  2.633696712863e-03
4.555550000000e+01 1.502748358266e+02 -3.488523487827e+06 1.011564170481e+07  2.630767327110e-03
4.655550000000e+01 1.506153924053e+02 -3.329289653551e+06 1.010498481103e+07  2.627995937697e-03
4.755550000000e+01 1.509451692605e+02 -3.174540333075e+06 1.009489174415e+07  2.625371175293e-03
4.855550000000e+01 1.512647231474e+02 -3.024072030817e+06 1.008532275082e+07  2.622882701602e-03
4.955550000000e+01 1.515745713992e+02 -2.877693717464e+06 1.007624156388e+07  2.620521084952e-03
5.055550000000e+01 1.518751954438e+02 -2.735225888517e+06 1.006761509485e+07  2.618277720375e-03
5.155550000000e+01 1.521670439430e+02 -2.596499702645e+06 1.005941306707e+07  2.616144734145e-03
5.255550000000e+01 1.524505356044e+02 -2.461356196056e+06 1.005160772971e+07  2.614114909380e-03
5.355550000000e+01 1.527260617026e+02 -2.329645567152e+06 1.004417362771e+07  2.612181626285e-03
5.455550000000e+01 1.529939883471e+02 -2.201226519440e+06 1.003708735585e+07  2.610338798146e-03
5.555550000000e+01 1.532546477094e+02 -2.075963002522e+06 1.003032216632e+07  2.608579468977e-03
5.655550000000e+01 1.535083757409e+02 -1.953733113049e+06 1.002386757827e+07  2.606900913049e-03
5.755550000000e+01 1.537554745732e+02 -1.834417261529e+06 1.001770223454e+07  2.605297576392e-03
5.855550000000e+01 1.539962267782e+02 -1.717902075285e+06 1.001180823844e+07  2.603764804833e-03
5.955550000000e+01 1.542308987145e+02 -1.604080399137e+06 1.000616960133e+07  2.602298440394e-03
6.055550000000e+01 1.544597416563e+02 -1.492850794559e+06 1.000077167815e+07  2.600894674510e-03
6.155550000000e+01 1.546829927504e+02 -1.384117100644e+06 9.995600909317e+06  2.599549980893e-03
6.255550000000e+01 1.549008759479e+02 -1.277788066061e+06 9.990644756437e+06  2.598261098930e-03
6.355550000000e+01 1.551136028948e+02 -1.173777014582e+06 9.985891519597e+06  2.597024985974e-03
6.455550000000e+01 1.553213737665e+02 -1.072001548623e+06 9.981330267922e+06  2.595838799316e-03
6.555550000000e+01 1.555243780442e+02 -9.723832890611e+05 9.976950888069e+06  2.594699909024e-03
6.655550000000e+01 1.557227952319e+02 -8.748476182951e+05 9.972743864329e+06  2.593605840437e-03
6.755550000000e+01 1.559167955182e+02 -7.793234561402e+05 9.968700330093e+06  2.592554287748e-03
6.855550000000e+01 1.561065403864e+02 -6.857430493707e+05 9.964811986216e+06  2.591543092753e-03
6.955550000000e+01 1.562921831777e+02 -5.940417720842e+05 9.961071046628e+06  2.590570230606e-03
7.055550000000e+01 1.564738696103e+02 -5.041579490226e+05 9.957470260132e+06  2.589633815655e-03
7.155550000000e+01 1.566517382594e+02 -4.160326817468e+05 9.954002743106e+06  2.588732057789e-03
7.255550000000e+01 1.568259210006e+02 -3.296096890580e+05 9.950662074438e+06  2.587863287088e-03
7.355550000000e+01 1.569965434204e+02 -2.448351681617e+05 9.947442234993e+06  2.587025938335e-03
7.455550000000e+01 1.571637251965e+02 -1.616576515281e+05 9.944337543695e+06  2.586218534142e-03
7.555550000000e+01 1.573275804503e+02 -8.002787850347e+04 9.941342634773e+06  2.585439679091e-03
7.655550000000e+01 1.574882180739e+02 1.013209209590e+02 9.938452477527e+06  2.584688064965e-03
7.755550000000e+01 1.576457420341e+02 7.877513948987e+04 9.935662321114e+06  2.583962456295e-03
7.855550000000e+01 1.578002516554e+02 1.560368995397e+05 9.932967654409e+06  2.583261679915e-03
7.955550000000e+01 1.579518418827e+02 2.319281457932e+05 9.930364265482e+06  2.582584640553e-03
8.055550000000e+01 1.581006035265e+02 3.064887434438e+05 9.927848118928e+06  2.581930288744e-03
8.155550000000e+01 1.582466234918e+02 3.797569577210e+05 9.925415445484e+06  2.581297644315e-03
8.255550000000e+01 1.583899849908e+02 4.517695403274e+05 9.923062646119e+06  2.580685771332e-03
8.355550000000e+01 1.585307677426e+02 5.225618041385e+05 9.920786313032e+06  2.580093783538e-03
8.455550000000e+01 1.586690481594e+02 5.921676885266e+05 9.918583257341e+06  2.579520851763e-03
8.555550000000e+01 1.588048995207e+02 6.606198373115e+05 9.916450384542e+06  2.578966171183e-03
8.655550000000e+01 1.589383921363e+02 7.279496523051e+05 9.914384822625e+06  2.578428994981e-03
8.755550000000e+01 1.590695934995e+02 7.941873577547e+05 9.912383809425e+06  2.577908604842e-03
8.855550000000e+01 1.591985684306e+02 8.593620539743e+05 9.910444754276e+06  2.577404327091e-03
8.955550000000e+01 1.593253792110e+02 9.235017752446e+05 9.908565101710e+06  2.576915497101e-03
9.055550000000e+01 1.594500857098e+02 9.866335294994e+05 9.906742572202e+06  2.576441522189e-03
9.155550000000e+01 1.595727455029e+02 1.048783360010e+06 9.904974819813e+06  2.575981792142e-03
9.255550000000e+01 1.596934139843e+02 1.109976372129e+06 9.903259786600e+06  2.575535771947e-03
9.355550000000e+01 1.598121444714e+02 1.170236791342e+06 9.901595374097e+06  2.575102915796e-03
9.455550000000e+01 1.599289883038e+02 1.229587992687e+06 9.899979661254e+06  2.574682724173e-03
9.555550000000e+01 1.600439949372e+02 1.288052543279e+06 9.898410780118e+06  2.574274711296e-03
9.655550000000e+01 1.601572120305e+02 1.345652235573e+06 9.896886965807e+06  2.573878418224e-03
9.755550000000e+01 1.602686855296e+02 1.402408121522e+06 9.895406534865e+06  2.573493407191e-03
