 TITLE = "Time curves in points"
 VARIABLES = "TIME"  "PRESSURE1"  "DISPLACEMENT_X1"  "DISPLACEMENT_Y1"  "STRESS_XX"  "STRESS_XY"  "STRESS_YY"  "STRESS_ZZ"  p_(1st_Invariant)  q_(2nd_Invariant)   Effective_Strain
 ZONE T="POINT=POINTp0_5"
0.000000000000e+00 0.000000000000e+00 0.000000000000e+00 0.000000000000e+00 0.000000000000e+00 0.000000000000e+00 0.000000000000e+00 0.000000000000e+00 -0.000000000000e+00 0.000000000000e+00  0.000000000000e+00
1.000000000000e-04 5.759368010632e+00 2.154586907565e-07 0.000000000000e+00 -3.249754655088e+03 4.941630287415e+01 1.619521266247e+03 1.639137061928e+03 -2.967891028909e+00 4.879864077214e+03  1.269350013908e-06
2.000000000000e-04 1.423347090398e+01 4.339164219390e-07 0.000000000000e+00 -6.543334074704e+03 9.841956012337e+01 3.262364113797e+03 3.303854520889e+03 -7.628186660672e+00 9.827987589378e+03  2.556429658642e-06
3.000000000000e-04 2.517316486634e+01 6.551396689579e-07 0.000000000000e+00 -9.877349439580e+03 1.470389692190e+02 4.926702730959e+03 4.992139668518e+03 -1.383098663267e+01 1.483906452152e+04  3.859861084547e-06
4.000000000000e-04 3.834222063362e+01 8.789088426467e-07 0.000000000000e+00 -1.324861403792e+04 1.953034940145e+02 6.610819608802e+03 6.702096559875e+03 -2.143404358425e+01 1.990810325391e+04  5.178348053120e-06
5.000000000000e-04 5.351705928235e+01 1.105017615984e-06 0.000000000000e+00 -1.665413273632e+04 2.432417348400e+02 8.313100400848e+03 8.431940034566e+03 -3.030256636581e+01 2.503041050102e+04  6.510671772846e-06
1.500000000000e-03 2.657319357281e+02 3.358897385054e-06 0.000000000000e+00 -5.057100737520e+04 6.849589981302e+02 2.530024635194e+04 2.575174899131e+04 -1.603293226845e+02 7.610725704267e+04  1.979509806886e-05
2.500000000000e-03 4.823504451479e+02 5.709586357656e-06 0.000000000000e+00 -8.593820484872e+04 1.139972699335e+03 4.301558871838e+04 4.381030795387e+04 -2.958972745111e+02 1.293680529633e+05  3.364744469035e-05
3.500000000000e-03 6.757359425262e+02 8.099441586679e-06 0.000000000000e+00 -1.218996984606e+05 1.608145995317e+03 6.101757056501e+04 6.213894018043e+04 -4.189374282883e+02 1.835016649675e+05  4.772691913738e-05
4.500000000000e-03 8.395241663029e+02 1.049723853870e-05 0.000000000000e+00 -1.579872539793e+05 2.087919579041e+03 7.906931156210e+04 8.049068202036e+04 -5.242465343913e+02 2.377979372996e+05  6.184890889292e-05
5.500000000000e-03 9.781224278088e+02 1.288772692240e-05 0.000000000000e+00 -1.939692535970e+05 2.575921781008e+03 9.705729764127e+04 9.875283917462e+04 -6.136277396193e+02 2.919121136759e+05  7.592373984225e-05
1.550000000000e-02 2.102734926684e+03 3.542092971512e-05 0.000000000000e+00 -5.330167519742e+05 7.180450826133e+03 2.665187418971e+05 2.704696434042e+05 -1.323877775704e+03 8.016147317712e+05  2.084950696415e-04
2.550000000000e-02 3.216895313938e+03 5.790950932294e-05 0.000000000000e+00 -8.713006146497e+05 1.173420421184e+04 4.356359910237e+05 4.417445123861e+05 -2.026629586703e+03 1.310159200289e+06  3.407643313685e-04
3.550000000000e-02 4.293243294737e+03 8.026251641465e-05 0.000000000000e+00 -1.207494983413e+06 1.625568804170e+04 6.037183583447e+05 6.118781261299e+05 -2.700500353733e+03 1.815525316164e+06  4.722068435038e-04
4.550000000000e-02 5.333702956603e+03 1.025066763022e-04 0.000000000000e+00 -1.541998934597e+06 2.075206785657e+04 7.709655076312e+05 7.810696051277e+05 -3.345392720465e+03 2.318311663041e+06  6.029783317887e-04
5.550000000000e-02 6.357611994974e+03 1.246678834786e-04 0.000000000000e+00 -1.875155470349e+06 2.523564146160e+04 9.375764123605e+05 9.494879851214e+05 -3.969642377629e+03 2.819045424049e+06  7.332160719384e-04
1.555000000000e-01 2.438155328272e+05 3.380777045394e-04 0.000000000000e+00 -4.857179055605e+06 6.134090805653e+04 2.602104776371e+06 2.622636004956e+06 -1.225205752404e+05 7.470326177601e+06  1.942874030719e-03
2.555000000000e-01 9.402492685060e+05 5.409903087519e-04 0.000000000000e+00 -7.236484170993e+06 8.908563797349e+04 4.308393652384e+06 4.332186612651e+06 -4.680320313471e+05 1.155782270299e+07  3.005837183195e-03
3.555000000000e-01 2.157183685969e+06 7.282343593402e-04 0.000000000000e+00 -8.877259195063e+06 1.109544330129e+05 6.032904476170e+06 6.056679759821e+06 -1.070775013643e+06 1.492330298547e+07  3.881023840446e-03
4.555000000000e-01 3.816977678411e+06 8.973620588656e-04 0.000000000000e+00 -9.817208983656e+06 1.285816772827e+05 7.736361645328e+06 7.758454943633e+06 -1.892535868435e+06 1.756603956377e+07  4.568271363935e-03
5.555000000000e-01 5.788590017395e+06 1.048009142891e-03 0.000000000000e+00 -1.017655679549e+07 1.427769244162e+05 9.381395537345e+06 9.401160273058e+06 -2.868666338305e+06 1.956940478419e+07  5.089263875067e-03
5.555000000000e-01 5.788590017781e+06 1.048009143260e-03 0.000000000000e+00 -1.017655679422e+07 1.427769243280e+05 9.381395540146e+06 9.401160268843e+06 -2.868666338256e+06 1.956940478221e+07  5.089263874550e-03
1.555500000000e+00 2.201372774342e+07 1.685236322952e-03 0.000000000000e+00 -4.000854258940e+06 1.696805150110e+05 1.808212718283e+07 1.808746709165e+07 -1.072291333851e+07 2.208760723598e+07  5.744302788790e-03
2.555500000000e+00 3.178114797002e+07 1.956779957867e-03 0.000000000000e+00 1.420833952003e+06 1.628339779999e+05 2.209832041652e+07 2.209623512447e+07 -1.520512983100e+07 2.067836736674e+07  5.377875542434e-03
3.555500000000e+00 3.707078055284e+07 2.069930512839e-03 0.000000000000e+00 4.863042040487e+06 1.487187662064e+05 2.362891614663e+07 2.362289426069e+07 -1.737161748260e+07 1.876463197325e+07  4.880183159772e-03
4.555500000000e+00 3.970935010199e+07 2.111793596087e-03 0.000000000000e+00 6.784234327453e+06 1.352657236238e+05 2.389823004413e+07 2.389016231302e+07 -1.819087556154e+07 1.711156725175e+07  4.450258350756e-03
5.555500000000e+00 4.084064965164e+07 2.120338539913e-03 0.000000000000e+00 7.727196440296e+06 1.242650092749e+05 2.354194900849e+07 2.353300315388e+07 -1.826738286756e+07 1.581174651081e+07  4.112196559089e-03
6.555500000000e+00 4.112193311979e+07 2.112958024548e-03 0.000000000000e+00 8.073209844449e+06 1.156750870519e+05 2.288622255428e+07 2.287716366580e+07 -1.794553202151e+07 1.480984065924e+07  3.851615524084e-03
7.555500000000e+00 4.092491417024e+07 2.098005870385e-03 0.000000000000e+00 8.061550083203e+06 1.090326855715e+05 2.209923803281e+07 2.209056889253e+07 -1.741711900285e+07 1.403462603058e+07  3.649993689951e-03
8.555500000000e+00 4.046133840816e+07 2.079655275014e-03 0.000000000000e+00 7.837977802769e+06 1.038705572135e+05 2.126827395951e+07 2.126031597969e+07 -1.678885591399e+07 1.342752424832e+07  3.492096279725e-03
9.555500000000e+00 3.985354849235e+07 2.060050116286e-03 0.000000000000e+00 7.491050529610e+06 9.981419044032e+04 2.043852411782e+07 2.043147364241e+07 -1.612034942995e+07 1.294510427923e+07  3.366627453134e-03
1.055550000000e+01 3.917324698091e+07 2.040307027961e-03 0.000000000000e+00 7.074928149644e+06 9.658428476861e+04 1.963290504099e+07 1.962687443274e+07 -1.544490254113e+07 1.255607714635e+07  3.265449192601e-03
1.155550000000e+01 3.846290011197e+07 2.021004286693e-03 0.000000000000e+00 6.623010184142e+06 9.397731238392e+04 1.886236381246e+07 1.885740991607e+07 -1.478092797089e+07 1.223795998098e+07  3.182713833768e-03
1.255550000000e+01 3.774775844194e+07 2.002430431118e-03 0.000000000000e+00 6.156020737146e+06 9.184544531702e+04 1.813136127343e+07 1.812750526533e+07 -1.413829575864e+07 1.197446974092e+07  3.114186246737e-03
1.355550000000e+01 3.704274304472e+07 1.984715038743e-03 0.000000000000e+00 5.686835579606e+06 9.008064548810e+04 1.744084578501e+07 1.743808483097e+07 -1.352192206519e+07 1.175366559069e+07  3.056760694147e-03
1.455550000000e+01 3.635650225510e+07 1.967900542400e-03 0.000000000000e+00 5.223407481678e+06 8.860322634469e+04 1.678990632036e+07 1.678822601355e+07 -1.293384660520e+07 1.156667690121e+07  3.008129991574e-03
1.555550000000e+01 3.569380417719e+07 1.951980968051e-03 0.000000000000e+00 4.770559714036e+06 8.735361940786e+04 1.617668043866e+07 1.617605876042e+07 -1.237443297104e+07 1.140681337616e+07  2.966554052927e-03
1.655550000000e+01 3.505701404007e+07 1.936924671627e-03 0.000000000000e+00 4.331108655301e+06 8.628677282023e+04 1.559887527481e+07 1.559928625515e+07 -1.184309006176e+07 1.126896320931e+07  2.930703351801e-03
1.755550000000e+01 3.444701157763e+07 1.922687669857e-03 0.000000000000e+00 3.906574784192e+06 8.536823124923e+04 1.505406247771e+07 1.505547902933e+07 -1.133870543041e+07 1.114917656512e+07  2.899550584511e-03
1.855550000000e+01 3.386373590234e+07 1.909219117894e-03 0.000000000000e+00 3.497644944836e+06 8.457116523089e+04 1.453981780334e+07 1.454221197462e+07 -1.085989157427e+07 1.104434157695e+07  2.872286398509e-03
1.955550000000e+01 3.330657882041e+07 1.896467928668e-03 0.000000000000e+00 3.104462203746e+06 8.387462836888e+04 1.405383137689e+07 1.405717610121e+07 -1.040515656062e+07 1.095200547654e+07  2.848272867047e-03
2.055550000000e+01 3.277460375850e+07 1.884383998216e-03 0.000000000000e+00 2.726826837807e+06 8.326201810046e+04 1.359393744588e+07 1.359820733386e+07 -9.972990539184e+06 1.087020286085e+07  2.826998822725e-03
2.155550000000e+01 3.226669385773e+07 1.872919575546e-03 0.000000000000e+00 2.364324376834e+06 8.272003257892e+04 1.315813157386e+07 1.316330270041e+07 -9.561919550368e+06 1.079734432634e+07  2.808050891356e-03
2.255550000000e+01 3.178164743870e+07 1.862029865057e-03 0.000000000000e+00 2.016411304337e+06 8.223792944061e+04 1.274457290634e+07 1.275062321315e+07 -9.170535807941e+06 1.073213333243e+07  2.791091868885e-03
2.355550000000e+01 3.131823896434e+07 1.851673299490e-03 0.000000000000e+00 1.682472369955e+06 8.180694949911e+04 1.235157901032e+07 1.235848813542e+07 -8.797513171897e+06 1.067350343434e+07  2.775844395893e-03
2.455550000000e+01 3.087525730833e+07 1.841811534616e-03 0.000000000000e+00 1.361858656490e+06 8.141989946637e+04 1.197761624729e+07 1.198536566300e+07 -8.441613522259e+06 1.062057073790e+07  2.762078591658e-03
2.555550000000e+01 3.045152923210e+07 1.832409359929e-03 0.000000000000e+00 1.053912798431e+06 8.107081951549e+04 1.162128864975e+07 1.162986136201e+07 -8.101687603397e+06 1.057259733369e+07  2.749602543567e-03
2.655550000000e+01 3.004593304244e+07 1.823434500302e-03 0.000000000000e+00 7.579853640301e+05 8.075474242473e+04 1.128132596708e+07 1.129070651548e+07 -7.776672615531e+06 1.052896310819e+07  2.738254975645e-03
2.755550000000e+01 2.965740587677e+07 1.814857420318e-03 0.000000000000e+00 4.734453384025e+05 8.046749570042e+04 1.095657219061e+07 1.096674636972e+07 -7.465587966244e+06 1.048914364365e+07  2.727899500489e-03
2.855550000000e+01 2.928494675471e+07 1.806651077871e-03 0.000000000000e+00 1.996864593928e+05 8.020556103272e+04 1.064597438879e+07 1.065692943041e+07 -7.167530092863e+06 1.045269294641e+07  2.718420127294e-03
2.955550000000e+01 2.892761696982e+07 1.798790735100e-03 0.000000000000e+00 -6.386908384205e+04 7.996594662741e+04 1.034857276526e+07 1.036029701166e+07 -6.881666897692e+06 1.041922954976e+07  2.709717647278e-03
3.055550000000e+01 2.858453874653e+07 1.791253745236e-03 0.000000000000e+00 -3.177689370395e+05 7.974609480256e+04 1.006349133971e+07 1.007597405524e+07 -6.607232152639e+06 1.038842554912e+07  2.701706781909e-03
3.155550000000e+01 2.825489283490e+07 1.784019345628e-03 0.000000000000e+00 -5.625301014424e+05 7.954381278892e+04 9.789929457445e+06 9.803160879922e+06 -6.343520078642e+06 1.035999775142e+07  2.694313881122e-03
3.255550000000e+01 2.793791553564e+07 1.777068496361e-03 0.000000000000e+00 -7.986392402793e+05 7.935720693673e+04 9.527154371900e+06 9.541125484246e+06 -6.089880205289e+06 1.033370042312e+07  2.687475037117e-03
3.355550000000e+01 2.763289540072e+07 1.770383698055e-03 0.000000000000e+00 -1.026553605603e+06 7.918464075250e+04 9.274494337620e+06 9.289197011748e+06 -5.845712581255e+06 1.030931949598e+07  2.681134577512e-03
3.455550000000e+01 2.733916985851e+07 1.763948870005e-03 0.000000000000e+00 -1.246702197744e+06 7.902468579495e+04 9.031332762654e+06 9.046759466324e+06 -5.610463343745e+06 1.028666765930e+07  2.675243788773e-03
3.555550000000e+01 2.705612182447e+07 1.757749198279e-03 0.000000000000e+00 -1.459487235389e+06 7.887609656818e+04 8.797102675068e+06 8.813246555215e+06 -5.383620664965e+06 1.026558048481e+07  2.669759908514e-03
3.655550000000e+01 2.678317643959e+07 1.751771027269e-03 0.000000000000e+00 -1.665285569751e+06 7.873778053792e+04 8.571282001397e+06 8.588136717617e+06 -5.164711049754e+06 1.024591299377e+07  2.664645232623e-03
3.755550000000e+01 2.651979796607e+07 1.746001755105e-03 0.000000000000e+00 -1.864450279380e+06 7.860877252385e+04 8.353389299368e+06 8.370948886038e+06 -4.953295968675e+06 1.022753699837e+07  2.659866423772e-03
3.855550000000e+01 2.626548682198e+07 1.740429722001e-03 0.000000000000e+00 -2.057312188395e+06 7.848822389847e+04 8.142979819006e+06 8.161238799719e+06 -4.748968810110e+06 1.021033880758e+07  2.655393914879e-03
3.955550000000e+01 2.601977685279e+07 1.735044136286e-03 0.000000000000e+00 -2.244181305755e+06 7.837538145579e+04 7.939642182382e+06 7.958595462569e+06 -4.551352113065e+06 1.019421723457e+07  2.651201390815e-03
4.055550000000e+01 2.578223277271e+07 1.729834995860e-03 0.000000000000e+00 -2.425348240706e+06 7.826957492726e+04 7.742995324022e+06 7.762638109034e+06 -4.360095064117e+06 1.017908196524e+07  2.647265364098e-03
4.155550000000e+01 2.555244778662e+07 1.724793004693e-03 0.000000000000e+00 -2.601085563476e+06 7.817021111663e+04 7.552685656470e+06 7.573013615756e+06 -4.174871236250e+06 1.016485220781e+07  2.643564823778e-03
4.255550000000e+01 2.533004144746e+07 1.719909547842e-03 0.000000000000e+00 -2.771648995824e+06 7.807674990056e+04 7.368384906867e+06 7.389393682018e+06 -3.995376531021e+06 1.015145539050e+07  2.640080896489e-03
4.355550000000e+01 2.511465758616e+07 1.715176578097e-03 0.000000000000e+00 -2.937278690439e+06 7.798871833026e+04 7.189787492628e+06 7.211473203640e+06 -3.821327335276e+06 1.013882631755e+07  2.636796627334e-03
4.455550000000e+01 2.490596251687e+07 1.710586612185e-03 0.000000000000e+00 -3.098200235960e+06 7.790568569489e+04 7.016608905015e+06 7.038967831695e+06 -3.652458833583e+06 1.012690614371e+07  2.633696712863e-03
4.555550000000e+01 2.470364331953e+07 1.706132664723e-03 0.000000000000e+00 -3.254625730686e+06 7.782726516484e+04 6.848583780859e+06 6.871612413309e+06 -3.488523487827e+06 1.011564170481e+07  2.630767327110e-03
4.655550000000e+01 2.450740629611e+07 1.701808220833e-03 0.000000000000e+00 -3.406754695465e+06 7.775310357473e+04 6.685464409497e+06 6.709159246622e+06 -3.329289653551e+06 1.010498481103e+07  2.627995937697e-03
4.755550000000e+01 2.431697551117e+07 1.697607169678e-03 0.000000000000e+00 -3.554774984718e+06 7.768288872294e+04 6.527019072051e+06 6.551376911893e+06 -3.174540333075e+06 1.009489174415e+07  2.625371175293e-03
4.855550000000e+01 2.413209152426e+07 1.693523800539e-03 0.000000000000e+00 -3.698863594066e+06 7.761633282059e+04 6.373030963428e+06 6.398048723089e+06 -3.024072030817e+06 1.008532275082e+07  2.622882701602e-03
4.955550000000e+01 2.395251016628e+07 1.689552762825e-03 0.000000000000e+00 -3.839187376840e+06 7.755317408491e+04 6.223296942170e+06 6.248971587062e+06 -2.877693717464e+06 1.007624156388e+07  2.620521084952e-03
5.055550000000e+01 2.377800143600e+07 1.685689030415e-03 0.000000000000e+00 -3.975903780354e+06 7.749317620906e+04 6.077626402583e+06 6.103955043323e+06 -2.735225888517e+06 1.006761509485e+07  2.618277720375e-03
5.155550000000e+01 2.360834849666e+07 1.681927885042e-03 0.000000000000e+00 -4.109161463242e+06 7.743612268241e+04 5.935840370405e+06 5.962820200774e+06 -2.596499702645e+06 1.005941306707e+07  2.616144734145e-03
5.255550000000e+01 2.344334674563e+07 1.678264893190e-03 0.000000000000e+00 -4.239100890398e+06 7.738181462543e+04 5.797770619898e+06 5.825398858667e+06 -2.461356196056e+06 1.005160772971e+07  2.614114909380e-03
5.355550000000e+01 2.328280295280e+07 1.674695876970e-03 0.000000000000e+00 -4.365854894773e+06 7.733007202246e+04 5.663258810113e+06 5.691532786117e+06 -2.329645567152e+06 1.004417362771e+07  2.612181626285e-03
5.455550000000e+01 2.312653448529e+07 1.671216901748e-03 0.000000000000e+00 -4.489549170707e+06 7.728072936737e+04 5.532155804650e+06 5.561072924376e+06 -2.201226519440e+06 1.003708735585e+07  2.610338798146e-03
5.555550000000e+01 2.297436304346e+07 1.667823844891e-03 0.000000000000e+00 -4.610301938273e+06 7.723359735432e+04 5.404316626002e+06 5.433874319837e+06 -2.075963002522e+06 1.003032216632e+07  2.608579468977e-03
5.655550000000e+01 2.282613342383e+07 1.664513896336e-03 0.000000000000e+00 -4.728228114510e+06 7.718859663395e+04 5.279615896682e+06 5.309811556974e+06 -1.953733113049e+06 1.002386757827e+07  2.606900913049e-03
5.755550000000e+01 2.268169002286e+07 1.661283597288e-03 0.000000000000e+00 -4.843433051899e+06 7.714558316618e+04 5.157926867298e+06 5.188757969188e+06 -1.834417261529e+06 1.001770223454e+07  2.605297576392e-03
5.855550000000e+01 2.254088480983e+07 1.658129747398e-03 0.000000000000e+00 -4.956018193061e+06 7.710443091579e+04 5.039130182699e+06 5.070594236215e+06 -1.717902075285e+06 1.001180823844e+07  2.603764804833e-03
5.955550000000e+01 2.240357776027e+07 1.655049360378e-03 0.000000000000e+00 -5.066080035147e+06 7.706502669251e+04 4.923113367970e+06 4.955207864589e+06 -1.604080399137e+06 1.000616960133e+07  2.602298440394e-03
6.055550000000e+01 2.226963617982e+07 1.652039624413e-03 0.000000000000e+00 -5.173710254332e+06 7.702726689213e+04 4.809770114406e+06 4.842492523604e+06 -1.492850794559e+06 1.000077167815e+07  2.600894674510e-03
6.155550000000e+01 2.213893410605e+07 1.649097884766e-03 0.000000000000e+00 -5.278995972881e+06 7.699105508378e+04 4.698999787089e+06 4.732347487723e+06 -1.384117100644e+06 9.995600909317e+06  2.599549980893e-03
6.255550000000e+01 2.201135181244e+07 1.646221610114e-03 0.000000000000e+00 -5.382020083652e+06 7.695630817595e+04 4.590706858036e+06 4.624677423799e+06 -1.277788066061e+06 9.990644756437e+06  2.598261098930e-03
6.355550000000e+01 2.188677541460e+07 1.643408412441e-03 0.000000000000e+00 -5.482861463829e+06 7.692294394098e+04 4.484800776002e+06 4.519391731573e+06 -1.173777014582e+06 9.985891519597e+06  2.597024985974e-03
6.455550000000e+01 2.176509649147e+07 1.640656033374e-03 0.000000000000e+00 -5.581595224951e+06 7.689088238510e+04 4.381195608286e+06 4.416404262533e+06 -1.072001548623e+06 9.981330267922e+06  2.595838799316e-03
6.555550000000e+01 2.164621171795e+07 1.637962300553e-03 0.000000000000e+00 -5.678293004121e+06 7.686005898232e+04 4.279809480959e+06 4.315633390346e+06 -9.723832890611e+05 9.976950888069e+06  2.594699909024e-03
6.655550000000e+01 2.153002260104e+07 1.635325170140e-03 0.000000000000e+00 -5.773023076160e+06 7.683040511377e+04 4.180564686057e+06 4.217001244988e+06 -8.748476182951e+05 9.972743864329e+06  2.593605840437e-03
6.755550000000e+01 2.141643516564e+07 1.632742689141e-03 0.000000000000e+00 -5.865850610886e+06 7.680185950274e+04 4.083387199026e+06 4.120433780281e+06 -7.793234561402e+05 9.968700330093e+06  2.592554287748e-03
6.855550000000e+01 2.130535969410e+07 1.630212994421e-03 0.000000000000e+00 -5.956837829339e+06 7.677436653790e+04 3.988206490355e+06 4.025860487097e+06 -6.857430493707e+05 9.964811986216e+06  2.591543092753e-03
6.955550000000e+01 2.119671049527e+07 1.627734319078e-03 0.000000000000e+00 -6.046044167602e+06 7.674787028212e+04 3.894955403820e+06 3.933214080035e+06 -5.940417720842e+05 9.961071046628e+06  2.590570230606e-03
7.055550000000e+01 2.109040565686e+07 1.625304963620e-03 0.000000000000e+00 -6.133526467101e+06 7.672232397203e+04 3.803569782949e+06 3.842430531219e+06 -5.041579490226e+05 9.957470260132e+06  2.589633815655e-03
7.155550000000e+01 2.098636684667e+07 1.622923317618e-03 0.000000000000e+00 -6.219339037969e+06 7.669768053331e+04 3.713988489613e+06 3.753448593596e+06 -4.160326817468e+05 9.954002743106e+06  2.588732057789e-03
7.255550000000e+01 2.088451913026e+07 1.620587850641e-03 0.000000000000e+00 -6.303533881668e+06 7.667389136986e+04 3.626153197717e+06 3.666209751125e+06 -3.296096890580e+05 9.950662074438e+06  2.587863287088e-03
7.355550000000e+01 2.078479074104e+07 1.618297080084e-03 0.000000000000e+00 -6.386160788423e+06 7.665091990021e+04 3.540008027139e+06 3.580658265769e+06 -2.448351681617e+05 9.947442234993e+06  2.587025938335e-03
7.455550000000e+01 2.068711295292e+07 1.616049599698e-03 0.000000000000e+00 -6.467267438997e+06 7.662872714890e+04 3.455499641363e+06 3.496740752218e+06 -1.616576515281e+05 9.944337543695e+06  2.586218534142e-03
7.555550000000e+01 2.059141990443e+07 1.613844068870e-03 0.000000000000e+00 -6.546899517669e+06 7.660727478447e+04 3.372577056121e+06 3.414406097058e+06 -8.002787850347e+04 9.941342634773e+06  2.585439679091e-03
7.655550000000e+01 2.049764843960e+07 1.611679195754e-03 0.000000000000e+00 -6.625100841053e+06 7.658653046213e+04 3.291191410543e+06 3.333605467747e+06 1.013209209590e+02 9.938452477527e+06  2.584688064965e-03
7.755550000000e+01 2.040573797837e+07 1.609553746631e-03 0.000000000000e+00 -6.701913435206e+06 7.656646205914e+04 3.211295942960e+06 3.254292073776e+06 7.877513948987e+04 9.935662321114e+06  2.583962456295e-03
7.855550000000e+01 2.031563038701e+07 1.607466546690e-03 0.000000000000e+00 -6.777377615897e+06 7.654703691937e+04 3.132845906721e+06 3.176421010557e+06 1.560368995397e+05 9.932967654409e+06  2.583261679915e-03
7.955550000000e+01 2.022726983591e+07 1.605416456069e-03 0.000000000000e+00 -6.851532120110e+06 7.652822941709e+04 3.055798306737e+06 3.099949375993e+06 2.319281457932e+05 9.930364265482e+06  2.582584640553e-03
8.055550000000e+01 2.014060271018e+07 1.603402397326e-03 0.000000000000e+00 -6.924414123689e+06 7.651000967109e+04 2.980112028458e+06 3.024835864900e+06 3.064887434438e+05 9.927848118928e+06  2.581930288744e-03
8.155550000000e+01 2.005557747561e+07 1.601423322798e-03 0.000000000000e+00 -6.996059379303e+06 7.649235397122e+04 2.905747518940e+06 2.951040987199e+06 3.797569577210e+05 9.925415445484e+06  2.581297644315e-03
8.255550000000e+01 1.997214459360e+07 1.599478234801e-03 0.000000000000e+00 -7.066502239933e+06 7.647523811756e+04 2.832666869851e+06 2.878526749100e+06 4.517695403274e+05 9.923062646119e+06  2.580685771332e-03
8.355550000000e+01 1.989025642584e+07 1.597566180058e-03 0.000000000000e+00 -7.135775747434e+06 7.645863634340e+04 2.760833711355e+06 2.807256623663e+06 5.225618041385e+05 9.920786313032e+06  2.580093783538e-03
8.455550000000e+01 1.980986711626e+07 1.595686221706e-03 0.000000000000e+00 -7.203911715130e+06 7.644253302749e+04 2.690212941495e+06 2.737195708055e+06 5.921676885266e+05 9.918583257341e+06  2.579520851763e-03
8.555550000000e+01 1.973093255132e+07 1.593837487430e-03 0.000000000000e+00 -7.270940725031e+06 7.642690211409e+04 2.620771031504e+06 2.668310181592e+06 6.606198373115e+05 9.916450384542e+06  2.578966171183e-03
8.655550000000e+01 1.965341024004e+07 1.592019116821e-03 0.000000000000e+00 -7.336892264425e+06 7.641172738991e+04 2.552475575184e+06 2.600567732326e+06 7.279496523051e+05 9.914384822625e+06  2.578428994981e-03
8.755550000000e+01 1.957725925753e+07 1.590230291774e-03 0.000000000000e+00 -7.401794716736e+06 7.639698980458e+04 2.485295468992e+06 2.533937174480e+06 7.941873577547e+05 9.912383809425e+06  2.577908604842e-03
8.855550000000e+01 1.950244016537e+07 1.588470218253e-03 0.000000000000e+00 -7.465675455439e+06 7.638267361285e+04 2.419200726465e+06 2.468388567051e+06 8.593620539743e+05 9.910444754276e+06  2.577404327091e-03
8.955550000000e+01 1.942891496741e+07 1.586738150053e-03 0.000000000000e+00 -7.528560812386e+06 7.636875766255e+04 2.354162613069e+06 2.403892873583e+06 9.235017752446e+05 9.908565101710e+06  2.576915497101e-03
9.055550000000e+01 1.935664699376e+07 1.585033336740e-03 0.000000000000e+00 -7.590476275388e+06 7.635523282402e+04 2.290153211334e+06 2.340422475556e+06 9.866335294994e+05 9.906742572202e+06  2.576441522189e-03
9.155550000000e+01 1.928560091357e+07 1.583355097716e-03 0.000000000000e+00 -7.651446325519e+06 7.634207511315e+04 2.227145940383e+06 2.277950305106e+06 1.048783360010e+06 9.904974819813e+06  2.575981792142e-03
9.255550000000e+01 1.921574259784e+07 1.581702729049e-03 0.000000000000e+00 -7.711494695447e+06 7.632927949625e+04 2.165114815323e+06 2.216450763736e+06 1.109976372129e+06 9.903259786600e+06  2.575535771947e-03
9.355550000000e+01 1.914703913978e+07 1.580075591276e-03 0.000000000000e+00 -7.770644213000e+06 7.631682642802e+04 2.104035075302e+06 2.155898763673e+06 1.170236791342e+06 9.901595374097e+06  2.575102915796e-03
9.455550000000e+01 1.907945875043e+07 1.578473044314e-03 0.000000000000e+00 -7.828916972617e+06 7.630470606781e+04 2.043882657601e+06 2.096270336956e+06 1.229587992687e+06 9.899979661254e+06  2.574682724173e-03
9.555550000000e+01 1.901297073938e+07 1.576894481193e-03 0.000000000000e+00 -7.886334296772e+06 7.629290497907e+04 1.984634421860e+06 2.037542245076e+06 1.288052543279e+06 9.898410780118e+06  2.574274711296e-03
9.655550000000e+01 1.894754545592e+07 1.575339310721e-03 0.000000000000e+00 -7.942916801710e+06 7.628141236753e+04 1.926267988831e+06 1.979692106159e+06 1.345652235573e+06 9.896886965807e+06  2.573878418224e-03
9.755550000000e+01 1.888315425003e+07 1.573806961849e-03 0.000000000000e+00 -7.998684417442e+06 7.627021796369e+04 1.868761745495e+06 1.922698307382e+06 1.402408121522e+06 9.895406534865e+06  2.573493407191e-03
