<?xml version="1.0"?>
<!-- Time step: 5 | Time: 5.000000000000e+00 -->
<VTKFile type="UnstructuredGrid" version="0.1" byte_order="LittleEndian">
  <UnstructuredGrid>
    <Piece NumberOfPoints="2337" NumberOfCells="2240">
      <Points>
        <DataArray type="Float64" NumberOfComponents="3" format="ascii">
          0.000000000000e+00 0.000000000000e+00 0.000000000000e+00
          1.250000000000e-02 0.000000000000e+00 0.000000000000e+00
          2.500000000000e-02 0.000000000000e+00 0.000000000000e+00
          3.750000000000e-02 0.000000000000e+00 0.000000000000e+00
          5.000000000000e-02 0.000000000000e+00 0.000000000000e+00
          6.250000000000e-02 0.000000000000e+00 0.000000000000e+00
          7.500000000000e-02 0.000000000000e+00 0.000000000000e+00
          8.750000000000e-02 0.000000000000e+00 0.000000000000e+00
          1.000000000000e-01 0.000000000000e+00 0.000000000000e+00
          1.125000000000e-01 0.000000000000e+00 0.000000000000e+00
          1.250000000000e-01 0.000000000000e+00 0.000000000000e+00
          1.375000000000e-01 0.000000000000e+00 0.000000000000e+00
          1.500000000000e-01 0.000000000000e+00 0.000000000000e+00
          1.625000000000e-01 0.000000000000e+00 0.000000000000e+00
          1.750000000000e-01 0.000000000000e+00 0.000000000000e+00
          1.875000000000e-01 0.000000000000e+00 0.000000000000e+00
          2.000000000000e-01 0.000000000000e+00 0.000000000000e+00
          2.125000000000e-01 0.000000000000e+00 0.000000000000e+00
          2.250000000000e-01 0.000000000000e+00 0.000000000000e+00
          2.375000000000e-01 0.000000000000e+00 0.000000000000e+00
          2.500000000000e-01 0.000000000000e+00 0.000000000000e+00
          2.625000000000e-01 0.000000000000e+00 0.000000000000e+00
          2.750000000000e-01 0.000000000000e+00 0.000000000000e+00
          2.875000000000e-01 0.000000000000e+00 0.000000000000e+00
          3.000000000000e-01 0.000000000000e+00 0.000000000000e+00
          3.125000000000e-01 0.000000000000e+00 0.000000000000e+00
          3.250000000000e-01 0.000000000000e+00 0.000000000000e+00
          3.375000000000e-01 0.000000000000e+00 0.000000000000e+00
          3.500000000000e-01 0.000000000000e+00 0.000000000000e+00
          3.625000000000e-01 0.000000000000e+00 0.000000000000e+00
          3.750000000000e-01 0.000000000000e+00 0.000000000000e+00
          3.875000000000e-01 0.000000000000e+00 0.000000000000e+00
          4.000000000000e-01 0.000000000000e+00 0.000000000000e+00
          4.125000000000e-01 0.000000000000e+00 0.000000000000e+00
          4.250000000000e-01 0.000000000000e+00 0.000000000000e+00
          4.375000000000e-01 0.000000000000e+00 0.000000000000e+00
          4.500000000000e-01 0.000000000000e+00 0.000000000000e+00
          4.625000000000e-01 0.000000000000e+00 0.000000000000e+00
          4.750000000000e-01 0.000000000000e+00 0.000000000000e+00
          4.875000000000e-01 0.000000000000e+00 0.000000000000e+00
          5.000000000000e-01 0.000000000000e+00 0.000000000000e+00
          5.125000000000e-01 0.000000000000e+00 0.000000000000e+00
          5.250000000000e-01 0.000000000000e+00 0.000000000000e+00
          5.375000000000e-01 0.000000000000e+00 0.000000000000e+00
          5.500000000000e-01 0.000000000000e+00 0.000000000000e+00
          5.625000000000e-01 0.000000000000e+00 0.000000000000e+00
          5.750000000000e-01 0.000000000000e+00 0.000000000000e+00
          5.875000000000e-01 0.000000000000e+00 0.000000000000e+00
          6.000000000000e-01 0.000000000000e+00 0.000000000000e+00
          6.125000000000e-01 0.000000000000e+00 0.000000000000e+00
          6.250000000000e-01 0.000000000000e+00 0.000000000000e+00
          6.375000000000e-01 0.000000000000e+00 0.000000000000e+00
          6.500000000000e-01 0.000000000000e+00 0.000000000000e+00
          6.625000000000e-01 0.000000000000e+00 0.000000000000e+00
          6.750000000000e-01 0.000000000000e+00 0.000000000000e+00
          6.875000000000e-01 0.000000000000e+00 0.000000000000e+00
          7.000000000000e-01 0.000000000000e+00 0.000000000000e+00
          0.000000000000e+00 0.000000000000e+00 1.250000000000e-02
          1.250000000000e-02 0.000000000000e+00 1.250000000000e-02
          2.500000000000e-02 0.000000000000e+00 1.250000000000e-02
          3.750000000000e-02 0.000000000000e+00 1.250000000000e-02
          5.000000000000e-02 0.000000000000e+00 1.250000000000e-02
          6.250000000000e-02 0.000000000000e+00 1.250000000000e-02
          7.500000000000e-02 0.000000000000e+00 1.250000000000e-02
          8.750000000000e-02 0.000000000000e+00 1.250000000000e-02
          1.000000000000e-01 0.000000000000e+00 1.250000000000e-02
          1.125000000000e-01 0.000000000000e+00 1.250000000000e-02
          1.250000000000e-01 0.000000000000e+00 1.250000000000e-02
          1.375000000000e-01 0.000000000000e+00 1.250000000000e-02
          1.500000000000e-01 0.000000000000e+00 1.250000000000e-02
          1.625000000000e-01 0.000000000000e+00 1.250000000000e-02
          1.750000000000e-01 0.000000000000e+00 1.250000000000e-02
          1.875000000000e-01 0.000000000000e+00 1.250000000000e-02
          2.000000000000e-01 0.000000000000e+00 1.250000000000e-02
          2.125000000000e-01 0.000000000000e+00 1.250000000000e-02
          2.250000000000e-01 0.000000000000e+00 1.250000000000e-02
          2.375000000000e-01 0.000000000000e+00 1.250000000000e-02
          2.500000000000e-01 0.000000000000e+00 1.250000000000e-02
          2.625000000000e-01 0.000000000000e+00 1.250000000000e-02
          2.750000000000e-01 0.000000000000e+00 1.250000000000e-02
          2.875000000000e-01 0.000000000000e+00 1.250000000000e-02
          3.000000000000e-01 0.000000000000e+00 1.250000000000e-02
          3.125000000000e-01 0.000000000000e+00 1.250000000000e-02
          3.250000000000e-01 0.000000000000e+00 1.250000000000e-02
          3.375000000000e-01 0.000000000000e+00 1.250000000000e-02
          3.500000000000e-01 0.000000000000e+00 1.250000000000e-02
          3.625000000000e-01 0.000000000000e+00 1.250000000000e-02
          3.750000000000e-01 0.000000000000e+00 1.250000000000e-02
          3.875000000000e-01 0.000000000000e+00 1.250000000000e-02
          4.000000000000e-01 0.000000000000e+00 1.250000000000e-02
          4.125000000000e-01 0.000000000000e+00 1.250000000000e-02
          4.250000000000e-01 0.000000000000e+00 1.250000000000e-02
          4.375000000000e-01 0.000000000000e+00 1.250000000000e-02
          4.500000000000e-01 0.000000000000e+00 1.250000000000e-02
          4.625000000000e-01 0.000000000000e+00 1.250000000000e-02
          4.750000000000e-01 0.000000000000e+00 1.250000000000e-02
          4.875000000000e-01 0.000000000000e+00 1.250000000000e-02
          5.000000000000e-01 0.000000000000e+00 1.250000000000e-02
          5.125000000000e-01 0.000000000000e+00 1.250000000000e-02
          5.250000000000e-01 0.000000000000e+00 1.250000000000e-02
          5.375000000000e-01 0.000000000000e+00 1.250000000000e-02
          5.500000000000e-01 0.000000000000e+00 1.250000000000e-02
          5.625000000000e-01 0.000000000000e+00 1.250000000000e-02
          5.750000000000e-01 0.000000000000e+00 1.250000000000e-02
          5.875000000000e-01 0.000000000000e+00 1.250000000000e-02
          6.000000000000e-01 0.000000000000e+00 1.250000000000e-02
          6.125000000000e-01 0.000000000000e+00 1.250000000000e-02
          6.250000000000e-01 0.000000000000e+00 1.250000000000e-02
          6.375000000000e-01 0.000000000000e+00 1.250000000000e-02
          6.500000000000e-01 0.000000000000e+00 1.250000000000e-02
          6.625000000000e-01 0.000000000000e+00 1.250000000000e-02
          6.750000000000e-01 0.000000000000e+00 1.250000000000e-02
          6.875000000000e-01 0.000000000000e+00 1.250000000000e-02
          7.000000000000e-01 0.000000000000e+00 1.250000000000e-02
          0.000000000000e+00 0.000000000000e+00 2.500000000000e-02
          1.250000000000e-02 0.000000000000e+00 2.500000000000e-02
          2.500000000000e-02 0.000000000000e+00 2.500000000000e-02
          3.750000000000e-02 0.000000000000e+00 2.500000000000e-02
          5.000000000000e-02 0.000000000000e+00 2.500000000000e-02
          6.250000000000e-02 0.000000000000e+00 2.500000000000e-02
          7.500000000000e-02 0.000000000000e+00 2.500000000000e-02
          8.750000000000e-02 0.000000000000e+00 2.500000000000e-02
          1.000000000000e-01 0.000000000000e+00 2.500000000000e-02
          1.125000000000e-01 0.000000000000e+00 2.500000000000e-02
          1.250000000000e-01 0.000000000000e+00 2.500000000000e-02
          1.375000000000e-01 0.000000000000e+00 2.500000000000e-02
          1.500000000000e-01 0.000000000000e+00 2.500000000000e-02
          1.625000000000e-01 0.000000000000e+00 2.500000000000e-02
          1.750000000000e-01 0.000000000000e+00 2.500000000000e-02
          1.875000000000e-01 0.000000000000e+00 2.500000000000e-02
          2.000000000000e-01 0.000000000000e+00 2.500000000000e-02
          2.125000000000e-01 0.000000000000e+00 2.500000000000e-02
          2.250000000000e-01 0.000000000000e+00 2.500000000000e-02
          2.375000000000e-01 0.000000000000e+00 2.500000000000e-02
          2.500000000000e-01 0.000000000000e+00 2.500000000000e-02
          2.625000000000e-01 0.000000000000e+00 2.500000000000e-02
          2.750000000000e-01 0.000000000000e+00 2.500000000000e-02
          2.875000000000e-01 0.000000000000e+00 2.500000000000e-02
          3.000000000000e-01 0.000000000000e+00 2.500000000000e-02
          3.125000000000e-01 0.000000000000e+00 2.500000000000e-02
          3.250000000000e-01 0.000000000000e+00 2.500000000000e-02
          3.375000000000e-01 0.000000000000e+00 2.500000000000e-02
          3.500000000000e-01 0.000000000000e+00 2.500000000000e-02
          3.625000000000e-01 0.000000000000e+00 2.500000000000e-02
[...]
      <PointData Scalars="PRESSURE1">
        <DataArray type="Float64" Name="PRESSURE1" format="ascii">
          3.697300001332e+02 3.697300001332e+02 3.697300001333e+02 3.697300001333e+02 3.697300001333e+02 3.697300001333e+02 3.697300001333e+02 3.697300001333e+02 3.697300001333e+02 3.697300001334e+02 3.697300001334e+02 3.697300001334e+02 3.697300001334e+02 3.697300001334e+02 3.697300001335e+02 3.697300001335e+02 3.697300001335e+02 3.697300001335e+02 3.697300001335e+02 3.697300001335e+02 3.697300001335e+02 3.697300001335e+02 3.697300001335e+02 3.697300001335e+02 3.697300001335e+02 3.697300001335e+02 3.697300001335e+02 3.697300001335e+02 3.697300001335e+02 3.697300001335e+02 3.697300001335e+02 3.697300001335e+02 3.697300001335e+02 3.697300001335e+02 3.697300001335e+02 3.697300001335e+02 3.697300001335e+02 3.697300001335e+02 3.697300001335e+02 3.697300001334e+02 3.697300001334e+02 3.697300001334e+02 3.697300001334e+02 3.697300001334e+02 3.697300001334e+02 3.697300001333e+02 3.697300001333e+02 3.697300001333e+02 3.697300001333e+02 3.697300001333e+02 3.697300001332e+02 3.697300001332e+02 3.697300001332e+02 3.697300001332e+02 3.697300001332e+02 3.697300001332e+02 3.697300001332e+02 3.697300000002e+02 3.697300000001e+02 3.697300000002e+02 3.697300000002e+02 3.697300000002e+02 3.697300000002e+02 3.697300000002e+02 3.697300000002e+02 3.697300000002e+02 3.697300000002e+02 3.697300000003e+02 3.697300000003e+02 3.697300000003e+02 3.697300000003e+02 3.697300000003e+02 3.697300000004e+02 3.697300000004e+02 3.697300000004e+02 3.697300000004e+02 3.697300000004e+02 3.697300000004e+02 3.697300000004e+02 3.697300000004e+02 3.697300000004e+02 3.697300000004e+02 3.697300000004e+02 3.697300000004e+02 3.697300000004e+02 3.697300000004e+02 3.697300000004e+02 3.697300000004e+02 3.697300000004e+02 3.697300000004e+02 3.697300000004e+02 3.697300000004e+02 3.697300000004e+02 3.697300000004e+02 3.697300000004e+02 3.697300000003e+02 3.697300000003e+02 3.697300000003e+02 3.697300000003e+02 3.697300000003e+02 3.697300000003e+02 3.697300000002e+02 3.697300000002e+02 3.697300000002e+02 3.697300000002e+02 3.697300000002e+02 3.697300000001e+02 3.697300000001e+02 3.697300000001e+02 3.697300000001e+02 3.697300000001e+02 3.697300000001e+02 3.697300000001e+02 3.697300000001e+02 3.697300000002e+02 3.697300000001e+02 3.697300000001e+02 3.697300000001e+02 3.697300000001e+02 3.697300000002e+02 3.697300000002e+02 3.697300000002e+02 3.697300000002e+02 3.697300000002e+02 3.697300000002e+02 3.697300000003e+02 3.697300000003e+02 3.697300000003e+02 3.697300000003e+02 3.697300000003e+02 3.697300000004e+02 3.697300000004e+02 3.697300000004e+02 3.697300000004e+02 3.697300000004e+02 3.697300000004e+02 3.697300000004e+02 3.697300000004e+02 3.697300000004e+02 3.697300000004e+02 3.697300000004e+02 3.697300000004e+02 3.697300000004e+02 3.697300000003e+02 3.697300000003e+02 3.697300000004e+02 3.697300000004e+02 3.697300000003e+02 3.697300000003e+02 3.697300000003e+02 3.697300000003e+02 3.697300000003e+02 3.697300000003e+02 3.697300000003e+02 3.697300000003e+02 3.697300000003e+02 3.697300000003e+02 3.697300000002e+02 3.697300000002e+02 3.697300000002e+02 3.697300000002e+02 3.697300000002e+02 3.697300000001e+02 3.697300000001e+02 3.697300000001e+02 3.697300000001e+02 3.697300000001e+02 3.697300000001e+02 3.697300000001e+02 3.697300000000e+02 3.697300000001e+02 3.697300000003e+02 3.697300000003e+02 3.697300000003e+02 3.697300000003e+02 3.697300000002e+02 3.697300000002e+02 3.697300000001e+02 3.697300000002e+02 3.697300000002e+02 3.697300000002e+02 3.697300000002e+02 3.697300000002e+02 3.697300000003e+02 3.697300000003e+02 3.697300000003e+02 3.697300000005e+02 3.697300000007e+02 3.697300000008e+02 3.697300000008e+02 3.697300000008e+02 3.697300000008e+02 3.697300000008e+02 3.697300000008e+02 3.697300000008e+02 3.697300000008e+02 3.697300000008e+02 3.697300000008e+02 3.697300000008e+02 3.697300000008e+02 3.697300000007e+02 3.697300000007e+02 3.697300000008e+02 3.697300000007e+02 3.697300000007e+02 3.697300000007e+02 3.697300000007e+02 3.697300000007e+02 3.697300000007e+02 3.697300000007e+02 3.697300000006e+02 3.697300000005e+02 3.697300000004e+02 3.697300000002e+02 3.697300000002e+02 3.697300000002e+02 3.697300000002e+02 3.697300000002e+02 3.697300000002e+02 3.697300000001e+02 3.697300000001e+02 3.697300000001e+02 3.697300000001e+02 3.697300000001e+02 3.697300000002e+02 3.697300000002e+02 3.697300000001e+02 3.697300000001e+02 3.697300006512e+02 3.697300006511e+02 3.697300006511e+02 3.697300006510e+02 3.697300005606e+02 3.697300000002e+02 3.697300000001e+02 3.697300000002e+02 3.697300000002e+02 3.697300000002e+02 3.697300000002e+02 3.697300000002e+02 3.697300000003e+02 3.697300000003e+02 3.697300000003e+02 3.697300000006e+02 3.697300005627e+02 3.697300006528e+02 3.697300006528e+02 3.697300006528e+02 3.697300006528e+02 3.697300006527e+02 3.697300006526e+02 3.697300006527e+02 3.697300006528e+02 3.697300006527e+02 3.697300006526e+02 3.697300006526e+02 3.697300006527e+02 3.697300006526e+02 3.697300006525e+02 3.697300006524e+02 3.697300006525e+02 3.697300006525e+02 3.697300006524e+02 3.697300006523e+02 3.697300006523e+02 3.697300006524e+02 3.697300006524e+02 3.697300006519e+02 3.697300005615e+02 3.697300000004e+02 3.697300000002e+02 3.697300000002e+02 3.697300000002e+02 3.697300000002e+02 3.697300000002e+02 3.697300000002e+02 3.697300000001e+02 3.697300000001e+02 3.697300000001e+02 3.697300000001e+02 3.697300005604e+02 3.697300006508e+02 3.697300006508e+02 3.697300006507e+02 3.697300006507e+02 3.697300000007e+02 3.697300000005e+02 3.697300000005e+02 3.697300000004e+02 3.697300000004e+02 3.697300000002e+02 3.697300000001e+02 3.697300000002e+02 3.697300000002e+02 3.697300000002e+02 3.697300000002e+02 3.697300000002e+02 3.697300000003e+02 3.697300000003e+02 3.697300000002e+02 3.697300000005e+02 3.697300000020e+02 3.697300000015e+02 3.697300000016e+02 3.697300000017e+02 3.697300000017e+02 3.697300000016e+02 3.697300000015e+02 3.697300000015e+02 3.697300000017e+02 3.697300000017e+02 3.697300000015e+02 3.697300000014e+02 3.697300000016e+02 3.697300000016e+02 3.697300000015e+02 3.697300000014e+02 3.697300000014e+02 3.697300000015e+02 3.697300000014e+02 3.697300000013e+02 3.697300000013e+02 3.697300000014e+02 3.697300000014e+02 3.697300000009e+02 3.697300000009e+02 3.697300000003e+02 3.697300000002e+02 3.697300000002e+02 3.697300000002e+02 3.697300000002e+02 3.697300000002e+02 3.697300000002e+02 3.697300000001e+02 3.697300000001e+02 3.697300000001e+02 3.697300000001e+02 3.697300000004e+02 3.697300000003e+02 3.697300000003e+02 3.697300000002e+02 3.697300000003e+02 3.697300000006e+02 3.697300000005e+02 3.697300000005e+02 3.697300000004e+02 3.697300000004e+02 3.697300000002e+02 3.697300000001e+02 3.697300000002e+02 3.697300000002e+02 3.697300000002e+02 3.697300000002e+02 3.697300000002e+02 3.697300000003e+02 3.697300000003e+02 3.697300000002e+02 3.697300000004e+02 3.697300000019e+02 3.697300000014e+02 3.697300000013e+02 3.697300000014e+02 3.697300000016e+02 3.697300000015e+02 3.697300000013e+02 3.697300000013e+02 3.697300000015e+02 3.697300000015e+02 3.697300000014e+02 3.697300000013e+02 3.697300000014e+02 3.697300000015e+02 3.697300000014e+02 3.697300000012e+02 3.697300000013e+02 3.697300000013e+02 3.697300000013e+02 3.697300000012e+02 3.697300000011e+02 3.697300000012e+02 3.697300000013e+02 3.697300000009e+02 3.697300000009e+02 3.697300000003e+02 3.697300000002e+02 3.697300000002e+02 3.697300000002e+02 3.697300000002e+02 3.697300000002e+02 3.697300000002e+02 3.697300000001e+02 3.697300000001e+02 3.697300000001e+02 3.697300000001e+02 3.697300000004e+02 3.697300000003e+02 3.697300000003e+02 3.697300000002e+02 3.697300000002e+02 3.697300000006e+02 3.697300000005e+02 3.697300000005e+02 3.697300000004e+02 3.697300000004e+02 3.697300000002e+02 3.697300000001e+02 3.697300000002e+02 3.697300000002e+02 3.697300000002e+02 3.697300000002e+02 3.697300000002e+02 3.697300000003e+02 3.697300000003e+02 3.697300000001e+02 3.697300000003e+02 3.697300000020e+02 3.697300000009e+02 3.697300000000e+02 3.697300000002e+02 3.697300000011e+02 3.697300000012e+02 3.697300000005e+02 3.697300000002e+02 3.697300000006e+02 3.697300000010e+02 3.697300000008e+02 3.697300000004e+02 3.697300000005e+02 3.697300000008e+02 3.697300000008e+02 3.697300000005e+02 3.697300000004e+02 3.697300000006e+02 3.697300000007e+02 3.697300000007e+02 3.697300000008e+02 3.697300000011e+02 3.697300000012e+02 3.697300000008e+02 3.697300000009e+02 3.697300000003e+02 3.697300000002e+02 3.697300000002e+02 3.697300000002e+02 3.697300000002e+02 3.697300000002e+02 3.697300000002e+02 3.697300000001e+02 3.697300000001e+02 3.697300000001e+02 3.697300000001e+02 3.697300000004e+02 3.697300000003e+02 3.697300000003e+02 3.697300000002e+02 3.697300000003e+02 3.697300000006e+02 3.697300000005e+02 3.697300000005e+02 3.697300000004e+02 3.697300000004e+02 3.697300000002e+02 3.697300000001e+02 3.697300000001e+02 3.697300000002e+02 3.697300000001e+02 3.697300000001e+02 3.697300000002e+02 3.697300000003e+02 3.697300000002e+02 3.697300000001e+02 3.697300000002e+02 3.697299994416e+02 3.697299993504e+02 3.697299993497e+02 3.697299993497e+02 3.697299993503e+02 3.697299993504e+02 3.697299993500e+02 3.697299993498e+02 3.697299993500e+02 3.697299993503e+02 3.697299993502e+02 3.697299993499e+02 3.697299993499e+02 3.697299993501e+02 3.697299993502e+02 3.697299993500e+02 3.697299993499e+02 3.697299993500e+02 3.697299993501e+02 3.697299993501e+02 3.697299997718e+02 3.697300000010e+02 3.697300000011e+02 3.697300000008e+02 3.697300000009e+02 3.697300000003e+02 3.697300000002e+02 3.697300000002e+02 3.697300000002e+02 3.697300000002e+02 3.697300000002e+02 3.697300000002e+02 3.697300000001e+02 3.697300000001e+02 3.697300000001e+02 3.697300000001e+02 3.697300000004e+02 3.697300000003e+02 3.697300000003e+02 3.697300000002e+02 3.697300000003e+02 3.697300000006e+02 3.697300000005e+02 3.697300000005e+02 3.697300000004e+02 3.697300000004e+02 3.697300000001e+02 3.697300000001e+02 3.697300000001e+02 3.697300000002e+02 3.697300000001e+02 3.697300000001e+02 3.697300000002e+02 3.697300000002e+02 3.697300000002e+02 3.697300000001e+02 3.697300000001e+02 3.697300000002e+02 3.697300000002e+02 3.697300000001e+02 3.697300000001e+02 3.697300000001e+02 3.697300000002e+02 3.697300000001e+02 3.697300000001e+02 3.697300000001e+02 3.697300000002e+02 3.697300000001e+02 3.697300000001e+02 3.697300000001e+02 3.697300000002e+02 3.697300000002e+02 3.697300000001e+02 3.697300000001e+02 3.697300000002e+02 3.697300000002e+02 3.697300000004e+02 3.697300000012e+02 3.697300000010e+02 3.697300000011e+02 3.697300000008e+02 3.697300000008e+02 3.697300000003e+02 3.697300000002e+02 3.697300000002e+02 3.697300000002e+02 3.697300000002e+02 3.697300000002e+02 3.697300000002e+02 3.697300000002e+02 3.697300000001e+02 3.697300000001e+02 3.697300000002e+02 3.697300000004e+02 3.697300000003e+02 3.697300000003e+02 3.697300000003e+02 3.697300000003e+02 3.697300000006e+02 3.697300000005e+02 3.697300000005e+02 3.697300000004e+02 3.697300000004e+02 3.697300000001e+02 3.697300000001e+02 3.697300000001e+02 3.697300000001e+02 3.697300000001e+02 3.697300000001e+02 3.697300000001e+02 3.697300000002e+02 3.697300000002e+02 3.697300000001e+02 3.697300000001e+02 3.697300000002e+02 3.697300000002e+02 3.697300000001e+02 3.697300000001e+02 3.697300000002e+02 3.697300000002e+02 3.697300000001e+02 3.697300000001e+02 3.697300000001e+02 3.697300000002e+02 3.697300000002e+02 3.697300000001e+02 3.697300000002e+02 3.697300000002e+02 3.697300000002e+02 3.697300000002e+02 3.697300000002e+02 3.697300000002e+02 3.697300000002e+02 3.697300000004e+02 3.697300000012e+02 3.697300000010e+02 3.697300000011e+02 3.697300000008e+02 3.697300000008e+02 3.697300000003e+02 3.697300000002e+02 3.697300000002e+02 3.697300000002e+02 3.697300000002e+02 3.697300000002e+02 3.697300000002e+02 3.697300000002e+02 3.697300000001e+02 3.697300000001e+02 3.697300000002e+02 3.697300000004e+02 3.697300000003e+02 3.697300000004e+02 3.697300000003e+02 3.697300000003e+02 3.697300000006e+02 3.697300000005e+02 3.697300000005e+02 3.697300000004e+02 3.697300000004e+02 3.697300000001e+02 3.697300000001e+02 3.697300000001e+02 3.697300000002e+02 3.697300000002e+02 3.697300000002e+02 3.697300000002e+02 3.697300000002e+02 3.697300000002e+02 3.697300000002e+02 3.697300000002e+02 3.697300000002e+02 3.697300000002e+02 3.697300000002e+02 3.697300000002e+02 3.697300000002e+02 3.697300000002e+02 3.697300000002e+02 3.697300000002e+02 3.697300000002e+02 3.697300000002e+02 3.697300000002e+02 3.697300000002e+02 3.697300000002e+02 3.697300000002e+02 3.697300000003e+02 3.697300000003e+02 3.697300000003e+02 3.697300000003e+02 3.697300000003e+02 3.697300000004e+02 3.697300000009e+02 3.697300000007e+02 3.697300000008e+02 3.697300000005e+02 3.697300000006e+02 3.697300000004e+02 3.697300000004e+02 3.697300000004e+02 3.697300000004e+02 3.697300000004e+02 3.697300000004e+02 3.697300000003e+02 3.697300000003e+02 3.697300000002e+02 3.697300000001e+02 3.697300000002e+02 3.697300000004e+02 3.697300000004e+02 3.697300000004e+02 3.697300000003e+02 3.697300000003e+02 3.697300000007e+02 3.697300000005e+02 3.697300000005e+02 3.697300000004e+02 3.697300000004e+02 3.697300000001e+02 3.697300000001e+02 3.697300000001e+02 3.697300002742e+02 3.697300003308e+02 3.697300003308e+02 3.697300003308e+02 3.697300003308e+02 3.697300003308e+02 3.697300003308e+02 3.697300003308e+02 3.697300003308e+02 3.697300003308e+02 3.697300003308e+02 3.697300003308e+02 3.697300003307e+02 3.697300003307e+02 3.697300003307e+02 3.697300003307e+02 3.697300003308e+02 3.697300003308e+02 3.697300003308e+02 3.697300003308e+02 3.697300003309e+02 3.697300003309e+02 3.697300003310e+02 3.697300003310e+02 3.697300003311e+02 3.697300003311e+02 3.697300003312e+02 3.697300003313e+02 3.697299999448e+02 3.697299997584e+02 3.697299997584e+02 3.697299997583e+02 3.697299999447e+02 3.697300003313e+02 3.697300003313e+02 3.697300003313e+02 3.697300003313e+02 3.697300003313e+02 3.697300003313e+02 3.697300003311e+02 3.697300002745e+02 3.697300000002e+02 3.697300000001e+02 3.697300000002e+02 3.697300000005e+02 3.697300000004e+02 3.697300000004e+02 3.697300000003e+02 3.697300000003e+02 3.697300000007e+02 3.697300000005e+02 3.697300000006e+02 3.697300000004e+02 3.697300000004e+02 3.697300000001e+02 3.697300000001e+02 3.697300000002e+02 3.697300000003e+02 3.697300000002e+02 3.697300000002e+02 3.697300000002e+02 3.697300000002e+02 3.697300000002e+02 3.697300000002e+02 3.697300000002e+02 3.697300000002e+02 3.697300000002e+02 3.697300000002e+02 3.697300000002e+02 3.697300000002e+02 3.697300000002e+02 3.697300000002e+02 3.697300000002e+02 3.697300000002e+02 3.697300000002e+02 3.697300000002e+02 3.697300000002e+02 3.697300000003e+02 3.697300000003e+02 3.697300000004e+02 3.697300000004e+02 3.697300000004e+02 3.697300000005e+02 3.697300000005e+02 3.697300000005e+02 3.697300000005e+02 3.697300000005e+02 3.697300000005e+02 3.697300000005e+02 3.697300000006e+02 3.697300000006e+02 3.697300000006e+02 3.697300000006e+02 3.697300000006e+02 3.697300000006e+02 3.697300000006e+02 3.697300000004e+02 3.697300000005e+02 3.697300000002e+02 3.697300000001e+02 3.697300000002e+02 3.697300000005e+02 3.697300000004e+02 3.697300000004e+02 3.697300000003e+02 3.697300000003e+02 3.697300000007e+02 3.697300000005e+02 3.697300000005e+02 3.697300000004e+02 3.697300000004e+02 3.697300000001e+02 3.697300000001e+02 3.697300000001e+02 3.697300000002e+02 3.697300000002e+02 3.697300000002e+02 3.697300000002e+02 3.697300000002e+02 3.697300000002e+02 3.697300000002e+02 3.697300000002e+02 3.697300000002e+02 3.697300000002e+02 3.697300000002e+02 3.697300000002e+02 3.697300000001e+02 3.697300000001e+02 3.697300000001e+02 3.697300000001e+02 3.697300000001e+02 3.697300000002e+02 3.697300000002e+02 3.697300000002e+02 3.697300000002e+02 3.697300000003e+02 3.697300000003e+02 3.697300000004e+02 3.697300000004e+02 3.697300000004e+02 3.697300000005e+02 3.697300000005e+02 3.697300000005e+02 3.697300000005e+02 3.697300000005e+02 3.697300000005e+02 3.697300000006e+02 3.697300000006e+02 3.697300000005e+02 3.697300000005e+02 3.697300000005e+02 3.697300000005e+02 3.697300000005e+02 3.697300000004e+02 3.697300000004e+02 3.697300000002e+02 3.697300000001e+02 3.697300000002e+02 3.697300000005e+02 3.697300000004e+02 3.697300000004e+02 3.697300000003e+02 3.697300000003e+02 3.697300000006e+02 3.697300000005e+02 3.697300000005e+02 3.697300000004e+02 3.697300000004e+02 3.697300000001e+02 3.697300000001e+02 3.697300000001e+02 3.697300000002e+02 3.697300000001e+02 3.697300000001e+02 3.697300000001e+02 3.697300000001e+02 3.697300000001e+02 3.697300000001e+02 3.697300000001e+02 3.697300000001e+02 3.697300000001e+02 3.697300000001e+02 3.697300000001e+02 3.697300000001e+02 3.697300000001e+02 3.697300000001e+02 3.697300000001e+02 3.697300000002e+02 3.697300000002e+02 3.697300000002e+02 3.697300000002e+02 3.697300000002e+02 3.697300000002e+02 3.697300000002e+02 3.697300000002e+02 3.697300000003e+02 3.697300000003e+02 3.697300000003e+02 3.697300000003e+02 3.697300000004e+02 3.697300000004e+02 3.697300000004e+02 3.697300000004e+02 3.697300000004e+02 3.697300000004e+02 3.697300000004e+02 3.697300000004e+02 3.697300000004e+02 3.697300000004e+02 3.697300000004e+02 3.697300000002e+02 3.697300000003e+02 3.697300000002e+02 3.697300000001e+02 3.697300000002e+02 3.697300000005e+02 3.697300000004e+02 3.697300000004e+02 3.697300000003e+02 3.697300000003e+02 3.697300000006e+02 3.697300000005e+02 3.697300000005e+02 3.697300000004e+02 3.697300000004e+02 3.697300000001e+02 3.697300000001e+02 3.697300000001e+02 3.697299998041e+02 3.697299997672e+02 3.697299997672e+02 3.697299997672e+02 3.697299997672e+02 3.697299997672e+02 3.697299997672e+02 3.697299997672e+02 3.697299997672e+02 3.697299997672e+02 3.697299997672e+02 3.697299997672e+02 3.697300000777e+02 3.697300002423e+02 3.697300002423e+02 3.697300002423e+02 3.697300002423e+02 3.697300002423e+02 3.697300002423e+02 3.697300002423e+02 3.697300000778e+02 3.697299997673e+02 3.697299997673e+02 3.697299997673e+02 3.697299997674e+02 3.697299997674e+02 3.697299997674e+02 3.697299997674e+02 3.697299997674e+02 3.697299997674e+02 3.697299997675e+02 3.697299997675e+02 3.697299997675e+02 3.697299997675e+02 3.697299997675e+02 3.697299997675e+02 3.697299997674e+02 3.697299997674e+02 3.697299997674e+02 3.697299997673e+02 3.697299998042e+02 3.697300000002e+02 3.697300000001e+02 3.697300000002e+02 3.697300000005e+02 3.697300000004e+02 3.697300000004e+02 3.697300000003e+02 3.697300000003e+02 3.697300000006e+02 3.697300000005e+02 3.697300000005e+02 3.697300000004e+02 3.697300000004e+02 3.697300000001e+02 3.697300000001e+02 3.697300000001e+02 3.697300000001e+02 3.697300000001e+02 3.697300000001e+02 3.697300000001e+02 3.697300000001e+02 3.697300000001e+02 3.697300000001e+02 3.697300000001e+02 3.697300000001e+02 3.697300000001e+02 3.697300000001e+02 3.697300000001e+02 3.697300000001e+02 3.697300000001e+02 3.697300000001e+02 3.697300000001e+02 3.697300000001e+02 3.697300000001e+02 3.697300000002e+02 3.697300000001e+02 3.697300000001e+02 3.697300000002e+02 3.697300000002e+02 3.697300000003e+02 3.697300000003e+02 3.697300000004e+02 3.697300000004e+02 3.697300000004e+02 3.697300000004e+02 3.697300000004e+02 3.697300000005e+02 3.697300000005e+02 3.697300000005e+02 3.697300000005e+02 3.697300000005e+02 3.697300000005e+02 3.697300000005e+02 3.697300000004e+02 3.697300000004e+02 3.697300000003e+02 3.697300000003e+02 3.697300000001e+02 3.697300000001e+02 3.697300000002e+02 3.697300000005e+02 3.697300000004e+02 3.697300000004e+02 3.697300000003e+02 3.697300000003e+02 3.697300000006e+02 3.697300000005e+02 3.697300000005e+02 3.697300000003e+02 3.697300000004e+02 3.697300000001e+02 3.697300000000e+02 3.697300000000e+02 3.697300000000e+02 3.697300000000e+02 3.697300000000e+02 3.697300000000e+02 3.697300000000e+02 3.697300000000e+02 3.697300000000e+02 3.697300000000e+02 3.697300000000e+02 3.697300000000e+02 3.697300000000e+02 3.697300000001e+02 3.697300000