 TITLE = "Time curves in points"
 VARIABLES = "TIME"  "PRESSURE1" 
 ZONE T="POINT=POINTOBS"
0.000000000000e+00 0.000000000000e+00 
8.640000000000e-01 -1.522749742178e-01 
1.728000000000e+00 -1.062538349489e+00 
2.592000000000e+00 -3.992363044457e+00 
3.456000000000e+00 -1.077472847041e+01 
4.320000000000e+00 -2.349576590749e+01 
5.184000000000e+00 -4.412154192532e+01 
6.048000000000e+00 -7.421815864342e+01 
6.912000000000e+00 -1.148166422679e+02 
7.776000000000e+00 -1.664105117275e+02 
8.640000000000e+00 -2.290228344050e+02 
1.641600000000e+01 -1.266141775306e+03 
2.419200000000e+01 -2.486148184062e+03 
3.196800000000e+01 -3.738549495151e+03 
3.974400000000e+01 -4.954982239334e+03 
4.752000000000e+01 -6.108221780797e+03 
5.529600000000e+01 -7.190351837981e+03 
6.307200000000e+01 -8.202085336071e+03 
7.084800000000e+01 -9.147715917187e+03 
7.862400000000e+01 -1.003279923347e+04 
8.640000000000e+01 -1.086298435323e+04 
1.641600000000e+02 -1.639474093421e+04 
2.419200000000e+02 -2.040160747691e+04 
3.196800000000e+02 -2.349075756338e+04 
3.974400000000e+02 -2.598349474454e+04 
4.752000000000e+02 -2.806396286446e+04 
5.529600000000e+02 -2.984515904609e+04 
6.307200000000e+02 -3.140012806074e+04 
7.084800000000e+02 -3.277873193630e+04 
7.862400000000e+02 -3.401625408344e+04 
8.640000000000e+02 -3.513851924639e+04 
1.641600000000e+03 -4.185574995412e+04 
2.419200000000e+03 -4.643705775353e+04 
3.196800000000e+03 -4.984628338049e+04 
3.974400000000e+03 -5.253769874424e+04 
4.752000000000e+03 -5.475262082583e+04 
5.529600000000e+03 -5.662741095164e+04 
6.307200000000e+03 -5.825151607967e+04 
7.084800000000e+03 -5.968546346374e+04 
7.862400000000e+03 -6.096615094303e+04 
8.640000000000e+03 -6.212324395500e+04 
1.641600000000e+04 -6.897067507983e+04 
2.419200000000e+04 -7.361963549323e+04 
3.196800000000e+04 -7.706696115094e+04 
3.974400000000e+04 -7.977540969205e+04 
4.752000000000e+04 -8.200156943951e+04 
5.529600000000e+04 -8.389255528841e+04 
6.307200000000e+04 -8.551549748200e+04 
7.084800000000e+04 -8.695132000751e+04 
7.862400000000e+04 -8.823971742913e+04 
8.640000000000e+04 -8.939947867314e+04 
1.641600000000e+05 -9.613476775873e+04 
2.419200000000e+05 -1.004572606798e+05 
3.196800000000e+05 -1.033835420002e+05 
3.974400000000e+05 -1.054100802651e+05 
4.752000000000e+05 -1.068297304775e+05 
5.529600000000e+05 -1.078146475288e+05 
6.307200000000e+05 -1.085201950351e+05 
7.084800000000e+05 -1.090058450494e+05 
7.862400000000e+05 -1.093684266147e+05 
8.640000000000e+05 -1.096046513275e+05 
