 TITLE = "Time curves in points"
 VARIABLES = "TIME"  "PRESSURE1" 
 ZONE T="POINT=POINTOBS"
0.000000000000e+00 0.000000000000e+00 
8.640000000000e-01 -1.522749742178e-01 
1.728000000000e+00 -1.062538349489e+00 
2.592000000000e+00 -3.992363044457e+00 
3.456000000000e+00 -1.077472847041e+01 
4.320000000000e+00 -2.349576590749e+01 
5.184000000000e+00 -4.412154192532e+01 
6.048000000000e+00 -7.421815864342e+01 
6.912000000000e+00 -1.148166422679e+02 
7.776000000000e+00 -1.664105117275e+02 
8.640000000000e+00 -2.290228344050e+02 
1.641600000000e+01 -1.266141775306e+03 
2.419200000000e+01 -2.486148184062e+03 
3.196800000000e+01 -3.738549495151e+03 
3.974400000000e+01 -4.954982239334e+03 
4.752000000000e+01 -6.108221780797e+03 
5.529600000000e+01 -7.190351837981e+03 
6.307200000000e+01 -8.202085336071e+03 
7.084800000000e+01 -9.147715917187e+03 
7.862400000000e+01 -1.003279923347e+04 
8.640000000000e+01 -1.086298435323e+04 
1.641600000000e+02 -1.639474093421e+04 
2.419200000000e+02 -2.040160747691e+04 
3.196800000000e+02 -2.349075760387e+04 
3.974400000000e+02 -2.598349478392e+04 
4.752000000000e+02 -2.806395739690e+04 
5.529600000000e+02 -2.984515920220e+04 
6.307200000000e+02 -3.140013444526e+04 
7.084800000000e+02 -3.277874064760e+04 
7.862400000000e+02 -3.401626296713e+04 
8.640000000000e+02 -3.513852774882e+04 
1.641600000000e+03 -4.185575645002e+04 
2.419200000000e+03 -4.643698146300e+04 
3.196800000000e+03 -4.984626845167e+04 
3.974400000000e+03 -5.253871741905e+04 
4.752000000000e+03 -5.475252809916e+04 
5.529600000000e+03 -5.662749697741e+04 
6.307200000000e+03 -5.825157552318e+04 
7.084800000000e+03 -5.968552775282e+04 
7.862400000000e+03 -6.096619769736e+04 
8.640000000000e+03 -6.212354412047e+04 
1.641600000000e+04 -6.897279296977e+04 
2.419200000000e+04 -7.362007244227e+04 
3.196800000000e+04 -7.706642073097e+04 
3.974400000000e+04 -7.977535014248e+04 
4.752000000000e+04 -8.200165231038e+04 
5.529600000000e+04 -8.389277398181e+04 
6.307200000000e+04 -8.551643279792e+04 
7.084800000000e+04 -8.695187355574e+04 
7.862400000000e+04 -8.823958833725e+04 
8.640000000000e+04 -8.939942598858e+04 
1.641600000000e+05 -9.613554887021e+04 
2.419200000000e+05 -1.004570994550e+05 
3.196800000000e+05 -1.033815153754e+05 
3.974400000000e+05 -1.054104673247e+05 
4.752000000000e+05 -1.068296565605e+05 
5.529600000000e+05 -1.078133649792e+05 
6.307200000000e+05 -1.085205451076e+05 
7.084800000000e+05 -1.090187317092e+05 
7.862400000000e+05 -1.093759838721e+05 
8.640000000000e+05 -1.096084727257e+05 
