<?xml version="1.0"?>
<!-- Time step: 60 | Time: 3.600000000000e+07 -->
<VTKFile type="UnstructuredGrid" version="0.1" byte_order="LittleEndian">
  <UnstructuredGrid>
    <Piece NumberOfPoints="415" NumberOfCells="766">
      <Points>
        <DataArray type="Float64" NumberOfComponents="3" format="ascii">
          1.207938530154e+00 2.415959878103e-01 0.000000000000e+00
          1.300000000000e+00 2.499999999994e-01 0.000000000000e+00
          1.220000000000e+00 3.100000000000e-01 0.000000000000e+00
          1.300000000000e+00 3.333333333326e-01 0.000000000000e+00
          8.200000000000e-01 3.099999907180e-01 0.000000000000e+00
          8.320614730209e-01 3.784040209120e-01 0.000000000000e+00
          7.503508241230e-01 3.552767902482e-01 0.000000000000e+00
          1.207938523804e+00 3.784040296343e-01 0.000000000000e+00
          1.300000000000e+00 4.166666666658e-01 0.000000000000e+00
          7.600000000000e-01 4.100000000000e-01 0.000000000000e+00
          2.561902203926e-01 5.078411520450e-01 0.000000000000e+00
          3.287433399033e-01 5.627346023625e-01 0.000000000000e+00
          2.700000096462e-01 5.841154217496e-01 0.000000000000e+00
          1.949999969186e-01 5.591858446495e-01 0.000000000000e+00
          4.774328853885e-01 5.128460131256e-01 0.000000000000e+00
          5.199999957128e-01 5.485640621303e-01 0.000000000000e+00
          4.500000120577e-01 5.841154342803e-01 0.000000000000e+00
          4.978880093076e-01 6.242982416332e-01 0.000000000000e+00
          -3.500000616284e-02 5.591858393123e-01 0.000000000000e+00
          4.006091329651e-02 5.865057821630e-01 0.000000000000e+00
          -4.047979771015e-02 6.225826841191e-01 0.000000000000e+00
          2.221120068016e-01 6.242982224349e-01 0.000000000000e+00
          1.500001138785e-02 6.427756879314e-01 0.000000000000e+00
          -2.297477425353e-01 7.318565673969e-01 0.000000000000e+00
          -2.400000000000e-01 7.899999921103e-01 0.000000000000e+00
          -3.000000000000e-01 7.500000000003e-01 0.000000000000e+00
          -3.000000000000e-01 8.333333333336e-01 0.000000000000e+00
          -2.297477479322e-01 8.481434177752e-01 0.000000000000e+00
          7.544515513989e-01 9.121296405866e-01 0.000000000000e+00
          8.049999949090e-01 9.545448237797e-01 0.000000000000e+00
          7.105263157909e-01 1.000000000000e+00 0.000000000000e+00
          1.045548442933e+00 9.121296473415e-01 0.000000000000e+00
          1.047368421053e+00 1.000000000000e+00 0.000000000000e+00
          9.949999974545e-01 9.545448281887e-01 0.000000000000e+00
          3.287433234494e-01 9.172653947363e-01 0.000000000000e+00
          3.912566683236e-01 9.172653961869e-01 0.000000000000e+00
          3.736842105279e-01 1.000000000000e+00 0.000000000000e+00
          2.894736842120e-01 1.000000000000e+00 0.000000000000e+00
          -1.550000045551e-01 9.372243160134e-01 0.000000000000e+00
          -9.952019451997e-02 9.574173172509e-01 0.000000000000e+00
          -1.315789473679e-01 1.000000000000e+00 0.000000000000e+00
          1.499999772243e-02 9.372243199583e-01 0.000000000000e+00
          3.684210526418e-02 1.000000000000e+00 0.000000000000e+00
          -4.047981324990e-02 9.574173186210e-01 0.000000000000e+00
          8.670068414189e-01 9.771134722216e-01 0.000000000000e+00
          7.947368421066e-01 1.000000000000e+00 0.000000000000e+00
          9.631578947379e-01 1.000000000000e+00 0.000000000000e+00
          9.329931498972e-01 9.771134737529e-01 0.000000000000e+00
          -4.736842105186e-02 1.000000000000e+00 0.000000000000e+00
          8.789473684223e-01 1.000000000000e+00 0.000000000000e+00
          1.220140513920e+00 8.708522108707e-01 0.000000000000e+00
          1.300000000000e+00 8.333333333329e-01 0.000000000000e+00
          1.300000000000e+00 9.166666666664e-01 0.000000000000e+00
          -2.157894736844e-01 0.000000000000e+00 0.000000000000e+00
          -1.315789473689e-01 0.000000000000e+00 0.000000000000e+00
          -1.729701395524e-01 8.533172290824e-02 0.000000000000e+00
          -2.253868227720e-01 1.473636439423e-01 0.000000000000e+00
          -3.000000000000e-01 1.666666666674e-01 0.000000000000e+00
          -3.000000000000e-01 8.333333333368e-02 0.000000000000e+00
          1.104339330064e+00 5.680912583836e-01 0.000000000000e+00
          1.054729631471e+00 5.069615513188e-01 0.000000000000e+00
          1.119999997321e+00 4.832050823039e-01 0.000000000000e+00
          1.215789473684e+00 1.000000000000e+00 0.000000000000e+00
          1.131578947369e+00 1.000000000000e+00 0.000000000000e+00
          1.170164247833e+00 9.428979967600e-01 0.000000000000e+00
          8.667911067357e-01 4.385575164070e-01 0.000000000000e+00
          9.199999946410e-01 4.832050776629e-01 0.000000000000e+00
          8.373053486063e-01 5.014933379662e-01 0.000000000000e+00
          1.638402246392e-01 9.258059061812e-01 0.000000000000e+00
          2.052631578961e-01 1.000000000000e+00 0.000000000000e+00
          1.210526315802e-01 1.000000000000e+00 0.000000000000e+00
          -4.736842105329e-02 0.000000000000e+00 0.000000000000e+00
          -8.910046105699e-02 9.056429311187e-02 0.000000000000e+00
          2.625957929725e-01 8.339547519858e-02 0.000000000000e+00
          2.052631578936e-01 0.000000000000e+00 0.000000000000e+00
          2.894736842093e-01 0.000000000000e+00 0.000000000000e+00
          2.221119960621e-01 8.557017647663e-01 0.000000000000e+00
          1.483717367759e-01 8.468865985656e-01 0.000000000000e+00
          1.908553257188e-01 8.015636188208e-01 0.000000000000e+00
          1.176768722761e+00 7.442649879194e-02 0.000000000000e+00
          1.131578947368e+00 0.000000000000e+00 0.000000000000e+00
          1.215789473684e+00 0.000000000000e+00 0.000000000000e+00
          1.300000000000e+00 8.333333333313e-02 0.000000000000e+00
          1.300000000000e+00 1.666666666663e-01 0.000000000000e+00
          1.230221424054e+00 1.266364559953e-01 0.000000000000e+00
          1.026183028519e+00 5.634456431138e-01 0.000000000000e+00
          9.852703593883e-01 5.069615497070e-01 0.000000000000e+00
          3.513310899481e-01 4.981094123732e-01 0.000000000000e+00
          2.961293023751e-01 4.386646340794e-01 0.000000000000e+00
          8.052400923779e-01 4.541691807252e-01 0.000000000000e+00
          4.198186839884e-01 5.148514690425e-01 0.000000000000e+00
          3.912566847775e-01 5.627346067143e-01 0.000000000000e+00
          1.173208887298e+00 4.385575235174e-01 0.000000000000e+00
          1.218294453612e+00 4.577377547577e-01 0.000000000000e+00
          1.103210650972e+00 9.506069699314e-01 0.000000000000e+00
          8.425078750989e-02 6.358658211655e-01 0.000000000000e+00
          1.199390761913e-01 5.865057840166e-01 0.000000000000e+00
          7.693347658022e-01 2.775055490852e-01 0.000000000000e+00
          7.225671193846e-01 3.071539925628e-01 0.000000000000e+00
          1.244713466180e+00 1.931290986291e-01 0.000000000000e+00
          1.539343898654e-01 6.276068456419e-01 0.000000000000e+00
          1.300000000000e+00 0.000000000000e+00 0.000000000000e+00
          1.245531176627e+00 5.753505689752e-02 0.000000000000e+00
          1.300000000000e+00 1.000000000000e+00 0.000000000000e+00
          1.238626915819e+00 9.468997524437e-01 0.000000000000e+00
          -2.404510237281e-01 6.106005434673e-02 0.000000000000e+00
          -3.000000000000e-01 0.000000000000e+00 0.000000000000e+00
          6.022756434609e-02 6.807261170980e-01 0.000000000000e+00
          1.908553314332e-01 6.784363654791e-01 0.000000000000e+00
          7.503508190436e-01 4.647232237074e-01 0.000000000000e+00
          9.446176150742e-01 6.420354944623e-02 0.000000000000e+00
          9.852703776703e-01 1.130384470694e-01 0.000000000000e+00
          9.200000107180e-01 1.367949130551e-01 0.000000000000e+00
          8.667795810503e-01 6.983553088741e-02 0.000000000000e+00
          8.789473684207e-01 0.000000000000e+00 0.000000000000e+00
          9.631578947366e-01 0.000000000000e+00 0.000000000000e+00
          1.017646300240e+00 6.017892686272e-02 0.000000000000e+00
          1.054729649753e+00 1.130384519048e-01 0.000000000000e+00
          1.047368421052e+00 0.000000000000e+00 0.000000000000e+00
          1.173208899231e+00 1.814424907035e-01 0.000000000000e+00
          4.496491784167e-01 4.647232167296e-01 0.000000000000e+00
          8.356369000872e-02 7.078483216263e-02 0.000000000000e+00
          3.684210526228e-02 0.000000000000e+00 0.000000000000e+00
          1.210526315779e-01 0.000000000000e+00 0.000000000000e+00
          1.199390972157e-01 1.334942196905e-01 0.000000000000e+00
          4.006093432087e-02 1.334942141298e-01 0.000000000000e+00
          7.074738816445e-03 7.462174218855e-02 0.000000000000e+00
          9.950000127276e-01 6.254551806292e-01 0.000000000000e+00
          9.329931672651e-01 6.028865293096e-01 0.000000000000e+00
          9.521580157346e-01 5.565015505141e-01 0.000000000000e+00
          -1.361292987243e-01 2.813353558900e-01 0.000000000000e+00
          -1.500000000000e-01 3.599999893257e-01 0.000000000000e+00
          -2.225146693395e-01 3.407928543350e-01 0.000000000000e+00
          -2.388751889824e-01 2.473156806119e-01 0.000000000000e+00
          -3.000000000000e-01 4.166666666679e-01 0.000000000000e+00
          -3.000000000000e-01 3.333333333345e-01 0.000000000000e+00
          -3.000000000000e-01 2.500000000010e-01 0.000000000000e+00
          -3.499998767432e-02 1.608141500133e-01 0.000000000000e+00
          1.300000000000e+00 4.999999999990e-01 0.000000000000e+00
          1.200908537232e+00 5.112058526764e-01 0.000000000000e+00
          7.947368421046e-01 0.000000000000e+00 0.000000000000e+00
          7.943395889017e-01 8.785913283682e-02 0.000000000000e+00
          8.320614793702e-01 2.415959616435e-01 0.000000000000e+00
          7.795147846302e-01 2.112805515871e-01 0.000000000000e+00
[...]
      <PointData Scalars="HEAD">
        <DataArray type="Float64" Name="HEAD" format="ascii">
          1.330677572399e-03 0.000000000000e+00 6.225447132874e-04 0.000000000000e+00 3.415077830181e-02 3.160577274806e-02 3.352576802641e-02 9.800376458490e-04 0.000000000000e+00 3.149585931321e-02 5.901289322948e-02 5.682961859568e-02 6.147858196735e-02 6.554112904448e-02 4.985947872593e-02 4.597101395861e-02 4.870043470674e-02 4.443987120175e-02 8.826381887344e-02 7.892783736535e-02 8.663511709542e-02 6.676265453364e-02 7.947524729459e-02 9.933782673800e-02 9.961131939332e-02 1.000000000000e-01 1.000000000000e-01 9.900874506614e-02 3.875802883716e-02 3.525553552832e-02 3.938643403814e-02 5.948528690554e-03 7.284243638991e-03 9.767105906756e-03 5.889717354761e-02 5.346329224570e-02 5.519999595654e-02 6.118946971323e-02 9.364822997654e-02 8.783305336787e-02 9.073275039142e-02 7.496569761596e-02 7.433506882801e-02 8.067169655145e-02 2.764315845773e-02 3.525466426565e-02 1.354236263650e-02 1.736122069684e-02 8.174796884285e-02 2.580320330843e-02 1.731924631200e-03 0.000000000000e+00 0.000000000000e+00 9.592278054076e-02 9.133802807339e-02 9.408206488702e-02 9.705345284434e-02 1.000000000000e-01 1.000000000000e-01 7.119712064658e-03 1.004050008303e-02 5.434472694777e-03 1.948999793395e-03 4.099366392856e-03 2.989638441628e-03 2.840482520164e-02 2.350155500704e-02 2.802534216340e-02 6.803777658174e-02 6.598135885375e-02 6.980100228208e-02 8.578810304570e-02 8.936854245040e-02 6.100639387949e-02 6.548091542205e-02 5.983305457017e-02 6.711545980475e-02 6.912605237032e-02 6.920409125613e-02 6.332363810550e-03 9.774658936232e-03 4.472678855815e-03 0.000000000000e+00 0.000000000000e+00 2.904118401072e-03 1.214417903340e-02 1.663888988651e-02 5.489358452080e-02 5.529142209403e-02 2.988680685242e-02 5.215879609693e-02 5.290949203989e-02 2.472847209888e-03 1.748304404445e-03 4.793704302524e-03 7.419137009740e-02 7.172277646806e-02 3.545596112849e-02 3.582603788557e-02 1.441697564069e-03 7.022363691985e-02 0.000000000000e+00 2.718663052406e-03 0.000000000000e+00 1.397618583380e-03 9.724876042859e-02 1.000000000000e-01 7.410677169789e-02 7.004432700271e-02 3.075028510130e-02 2.480911035446e-02 2.201878410614e-02 2.832476730013e-02 3.027729231699e-02 2.912153346321e-02 2.306673441947e-02 1.864276790262e-02 1.484984527980e-02 1.619398962698e-02 3.850735082605e-03 5.250845567203e-02 7.524307349475e-02 7.922716639359e-02 7.209458469553e-02 7.126128480377e-02 7.991461198926e-02 8.204062334961e-02 1.288166712678e-02 1.952232106771e-02 1.866802688980e-02 9.665612846486e-02 9.790210271462e-02 9.859933817900e-02 9.830625217346e-02 1.000000000000e-01 1.000000000000e-01 1.000000000000e-01 8.753392432274e-02 0.000000000000e+00 2.765546415400e-03 3.406112493437e-02 3.442004685488e-02 3.488686057110e-02 3.581560605792e-02 5.389722106579e-02 5.095161987643e-02 4.795268039050e-02 4.976946769131e-02 4.089830621341e-02 4.229947198454e-02 3.889532755085e-03 3.111058275214e-03 5.720410805309e-03 3.805286601844e-02 3.836670301086e-02 4.103863025163e-02 5.583114091551e-02 5.485147311528e-02 5.792280856458e-02 5.504170842614e-02 5.396839237855e-02 5.254311241960e-02 9.009028183599e-03 7.784928099290e-03 3.767933988667e-02 2.604066811727e-02 3.129787416454e-02 2.994631845030e-02 3.599451841046e-03 4.290680847668e-02 4.153707806473e-02 4.160795351647e-02 2.864387122369e-03 1.495692412815e-03 5.695841402669e-02 5.823001663722e-02 1.238260003573e-02 8.570681476306e-03 3.062249611506e-02 3.228060828634e-02 3.842939815534e-02 3.725089347840e-02 3.524716763475e-02 3.951709145333e-02 3.996173039857e-02 4.061599115051e-02 4.753127637153e-03 5.326952647930e-02 7.182259272848e-02 9.826806536489e-02 5.394084766963e-02 3.230122690436e-02 3.288798164764e-02 6.813295619789e-02 5.401624500805e-03 4.063349389908e-03 7.144171272451e-02 3.865719592002e-02 5.322802214921e-02 4.637588352832e-02 4.413392949829e-02 4.080118930318e-02 5.648139742769e-02 6.367007526345e-02 9.727710470131e-02 4.573881940547e-02 4.909902446165e-02 4.171966673491e-02 4.205648012653e-02 5.158146806496e-02 5.193500940328e-02 4.323231960899e-02 4.506459734139e-02 4.268039820589e-02 4.581406283917e-02 3.864678855748e-02 4.028842897840e-02 5.508268752552e-02 0.000000000000e+00 5.083980482164e-02 5.280172911040e-02 4.648310461569e-02 4.259109187430e-02 9.316380313988e-02 4.155203038180e-02 9.328643029641e-02 7.014205872114e-02 6.981195731106e-02 3.561294031654e-02 3.425657519741e-02 4.895478136816e-03 4.037301017871e-02 4.877409564218e-02 6.978742702694e-02 7.114459962580e-02 7.130294627321e-02 6.990179911548e-02 4.414616743405e-02 9.239707532032e-02 9.612004731643e-02 9.505456221596e-02 9.564760829016e-02 3.765133655789e-02 4.929085406453e-02 4.672248266826e-02 4.537146444468e-02 3.721658011589e-03 7.037202598413e-02 5.354680529751e-02 9.786092664806e-02 9.828695587191e-02 4.079719588108e-02 4.011509654083e-03 3.261064458938e-02 3.542397479704e-02 9.718972693760e-02 9.441172759253e-02 5.416881191353e-02 9.248861818967e-02 7.080476861257e-02 9.643999903278e-02 2.443986610803e-02 3.903691683252e-02 4.050016134774e-02 4.188158787240e-02 4.182928764217e-02 9.866452481463e-02 9.828505899198e-02 1.000000000000e-01 1.000000000000e-01 3.890103027655e-02 4.228283235129e-02 5.281768553168e-02 3.698464895447e-02 5.337062501485e-02 2.134675663878e-03 0.000000000000e+00 9.633075435521e-02 1.000000000000e-01 9.875823865126e-02 1.000000000000e-01 9.710055254218e-02 1.521695026605e-03 0.000000000000e+00 6.376505914073e-02 6.432611192001e-02 1.000000000000e-01 4.959421911174e-02 9.561733883945e-02 8.924852766104e-02 9.223610072322e-02 8.759207124964e-02 8.322595060451e-02 7.639363472817e-02 9.003006894033e-02 9.528160083902e-02 9.241343817096e-02 8.661279247189e-02 7.779139597819e-02 8.008255338361e-02 8.260283236667e-02 8.636293996893e-02 8.120198578787e-02 9.078737053928e-02 9.500946766346e-02 8.425494375074e-02 7.583053661452e-02 7.387718274204e-02 7.951352969463e-02 7.623723485403e-02 8.900829160991e-02 6.864392784517e-02 6.665521188701e-02 6.036094427049e-02 8.288651692736e-02 8.151040052009e-02 9.017401287890e-02 8.317673079709e-02 6.688805171964e-02 8.132444078730e-02 7.116955226133e-02 7.436394656629e-02 9.147706289043e-02 6.565611767084e-02 7.419706341179e-02 6.989726603795e-02 6.108535588001e-02 7.535215538559e-02 8.735299390101e-02 6.339868472657e-02 7.742333739970e-02 7.515502019698e-02 5.683096469701e-02 5.860850647789e-02 5.255221892450e-02 5.499196728749e-02 6.010126276483e-02 5.185948129761e-02 5.688208664220e-02 5.462780737135e-02 4.776568432633e-02 6.163028057317e-02 6.050109495961e-02 5.082724407942e-02 4.562445080010e-02 6.423283639417e-02 4.692213878938e-02 4.971943507574e-02 4.651975828689e-02 6.577556822010e-02 6.071283375509e-02 6.416715370707e-02 3.595748653107e-02 3.960290726761e-02 4.054340909257e-02 4.352643422797e-02 4.225324304372e-02 4.779059341144e-02 4.548863251033e-02 4.711616879598e-02 4.637522107562e-02 4.063502872043e-02 4.965600403311e-02 4.344656713495e-02 3.853802707150e-02 4.979942728295e-02 3.793317846738e-02 3.963140224678e-02 4.944730500099e-02 3.562035621208e-02 3.587327735555e-02 3.793878756963e-02 4.227748754529e-02 3.483508612504e-02 1.410862578019e-02 2.801416931823e-02 2.197391160881e-02 2.096728623823e-02 1.473199315376e-02 8.849820167261e-03 9.194519879947e-03 1.310212059353e-02 1.395414924736e-02 2.766085718788e-02 3.365892971929e-02 1.807381736575e-02 2.801206280591e-02 2.946676753662e-02 8.876170998187e-03 3.293859089500e-02 2.331207423803e-02 2.108914569574e-02 2.187635380478e-02 1.802267149211e-02 1.070646055718e-02 1.471636514262e-02 1.853328609648e-02 1.904935261509e-02 2.475404408641e-02 2.428382413393e-02 2.271935240019e-02 1.440494541557e-02 2.511849863055e-02 8.498983729904e-03 9.775877701076e-03 2.893953911753e-02 2.355990123440e-02 6.295573787517e-03 2.029628288747e-02 1.771644895721e-02 3.008212630227e-02 5.988723751057e-03 1.124922572095e-02 1.303942293935e-02 5.809283337406e-03 
        </DataArray>
        <DataArray type="Float64" Name="NODAL_VELOCITY1" NumberOfComponents="3" format="ascii">
          1.166003139055e-08 9.005649525138e-09 0.000000000000e+00 1.522780010829e-08 5.082590269644e-09 0.000000000000e+00 5.442857242564e-09 7.248476103736e-10 0.000000000000e+00 9.092734430939e-09 -1.221846701902e-09 0.000000000000e+00 6.951184969052e-09 1.268919255289e-08 0.000000000000e+00 1.036206149381e-08 1.863764120402e-08 0.000000000000e+00 1.083571857077e-08 2.140482426642e-08 0.000000000000e+00 8.370492508186e-09 -3.926472928311e-09 0.000000000000e+00 1.585166702166e-08 -3.902951327157e-09 0.000000000000e+00 7.441127529374e-09 1.309605876594e-08 0.000000000000e+00 3.101369793729e-08 -1.923633423357e-08 0.000000000000e+00 2.829153704597e-08 -1.125425139427e-08 0.000000000000e+00 4.080682026210e-08 -2.738590288870e-08 0.000000000000e+00 3.775430256605e-08 -2.232773921097e-08 0.000000000000e+00 2.845770344982e-08 2.051464473056e-08 0.000000000000e+00 3.240946903424e-08 1.752540672685e-08 0.000000000000e+00 3.192871512235e-08 1.862050532452e-08 0.000000000000e+00 2.854982422854e-08 1.869910417387e-08 0.000000000000e+00 3.843266045209e-08 1.382283741250e-08 0.000000000000e+00 6.611994586336e-08 1.955391947405e-08 0.000000000000e+00 5.763388929485e-08 1.676487488362e-08 0.000000000000e+00 2.848439752537e-08 -1.993752285451e-08 0.000000000000e+00 5.520395982356e-08 2.239701704603e-08 0.000000000000e+00 6.461307513075e-09 -2.099326733183e-09 0.000000000000e+00 4.954003759404e-09 8.478041163701e-10 0.000000000000e+00 8.168754223654e-09 -1.062295925102e-09 0.000000000000e+00 1.511106252426e-08 4.221091162411e-09 0.000000000000e+00 1.206183130227e-08 6.882909925729e-09 0.000000000000e+00 1.858579634801e-08 6.174318601548e-09 0.000000000000e+00 4.357295702649e-08 1.109890941808e-08 0.000000000000e+00 4.100648361233e-08 9.970793666828e-09 0.000000000000e+00 2.004315463255e-08 -8.890267723035e-09 0.000000000000e+00 5.111111548736e-08 -1.774341324497e-08 0.000000000000e+00 5.243104494313e-08 -8.657385755979e-09 0.000000000000e+00 4.273144249690e-08 5.432926248535e-09 0.000000000000e+00 3.847807394760e-08 -3.824346496823e-09 0.000000000000e+00 7.487238068078e-08 -1.109637668457e-09 0.000000000000e+00 6.494558143537e-08 6.783124895032e-09 0.000000000000e+00 3.884038273475e-08 7.847618133342e-09 0.000000000000e+00 6.639743529896e-08 3.008722024236e-09 0.000000000000e+00 9.163222156930e-08 1.412028472983e-08 0.000000000000e+00 3.456990379738e-08 -1.018100419372e-08 0.000000000000e+00 7.260434487691e-08 -1.288178483717e-08 0.000000000000e+00 5.120239456983e-08 -6.538497726169e-09 0.000000000000e+00 6.426573047285e-08 7.694902748558e-09 0.000000000000e+00 9.157945745028e-08 1.952238452321e-08 0.000000000000e+00 1.145743572171e-07 -1.745253892396e-08 0.000000000000e+00 7.155095157040e-08 -3.648758645634e-09 0.000000000000e+00 1.053394598111e-07 -1.485771658761e-09 0.000000000000e+00 1.378842806410e-07 -1.367104929125e-09 0.000000000000e+00 2.106449956851e-08 -6.828452572076e-10 0.000000000000e+00 2.212233857091e-08 2.340109898757e-10 0.000000000000e+00 2.224357928835e-08 -3.392887727982e-10 0.000000000000e+00 5.021860280724e-08 -3.440521604535e-09 0.000000000000e+00 5.894878901540e-08 -6.555623040052e-09 0.000000000000e+00 5.143864570079e-08 -8.362213828324e-09 0.000000000000e+00 4.135011067938e-08 -8.313177721406e-09 0.000000000000e+00 3.492008516662e-08 -2.488465021602e-09 0.000000000000e+00 4.328554754895e-08 -1.815271946839e-09 0.000000000000e+00 5.352681983587e-08 3.132591055269e-09 0.000000000000e+00 3.299374514724e-08 -4.249521135571e-11 0.000000000000e+00 3.125418567938e-08 -7.744310167116e-09 0.000000000000e+00 2.398521248456e-08 -9.940726504443e-10 0.000000000000e+00 3.004929431073e-08 -3.724514304530e-09 0.000000000000e+00 2.401422384770e-08 -2.990649737481e-09 0.000000000000e+00 2.114895078319e-08 1.491732069161e-08 0.000000000000e+00 4.352154557423e-08 1.479597010934e-08 0.000000000000e+00 5.021271379122e-08 1.301783307622e-08 0.000000000000e+00 3.818568095280e-08 5.236644510520e-09 0.000000000000e+00 4.896719632800e-08 5.160145028640e-09 0.000000000000e+00 4.644455410369e-08 -2.375323362879e-09 0.000000000000e+00 7.307192463178e-08 -6.859911152599e-09 0.000000000000e+00 6.417292018065e-08 -1.434091725679e-08 0.000000000000e+00 6.233525859614e-08 1.322090935414e-08 0.000000000000e+00 7.265360167790e-08 6.245028108453e-09 0.000000000000e+00 5.996046029464e-08 5.252154214237e-09 0.000000000000e+00 2.483552785893e-08 1.247561047637e-08 0.000000000000e+00 1.732645670271e-08 9.816559903001e-09 0.000000000000e+00 7.926747369006e-09 9.064229827592e-09 0.000000000000e+00 5.935493719349e-08 1.236949072513e-08 0.000000000000e+00 6.986506613809e-08 6.228768067821e-09 0.000000000000e+00 5.645034339276e-08 4.666126280186e-09 0.000000000000e+00 4.595128699794e-08 2.526389231238e-09 0.000000000000e+00 3.361400990363e-08 4.923178867475e-09 0.000000000000e+00 4.294284834873e-08 1.385426212915e-08 0.000000000000e+00 7.655260109485e-08 1.614795639222e-08 0.000000000000e+00 5.600736110481e-08 1.032067080857e-08 0.000000000000e+00 3.736911224156e-08 -6.850820993431e-09 0.000000000000e+00 1.217718039219e-08 -8.377138323938e-09 0.000000000000e+00 2.477509754642e-08 1.702086435408e-08 0.000000000000e+00 3.975590132052e-08 2.047412915111e-08 0.000000000000e+00 2.775447986352e-08 3.542103268139e-09 0.000000000000e+00 1.407784282485e-08 -7.193454757210e-09 0.000000000000e+00 2.125105691841e-08 -9.327228553858e-09 0.000000000000e+00 2.939542133972e-08 -8.432899781359e-09 0.000000000000e+00 6.699835917527e-08 1.773280156721e-08 0.000000000000e+00 3.702999303168e-08 -3.096248078549e-09 0.000000000000e+00 2.086564026569e-08 1.936658180200e-08 0.000000000000e+00 1.683228506998e-08 1.350211495562e-08 0.000000000000e+00 2.667871586755e-08 1.342830402467e-08 0.000000000000e+00 5.155496533637e-08 -1.857710073921e-08 0.000000000000e+00 5.151266968669e-08 1.515101556442e-09 0.000000000000e+00 5.150116655998e-08 4.606038643951e-09 0.000000000000e+00 2.295843646770e-08 -2.149042829377e-10 0.000000000000e+00 2.295839598961e-08 -6.191793214148e-10 0.000000000000e+00 4.715597909847e-08 -3.268795333299e-09 0.000000000000e+00 4.730913595476e-08 -1.080428828723e-09 0.000000000000e+00 2.678598710153e-08 1.630875812272e-08 0.000000000000e+00 1.853667587939e-08 -6.579040743583e-09 0.000000000000e+00 1.116852510847e-08 -2.507687869504e-10 0.000000000000e+00 7.806609525085e-08 -1.153557582990e-08 0.000000000000e+00 4.667832955935e-08 -5.136435866738e-09 0.000000000000e+00 3.965407780260e-08 -1.289424701960e-08 0.000000000000e+00 6.048608409774e-08 -1.219416306008e-08 0.000000000000e+00 6.683111900594e-08 -5.689805233265e-09 0.000000000000e+00 7.926585343922e-08 -3.185933963848e-09 0.000000000000e+00 8.699938055333e-08 -4.246476335148e-10 0.000000000000e+00 4.674001398961e-08 4.841831737850e-09 0.000000000000e+00 8.090568032952e-08 2.668236311210e-09 0.000000000000e+00 2.459779705211e-08 1.484001516870e-08 0.000000000000e+00 1.314052454745e-08 9.867185519722e-09 0.000000000000e+00 9.080085206173e-08 5.589115057431e-11 0.000000000000e+00 8.378831950072e-08 -2.847535646495e-09 0.000000000000e+00 8.363814425621e-08 3.203983036706e-09 0.000000000000e+00 4.883764575932e-08 5.324752136598e-09 0.000000000000e+00 4.915092250682e-08 -4.975957505641e-09 0.000000000000e+00 8.281753148560e-08 -1.219020559973e-08 0.000000000000e+00 4.577957237949e-08 1.616496919897e-08 0.000000000000e+00 5.703309182339e-08 8.773839076453e-09 0.000000000000e+00 8.955370720544e-08 2.326292323127e-08 0.000000000000e+00 1.541272992719e-08 -1.192032790352e-08 0.000000000000e+00 6.322304527281e-09 -9.597091396319e-10 0.000000000000e+00 1.590550142445e-08 -3.975052440315e-09 0.000000000000e+00 2.654335448810e-08 -7.411358484924e-09 0.000000000000e+00 1.943140173643e-08 9.088617681437e-10 0.000000000000e+00 2.149314290664e-08 -2.135701218089e-09 0.000000000000e+00 2.770966156550e-08 -6.661338159397e-23 0.000000000000e+00 4.121085438090e-08 -1.498607962084e-08 0.000000000000e+00 2.641779401567e-08 -3.102667150983e-09 0.000000000000e+00 3.145243341722e-08 -9.746590366846e-09 0.000000000000e+00 5.414399044150e-08 -3.898224407228e-09 0.000000000000e+00 4.994174522480e-08 -6.767907042519e-09 0.000000000000e+00 1.195567905168e-08 8.868642011689e-10 0.000000000000e+00 3.013595301437e-08 -2.255447990800e-10 0.000000000000e+00 1.338642507305e-08 -4.468778424512e-09 0.000000000000e+00 4.548964741818e-08 3.100702310620e-10 0.000000000000e+00 4.819503724943e-08 -1.819525722703e-09 0.000000000000e+00 4.358429114262e-08 -6.280107528023e-09 0.000000000000e+00 2.714412320821e-08 3.143532658718e-09 0.000000000000e+00 3.331333394048e-08 -5.917756209576e-10 0.000000000000e+00 3.547900025065e-08 5.237139124467e-09 0.000000000000e+00 2.555874308235e-08 8.285675360024e-09 0.000000000000e+00 3.391276560946e-08 1.875930020754e-08 0.000000000000e+00 4.708303580824e-08 -1.435634444269e-09 0.000000000000e+00 4.349056154003e-08 2.550729859645e-09 0.000000000000e+00 4.834021699244e-08 1.392701387532e-09 0.000000000000e+00 3.226457127993e-08 2.066003211164e-08 0.000000000000e+00 1.222357890185e-08 8.216191809987e-09 0.000000000000e+00 2.148714910924e-08 1.512232190918e-08 0.000000000000e+00 3.980231592068e-08 1.109538377741e-08 0.000000000000e+00 2.651020448643e-08 7.088004960486e-09 0.000000000000e+00 3.837075673066e-08 9.368045925256e-10 0.000000000000e+00 5.702160672834e-08 2.492081644063e-08 0.000000000000e+00 2.396288366925e-08 1.664044390440e-08 0.000000000000e+00 3.870654356827e-08 1.608698290642e-08 0.000000000000e+00 4.054205262342e-08 -4.599665804182e-09 0.000000000000e+00 3.649616753646e-08 -1.708621855413e-08 0.000000000000e+00 5.656003929690e-08 -1.364578424046e-08 0.000000000000e+00 1.893132138232e-08 -7.020070581363e-09 0.000000000000e+00 2.380635244138e-08 -1.783039982003e-08 0.000000000000e+00 1.466591594735e-08 -1.315268904402e-08 0.000000000000e+00 1.888045980117e-08 -6.666442430166e-09 0.000000000000e+00 1.723852218307e-08 3.860112944472e-09 0.000000000000e+00 2.231146695558e-08 2.193281700022e-09 0.000000000000e+00 4.955927605032e-08 1.246595590803e-08 0.000000000000e+00 4.837377545857e-08 2.301166816561e-08 0.000000000000e+00 7.892044913416e-08 1.120207497954e-08 0.000000000000e+00 4.030208150745e-08 1.337401125832e-08 0.000000000000e+00 3.425293682172e-08 -8.946574439677e-09 0.000000000000e+00 2.187200412482e-08 -1.430112061540e-08 0.000000000000e+00 5.016276327136e-08 -7.178706430417e-10 0.000000000000e+00 4.965726009419e-08 -1.755013727329e-09 0.000000000000e+00 4.094031008553e-08 -8.178538356380e-09 0.000000000000e+00 2.706621417283e-08 -1.214790241378e-08 0.000000000000e+00 1.620337731219e-08 -1.691644049999e-08 0.000000000000e+00 1.762390261462e-08 -7.453317998369e-09 0.000000000000e+00 3.950248934265e-08 -4.894514566844e-09 0.000000000000e+00 2.169221024984e-08 7.939737859432e-09 0.000000000000e+00 3.273579286876e-08 1.187162406788e-08 0.000000000000e+00 1.548575101944e-08 4.838960454361e-09 0.000000000000e+00 4.571564363199e-08 5.588557147497e-09 0.000000000000e+00 5.056445987377e-08 -1.924082347831e-08 0.000000000000e+00 2.281061207309e-08 -1.121262543685e-08 0.000000000000e+00 8.173994035187e-08 1.192631869708e-08 0.000000000000e+00 5.375070483790e-08 2.521715494259e-08 0.000000000000e+00 6.721262172197e-09 -4.940801337077e-09 0.000000000000e+00 1.093922448534e-08 1.086155703403e-08 0.000000000000e+00 2.583419076767e-08 8.621576367736e-09 0.000000000000e+00 7.159227671453e-09 7.653670945400e-10 0.000000000000e+00 5.287299707810e-08 -5.921247746343e-09 0.000000000000e+00 5.012075027834e-08 -9.300622671103e-11 0.000000000000e+00 4.906460573621e-08 -2.248656947496e-10 0.000000000000e+00 5.319639585507e-08 5.457403608983e-09 0.000000000000e+00 4.786436139960e-08 1.737472784724e-08 0.000000000000e+00 9.101777887393e-09 7.132979161545e-09 0.000000000000e+00 3.082480278139e-08 -8.891339037206e-10 0.000000000000e+00 2.644775491818e-08 -8.285471096674e-09 