<!--Time step: 60 -->
<VTKFile type="PolyData" version="1.0" byte_order="LittleEndian" header_type="UInt64">
 <PolyData>
  <Piece NumberOfPoints="1000" NumberOfVerts="1000" NumberOfLines="0" NumberOfStrips="0" NumberOfPolys="0">
   <PointData Scalars ="identity" Vectors ="velocity">
    <DataArray type = "Int32" Name = "identity" format = "ascii " RangeMin = "0" RangeMax = "0"> 
0 0 0 0 0 0 
0 0 0 0 0 0 
0 0 0 0 0 0 
0 0 0 0 0 0 
0 0 0 0 0 0 
0 0 0 0 0 0 
0 0 0 0 0 0 
0 0 0 0 0 0 
0 0 0 0 0 0 
0 0 0 0 0 0 
0 0 0 0 0 0 
0 0 0 0 0 0 
0 0 0 0 0 0 
0 0 0 0 0 0 
0 0 0 0 0 0 
0 0 0 0 0 0 
0 0 0 0 0 0 
0 0 0 0 0 0 
0 0 0 0 0 0 
0 0 0 0 0 0 
0 0 0 0 0 0 
0 0 0 0 0 0 
0 0 0 0 0 0 
0 0 0 0 0 0 
0 0 0 0 0 0 
0 0 0 0 0 0 
0 0 0 0 0 0 
0 0 0 0 0 0 
0 0 0 0 0 0 
0 0 0 0 0 0 
0 0 0 0 0 0 
0 0 0 0 0 0 
0 0 0 0 0 0 
0 0 0 0 0 0 
0 0 0 0 0 0 
0 0 0 0 0 0 
0 0 0 0 0 0 
0 0 0 0 0 0 
0 0 0 0 0 0 
0 0 0 0 0 0 
0 0 0 0 0 0 
0 0 0 0 0 0 
0 0 0 0 0 0 
0 0 0 0 0 0 
0 0 0 0 0 0 
0 0 0 0 0 0 
0 0 0 0 0 0 
0 0 0 0 0 0 
0 0 0 0 0 0 
0 0 0 0 0 0 
0 0 0 0 0 0 
0 0 0 0 0 0 
0 0 0 0 0 0 
0 0 0 0 0 0 
0 0 0 0 0 0 
0 0 0 0 0 0 
0 0 0 0 0 0 
0 0 0 0 0 0 
0 0 0 0 0 0 
0 0 0 0 0 0 
0 0 0 0 0 0 
0 0 0 0 0 0 
0 0 0 0 0 0 
0 0 0 0 0 0 
0 0 0 0 0 0 
0 0 0 0 0 0 
0 0 0 0 0 0 
0 0 0 0 0 0 
0 0 0 0 0 0 
0 0 0 0 0 0 
0 0 0 0 0 0 
0 0 0 0 0 0 
0 0 0 0 0 0 
0 0 0 0 0 0 
0 0 0 0 0 0 
0 0 0 0 0 0 
0 0 0 0 0 0 
0 0 0 0 0 0 
0 0 0 0 0 0 
0 0 0 0 0 0 
0 0 0 0 0 0 
0 0 0 0 0 0 
0 0 0 0 0 0 
0 0 0 0 0 0 
0 0 0 0 0 0 
0 0 0 0 0 0 
0 0 0 0 0 0 
0 0 0 0 0 0 
0 0 0 0 0 0 
0 0 0 0 0 0 
0 0 0 0 0 0 
0 0 0 0 0 0 
0 0 0 0 0 0 
0 0 0 0 0 0 
0 0 0 0 0 0 
0 0 0 0 0 0 
0 0 0 0 0 0 
0 0 0 0 0 0 
0 0 0 0 0 0 
0 0 0 0 0 0 
0 0 0 0 0 0 
0 0 0 0 0 0 
0 0 0 0 0 0 
0 0 0 0 0 0 
0 0 0 0 0 0 
0 0 0 0 0 0 
0 0 0 0 0 0 
0 0 0 0 0 0 
0 0 0 0 0 0 
0 0 0 0 0 0 
0 0 0 0 0 0 
0 0 0 0 0 0 
0 0 0 0 0 0 
0 0 0 0 0 0 
0 0 0 0 0 0 
0 0 0 0 0 0 
0 0 0 0 0 0 
0 0 0 0 0 0 
0 0 0 0 0 0 
0 0 0 0 0 0 
0 0 0 0 0 0 
0 0 0 0 0 0 
0 0 0 0 0 0 
0 0 0 0 0 0 
0 0 0 0 0 0 
0 0 0 0 0 0 
0 0 0 0 0 0 
0 0 0 0 0 0 
0 0 0 0 0 0 
0 0 0 0 0 0 
0 0 0 0 0 0 
0 0 0 0 0 0 
0 0 0 0 0 0 
0 0 0 0 0 0 
0 0 0 0 0 0 
0 0 0 0 0 0 
0 0 0 0 0 0 
0 0 0 0 0 0 
0 0 0 0 0 0 
0 0 0 0 0 0 
0 0 0 0 0 0 
0 0 0 0 0 0 
0 0 0 0 0 0 
0 0 0 0 0 0 
0 0 0 0 0 0 
0 0 0 0 0 0 
0 0 0 0 0 0 
0 0 0 0 0 0 
0 0 0 0 0 0 
0 0 0 0 0 0 
0 0 0 0 0 0 
0 0 0 0 0 0 
0 0 0 0 0 0 
0 0 0 0 0 0 
0 0 0 0 0 0 
0 0 0 0 0 0 
0 0 0 0 0 0 
0 0 0 0 0 0 
0 0 0 0 0 0 
0 0 0 0 0 0 
0 0 0 0 0 0 
0 0 0 0 0 0 
0 0 0 0 0 0 
0 0 0 0 0 0 
0 0 0 0 0 0 
0 0 0 0 0 0 
0 0 0 0 
    </DataArray>
    <DataArray type = "Int32" Name = "on_boundary" format = "ascii " RangeMin = "-2.352867988907e-01" RangeMax = "1.300000000000e+00"> 
1 1 1 1 1 1 
1 1 1 1 1 1 
1 1 1 1 1 1 
1 1 1 1 1 1 
0 0 0 0 0 0 
0 0 0 0 0 0 
0 0 0 0 0 0 
0 0 0 0 0 0 
1 1 1 1 1 1 
1 1 1 1 1 1 
1 1 0 0 0 0 
0 0 0 0 0 0 
0 0 0 0 0 0 
0 0 0 0 0 0 
0 0 0 0 0 0 
0 0 0 0 1 1 
1 1 1 1 1 1 
1 1 1 1 1 1 
1 1 1 1 1 1 
1 1 1 1 1 1 
1 1 1 1 0 0 
0 0 0 0 0 0 
0 0 0 0 0 0 
0 0 0 0 0 0 
0 0 0 0 1 1 
1 1 1 1 1 1 
1 1 1 1 1 1 
0 0 0 0 0 0 
0 0 0 0 0 0 
0 0 0 0 0 0 
0 0 0 0 0 0 
0 0 0 0 0 0 
0 0 1 1 1 1 
1 1 1 1 1 1 
1 1 1 1 1 1 
1 1 1 1 1 1 
1 1 1 1 1 1 
1 1 0 0 0 0 
0 0 0 0 0 0 
0 0 0 0 0 0 
0 0 0 0 0 0 
0 0 1 1 1 1 
1 1 1 1 1 1 
1 1 1 1 0 0 
0 0 0 0 0 0 
0 0 0 0 0 0 
0 0 0 0 0 0 
0 0 0 0 0 0 
0 0 0 0 0 0 
1 1 1 1 1 1 
1 1 1 1 1 1 
1 1 1 1 1 1 
1 1 1 1 1 1 
1 1 1 1 1 1 
0 0 0 0 0 0 
0 0 0 0 0 0 
0 0 0 0 0 0 
0 0 0 0 0 0 
1 1 1 1 1 1 
1 1 1 1 1 1 
1 1 0 0 0 0 
0 0 0 0 0 0 
0 0 0 0 0 0 
0 0 0 0 0 0 
0 0 0 0 0 0 
0 0 0 0 1 1 
1 1 1 1 1 1 
1 1 1 1 1 1 
1 1 1 1 1 1 
1 1 1 1 1 1 
1 1 1 1 0 0 
0 0 0 0 0 0 
0 0 0 0 0 0 
0 0 0 0 0 0 
0 0 0 0 1 1 
1 1 1 1 1 1 
1 1 1 1 1 1 
0 0 0 0 0 0 
0 0 0 0 0 0 
0 0 0 0 0 0 
0 0 0 0 0 0 
0 0 0 0 0 0 
0 0 1 1 1 1 
1 1 1 1 1 1 
1 1 1 1 1 1 
1 1 1 1 1 1 
1 1 1 1 1 1 
1 1 0 0 0 0 
0 0 0 0 0 0 
0 0 0 0 0 0 
0 0 0 0 0 0 
0 0 1 1 1 1 
1 1 1 1 1 1 
1 1 1 0 0 0 
0 0 0 0 0 0 
0 0 0 0 0 0 
0 0 0 0 0 0 
0 0 0 0 0 0 
0 0 0 0 0 0 
1 1 1 1 1 1 
1 1 1 1 1 1 
1 1 1 1 1 1 
1 1 1 1 1 1 
1 1 1 1 1 1 
0 0 0 0 0 0 
0 0 0 0 0 0 
0 0 0 0 0 0 
0 0 0 0 0 0 
1 1 1 1 1 1 
1 1 1 1 1 1 
1 0 0 0 0 0 
0 0 0 0 0 0 
0 0 0 0 0 0 
0 0 0 0 0 0 
0 0 0 0 0 0 
0 0 0 0 1 1 
1 1 1 1 1 1 
1 1 1 1 1 1 
1 1 1 1 1 1 
1 1 1 1 1 1 
1 1 1 1 0 0 
0 0 0 0 0 0 
0 0 0 0 0 0 
0 0 0 0 1 0 
0 0 0 0 1 1 
1 1 1 1 1 1 
1 1 1 1 1 0 
0 0 0 0 0 0 
0 0 0 0 0 0 
0 0 0 0 0 0 
0 0 0 0 0 0 
0 0 0 0 0 0 
0 0 1 1 1 1 
1 1 1 1 1 1 
1 1 1 1 1 1 
1 1 1 1 1 1 
1 1 1 1 1 1 
1 1 0 0 0 0 
0 0 0 0 0 0 
0 0 0 0 0 0 
0 0 1 0 0 0 
0 0 1 1 1 1 
1 1 1 1 1 1 
1 1 1 0 0 0 
0 0 0 0 0 0 
0 0 0 0 0 0 
0 0 0 0 0 0 
0 0 0 0 0 0 
0 0 0 0 0 0 
0 1 1 1 1 1 
1 0 1 1 1 1 
1 1 1 1 1 1 
1 1 1 1 1 1 
1 1 1 1 1 1 
0 0 0 0 0 0 
0 0 0 0 0 0 
0 0 0 0 0 0 
1 0 0 0 0 0 
1 1 1 1 1 1 
1 1 1 1 1 1 
1 0 0 0 0 0 
0 0 0 0 0 0 
0 0 0 0 0 0 
0 0 0 0 0 0 
0 0 0 0 0 0 
0 0 0 0 0 1 
1 1 1 1 
    </DataArray>
    <DataArray type = "Float64" Name = "velocity" NumberOfComponents="3" format = "ascii " RangeMin = "-1.534377091044e-07" RangeMax = "3.519583816305e-07"> 
5.895565075821e-08 -5.277768962379e-09 0.000000000000e+00 7.814919874891e-08 -4.256992092179e-09 0.000000000000e+00 
5.030352880317e-08 7.870157881844e-10 0.000000000000e+00 4.996656567353e-08 7.334364893961e-10 0.000000000000e+00 
4.957932453385e-08 6.255551053192e-10 0.000000000000e+00 4.917657633618e-08 4.656905275466e-10 0.000000000000e+00 
4.867645831001e-08 2.213060500653e-10 0.000000000000e+00 4.777863191002e-08 -2.799757263675e-10 0.000000000000e+00 
4.592289643999e-08 -1.014018997489e-09 0.000000000000e+00 4.504931705663e-08 -2.214089792007e-10 0.000000000000e+00 
4.374295195614e-08 8.376634711496e-10 0.000000000000e+00 4.270809566748e-08 1.496020356143e-09 0.000000000000e+00 
4.008404386465e-08 1.891967365015e-09 0.000000000000e+00 3.968858352718e-08 1.772370691867e-09 0.000000000000e+00 
3.846104034438e-08 1.174114509117e-09 0.000000000000e+00 3.684571503796e-08 4.277651701801e-11 0.000000000000e+00 
3.588604356216e-08 -7.331978567840e-10 0.000000000000e+00 3.478736085965e-08 -1.675267946679e-09 0.000000000000e+00 
3.254975571223e-08 -5.572013208208e-10 0.000000000000e+00 3.022067746979e-08 1.995486483721e-09 0.000000000000e+00 
2.751365170668e-08 4.219190837114e-09 0.000000000000e+00 2.471723492452e-08 5.171442954511e-09 0.000000000000e+00 
1.886570914659e-08 4.556356448307e-09 0.000000000000e+00 1.350553144261e-08 3.184936263821e-09 0.000000000000e+00 
1.187700642822e-08 4.287171237961e-09 0.000000000000e+00 -7.250693696984e-08 1.669428166570e-08 0.000000000000e+00 
-1.683073133865e-10 -6.810741330180e-09 0.000000000000e+00 4.077206174439e-08 -7.406474295234e-09 0.000000000000e+00 
4.091701455401e-08 -7.250161209684e-09 0.000000000000e+00 4.126203526539e-08 -6.469420288483e-09 0.000000000000e+00 
3.519583816305e-07 -2.424073201531e-08 0.000000000000e+00 4.532265548216e-08 2.022470833119e-08 0.000000000000e+00 
3.879607491392e-08 1.906803498809e-08 0.000000000000e+00 1.442723671625e-08 2.206180105792e-08 0.000000000000e+00 
1.094703636772e-07 -2.804529678489e-08 0.000000000000e+00 2.891512811814e-10 1.434146062051e-09 0.000000000000e+00 
2.100219811116e-09 4.724913666635e-09 0.000000000000e+00 3.267501870800e-09 6.536962172103e-09 0.000000000000e+00 
-3.070779409254e-09 3.794197746900e-09 0.000000000000e+00 1.878364547137e-09 8.530280491614e-09 0.000000000000e+00 
-2.161387474054e-09 6.755990844182e-09 0.000000000000e+00 3.036679391378e-08 -3.871875952854e-09 0.000000000000e+00 
3.134411861822e-08 -3.525796073518e-09 0.000000000000e+00 3.160710266808e-08 -3.742557236807e-09 0.000000000000e+00 
3.666399023211e-08 -1.786186871111e-09 0.000000000000e+00 3.465137996324e-08 -5.123946497451e-09 0.000000000000e+00 
3.143522832557e-08 -2.755938532749e-09 0.000000000000e+00 2.995555161290e-08 4.656985181857e-10 0.000000000000e+00 
2.934585220739e-08 2.045499555521e-10 0.000000000000e+00 2.879485357138e-08 1.619902940330e-10 0.000000000000e+00 
2.850239560813e-08 7.485881920172e-11 0.000000000000e+00 2.838403142234e-08 7.288184442004e-12 0.000000000000e+00 
2.828865657967e-08 -7.180859972607e-11 0.000000000000e+00 2.819352450712e-08 -1.839443780320e-10 0.000000000000e+00 
2.816893638965e-08 -2.201370161485e-10 0.000000000000e+00 2.817473439428e-08 -2.112926713190e-10 0.000000000000e+00 
2.812890734048e-08 -2.868830838558e-10 0.000000000000e+00 2.806173471049e-08 -4.246427984783e-10 0.000000000000e+00 
2.798796162171e-08 -6.212344159831e-10 0.000000000000e+00 2.794370945380e-08 -7.655167449497e-10 0.000000000000e+00 
2.789510687161e-08 -9.483098282696e-10 0.000000000000e+00 2.786593421714e-08 -1.070231295064e-09 0.000000000000e+00 
-1.772420957336e-08 1.517730897558e-08 0.000000000000e+00 -2.205197855336e-09 1.036258757708e-08 0.000000000000e+00 
-7.637726609910e-09 1.225873775173e-08 0.000000000000e+00 2.758870181679e-08 -1.515527110118e-08 0.000000000000e+00 
-2.542486109712e-09 4.604231237916e-09 0.000000000000e+00 -2.766911886234e-09 4.309445863481e-09 0.000000000000e+00 
3.460336101598e-08 -2.631991504035e-08 0.000000000000e+00 3.766299877632e-08 -2.501564520021e-08 0.000000000000e+00 
4.445433900137e-08 -1.750529270655e-08 0.000000000000e+00 3.609871467792e-08 -2.326073575511e-08 0.000000000000e+00 
2.895042938074e-08 -2.124248582914e-08 0.000000000000e+00 -4.977430080074e-08 -3.242668572678e-08 0.000000000000e+00 
1.015994339309e-08 -1.312758941036e-09 0.000000000000e+00 1.163306502082e-08 -1.717193475835e-09 0.000000000000e+00 
6.755846592036e-09 -6.854938795551e-09 0.000000000000e+00 -1.012320821040e-09 2.049785011606e-10 0.000000000000e+00 
-1.211375796389e-09 6.535584122074e-11 0.000000000000e+00 -1.539772296170e-08 -6.786449368100e-09 0.000000000000e+00 
3.193321928666e-08 2.041933412618e-08 0.000000000000e+00 -3.367455311346e-09 -2.682614993342e-09 0.000000000000e+00 
1.504126892399e-09 -2.104356532885e-10 0.000000000000e+00 -2.409195769202e-10 4.628705338820e-09 0.000000000000e+00 
1.569093106387e-08 -1.055449587448e-08 0.000000000000e+00 1.233929800622e-08 1.293501790883e-08 0.000000000000e+00 
2.570621082945e-08 2.022124160891e-08 0.000000000000e+00 2.002917115180e-08 1.830502007465e-08 0.000000000000e+00 
1.481693867909e-08 1.393492086589e-08 0.000000000000e+00 1.464921348783e-08 1.510503910058e-08 0.000000000000e+00 
1.687718101646e-08 -2.244765957624e-10 0.000000000000e+00 2.405108196671e-09 3.513020103169e-09 0.000000000000e+00 
1.883679555525e-08 -7.171422531622e-09 0.000000000000e+00 2.219224882823e-08 -3.585919169685e-10 0.000000000000e+00 
2.220989599463e-08 -4.576073997037e-10 0.000000000000e+00 2.240984501290e-08 -4.111448000757e-10 0.000000000000e+00 
1.034524474365e-07 1.598536712521e-08 0.000000000000e+00 7.767138043068e-08 1.840247240210e-08 0.000000000000e+00 
6.268541814750e-08 1.797624104799e-08 0.000000000000e+00 4.974577553886e-08 1.333566516807e-08 0.000000000000e+00 
5.932598417041e-08 -5.321109924254e-09 0.000000000000e+00 7.805816458525e-08 -4.343730459449e-09 0.000000000000e+00 
5.029251712324e-08 7.858096181878e-10 0.000000000000e+00 4.993508084981e-08 7.265471615471e-10 0.000000000000e+00 
4.958090304719e-08 6.260938882665e-10 0.000000000000e+00 4.915480504526e-08 4.559385726337e-10 0.000000000000e+00 
4.867015361442e-08 2.180036444870e-10 0.000000000000e+00 4.776263983102e-08 -2.892909064144e-10 0.000000000000e+00 
4.584611078011e-08 -9.424756928969e-10 0.000000000000e+00 4.502454977788e-08 -1.997187391496e-10 0.000000000000e+00 
4.376864418869e-08 8.188853782683e-10 0.000000000000e+00 4.257133592215e-08 1.566118285360e-09 0.000000000000e+00 
4.016297684570e-08 1.910736928438e-09 0.000000000000e+00 3.972026301230e-08 1.783457793762e-09 0.000000000000e+00 
3.845964080591e-08 1.173273181859e-09 0.000000000000e+00 3.697467033068e-08 1.424712662504e-10 0.000000000000e+00 
3.606303625588e-08 -5.861596602691e-10 0.000000000000e+00 3.484508728526e-08 -1.624717524546e-09 0.000000000000e+00 
3.255652063329e-08 -5.650639851234e-10 0.000000000000e+00 3.024283532914e-08 1.973174236772e-09 0.000000000000e+00 
2.771973917607e-08 4.092519656324e-09 0.000000000000e+00 2.482433539289e-08 5.158248637886e-09 0.000000000000e+00 
1.942738911986e-08 4.677545839737e-09 0.000000000000e+00 1.348669077195e-08 3.174920006127e-09 0.000000000000e+00 
1.194342365831e-08 4.226238005730e-09 0.000000000000e+00 -2.878080426410e-08 2.714230381855e-09 0.000000000000e+00 
-2.011808748993e-10 -1.991791820287e-09 0.000000000000e+00 3.997624301304e-08 -8.604556829148e-09 0.000000000000e+00 
4.046642341958e-08 -8.039233146208e-09 0.000000000000e+00 4.035938258919e-08 -8.216746307367e-09 0.000000000000e+00 
3.895091257356e-08 -3.465328144709e-09 0.000000000000e+00 4.689722270115e-08 2.053870793381e-08 0.000000000000e+00 
3.951354215554e-08 1.915482808232e-08 0.000000000000e+00 -3.819311781830e-08 1.856399606700e-08 0.000000000000e+00 
-4.550904866482e-08 1.997336484773e-08 0.000000000000e+00 -4.647591204708e-11 7.788282438037e-10 0.000000000000e+00 
1.839852706066e-09 4.681941782134e-09 0.000000000000e+00 1.883731463952e-09 7.762890731497e-09 0.000000000000e+00 
9.339147283393e-10 6.549177982863e-09 0.000000000000e+00 2.516523317828e-09 8.837666769146e-09 0.000000000000e+00 
-1.370682138016e-09 7.011347376418e-09 0.000000000000e+00 2.936066468023e-08 -2.894885389605e-09 0.000000000000e+00 
2.866455231421e-08 4.984257786270e-10 0.000000000000e+00 3.121889763351e-08 -3.377082185929e-09 0.000000000000e+00 
3.617380469875e-08 -5.886269777530e-09 0.000000000000e+00 3.427306315303e-08 -4.686866067226e-09 0.000000000000e+00 
3.131479882103e-08 -2.762755142419e-09 0.000000000000e+00 2.981314369206e-08 4.549338995590e-10 0.000000000000e+00 
2.933801488102e-08 2.025181624462e-10 0.000000000000e+00 2.879303779229e-08 1.616661099817e-10 0.000000000000e+00 
2.852021136221e-08 8.287661297428e-11 0.000000000000e+00 2.838936150783e-08 1.096229772927e-11 0.000000000000e+00 
2.828803722152e-08 -7.241712745565e-11 0.000000000000e+00 2.817342254677e-08 -2.132765850643e-10 0.000000000000e+00 
2.817238107959e-08 -2.148587290268e-10 0.000000000000e+00 2.815857732026e-08 -2.364375801305e-10 0.000000000000e+00 
2.813223187201e-08 -2.809402108616e-10 0.000000000000e+00 2.806128002249e-08 -4.256997101897e-10 0.000000000000e+00 
2.799012132608e-08 -6.147199550276e-10 0.000000000000e+00 2.793236092608e-08 -8.059024080491e-10 0.000000000000e+00 
2.789076674856e-08 -9.658762390739e-10 0.000000000000e+00 2.784895799605e-08 -1.145260265394e-09 0.000000000000e+00 
-1.604903572166e-08 1.471825957229e-08 0.000000000000e+00 -5.677527864178e-09 1.161858510805e-08 0.000000000000e+00 
-8.482346597893e-09 1.250948043095e-08 0.000000000000e+00 6.131920345986e-10 -8.279845030785e-09 0.000000000000e+00 
-2.871332512208e-08 -2.302570191713e-08 0.000000000000e+00 4.383439999412e-08 2.883311279944e-08 0.000000000000e+00 
3.812154982955e-08 -2.537418669351e-08 0.000000000000e+00 3.877348546462e-08 -2.474257460568e-08 0.000000000000e+00 
4.672091120521e-08 -1.551331360432e-08 0.000000000000e+00 3.728205513784e-08 -2.284569113276e-08 0.000000000000e+00 
3.058740016515e-08 -2.179974577720e-08 0.000000000000e+00 9.309514650394e-09 -8.130620962796e-09 0.000000000000e+00 
1.055583040159e-08 -1.428442323218e-09 0.000000000000e+00 6.710130258762e-09 -5.838567403340e-09 0.000000000000e+00 
1.464443958303e-09 -2.014629907959e-08 0.000000000000e+00 -1.172898478517e-10 -2.189337458507e-08 0.000000000000e+00 
-8.159822437817e-10 3.427853546960e-10 0.000000000000e+00 2.340942141224e-10 5.035246960837e-09 0.000000000000e+00 
5.663832743146e-09 2.288928364872e-09 0.000000000000e+00 3.109588817239e-10 5.102340337816e-09 0.000000000000e+00 
-1.755742785864e-09 -1.678079226421e-09 0.000000000000e+00 -5.560663040022e-10 4.342204573900e-09 0.000000000000e+00 
-4.036467660486e-09 -1.003617649025e-08 0.000000000000e+00 2.459783399733e-08 -1.019508655676e-08 0.000000000000e+00 
3.463030981230e-08 2.146575137237e-08 0.000000000000e+00 2.009831506855e-08 1.837250572050e-08 0.000000000000e+00 
1.502619797002e-08 1.434755866190e-08 0.000000000000e+00 1.366870559940e-08 1.401766822146e-08 0.000000000000e+00 
1.736202752268e-08 -4.602640540590e-10 0.000000000000e+00 1.692857350031e-08 -2.700201925794e-10 0.000000000000e+00 
1.942847689720e-08 -2.091343119452e-09 0.000000000000e+00 2.219616754353e-08 -3.659665779331e-10 0.000000000000e+00 
2.220625818006e-08 -4.555682496910e-10 0.000000000000e+00 2.241201280714e-08 -4.102118420456e-10 0.000000000000e+00 
1.032542786931e-07 1.568449742178e-08 0.000000000000e+00 7.798408308730e-08 1.843596803410e-08 0.000000000000e+00 
6.337171086682e-08 1.793605728032e-08 0.000000000000e+00 5.017343218922e-08 1.362801877837e-08 0.000000000000e+00 
5.925992046280e-08 -5.302961066999e-09 0.000000000000e+00 7.816996207266e-08 -4.228540344856e-09 0.000000000000e+00 
5.030538639859e-08 7.872159410024e-10 0.000000000000e+00 4.993059523427e-08 7.255382916010e-10 0.000000000000e+00 
4.956828338746e-08 6.217652396524e-10 0.000000000000e+00 4.916590559148e-08 4.609230142545e-10 0.000000000000e+00 
4.865346900410e-08 2.092432688560e-10 0.000000000000e+00 4.777252977918e-08 -2.835290809493e-10 0.000000000000e+00 
4.583438984396e-08 -9.315827699373e-10 0.000000000000e+00 4.502579658037e-08 -2.008094520058e-10 0.000000000000e+00 
4.370767043116e-08 8.632856926899e-10 0.000000000000e+00 4.266605009058e-08 1.518051374668e-09 0.000000000000e+00 
4.001157794127e-08 1.873197885471e-09 0.000000000000e+00 3.968189072585e-08 1.769996131710e-09 0.000000000000e+00 
3.845824281969e-08 1.172432485171e-09 0.000000000000e+00 3.682509035677e-08 2.671622365054e-11 0.000000000000e+00 
3.590091823118e-08 -7.207815971470e-10 0.000000000000e+00 3.464967209795e-08 -1.796233671887e-09 0.000000000000e+00 
3.260252951747e-08 -6.185868803699e-10 0.000000000000e+00 3.012859498283e-08 2.087669289294e-09 0.000000000000e+00 
2.769255750747e-08 4.109684592553e-09 0.000000000000e+00 2.458703626962e-08 5.185480969152e-09 0.000000000000e+00 
1.958834867656e-08 4.711048550546e-09 0.000000000000e+00 1.349092983139e-08 3.177173968877e-09 0.000000000000e+00 
1.190180644927e-08 4.233636782099e-09 0.000000000000e+00 5.401991037182e-09 -9.019234804174e-09 0.000000000000e+00 
-6.622831285383e-10 -8.293321375085e-09 0.000000000000e+00 3.918489909893e-08 -9.498590071847e-09 0.000000000000e+00 
4.003746760643e-08 -8.611908519609e-09 0.000000000000e+00 4.005840723012e-08 -8.631229931059e-09 0.000000000000e+00 
3.996849825722e-08 -4.060145886260e-09 0.000000000000e+00 5.085356358777e-08 2.068374175836e-08 0.000000000000e+00 
4.097260350463e-08 1.936875396545e-08 0.000000000000e+00 7.311840213672e-09 -1.220324434966e-08 0.000000000000e+00 
-2.596916003187e-08 9.169416311161e-09 0.000000000000e+00 2.778899542532e-10 8.579068179967e-10 0.000000000000e+00 
2.059640608106e-09 4.724120391991e-09 0.000000000000e+00 -6.601515581846e-10 9.984032575553e-09 0.000000000000e+00 
-2.145468418987e-09 4.434163826552e-09 0.000000000000e+00 2.221068072751e-09 8.826296621853e-09 0.000000000000e+00 
6.345438504671e-10 7.812522224072e-09 0.000000000000e+00 2.990941086661e-08 -3.435328332867e-09 0.000000000000e+00 
3.116017999049e-08 -3.332312776334e-09 0.000000000000e+00 3.130209926061e-08 -3.387147047804e-09 0.000000000000e+00 
3.564397847680e-08 -5.876620424308e-09 0.000000000000e+00 3.413438638239e-08 -4.498162758520e-09 0.000000000000e+00 
3.112139876304e-08 -2.828323726883e-09 0.000000000000e+00 2.963509474803e-08 4.333835253675e-10 0.000000000000e+00 
2.935652032692e-08 2.026469536160e-10 0.000000000000e+00 2.881231275529e-08 1.650098059018e-10 0.000000000000e+00 
2.851067564409e-08 7.864453231383e-11 0.000000000000e+00 2.840396875727e-08 2.068614261534e-11 0.000000000000e+00 
2.830052390250e-08 -6.041293554033e-11 0.000000000000e+00 2.818138871734e-08 -2.013816338598e-10 0.000000000000e+00 
2.817438734976e-08 -2.118165373627e-10 0.000000000000e+00 2.817323813483e-08 -2.135562737396e-10 0.000000000000e+00 
2.812915145892e-08 -2.864441151454e-10 0.000000000000e+00 2.806697035087e-08 -4.126013321261e-10 0.000000000000e+00 
2.798824539971e-08 -6.203756939815e-10 0.000000000000e+00 2.793894317047e-08 -7.823081926245e-10 0.000000000000e+00 
2.789395783908e-08 -9.529408079072e-10 0.000000000000e+00 2.783216024859e-08 -1.222345183194e-09 0.000000000000e+00 
3.163780748450e-09 8.355618189330e-09 0.000000000000e+00 4.869497377442e-09 7.638700047103e-09 0.000000000000e+00 
3.290206087182e-09 8.251858154835e-09 0.000000000000e+00 -2.111939509024e-08 -1.443650478301e-08 0.000000000000e+00 
-2.678330464226e-08 -2.111564091826e-08 0.000000000000e+00 -2.953697704702e-09 4.022757006937e-09 0.000000000000e+00 
3.891965454813e-08 -2.560025020075e-08 0.000000000000e+00 4.775024767637e-08 -2.270334826770e-08 0.000000000000e+00 
4.674038899385e-08 -1.388745326335e-08 0.000000000000e+00 4.423882343560e-08 -2.152997407438e-08 0.000000000000e+00 
2.857219797127e-08 -2.108620508376e-08 0.000000000000e+00 1.185009850781e-08 -7.848701001886e-09 0.000000000000e+00 
1.126625583510e-08 -1.625690322426e-09 0.000000000000e+00 6.453985852494e-09 -6.564009443199e-09 0.000000000000e+00 
-3.026644422885e-09 -2.501981418303e-08 0.000000000000e+00 -5.445720914681e-09 -2.718451517873e-08 0.000000000000e+00 
-1.102857908703e-09 1.411055544689e-10 0.000000000000e+00 -1.143533080527e-09 3.822633531838e-09 0.000000000000e+00 
-1.773530917940e-09 -1.681022034023e-09 0.000000000000e+00 3.133748175791e-08 2.001617392011e-08 0.000000000000e+00 
-4.204934263969e-09 1.465613692441e-09 0.000000000000e+00 1.018478628793e-10 4.954842079511e-09 0.000000000000e+00 
-3.035659895685e-09 -1.007447175283e-08 0.000000000000e+00 3.222844708326e-08 -1.001438361194e-08 0.000000000000e+00 
-1.972704185519e-08 -9.442669632496e-09 0.000000000000e+00 1.954818736802e-08 1.830163299025e-08 0.000000000000e+00 
1.462317332583e-08 1.324561370248e-08 0.000000000000e+00 1.344990334542e-08 1.096204532091e-08 0.000000000000e+00 
1.794122823824e-08 -6.918710397787e-10 0.000000000000e+00 4.452365183666e-10 3.592040125150e-09 0.000000000000e+00 
1.948275060411e-08 -5.156593081918e-09 0.000000000000e+00 2.219958464030e-08 -3.733002949849e-10 0.000000000000e+00 
2.220436158577e-08 -4.545031722658e-10 0.000000000000e+00 2.240240607442e-08 -4.143341538697e-10 0.000000000000e+00 
1.030256636175e-07 1.532924653586e-08 0.000000000000e+00 7.956729444223e-08 1.861395986969e-08 0.000000000000e+00 
6.430715738092e-08 1.788909019563e-08 0.000000000000e+00 5.082941498660e-08 1.407018085810e-08 0.000000000000e+00 
5.969349132275e-08 -5.419578728619e-09 0.000000000000e+00 7.822230407677e-08 -4.125752212806e-09 0.000000000000e+00 
5.028478082999e-08 7.849419468383e-10 0.000000000000e+00 4.994743049025e-08 7.292894686935e-10 0.000000000000e+00 
4.954901532386e-08 6.150629914944e-10 0.000000000000e+00 4.915467584238e-08 4.558804088752e-10 0.000000000000e+00 
4.863741261042e-08 2.007845022249e-10 0.000000000000e+00 4.770630748120e-08 -3.221733544698e-10 0.000000000000e+00 
4.584619132254e-08 -9.425505712737e-10 0.000000000000e+00 4.501271401978e-08 -1.893710407813e-10 0.000000000000e+00 
4.361353864033e-08 9.306917178668e-10 0.000000000000e+00 4.265521448747e-08 1.523660609908e-09 0.000000000000e+00 
4.008644556481e-08 1.892564389258e-09 0.000000000000e+00 3.969711041455e-08 1.775379725815e-09 0.000000000000e+00 
3.834151961958e-08 1.101191457712e-09 0.000000000000e+00 3.676658746910e-08 -1.900730402922e-11 0.000000000000e+00 
3.591528875191e-08 -7.087962198996e-10 0.000000000000e+00 3.452815368995e-08 -1.903433418616e-09 0.000000000000e+00 
3.232587459522e-08 -2.980563798595e-10 0.000000000000e+00 3.036793311897e-08 1.846283748210e-09 0.000000000000e+00 
2.739063920065e-08 4.290964273636e-09 0.000000000000e+00 2.443371422507e-08 5.199298769414e-09 0.000000000000e+00 
1.926341048728e-08 4.642828932837e-09 0.000000000000e+00 1.357589393659e-08 3.222307836005e-09 0.000000000000e+00 
1.171115096952e-08 4.333328649347e-09 0.000000000000e+00 -2.999122551222e-08 1.867059486492e-08 0.000000000000e+00 
-7.787389397404e-10 -8.533345652427e-09 0.000000000000e+00 3.716880409419e-08 -1.118419051398e-08 0.000000000000e+00 
3.919489169102e-08 -9.552666577865e-09 0.000000000000e+00 3.941473046535e-08 -9.353198010853e-09 0.000000000000e+00 
4.109948513109e-08 -5.005285819669e-09 0.000000000000e+00 5.468487720662e-08 2.090102662055e-08 0.000000000000e+00 
4.172087605738e-08 1.947803083561e-08 0.000000000000e+00 -6.935943483431e-10 9.118126565194e-10 0.000000000000e+00 
-3.097672444789e-09 -6.965716992879e-09 0.000000000000e+00 1.028018731739e-10 9.276401440485e-10 0.000000000000e+00 
1.417108408279e-09 4.589094585850e-09 0.000000000000e+00 -4.157142040961e-10 9.789382870700e-09 0.000000000000e+00 
-3.687577848643e-09 3.345155495300e-09 0.000000000000e+00 1.047165575936e-09 -1.957288048091e-08 0.000000000000e+00 
8.346137748736e-10 7.942877388757e-09 0.000000000000e+00 2.974988635217e-08 -3.298476380748e-09 0.000000000000e+00 
3.077770687151e-08 -3.236772588094e-09 0.000000000000e+00 3.082939496567e-08 -3.244793237793e-09 0.000000000000e+00 
3.506717856312e-08 -5.672140303826e-09 0.000000000000e+00 3.410948364985e-08 -4.490562267474e-09 0.000000000000e+00 
2.950414588198e-08 4.925900891111e-10 0.000000000000e+00 2.955598624502e-08 4.228725998116e-10 0.000000000000e+00 
2.930698563513e-08 2.021822390019e-10 0.000000000000e+00 2.881510917557e-08 1.654773610125e-10 0.000000000000e+00 
2.853572907623e-08 8.948288006475e-11 0.000000000000e+00 2.839176345513e-08 1.259562989792e-11 0.000000000000e+00 
2.828940092118e-08 -7.107911145701e-11 0.000000000000e+00 2.820631053578e-08 -1.664272241643e-10 0.000000000000e+00 
2.816567115964e-08 -2.252051900383e-10 0.000000000000e+00 2.816502019892e-08 -2.262232100381e-10 0.000000000000e+00 
2.813205999162e-08 -2.812456037308e-10 0.000000000000e+00 2.807378116499e-08 -3.972869736984e-10 0.000000000000e+00 
2.800141489185e-08 -5.814315887661e-10 0.000000000000e+00 2.793786741584e-08 -7.861321057819e-10 0.000000000000e+00 
2.788489388868e-08 -9.899671111269e-10 0.000000000000e+00 2.725833130070e-08 -5.420504084805e-10 0.000000000000e+00 
6.116979266697e-09 7.103470726305e-09 0.000000000000e+00 4.344461631443e-09 -1.474465349958e-08 0.000000000000e+00 
3.027835294904e-09 8.377902555143e-09 0.000000000000e+00 2.087231443259e-08 -1.572050736401e-08 0.000000000000e+00 
-8.458574997048e-09 -2.284171925667e-09 0.000000000000e+00 3.963913248000e-08 -2.546342247807e-08 0.000000000000e+00 
3.944007663269e-08 -2.530326764066e-08 0.000000000000e+00 4.725291953940e-08 -2.188517424232e-08 0.000000000000e+00 
4.582656537677e-08 -1.169588666093e-08 0.000000000000e+00 4.333429568011e-08 -1.785388601913e-08 0.000000000000e+00 
2.918926640410e-08 -2.127026624389e-08 0.000000000000e+00 4.639803655421e-08 5.947959183290e-09 0.000000000000e+00 
6.856030963447e-09 -5.647046949790e-09 0.000000000000e+00 6.068934720667e-09 -7.429488000266e-09 0.000000000000e+00 
-7.036724258094e-09 -2.802740607299e-08 0.000000000000e+00 -4.797606353153e-09 -2.365993349922e-08 0.000000000000e+00 
-9.692395296937e-10 2.351789202373e-10 0.000000000000e+00 -1.999419768867e-09 3.156722867820e-09 0.000000000000e+00 
-4.450829144297e-09 -3.416764737518e-09 0.000000000000e+00 1.008186200903e-08 4.935431584458e-09 0.000000000000e+00 
3.007876765532e-08 1.912881186420e-08 0.000000000000e+00 2.801411225663e-10 5.105075630251e-09 0.000000000000e+00 
3.184680124822e-08 -9.964046639942e-09 0.000000000000e+00 -5.898262926577e-08 -7.910213192896e-09 0.000000000000e+00 
7.652035128699e-09 1.274347325930e-08 0.000000000000e+00 1.995919733405e-08 1.836986405385e-08 0.000000000000e+00 
1.447953394759e-08 1.270724991703e-08 0.000000000000e+00 1.344684184775e-08 1.095939620438e-08 0.000000000000e+00 
2.025963009033e-08 -1.647873057193e-09 0.000000000000e+00 2.011826977933e-08 -1.625989251339e-09 0.000000000000e+00 
1.938210533724e-08 -4.469240154650e-09 0.000000000000e+00 2.194889574905e-08 -3.299387793906e-10 0.000000000000e+00 
2.220182902215e-08 -4.530788158361e-10 0.000000000000e+00 2.239787982423e-08 -4.162658356911e-10 0.000000000000e+00 
1.021615726587e-07 1.385715388596e-08 0.000000000000e+00 8.134405359488e-08 1.882795158869e-08 0.000000000000e+00 
6.504667314865e-08 1.785891137528e-08 0.000000000000e+00 5.151631481026e-08 1.452611190204e-08 0.000000000000e+00 
5.995663786785e-08 -5.487251605790e-09 0.000000000000e+00 7.826302145538e-08 -3.787142766006e-09 0.000000000000e+00 
5.027839208380e-08 7.842126993268e-10 0.000000000000e+00 4.993017119377e-08 7.254425661891e-10 0.000000000000e+00 
4.957080319068e-08 6.226334304174e-10 0.000000000000e+00 4.914221708365e-08 4.502559288174e-10 0.000000000000e+00 
4.863435462470e-08 1.991704151131e-10 0.000000000000e+00 4.768795630063e-08 -3.329079259096e-10 0.000000000000e+00 
4.583161927832e-08 -9.290090198739e-10 0.000000000000e+00 4.501181735566e-08 -1.885875773746e-10 0.000000000000e+00 
4.364047480100e-08 9.115473192908e-10 0.000000000000e+00 4.253800225196e-08 1.582510334529e-09 0.000000000000e+00 
4.008102017183e-08 1.891213425266e-09 0.000000000000e+00 3.963935681627e-08 1.754644869121e-09 0.000000000000e+00 
3.841454419502e-08 1.146002347597e-09 0.000000000000e+00 3.672674437750e-08 -5.028648847790e-11 0.000000000000e+00 
3.598908086096e-08 -6.474098332578e-10 0.000000000000e+00 3.427613030964e-08 -2.126987463795e-09 0.000000000000e+00 
3.231473848548e-08 -2.852220846273e-10 0.000000000000e+00 3.031794186011e-08 1.897176934829e-09 0.000000000000e+00 
2.760850206739e-08 4.161886550427e-09 0.000000000000e+00 2.432287721368e-08 5.207529618318e-09 0.000000000000e+00 
1.913289484181e-08 4.614794447522e-09 0.000000000000e+00 1.343815372630e-08 3.149097398176e-09 0.000000000000e+00 
1.211857918602e-08 2.456541799309e-09 0.000000000000e+00 4.961857905856e-08 -1.179027933637e-08 0.000000000000e+00 
-2.548461100569e-09 -1.192329838238e-08 0.000000000000e+00 3.504558763020e-08 -1.139211227447e-08 0.000000000000e+00 