<!--Time step: 60 -->
<VTKFile type="PolyData" version="1.0" byte_order="LittleEndian" header_type="UInt64">
 <PolyData>
  <Piece NumberOfPoints="1000" NumberOfVerts="1000" NumberOfLines="0" NumberOfStrips="0" NumberOfPolys="0">
   <PointData Scalars ="identity" Vectors ="velocity">
    <DataArray type = "Int32" Name = "identity" format = "ascii " RangeMin = "0" RangeMax = "0"> 
0 0 0 0 0 0 
0 0 0 0 0 0 
0 0 0 0 0 0 
0 0 0 0 0 0 
0 0 0 0 0 0 
0 0 0 0 0 0 
0 0 0 0 0 0 
0 0 0 0 0 0 
0 0 0 0 0 0 
0 0 0 0 0 0 
0 0 0 0 0 0 
0 0 0 0 0 0 
0 0 0 0 0 0 
0 0 0 0 0 0 
0 0 0 0 0 0 
0 0 0 0 0 0 
0 0 0 0 0 0 
0 0 0 0 0 0 
0 0 0 0 0 0 
0 0 0 0 0 0 
0 0 0 0 0 0 
0 0 0 0 0 0 
0 0 0 0 0 0 
0 0 0 0 0 0 
0 0 0 0 0 0 
0 0 0 0 0 0 
0 0 0 0 0 0 
0 0 0 0 0 0 
0 0 0 0 0 0 
0 0 0 0 0 0 
0 0 0 0 0 0 
0 0 0 0 0 0 
0 0 0 0 0 0 
0 0 0 0 0 0 
0 0 0 0 0 0 
0 0 0 0 0 0 
0 0 0 0 0 0 
0 0 0 0 0 0 
0 0 0 0 0 0 
0 0 0 0 0 0 
0 0 0 0 0 0 
0 0 0 0 0 0 
0 0 0 0 0 0 
0 0 0 0 0 0 
0 0 0 0 0 0 
0 0 0 0 0 0 
0 0 0 0 0 0 
0 0 0 0 0 0 
0 0 0 0 0 0 
0 0 0 0 0 0 
0 0 0 0 0 0 
0 0 0 0 0 0 
0 0 0 0 0 0 
0 0 0 0 0 0 
0 0 0 0 0 0 
0 0 0 0 0 0 
0 0 0 0 0 0 
0 0 0 0 0 0 
0 0 0 0 0 0 
0 0 0 0 0 0 
0 0 0 0 0 0 
0 0 0 0 0 0 
0 0 0 0 0 0 
0 0 0 0 0 0 
0 0 0 0 0 0 
0 0 0 0 0 0 
0 0 0 0 0 0 
0 0 0 0 0 0 
0 0 0 0 0 0 
0 0 0 0 0 0 
0 0 0 0 0 0 
0 0 0 0 0 0 
0 0 0 0 0 0 
0 0 0 0 0 0 
0 0 0 0 0 0 
0 0 0 0 0 0 
0 0 0 0 0 0 
0 0 0 0 0 0 
0 0 0 0 0 0 
0 0 0 0 0 0 
0 0 0 0 0 0 
0 0 0 0 0 0 
0 0 0 0 0 0 
0 0 0 0 0 0 
0 0 0 0 0 0 
0 0 0 0 0 0 
0 0 0 0 0 0 
0 0 0 0 0 0 
0 0 0 0 0 0 
0 0 0 0 0 0 
0 0 0 0 0 0 
0 0 0 0 0 0 
0 0 0 0 0 0 
0 0 0 0 0 0 
0 0 0 0 0 0 
0 0 0 0 0 0 
0 0 0 0 0 0 
0 0 0 0 0 0 
0 0 0 0 0 0 
0 0 0 0 0 0 
0 0 0 0 0 0 
0 0 0 0 0 0 
0 0 0 0 0 0 
0 0 0 0 0 0 
0 0 0 0 0 0 
0 0 0 0 0 0 
0 0 0 0 0 0 
0 0 0 0 0 0 
0 0 0 0 0 0 
0 0 0 0 0 0 
0 0 0 0 0 0 
0 0 0 0 0 0 
0 0 0 0 0 0 
0 0 0 0 0 0 
0 0 0 0 0 0 
0 0 0 0 0 0 
0 0 0 0 0 0 
0 0 0 0 0 0 
0 0 0 0 0 0 
0 0 0 0 0 0 
0 0 0 0 0 0 
0 0 0 0 0 0 
0 0 0 0 0 0 
0 0 0 0 0 0 
0 0 0 0 0 0 
0 0 0 0 0 0 
0 0 0 0 0 0 
0 0 0 0 0 0 
0 0 0 0 0 0 
0 0 0 0 0 0 
0 0 0 0 0 0 
0 0 0 0 0 0 
0 0 0 0 0 0 
0 0 0 0 0 0 
0 0 0 0 0 0 
0 0 0 0 0 0 
0 0 0 0 0 0 
0 0 0 0 0 0 
0 0 0 0 0 0 
0 0 0 0 0 0 
0 0 0 0 0 0 
0 0 0 0 0 0 
0 0 0 0 0 0 
0 0 0 0 0 0 
0 0 0 0 0 0 
0 0 0 0 0 0 
0 0 0 0 0 0 
0 0 0 0 0 0 
0 0 0 0 0 0 
0 0 0 0 0 0 
0 0 0 0 0 0 
0 0 0 0 0 0 
0 0 0 0 0 0 
0 0 0 0 0 0 
0 0 0 0 0 0 
0 0 0 0 0 0 
0 0 0 0 0 0 
0 0 0 0 0 0 
0 0 0 0 0 0 
0 0 0 0 0 0 
0 0 0 0 0 0 
0 0 0 0 0 0 
0 0 0 0 0 0 
0 0 0 0 0 0 
0 0 0 0 0 0 
0 0 0 0 0 0 
0 0 0 0 
    </DataArray>
    <DataArray type = "Int32" Name = "on_boundary" format = "ascii " RangeMin = "-2.352869576934e-01" RangeMax = "1.300000000000e+00"> 
1 1 1 1 1 1 
1 1 1 1 1 1 
1 1 1 1 1 1 
1 1 1 1 1 1 
0 0 0 0 0 0 
0 0 0 0 0 0 
0 0 0 0 0 0 
0 0 0 0 0 0 
1 1 1 1 1 1 
1 1 1 1 1 1 
1 1 0 0 0 0 
0 0 0 0 0 0 
0 0 0 0 0 0 
0 0 0 0 0 0 
0 0 0 0 0 0 
0 0 0 0 1 1 
1 1 1 1 1 1 
1 1 1 1 1 1 
1 1 1 1 1 1 
1 1 1 1 1 1 
1 1 1 1 0 0 
0 0 0 0 0 0 
0 0 0 0 0 0 
0 0 0 0 0 0 
0 0 0 0 1 1 
1 1 1 1 1 1 
1 1 1 1 1 1 
0 0 0 0 0 0 
0 0 0 0 0 0 
0 0 0 0 0 0 
0 0 0 0 0 0 
0 0 0 0 0 0 
0 0 1 1 1 1 
1 1 1 1 1 1 
1 1 1 1 1 1 
1 1 1 1 1 1 
1 1 1 1 1 1 
1 1 0 0 0 0 
0 0 0 0 0 0 
0 0 0 0 0 0 
0 0 0 0 0 0 
0 0 1 1 1 1 
1 1 1 1 1 1 
1 1 1 1 0 0 
0 0 0 0 0 0 
0 0 0 0 0 0 
0 0 0 0 0 0 
0 0 0 0 0 0 
0 0 0 0 0 0 
1 1 1 1 1 1 
1 1 1 1 1 1 
1 1 1 1 1 1 
1 1 1 1 1 1 
1 1 1 1 1 1 
0 0 0 0 0 0 
0 0 0 0 0 0 
0 0 0 0 0 0 
0 0 0 0 0 0 
1 1 1 1 1 1 
1 1 1 1 1 1 
1 1 0 0 0 0 
0 0 0 0 0 0 
0 0 0 0 0 0 
0 0 0 0 0 0 
0 0 0 0 0 0 
0 0 0 0 1 1 
1 1 1 1 1 1 
1 1 1 1 1 1 
1 1 1 1 1 1 
1 1 1 1 1 1 
1 1 1 1 0 0 
0 0 0 0 0 0 
0 0 0 0 0 0 
0 0 0 0 0 0 
0 0 0 0 1 1 
1 1 1 1 1 1 
1 1 1 1 1 1 
0 0 0 0 0 0 
0 0 0 0 0 0 
0 0 0 0 0 0 
0 0 0 0 0 0 
0 0 0 0 0 0 
0 0 1 1 1 1 
1 1 1 1 1 1 
1 1 1 1 1 1 
1 1 1 1 1 1 
1 1 1 1 1 1 
1 1 0 0 0 0 
0 0 0 0 0 0 
0 0 0 0 0 0 
0 0 0 0 0 0 
0 0 1 1 1 1 
1 1 1 1 1 1 
1 1 1 1 0 0 
0 0 0 0 0 0 
0 0 0 0 0 0 
0 0 0 0 0 0 
0 0 0 0 0 0 
0 0 0 0 0 0 
1 1 1 1 1 1 
1 1 1 1 1 1 
1 1 1 1 1 1 
1 1 1 1 1 1 
1 1 1 1 1 1 
0 0 0 0 0 0 
0 0 0 0 0 0 
0 0 0 0 0 0 
0 0 0 0 0 0 
1 1 1 1 1 1 
1 1 1 1 1 1 
1 0 0 0 0 0 
0 0 0 0 0 0 
0 0 0 0 0 0 
0 0 0 0 0 0 
0 0 0 0 0 0 
0 0 0 0 1 1 
1 1 1 1 1 1 
1 1 1 1 1 1 
1 1 1 1 1 1 
1 1 1 1 1 1 
1 1 1 1 0 0 
0 0 0 0 0 0 
0 0 0 0 0 0 
0 0 0 0 1 0 
0 0 0 0 1 1 
1 1 1 1 1 1 
1 1 1 1 1 0 
0 0 0 0 0 0 
0 0 0 0 0 0 
0 0 0 0 0 0 
0 0 0 0 0 0 
0 0 0 0 0 0 
0 0 1 1 1 1 
1 1 1 1 1 1 
1 1 1 1 1 1 
1 1 1 1 1 1 
1 1 1 1 1 1 
1 1 0 0 0 0 
0 0 0 0 0 0 
0 0 0 0 0 0 
0 0 1 0 0 0 
0 0 1 1 1 1 
1 1 1 1 1 1 
1 1 1 0 0 0 
0 0 0 0 0 0 
0 0 0 0 0 0 
0 0 0 0 0 0 
0 0 0 0 0 0 
0 0 0 0 0 0 
0 1 1 1 1 1 
1 0 1 1 1 1 
1 1 1 1 1 1 
1 1 1 1 1 1 
1 1 1 1 1 1 
0 0 0 0 0 0 
0 0 0 0 0 0 
0 0 0 0 0 0 
1 0 0 0 0 0 
1 1 1 1 1 1 
1 1 1 1 1 1 
1 0 0 0 0 0 
0 0 0 0 0 0 
0 0 0 0 0 0 
0 0 0 0 0 0 
0 0 0 0 0 0 
0 0 0 0 0 1 
1 1 1 1 
    </DataArray>
    <DataArray type = "Float64" Name = "velocity" NumberOfComponents="3" format = "ascii " RangeMin = "-1.459236552788e-07" RangeMax = "3.509740438853e-07"> 
5.904638894052e-08 -5.284948139655e-09 0.000000000000e+00 7.817861649075e-08 -4.224211761396e-09 0.000000000000e+00 
5.029483409249e-08 7.865644622430e-10 0.000000000000e+00 4.994978633982e-08 7.308265172080e-10 0.000000000000e+00 
4.955752727717e-08 6.196752679811e-10 0.000000000000e+00 4.919555334449e-08 4.761921323672e-10 0.000000000000e+00 
4.869178304596e-08 2.317718888391e-10 0.000000000000e+00 4.776282883398e-08 -2.864461267096e-10 0.000000000000e+00 
4.593756346562e-08 -1.031899568995e-09 0.000000000000e+00 4.498495051599e-08 -1.690241427498e-10 0.000000000000e+00 
4.365085649582e-08 9.009595963760e-10 0.000000000000e+00 4.266509782475e-08 1.516207329879e-09 0.000000000000e+00 
4.015863830868e-08 1.910451199405e-09 0.000000000000e+00 3.970283620544e-08 1.778570114344e-09 0.000000000000e+00 
3.853886325083e-08 1.222511526576e-09 0.000000000000e+00 3.695864653716e-08 1.329237461995e-10 0.000000000000e+00 
3.590213876001e-08 -7.167556580249e-10 0.000000000000e+00 3.482282920049e-08 -1.641041354841e-09 0.000000000000e+00 
3.271122831861e-08 -7.489949150893e-10 0.000000000000e+00 3.032247608300e-08 1.889411724743e-09 0.000000000000e+00 
2.768635028020e-08 4.111510747927e-09 0.000000000000e+00 2.476915368596e-08 5.164430407658e-09 0.000000000000e+00 
1.864310690363e-08 4.506588970416e-09 0.000000000000e+00 1.346093022774e-08 3.161545594506e-09 0.000000000000e+00 
1.176627691094e-08 4.353233069884e-09 0.000000000000e+00 -6.728017216622e-08 1.502219278973e-08 0.000000000000e+00 
-1.963278285032e-10 -7.091941716635e-09 0.000000000000e+00 4.031152508768e-08 -8.118157486420e-09 0.000000000000e+00 
4.087757747309e-08 -7.323652912558e-09 0.000000000000e+00 4.111408644172e-08 -6.971210478647e-09 0.000000000000e+00 
3.509740438853e-07 -2.435406938647e-08 0.000000000000e+00 4.507321049076e-08 2.017177679002e-08 0.000000000000e+00 
3.867832146874e-08 1.905410988241e-08 0.000000000000e+00 1.512691110136e-08 2.231358550467e-08 0.000000000000e+00 
2.844272087877e-09 -9.478088493511e-09 0.000000000000e+00 2.891052028947e-10 1.245499626068e-09 0.000000000000e+00 
2.035713690801e-09 4.726271671686e-09 0.000000000000e+00 4.816704347069e-09 5.144251477320e-09 0.000000000000e+00 
-1.642086375306e-09 4.824050741929e-09 0.000000000000e+00 1.735690167087e-09 8.460007321490e-09 0.000000000000e+00 
-1.307481334695e-09 7.065712159471e-09 0.000000000000e+00 2.973675200560e-08 -3.223081793638e-09 0.000000000000e+00 
3.156773984673e-08 -3.659002743895e-09 0.000000000000e+00 3.144995218915e-08 -3.582786774952e-09 0.000000000000e+00 
3.665996762790e-08 -1.781559148535e-09 0.000000000000e+00 3.477186062312e-08 -5.245026549728e-09 0.000000000000e+00 
3.145437014662e-08 -2.850240265552e-09 0.000000000000e+00 2.990160220636e-08 4.611517121260e-10 0.000000000000e+00 
2.933483593778e-08 2.024791618739e-10 0.000000000000e+00 2.880677846853e-08 1.641071868644e-10 0.000000000000e+00 
2.851742284593e-08 8.176325531403e-11 0.000000000000e+00 2.838972632095e-08 1.138595597192e-11 0.000000000000e+00 
2.828769845848e-08 -7.249693124675e-11 0.000000000000e+00 2.818460301101e-08 -1.963114009235e-10 0.000000000000e+00 
2.816203864872e-08 -2.305130918725e-10 0.000000000000e+00 2.816977733663e-08 -2.184480348915e-10 0.000000000000e+00 
2.812005289836e-08 -3.026118366423e-10 0.000000000000e+00 2.805709074985e-08 -4.349251399255e-10 0.000000000000e+00 
2.799991495139e-08 -5.850507080021e-10 0.000000000000e+00 2.794497328606e-08 -7.602423368686e-10 0.000000000000e+00 
2.790023023131e-08 -9.268590207161e-10 0.000000000000e+00 2.786781800460e-08 -1.061035778829e-09 0.000000000000e+00 
-1.144029967985e-08 1.343258889037e-08 0.000000000000e+00 -1.686341821605e-08 1.496644866431e-08 0.000000000000e+00 
-5.322078368663e-09 1.147671515818e-08 0.000000000000e+00 -4.943258017872e-09 1.273164077969e-08 0.000000000000e+00 
-5.876129545772e-09 5.137187683686e-10 0.000000000000e+00 -2.982438128924e-09 3.994541709241e-09 0.000000000000e+00 
3.486016324733e-08 -2.638128424748e-08 0.000000000000e+00 3.776456827083e-08 -2.508633786602e-08 0.000000000000e+00 
4.456775435629e-08 -1.751174391888e-08 0.000000000000e+00 3.545559971827e-08 -2.320490352203e-08 0.000000000000e+00 
3.056637433376e-08 -2.177932586565e-08 0.000000000000e+00 -2.346762137960e-08 -2.109427012766e-08 0.000000000000e+00 
1.048996385683e-08 -1.411291777909e-09 0.000000000000e+00 5.928444889254e-09 -5.560246816928e-09 0.000000000000e+00 
6.885297405657e-09 -6.590603207298e-09 0.000000000000e+00 -1.397414463423e-09 -6.499600473124e-11 0.000000000000e+00 
-9.348040683625e-10 2.594425906564e-10 0.000000000000e+00 -1.222724446450e-09 3.780347311429e-09 0.000000000000e+00 
8.034439444341e-09 3.710601581116e-09 0.000000000000e+00 -1.951764827252e-09 3.195089255760e-09 0.000000000000e+00 
-1.108286676746e-09 -1.214420556450e-09 0.000000000000e+00 1.984978596691e-08 1.101727420779e-08 0.000000000000e+00 
2.169657622639e-08 -1.038084402571e-08 0.000000000000e+00 2.206026863862e-08 -1.020587386742e-08 0.000000000000e+00 
3.543713854936e-08 2.153818120338e-08 0.000000000000e+00 2.001901641658e-08 1.830044106580e-08 0.000000000000e+00 
1.507668050993e-08 1.453164708371e-08 0.000000000000e+00 1.379175994670e-08 1.416700638549e-08 0.000000000000e+00 
1.939315933580e-08 -1.313323180592e-09 0.000000000000e+00 1.554274512832e-08 3.052746588535e-10 0.000000000000e+00 
1.693141502924e-08 -7.845842454176e-09 0.000000000000e+00 2.219012806333e-08 -3.577822741646e-10 0.000000000000e+00 
2.221177038589e-08 -4.584290274932e-10 0.000000000000e+00 2.241530091796e-08 -4.090195062597e-10 0.000000000000e+00 
1.033677356706e-07 1.586203719171e-08 0.000000000000e+00 7.763854401101e-08 1.839863264759e-08 0.000000000000e+00 
6.268727153922e-08 1.797539309639e-08 0.000000000000e+00 4.974398859698e-08 1.333518647319e-08 0.000000000000e+00 
5.944858186975e-08 -5.353629504830e-09 0.000000000000e+00 7.812893256771e-08 -4.287162087631e-09 0.000000000000e+00 
5.030516779218e-08 7.876769430847e-10 0.000000000000e+00 4.994420343337e-08 7.296067481243e-10 0.000000000000e+00 
4.958619542066e-08 6.294907184444e-10 0.000000000000e+00 4.916657170482e-08 4.633319082297e-10 0.000000000000e+00 
4.868167229441e-08 2.264962225313e-10 0.000000000000e+00 4.769638655844e-08 -3.252309258193e-10 0.000000000000e+00 
4.597207110683e-08 -1.064186874538e-09 0.000000000000e+00 4.506489558107e-08 -2.389884408455e-10 0.000000000000e+00 
4.363611338157e-08 9.114873414800e-10 0.000000000000e+00 4.277700518030e-08 1.456564206736e-09 0.000000000000e+00 
4.002035190497e-08 1.876400406651e-09 0.000000000000e+00 3.973257583370e-08 1.788849449161e-09 0.000000000000e+00 
3.833562643843e-08 1.099755183225e-09 0.000000000000e+00 3.694891027986e-08 1.254317225694e-10 0.000000000000e+00 
3.587138089687e-08 -7.424345647549e-10 0.000000000000e+00 3.482744249666e-08 -1.637003258943e-09 0.000000000000e+00 
3.295032701361e-08 -1.029411919516e-09 0.000000000000e+00 3.014910716989e-08 2.064103848592e-09 0.000000000000e+00 
2.791754303919e-08 3.961277550547e-09 0.000000000000e+00 2.445398820094e-08 5.196922964579e-09 0.000000000000e+00 
1.928321038940e-08 4.646957066615e-09 0.000000000000e+00 1.344387764790e-08 3.152436686429e-09 0.000000000000e+00 
1.190905760406e-08 4.246820837302e-09 0.000000000000e+00 4.437530674594e-09 -8.593679939004e-09 0.000000000000e+00 
2.599688008523e-10 -1.365353797930e-09 0.000000000000e+00 4.023761412594e-08 -8.256922742138e-09 0.000000000000e+00 
4.053703838346e-08 -7.927926456397e-09 0.000000000000e+00 4.087305361098e-08 -7.482473569923e-09 0.000000000000e+00 
3.917063896313e-08 -3.592697770890e-09 0.000000000000e+00 4.680824840534e-08 2.051953654030e-08 0.000000000000e+00 
4.010177042273e-08 1.924353491547e-08 0.000000000000e+00 -1.042475281872e-09 -7.667479644630e-09 0.000000000000e+00 
2.850823991901e-08 -3.968475796987e-09 0.000000000000e+00 2.940502150559e-10 1.517121667298e-09 0.000000000000e+00 
2.162010972170e-09 4.744117185841e-09 0.000000000000e+00 1.810004442552e-09 7.844678945064e-09 0.000000000000e+00 
-7.969409355993e-11 5.858860911333e-09 0.000000000000e+00 1.897605576959e-09 8.708718152863e-09 0.000000000000e+00 
-5.092096596234e-10 7.386919736281e-09 0.000000000000e+00 2.982989633135e-08 -3.333010626875e-09 0.000000000000e+00 
3.147998969432e-08 -3.560162865270e-09 0.000000000000e+00 3.148317780877e-08 -3.493686564362e-09 0.000000000000e+00 
3.615276165946e-08 -1.236568949467e-09 0.000000000000e+00 3.423038879104e-08 -4.633368793286e-09 0.000000000000e+00 
3.132156007279e-08 -2.862245540300e-09 0.000000000000e+00 2.974730841980e-08 4.466434809192e-10 0.000000000000e+00 
2.930282689519e-08 2.021147172043e-10 0.000000000000e+00 2.881781318883e-08 1.659592094513e-10 0.000000000000e+00 
2.852136972581e-08 8.349038629317e-11 0.000000000000e+00 2.838913625695e-08 1.098348748384e-11 0.000000000000e+00 
2.829750348584e-08 -6.302168836207e-11 0.000000000000e+00 2.818846308313e-08 -1.907512635134e-10 0.000000000000e+00 
2.817292165553e-08 -2.136473939597e-10 0.000000000000e+00 2.816053357434e-08 -2.329015474970e-10 0.000000000000e+00 
2.812340104604e-08 -2.964259049087e-10 0.000000000000e+00 2.806272290810e-08 -4.217665795859e-10 0.000000000000e+00 
2.799856476419e-08 -5.889794900302e-10 0.000000000000e+00 2.794407887284e-08 -7.633600829814e-10 0.000000000000e+00 
2.790967288278e-08 -8.898862011685e-10 0.000000000000e+00 2.785070609093e-08 -1.136307982063e-09 0.000000000000e+00 
-4.788614785335e-09 1.128250322827e-08 0.000000000000e+00 -9.035703476490e-10 9.878938785945e-09 0.000000000000e+00 
-5.872648388616e-11 9.576615559816e-09 0.000000000000e+00 -1.212469252724e-08 1.525132447665e-08 0.000000000000e+00 
-6.653007467029e-09 -3.787748850173e-10 0.000000000000e+00 6.761476597275e-08 4.947366754226e-08 0.000000000000e+00 
3.620968113025e-08 -2.688394285512e-08 0.000000000000e+00 3.887050277123e-08 -2.488225453762e-08 0.000000000000e+00 
4.638898090298e-08 -1.574623254352e-08 0.000000000000e+00 3.705558598966e-08 -2.299380314580e-08 0.000000000000e+00 
3.170014123877e-08 -2.213178486663e-08 0.000000000000e+00 7.436660831144e-09 -8.495590870425e-09 0.000000000000e+00 
1.075389139708e-08 -1.478784452164e-09 0.000000000000e+00 6.742898638585e-09 -5.741711335636e-09 0.000000000000e+00 
6.337225080288e-09 -7.172607900084e-09 0.000000000000e+00 -8.538831577381e-10 3.162059559663e-10 0.000000000000e+00 
3.653751225339e-09 -6.847991216069e-10 0.000000000000e+00 3.111811493158e-08 1.986920045177e-08 0.000000000000e+00 
-4.683577849454e-09 -3.822263108553e-09 0.000000000000e+00 -1.370892601985e-09 -1.370962814367e-09 0.000000000000e+00 
-1.583797847041e-09 -1.524900959809e-09 0.000000000000e+00 -3.338692932850e-09 2.119391170514e-09 0.000000000000e+00 
-1.627214208189e-08 -9.570899845414e-09 0.000000000000e+00 4.098266632844e-08 -9.995672362955e-09 0.000000000000e+00 
3.464563498784e-07 6.250150764611e-08 0.000000000000e+00 1.992964258371e-08 1.832644770806e-08 0.000000000000e+00 
1.505813893734e-08 1.442596179895e-08 0.000000000000e+00 1.363460137318e-08 1.134900505271e-08 0.000000000000e+00 
1.492444548674e-08 5.669855423387e-10 0.000000000000e+00 1.665886690246e-08 -1.906501678838e-10 0.000000000000e+00 
1.942884476350e-08 -2.072736968453e-09 0.000000000000e+00 2.219779049452e-08 -3.670802535044e-10 0.000000000000e+00 
2.221224663633e-08 -4.586952612997e-10 0.000000000000e+00 2.241649637502e-08 -4.085031802217e-10 0.000000000000e+00 
1.030876365655e-07 1.543123380163e-08 0.000000000000e+00 7.782764750167e-08 1.841878323136e-08 0.000000000000e+00 
6.336952129267e-08 1.793545832672e-08 0.000000000000e+00 5.017167042724e-08 1.362755769131e-08 0.000000000000e+00 
5.913785789435e-08 -5.292105137584e-09 0.000000000000e+00 7.817251734717e-08 -4.233298447005e-09 0.000000000000e+00 
5.028844146547e-08 7.858614191133e-10 0.000000000000e+00 4.993857054942e-08 7.283653558075e-10 0.000000000000e+00 
4.958177982126e-08 6.279952864292e-10 0.000000000000e+00 4.915064989914e-08 4.561922861611e-10 0.000000000000e+00 
4.865290066557e-08 2.114213045396e-10 0.000000000000e+00 4.768385305200e-08 -3.325635025622e-10 0.000000000000e+00 
4.587047117765e-08 -9.693012858232e-10 0.000000000000e+00 4.502478238215e-08 -2.038182508028e-10 0.000000000000e+00 
4.355559982229e-08 9.683597147738e-10 0.000000000000e+00 4.263252993525e-08 1.533007092792e-09 0.000000000000e+00 
4.002528124420e-08 1.877705996137e-09 0.000000000000e+00 3.973044199056e-08 1.788119359673e-09 0.000000000000e+00 
3.846488268594e-08 1.178563661680e-09 0.000000000000e+00 3.677857252144e-08 -6.799904464009e-12 0.000000000000e+00 
3.602126427783e-08 -6.177349587393e-10 0.000000000000e+00 3.469036446034e-08 -1.757257846756e-09 0.000000000000e+00 
3.252113309904e-08 -5.275611539940e-10 0.000000000000e+00 3.027274290838e-08 1.939834870161e-09 0.000000000000e+00 
2.763349212978e-08 4.144457833606e-09 0.000000000000e+00 2.470350413295e-08 5.172240716634e-09 0.000000000000e+00 
1.861953018553e-08 4.501275736549e-09 0.000000000000e+00 1.352604926000e-08 3.196134056044e-09 0.000000000000e+00 
1.192070884749e-08 4.224063556080e-09 0.000000000000e+00 3.924979430309e-09 -8.373870880486e-09 0.000000000000e+00 
-1.107907008463e-09 -9.218733475154e-09 0.000000000000e+00 3.966420096098e-08 -8.979940198919e-09 0.000000000000e+00 
3.980692371660e-08 -8.880478209176e-09 0.000000000000e+00 4.014647064506e-08 -8.526611941291e-09 0.000000000000e+00 
4.050764669001e-08 -4.468768218216e-09 0.000000000000e+00 5.026212100890e-08 2.082119152917e-08 0.000000000000e+00 
4.066170675685e-08 1.931247296513e-08 0.000000000000e+00 3.786712600227e-08 -6.248252287360e-09 0.000000000000e+00 
1.365620512350e-09 2.727142526495e-09 0.000000000000e+00 -2.994616306955e-11 1.132089466113e-09 0.000000000000e+00 
1.766316182906e-09 4.674591518482e-09 0.000000000000e+00 4.455972825134e-10 9.045498954547e-09 0.000000000000e+00 
8.941376416365e-10 6.504774511752e-09 0.000000000000e+00 2.921721280130e-07 9.342431306417e-08 0.000000000000e+00 
5.400993406707e-10 7.754505844916e-09 0.000000000000e+00 2.971824725652e-08 -3.258513480468e-09 0.000000000000e+00 
3.129095716846e-08 -3.403736508513e-09 0.000000000000e+00 3.140568772046e-08 -3.437974117959e-09 0.000000000000e+00 
3.585574071095e-08 -5.889167739211e-09 0.000000000000e+00 3.431799008574e-08 -4.766823374014e-09 0.000000000000e+00 
3.119496113280e-08 -2.899576580936e-09 0.000000000000e+00 2.960655216796e-08 4.285205446718e-10 0.000000000000e+00 
2.935043625376e-08 2.025973557573e-10 0.000000000000e+00 2.880869692762e-08 1.644340799926e-10 0.000000000000e+00 
2.851838980326e-08 8.218849215189e-11 0.000000000000e+00 2.840179464981e-08 1.943740016805e-11 0.000000000000e+00 
2.829731879565e-08 -6.319702590173e-11 0.000000000000e+00 2.819491093384e-08 -1.816448579010e-10 0.000000000000e+00 
2.817095112936e-08 -2.166491452521e-10 0.000000000000e+00 2.816368184735e-08 -2.279211688997e-10 0.000000000000e+00 
2.812720352382e-08 -2.894963206923e-10 0.000000000000e+00 2.806755110918e-08 -4.107048580753e-10 0.000000000000e+00 
2.798876654767e-08 -6.180464456090e-10 0.000000000000e+00 2.794097086509e-08 -7.742613121087e-10 0.000000000000e+00 
2.789044442676e-08 -9.661902479330e-10 0.000000000000e+00 2.785602556927e-08 -1.112587893534e-09 0.000000000000e+00 
1.534788404335e-09 8.967416241058e-09 0.000000000000e+00 2.653047168633e-09 8.544618455987e-09 0.000000000000e+00 
1.144311810815e-09 9.136480165239e-09 0.000000000000e+00 -1.985220842251e-09 -9.143346289772e-09 0.000000000000e+00 
7.501502296663e-10 -5.503909820963e-09 0.000000000000e+00 -3.325506922503e-09 3.560397072584e-09 0.000000000000e+00 
3.900937806594e-08 -2.564402139987e-08 0.000000000000e+00 4.783235257097e-08 -2.273209532196e-08 0.000000000000e+00 
4.678125767803e-08 -1.412547013222e-08 0.000000000000e+00 4.422450671855e-08 -2.152632697827e-08 0.000000000000e+00 
2.971417143546e-08 -2.147834099810e-08 0.000000000000e+00 1.302011237663e-08 -7.765481904439e-09 0.000000000000e+00 
6.113502763091e-09 -5.547392477062e-09 0.000000000000e+00 7.002673499188e-09 -6.442535756458e-09 0.000000000000e+00 
-1.890703670658e-09 -2.379583971756e-08 0.000000000000e+00 -6.900782888473e-09 -2.798719701600e-08 0.000000000000e+00 
-8.848606854195e-10 2.945064422146e-10 0.000000000000e+00 -9.717636350441e-09 -1.259600940855e-08 0.000000000000e+00 
-1.049158002816e-09 -1.728198175212e-09 0.000000000000e+00 3.078665184926e-08 1.964031139581e-08 0.000000000000e+00 
-2.528259850308e-09 2.741042868448e-09 0.000000000000e+00 -5.970223268053e-10 4.275450415789e-09 0.000000000000e+00 
1.313768686478e-08 -1.069071744907e-08 0.000000000000e+00 6.146495752321e-09 -1.042271343408e-08 0.000000000000e+00 
-9.437915286968e-08 4.628548727798e-09 0.000000000000e+00 1.970526114764e-08 1.831382845705e-08 0.000000000000e+00 
1.475784156204e-08 1.353811667977e-08 0.000000000000e+00 1.359078013025e-08 1.105653655024e-08 0.000000000000e+00 
1.941133434512e-08 -1.307194412904e-09 0.000000000000e+00 5.181847740317e-10 3.087253595496e-09 0.000000000000e+00 
1.945301058481e-08 -1.931182644800e-09 0.000000000000e+00 2.220013525560e-08 -3.738503618643e-10 0.000000000000e+00 
2.220726831230e-08 -4.559082063995e-10 0.000000000000e+00 2.240749805645e-08 -4.123772531943e-10 0.000000000000e+00 
1.030694563529e-07 1.540279028253e-08 0.000000000000e+00 7.963489979273e-08 1.862151624641e-08 0.000000000000e+00 
6.430493315600e-08 1.788849159525e-08 0.000000000000e+00 5.082762313433e-08 1.406969988103e-08 0.000000000000e+00 
5.975180255531e-08 -5.434024387257e-09 0.000000000000e+00 7.819654701979e-08 -4.194421142889e-09 0.000000000000e+00 
5.027960739372e-08 7.848710522628e-10 0.000000000000e+00 4.993133527916e-08 7.267550361355e-10 0.000000000000e+00 
4.955445660658e-08 6.186091021559e-10 0.000000000000e+00 4.916577455748e-08 4.629756954592e-10 0.000000000000e+00 
4.865786310944e-08 2.140278566095e-10 0.000000000000e+00 4.763780490387e-08 -3.595457130361e-10 0.000000000000e+00 
4.581346198811e-08 -9.162993200870e-10 0.000000000000e+00 4.497283428539e-08 -1.584662948524e-10 0.000000000000e+00 
4.377327912585e-08 8.122260186476e-10 0.000000000000e+00 4.257027715621e-08 1.564402478639e-09 0.000000000000e+00 
4.016777945958e-08 1.912511612852e-09 0.000000000000e+00 3.966847002036e-08 1.766414393194e-09 0.000000000000e+00 
3.846935399583e-08 1.181244248625e-09 0.000000000000e+00 3.690481300705e-08 9.140768423192e-11 0.000000000000e+00 
3.585978770843e-08 -7.521250526280e-10 0.000000000000e+00 3.449416223333e-08 -1.930302150566e-09 0.000000000000e+00 
3.241996324314e-08 -4.103012789703e-10 0.000000000000e+00 3.007924160677e-08 2.133624699162e-09 0.000000000000e+00 
2.758549466009e-08 4.173919251789e-09 0.000000000000e+00 2.443394817860e-08 5.198572665912e-09 0.000000000000e+00 
1.947661267320e-08 4.687752148003e-09 0.000000000000e+00 1.350582787734e-08 3.185387852447e-09 0.000000000000e+00 
1.209265950603e-08 4.107338810408e-09 0.000000000000e+00 -1.903161037848e-08 1.651063965483e-08 0.000000000000e+00 
2.744431164797e-11 -1.400219820142e-09 0.000000000000e+00 3.716541699163e-08 -1.121224770254e-08 0.000000000000e+00 
3.927479186492e-08 -9.461556345793e-09 0.000000000000e+00 3.973393250797e-08 -9.020191805158e-09 0.000000000000e+00 
4.067421332955e-08 -4.569919409133e-09 0.000000000000e+00 5.762527926411e-08 2.076646981929e-08 0.000000000000e+00 
4.159631995891e-08 1.945595860673e-08 0.000000000000e+00 -2.734342288978e-08 7.617940797467e-09 0.000000000000e+00 
-6.393364451967e-09 -5.617849459559e-09 0.000000000000e+00 9.395737467012e-11 5.856152404817e-10 0.000000000000e+00 
1.702844975066e-09 4.654713243761e-09 0.000000000000e+00 -6.581454029521e-10 9.942463210242e-09 0.000000000000e+00 
1.649418979921e-09 6.965247893340e-09 0.000000000000e+00 6.239663333581e-09 -1.981656461470e-08 0.000000000000e+00 
1.495322419403e-09 8.204055556705e-09 0.000000000000e+00 2.971593495674e-08 -3.278229366715e-09 0.000000000000e+00 
3.110023662378e-08 -3.315640800438e-09 0.000000000000e+00 3.102333662869e-08 -3.303271766320e-09 0.000000000000e+00 
3.480369882096e-08 -5.463233176789e-09 0.000000000000e+00 3.159848520127e-08 -3.358845155050e-09 0.000000000000e+00 
2.961683970086e-08 4.943040644380e-10 0.000000000000e+00 2.954707060832e-08 4.194743687975e-10 0.000000000000e+00 
2.937131350549e-08 2.026991842847e-10 0.000000000000e+00 2.882065015845e-08 1.664244411792e-10 0.000000000000e+00 
2.852062956429e-08 8.316822286410e-11 0.000000000000e+00 2.839635542312e-08 1.585069034256e-11 0.000000000000e+00 
2.830425207656e-08 -5.669567956924e-11 0.000000000000e+00 2.818265598290e-08 -1.991472876113e-10 0.000000000000e+00 
2.816136543011e-08 -2.315797385624e-10 0.000000000000e+00 2.816135466303e-08 -2.315968203401e-10 0.000000000000e+00 
2.813879004137e-08 -2.689947861938e-10 0.000000000000e+00 2.807501247034e-08 -3.940000212829e-10 0.000000000000e+00 
2.799141053159e-08 -6.101061478408e-10 0.000000000000e+00 2.793910376628e-08 -7.808604240806e-10 0.000000000000e+00 
2.789833736288e-08 -9.343864993949e-10 0.000000000000e+00 2.785052660092e-08 -1.137113335947e-09 0.000000000000e+00 
2.501641865207e-09 8.583048090753e-09 0.000000000000e+00 1.794217845315e-08 -1.499225291061e-08 0.000000000000e+00 
2.127163864002e-09 8.753874126672e-09 0.000000000000e+00 4.855651027729e-09 -6.798053724228e-09 0.000000000000e+00 
-4.608185907515e-09 2.015513927563e-09 0.000000000000e+00 -4.527745896197e-09 2.063819285920e-09 0.000000000000e+00 
3.934662192443e-08 -2.514738948764e-08 0.000000000000e+00 4.705675106307e-08 -2.192686358230e-08 0.000000000000e+00 
4.560945278013e-08 -1.126572709832e-08 0.000000000000e+00 4.339134018805e-08 -1.782398785209e-08 0.000000000000e+00 
3.041711303493e-08 -2.168444698186e-08 0.000000000000e+00 8.129957722483e-09 -8.368985711040e-09 0.000000000000e+00 
6.352043448050e-09 -5.573248964176e-09 0.000000000000e+00 1.961078512691e-09 -1.958286495159e-08 0.000000000000e+00 
-6.499130529452e-09 -2.780890845181e-08 0.000000000000e+00 -9.726853246363e-09 -1.894991948865e-08 0.000000000000e+00 
-1.035574740531e-09 1.885718793614e-10 0.000000000000e+00 5.949119036868e-10 5.400013438002e-09 0.000000000000e+00 
-3.979976322618e-09 -3.232308942771e-09 0.000000000000e+00 1.434235329540e-08 7.479699416343e-09 0.000000000000e+00 
-3.563197135565e-11 -5.271522957866e-10 0.000000000000e+00 2.147990133044e-08 1.274474816035e-08 0.000000000000e+00 
2.637802945302e-08 -1.120525623078e-08 0.000000000000e+00 9.400133614851e-09 -1.054722155225e-08 0.000000000000e+00 
1.725153090221e-08 1.304593788646e-08 0.000000000000e+00 1.968879516535e-08 1.831902790117e-08 0.000000000000e+00 
1.466693508131e-08 1.320394792609e-08 0.000000000000e+00 1.344976442633e-08 1.084057431754e-08 0.000000000000e+00 
1.987776082201e-08 -1.512796465721e-09 0.000000000000e+00 2.104547393030e-08 -2.019688094735e-09 0.000000000000e+00 
1.937748064969e-08 -4.419432044541e-09 0.000000000000e+00 2.194970491898e-08 -3.306216098869e-10 0.000000000000e+00 
2.220410004580e-08 -4.541297078381e-10 0.000000000000e+00 2.240149047136e-08 -4.149483871832e-10 0.000000000000e+00 
1.021363284004e-07 1.381506794599e-08 0.000000000000e+00 8.132155424748e-08 1.882484791244e-08 0.000000000000e+00 
6.504442673581e-08 1.785831250577e-08 0.000000000000e+00 5.151450591442e-08 1.452562002229e-08 0.000000000000e+00 
5.980159395674e-08 -5.446925557328e-09 0.000000000000e+00 7.827023943677e-08 -3.882693142644e-09 0.000000000000e+00 
5.026303347920e-08 7.829534917960e-10 0.000000000000e+00 4.993174058233e-08 7.268457122197e-10 0.000000000000e+00 
4.956705009103e-08 6.229635165634e-10 0.000000000000e+00 4.912524053211e-08 4.446917589428e-10 0.000000000000e+00 
4.863071634616e-08 1.997365864770e-10 0.000000000000e+00 4.773841304432e-08 -3.006812465903e-10 0.000000000000e+00 
4.577273572796e-08 -8.785447570407e-10 0.000000000000e+00 4.497369903645e-08 -1.592194171554e-10 0.000000000000e+00 
4.361177989393e-08 9.287870815452e-10 0.000000000000e+00 4.253473858083e-08 1.581896911424e-09 0.000000000000e+00 
4.005973153572e-08 1.886642606468e-09 0.000000000000e+00 3.963665878714e-08 1.754900150099e-09 0.000000000000e+00 
3.831520674775e-08 1.087077311655e-09 0.000000000000e+00 3.668292980454e-08 -8.196634086890e-11 0.000000000000e+00 
3.592064463768e-08 -7.013274286432e-10 0.000000000000e+00 3.456630931760e-08 -1.866549006303e-09 0.000000000000e+00 
3.247898091279e-08 -4.786537594250e-10 0.000000000000e+00 2.983049322943e-08 2.376808052117e-09 0.000000000000e+00 
2.768571891225e-08 4.111907384727e-09 0.000000000000e+00 2.449788657085e-08 5.193139861429e-09 0.000000000000e+00 
1.830655524251e-08 4.429875553134e-09 0.000000000000e+00 1.347364782253e-08 3.168276900637e-09 0.000000000000e+00 
1.203233093586e-08 2.412466909863e-09 0.000000000000e+00 -3.073535006152e-08 1.881666356130e-08 0.000000000000e+00 
-4.825183643849e-10 -7.837271185070e-09 0.000000000000e+00 3.429501961514e-08 -1.135848734539e-08 0.000000000000e+00 