 TITLE = "Profiles along polylines"
 VARIABLES = "DIST" "PRESSURE1" "PRESSURE2" "PRESSURE_W" "SATURATION1" SATURATION2 "VELOCITY_X1" "VELOCITY_Y1" "VELOCITY_X2" "VELOCITY_Y2" 
 ZONE T="TIME=0.000000000000e+00"
0.000000000000e+00 0.000000000000e+00 1.013250000000e+05 1.013250000000e+05 1.000000000000e+00 3.330669073875e-16 0.000000000000e+00 0.000000000000e+00 0.000000000000e+00 0.000000000000e+00 
3.333333333333e-02 0.000000000000e+00 1.013250000000e+05 1.013250000000e+05 1.000000000000e+00 2.220446049250e-16 0.000000000000e+00 0.000000000000e+00 0.000000000000e+00 0.000000000000e+00 
6.666666666667e-02 0.000000000000e+00 1.013250000000e+05 1.013250000000e+05 1.000000000000e+00 2.220446049250e-16 0.000000000000e+00 0.000000000000e+00 0.000000000000e+00 0.000000000000e+00 
1.000000000000e-01 0.000000000000e+00 1.013250000000e+05 1.013250000000e+05 1.000000000000e+00 2.220446049250e-16 0.000000000000e+00 0.000000000000e+00 0.000000000000e+00 0.000000000000e+00 
1.333333333333e-01 0.000000000000e+00 1.013250000000e+05 1.013250000000e+05 1.000000000000e+00 2.220446049250e-16 0.000000000000e+00 0.000000000000e+00 0.000000000000e+00 0.000000000000e+00 
1.666666666667e-01 0.000000000000e+00 1.013250000000e+05 1.013250000000e+05 1.000000000000e+00 2.220446049250e-16 0.000000000000e+00 0.000000000000e+00 0.000000000000e+00 0.000000000000e+00 
2.000000000000e-01 0.000000000000e+00 1.013250000000e+05 1.013250000000e+05 1.000000000000e+00 2.220446049250e-16 0.000000000000e+00 0.000000000000e+00 0.000000000000e+00 0.000000000000e+00 
2.333333333333e-01 0.000000000000e+00 1.013250000000e+05 1.013250000000e+05 1.000000000000e+00 2.220446049250e-16 0.000000000000e+00 0.000000000000e+00 0.000000000000e+00 0.000000000000e+00 
2.666666666667e-01 0.000000000000e+00 1.013250000000e+05 1.013250000000e+05 1.000000000000e+00 2.220446049250e-16 0.000000000000e+00 0.000000000000e+00 0.000000000000e+00 0.000000000000e+00 
3.000000000000e-01 0.000000000000e+00 1.013250000000e+05 1.013250000000e+05 1.000000000000e+00 2.220446049250e-16 0.000000000000e+00 0.000000000000e+00 0.000000000000e+00 0.000000000000e+00 
3.333333333333e-01 0.000000000000e+00 1.013250000000e+05 1.013250000000e+05 1.000000000000e+00 2.220446049250e-16 0.000000000000e+00 0.000000000000e+00 0.000000000000e+00 0.000000000000e+00 
3.666666666667e-01 0.000000000000e+00 1.013250000000e+05 1.013250000000e+05 1.000000000000e+00 2.220446049250e-16 0.000000000000e+00 0.000000000000e+00 0.000000000000e+00 0.000000000000e+00 
4.000000000000e-01 0.000000000000e+00 1.013250000000e+05 1.013250000000e+05 1.000000000000e+00 2.220446049250e-16 0.000000000000e+00 0.000000000000e+00 0.000000000000e+00 0.000000000000e+00 
4.333333333333e-01 0.000000000000e+00 1.013250000000e+05 1.013250000000e+05 1.000000000000e+00 2.220446049250e-16 0.000000000000e+00 0.000000000000e+00 0.000000000000e+00 0.000000000000e+00 
4.666666666667e-01 0.000000000000e+00 1.013250000000e+05 1.013250000000e+05 1.000000000000e+00 2.220446049250e-16 0.000000000000e+00 0.000000000000e+00 0.000000000000e+00 0.000000000000e+00 
5.000000000000e-01 0.000000000000e+00 1.013250000000e+05 1.013250000000e+05 1.000000000000e+00 2.220446049250e-16 0.000000000000e+00 0.000000000000e+00 0.000000000000e+00 0.000000000000e+00 
5.333333333333e-01 0.000000000000e+00 1.013250000000e+05 1.013250000000e+05 1.000000000000e+00 2.220446049250e-16 0.000000000000e+00 0.000000000000e+00 0.000000000000e+00 0.000000000000e+00 
5.666666666667e-01 0.000000000000e+00 1.013250000000e+05 1.013250000000e+05 1.000000000000e+00 2.220446049250e-16 0.000000000000e+00 0.000000000000e+00 0.000000000000e+00 0.000000000000e+00 
6.000000000000e-01 0.000000000000e+00 1.013250000000e+05 1.013250000000e+05 1.000000000000e+00 2.220446049250e-16 0.000000000000e+00 0.000000000000e+00 0.000000000000e+00 0.000000000000e+00 
6.333333333333e-01 0.000000000000e+00 1.013250000000e+05 1.013250000000e+05 1.000000000000e+00 2.220446049250e-16 0.000000000000e+00 0.000000000000e+00 0.000000000000e+00 0.000000000000e+00 
6.666666666667e-01 0.000000000000e+00 1.013250000000e+05 1.013250000000e+05 1.000000000000e+00 2.220446049250e-16 0.000000000000e+00 0.000000000000e+00 0.000000000000e+00 0.000000000000e+00 
7.000000000000e-01 0.000000000000e+00 1.013250000000e+05 1.013250000000e+05 1.000000000000e+00 2.220446049250e-16 0.000000000000e+00 0.000000000000e+00 0.000000000000e+00 0.000000000000e+00 
7.333333333333e-01 0.000000000000e+00 1.013250000000e+05 1.013250000000e+05 1.000000000000e+00 2.220446049250e-16 0.000000000000e+00 0.000000000000e+00 0.000000000000e+00 0.000000000000e+00 
7.666666666667e-01 0.000000000000e+00 1.013250000000e+05 1.013250000000e+05 1.000000000000e+00 2.220446049250e-16 0.000000000000e+00 0.000000000000e+00 0.000000000000e+00 0.000000000000e+00 
8.000000000000e-01 0.000000000000e+00 1.013250000000e+05 1.013250000000e+05 1.000000000000e+00 2.220446049250e-16 0.000000000000e+00 0.000000000000e+00 0.000000000000e+00 0.000000000000e+00 
8.333333333333e-01 0.000000000000e+00 1.013250000000e+05 1.013250000000e+05 1.000000000000e+00 2.220446049250e-16 0.000000000000e+00 0.000000000000e+00 0.000000000000e+00 0.000000000000e+00 
8.666666666667e-01 0.000000000000e+00 1.013250000000e+05 1.013250000000e+05 1.000000000000e+00 2.220446049250e-16 0.000000000000e+00 0.000000000000e+00 0.000000000000e+00 0.000000000000e+00 
9.000000000000e-01 0.000000000000e+00 1.013250000000e+05 1.013250000000e+05 1.000000000000e+00 2.220446049250e-16 0.000000000000e+00 0.000000000000e+00 0.000000000000e+00 0.000000000000e+00 
9.333333333333e-01 0.000000000000e+00 1.013250000000e+05 1.013250000000e+05 1.000000000000e+00 2.220446049250e-16 0.000000000000e+00 0.000000000000e+00 0.000000000000e+00 0.000000000000e+00 
9.666666666667e-01 0.000000000000e+00 1.013250000000e+05 1.013250000000e+05 1.000000000000e+00 2.220446049250e-16 0.000000000000e+00 0.000000000000e+00 0.000000000000e+00 0.000000000000e+00 
1.000000000000e+00 0.000000000000e+00 1.013250000000e+05 1.013250000000e+05 1.000000000000e+00 2.220446049250e-16 0.000000000000e+00 0.000000000000e+00 0.000000000000e+00 0.000000000000e+00 
 TITLE = "Profiles along polylines"
 VARIABLES = "DIST" "PRESSURE1" "PRESSURE2" "PRESSURE_W" "SATURATION1" SATURATION2 "VELOCITY_X1" "VELOCITY_Y1" "VELOCITY_X2" "VELOCITY_Y2" 
 ZONE T="TIME=1.000000000000e-03"
0.000000000000e+00 0.000000000000e+00 1.013250000000e+05 1.013250000000e+05 1.000000000000e+00 0.000000000000e+00 -1.688126193326e-17 -3.156994789917e-18 -1.018776784429e-22 -1.343281943914e-23 
3.333333333333e-02 2.069853897123e-07 1.013204137443e+05 1.013204137441e+05 9.999999999999e-01 7.815970093361e-14 -3.109037866571e-15 -3.162034839216e-15 -2.319935807552e-20 -2.410909969890e-20 
6.666666666667e-02 2.080364384087e-07 1.013158274875e+05 1.013158274873e+05 9.999999999999e-01 7.860379014346e-14 -3.581571584888e-15 -3.901707272314e-15 -2.578819952570e-20 -2.969342869362e-20 
1.000000000000e-01 2.090395510259e-07 1.013112412297e+05 1.013112412295e+05 9.999999999999e-01 7.904787935331e-14 -3.986126266735e-15 -4.633272327594e-15 -2.738128133409e-20 -3.431913717571e-20 
1.333333333333e-01 2.105873867898e-07 1.013066549709e+05 1.013066549707e+05 9.999999999999e-01 7.960299086562e-14 -5.218535936855e-15 -5.948803989052e-15 -3.580922632608e-20 -4.373713546650e-20 
1.666666666667e-01 2.125789801304e-07 1.013020687111e+05 1.013020687109e+05 9.999999999999e-01 8.060219158779e-14 -7.241242165467e-15 -7.845441308461e-15 -5.076070463927e-20 -5.804491771744e-20 
2.000000000000e-01 2.135872482548e-07 1.012974824503e+05 1.012974824501e+05 9.999999999999e-01 8.082423619271e-14 -8.105961213583e-15 -8.846617822496e-15 -5.711218523777e-20 -6.549244964928e-20 
2.333333333333e-01 2.130242092656e-07 1.012928961885e+05 1.012928961882e+05 9.999999999999e-01 8.060219158779e-14 -6.847528730425e-15 -8.023904314341e-15 -4.644072001444e-20 -5.873255632380e-20 
2.666666666667e-01 2.124786564027e-07 1.012883099256e+05 1.012883099254e+05 9.999999999999e-01 8.038014698286e-14 -5.620728189568e-15 -7.098830839163e-15 -3.596578757446e-20 -5.086632667576e-20 
3.000000000000e-01 2.135847013775e-07 1.012837236618e+05 1.012837236616e+05 9.999999999999e-01 8.104628079764e-14 -6.760743240155e-15 -7.918756336512e-15 -4.472182487443e-20 -5.684989746764e-20 
3.333333333333e-01 2.150576678942e-07 1.012791373969e+05 1.012791373967e+05 9.999999999999e-01 8.115730310010e-14 -8.848775054683e-15 -9.417753578039e-15 -6.176647247704e-20 -6.892593109828e-20 
3.666666666667e-01 2.141387118982e-07 1.012745511310e+05 1.012745511308e+05 9.999999999999e-01 8.082423619271e-14 -7.992716203287e-15 -8.673893623364e-15 -5.593673124656e-20 -6.374728381574e-20 
4.000000000000e-01 2.112934761423e-07 1.012699648641e+05 1.012699648639e+05 9.999999999999e-01 8.015810237794e-14 -4.556169590395e-15 -5.810349392138e-15 -2.883922405592e-20 -4.149506054065e-20 
4.333333333333e-01 2.102169899992e-07 1.012653785962e+05 1.012653785960e+05 9.999999999999e-01 7.949196856316e-14 -3.014218070121e-15 -4.386718453893e-15 -1.682870234328e-20 -3.014917577396e-20 
4.666666666667e-01 2.118474018782e-07 1.012607923273e+05 1.012607923271e+05 9.999999999999e-01 8.015810237794e-14 -5.179439154734e-15 -5.799582197965e-15 -3.466807885858e-20 -4.140738141254e-20 
5.000000000000e-01 2.123770957288e-07 1.012562060574e+05 1.012562060572e+05 9.999999999999e-01 8.038014698286e-14 -6.461422326676e-15 -6.530997938229e-15 -4.598079396903e-20 -4.790515235279e-20 
5.333333333333e-01 2.096266875529e-07 1.012516197865e+05 1.012516197863e+05 9.999999999999e-01 7.926992395824e-14 -3.754506169315e-15 -4.139840534593e-15 -2.563598920126e-20 -3.000220058888e-20 
5.666666666667e-01 2.069530489637e-07 1.012470335146e+05 1.012470335144e+05 9.999999999999e-01 7.815970093361e-14 -6.199211461926e-16 -1.513131199926e-15 -1.319070661979e-21 -9.862295631082e-21 
6.000000000000e-01 2.074765171022e-07 1.012424472417e+05 1.012424472415e+05 9.999999999999e-01 7.871481244592e-14 -1.218601599068e-15 -1.824743719876e-15 -6.366227622109e-21 -1.225763026643e-20 
6.333333333333e-01 2.088957109802e-07 1.012378609679e+05 1.012378609677e+05 9.999999999999e-01 7.904787935331e-14 -3.201352729660e-15 -3.213286822787e-15 -2.251944938510e-20 -2.312852776408e-20 
6.666666666667e-01 2.079290126476e-07 1.012332746931e+05 1.012332746929e+05 9.999999999999e-01 7.882583474839e-14 -2.807023124138e-15 -2.705731789121e-15 -1.990750521768e-20 -1.947482137320e-20 
7.000000000000e-01 2.058016196852e-07 1.012286884173e+05 1.012286884171e+05 9.999999999999e-01 7.782663402622e-14 -1.454457054692e-15 -1.666393567472e-15 -8.917179405387e-21 -1.118766005341e-20 
7.333333333333e-01 2.053665886628e-07 1.012241021405e+05 1.012241021403e+05 9.999999999999e-01 7.771561172376e-14 -3.589626871501e-15 -3.834583334147e-15 -2.275848039680e-20 -2.522629710684e-20 
7.666666666667e-01 2.062347993024e-07 1.012195158628e+05 1.012195158626e+05 9.999999999999e-01 7.793765632869e-14 -1.357483669268e-14 -1.348300712108e-14 -9.072714593172e-20 -9.040695747146e-20 
8.000000000000e-01 2.063227159278e-07 1.012149295840e+05 1.012149295838e+05 9.999999999999e-01 7.793765632869e-14 -4.409671610585e-14 -4.345333339631e-14 -2.951524285319e-19 -2.909692647708e-19 
8.333333333333e-01 2.055567803846e-07 1.012103433040e+05 1.012103433038e+05 9.999999999999e-01 7.793765632869e-14 -1.426355227268e-13 -1.405568943428e-13 -9.531867774263e-19 -9.394045216738e-19 
8.666666666667e-01 2.058821502406e-07 1.012057570222e+05 1.012057570220e+05 9.999999999999e-01 7.804867863115e-14 -4.505143479114e-13 -4.435236324128e-13 -3.010499384569e-18 -2.963910202742e-18 
9.000000000000e-01 6.763134721528e-07 1.012011707372e+05 1.012011707366e+05 9.999999999997e-01 2.564615186884e-13 -1.299335243880e-12 -1.275256700965e-12 -8.682815687462e-18 -8.521846870227e-18 
9.333333333333e-01 3.157607676435e-04 1.011965847569e+05 1.011965844411e+05 9.999999998803e-01 1.196762688949e-10 -2.831675617104e-12 -2.749274026034e-12 -1.892209693243e-17 -1.822165009997e-17 
9.666666666667e-01 2.098220256016e-01 1.011922065201e+05 1.011919966980e+05 9.999999204754e-01 7.952464609051e-08 9.184912603095e-13 9.998505979381e-13 6.187334087570e-18 6.885519244745e-18 
1.000000000000e+00 1.385468514255e+02 1.013250000000e+05 1.011864531486e+05 9.999474893578e-01 5.251064215883e-05 -1.599497338960e-12 -1.586637175050e-12 1.303808408392e-21 1.484049496403e-21 
 TITLE = "Profiles along polylines"
 VARIABLES = "DIST" "PRESSURE1" "PRESSURE2" "PRESSURE_W" "SATURATION1" SATURATION2 "VELOCITY_X1" "VELOCITY_Y1" "VELOCITY_X2" "VELOCITY_Y2" 
 ZONE T="TIME=5.000000000000e+00"
0.000000000000e+00 0.000000000000e+00 1.013250000000e+05 1.013250000000e+05 1.000000000000e+00 0.000000000000e+00 -1.856419360172e-17 -5.012385135846e-18 -2.056726388585e-22 -9.112803401984e-23 
3.333333333333e-02 1.527198813007e+00 1.010442299467e+05 1.010427027479e+05 9.999994211764e-01 5.788236219217e-07 -1.396511554938e-16 -1.079747990096e-16 -1.569637162121e-19 -1.030920463845e-19 
6.666666666667e-02 2.500709431970e+00 1.007629050016e+05 1.007604042922e+05 9.999990522061e-01 9.477938816005e-07 -1.346571706592e-16 -8.378950635904e-17 -3.704057728631e-19 -1.472323376155e-19 
1.000000000000e-01 3.099742029139e+00 1.004812033410e+05 1.004781035989e+05 9.999988251668e-01 1.174833226480e-06 -6.273602731079e-17 -3.547956819165e-17 -4.030789321676e-19 -2.386739939176e-22 
1.333333333333e-01 3.457984637553e+00 1.001992578804e+05 1.001957998957e+05 9.999986893892e-01 1.310610757366e-06 -2.003561851875e-17 -3.295518919227e-16 -3.576641588798e-19 -4.265437659942e-19 
1.666666666667e-01 3.668120840251e+00 9.991716076486e+04 9.991349264402e+04 9.999986097455e-01 1.390254479539e-06 -2.020062962127e-16 -9.278379575184e-16 -6.122384027013e-19 -1.628530001826e-18 
2.000000000000e-01 3.790654677260e+00 9.963497214261e+04 9.963118148793e+04 9.999985633040e-01 1.436696029145e-06 -5.305585312747e-16 -1.142563067572e-15 -1.774678670096e-18 -2.190816453238e-18 
2.333333333333e-01 3.863236774114e+00 9.935272943788e+04 9.934886620110e+04 9.999985357946e-01 1.464205369506e-06 -3.699952379588e-16 -1.145181502942e-15 -2.743656976014e-18 -1.940246223947e-18 
2.666666666667e-01 3.908540197559e+00 9.907045518204e+04 9.906654664184e+04 9.999985186242e-01 1.481375820234e-06 6.440634473228e-16 -1.328863249838e-15 -2.353742759913e-18 -1.888625390291e-18 
3.000000000000e-01 3.940185010541e+00 9.878816290463e+04 9.878422271962e+04 9.999985066305e-01 1.493369520933e-06 1.287545068134e-15 -1.291512410575e-15 -1.626026685954e-18 -2.069441745750e-18 
3.333333333333e-01 3.967032961346e+00 9.850586140385e+04 9.850189437089e+04 9.999984964548e-01 1.503545162596e-06 1.112151565024e-15 -1.156646172302e-15 4.818083793412e-19 -6.754636109213e-19 
3.666666666667e-01 3.996556283203e+00 9.822355809649e+04 9.821956154021e+04 9.999984852652e-01 1.514734796926e-06 9.686808279294e-16 -7.208212947791e-16 2.620235213050e-18 1.969551170500e-18 
4.000000000000e-01 4.038239542885e+00 9.794126240104e+04 9.793722416150e+04 9.999984694668e-01 1.530533168981e-06 9.790376553228e-16 -1.646093742158e-16 3.546622885337e-18 3.457094194767e-18 
4.333333333333e-01 4.108350754086e+00 9.765899048268e+04 9.765488213193e+04 9.999984428940e-01 1.557106019234e-06 1.288724889404e-15 1.601728318395e-16 3.845994506721e-18 2.498831430233e-18 
4.666666666667e-01 4.238220465000e+00 9.737677348729e+04 9.737253526683e+04 9.999983936721e-01 1.606327938553e-06 2.460427890512e-15 1.623853575055e-15 3.444976339710e-18 1.581729639684e-18 
5.000000000000e-01 4.489774161865e+00 9.709467298945e+04 9.709018321529e+04 9.999982983307e-01 1.701669304910e-06 3.614545138913e-15 3.259974918557e-15 4.442616175595e-18 2.842282202544e-18 
5.333333333333e-01 4.985016288637e+00 9.681281031626e+04 9.680782529997e+04 9.999981106290e-01 1.889371023411e-06 2.938216934537e-15 3.957871743126e-15 2.971941640997e-18 4.350408458181e-18 
5.666666666667e-01 5.961357825615e+00 9.653142157453e+04 9.652546021670e+04 9.999977405858e-01 2.259414229377e-06 7.910146364708e-16 5.458260289056e-15 3.158006327229e-19 5.246521881004e-18 
6.000000000000e-01 7.873171915766e+00 9.625095865521e+04 9.624308548330e+04 9.999970159891e-01 2.984010887719e-06 -2.462921878268e-15 6.000475885085e-15 1.883216349459e-18 6.570086556303e-18 
6.333333333333e-01 1.157288438944e+01 9.597226934140e+04 9.596069645701e+04 9.999956137611e-01 4.386238912302e-06 -5.898149490363e-15 4.006426761462e-15 2.594942208170e-18 4.428948049138e-18 
6.666666666667e-01 1.862221605231e+01 9.569690686307e+04 9.567828464702e+04 9.999929419939e-01 7.058006106009e-06 -9.470172384477e-15 8.908069205208e-16 -1.097972760300e-18 3.409082579790e-18 
7.000000000000e-01 3.180178601114e+01 9.542763673937e+04 9.539583495335e+04 9.999879468051e-01 1.205319491593e-05 -2.543280714197e-14 -1.944357691046e-14 -2.307737788667e-17 -3.068748431990e-17 
7.333333333333e-01 5.589158641995e+01 9.516921302991e+04 9.511332144349e+04 9.999788165298e-01 2.118347016911e-05 -4.996760161453e-14 -4.271200481656e-14 -3.588190584742e-17 -2.771101403606e-17 
7.666666666667e-01 9.875036393384e+01 9.492945188605e+04 9.483070152212e+04 9.999625726246e-01 3.742737543444e-05 -3.790426520765e-14 -7.763863783528e-14 2.014287408243e-17 6.469016075537e-17 
8.000000000000e-01 1.725545357302e+02 9.472046379898e+04 9.454790926325e+04 9.999346001054e-01 6.539989458698e-05 -3.918581690778e-14 -2.413640823734e-13 -2.081443230982e-17 5.823377548299e-17 
8.333333333333e-01 2.946271728553e+02 9.455947818949e+04 9.426485101663e+04 9.998883333552e-01 1.116666447839e-04 -5.855549188137e-14 -7.847181118876e-13 4.157946894937e-17 -2.833120586653e-17 
8.666666666667e-01 4.863484799867e+02 9.446775996740e+04 9.398141148742e+04 9.998156690626e-01 1.843309373997e-04 -2.582655437580e-13 -2.726194310997e-12 1.660514090137e-16 -3.387503941474e-17 
9.000000000000e-01 7.667527677896e+02 9.446424147760e+04 9.369748870981e+04 9.997576268762e-01 2.423731237897e-04 -1.014778510814e-12 -9.620557346674e-12 3.217145373195e-16 -3.553897975212e-16 
9.333333333333e-01 1.296812710993e+03 9.470902107425e+04 9.341220836326e+04 9.991523325989e-01 8.476674010941e-04 -4.479913105519e-12 -3.433726441358e-11 2.969595252961e-15 4.564014928892e-16 
9.666666666667e-01 2.557204747919e+03 9.568020434951e+04 9.312299960159e+04 1.000000000000e+00 0.000000000000e+00 -1.978627018036e-11 -1.175898743305e-10 1.666735968874e-14 2.829459490002e-15 
1.000000000000e+00 8.516635749334e+03 1.013250000000e+05 9.280836425067e+04 9.397166598392e-01 6.028334016085e-02 -4.725915170342e-12 -4.637911159681e-11 1.631965905428e-16 2.770480945233e-17 
 TITLE = "Profiles along polylines"
 VARIABLES = "DIST" "PRESSURE1" "PRESSURE2" "PRESSURE_W" "SATURATION1" SATURATION2 "VELOCITY_X1" "VELOCITY_Y1" "VELOCITY_X2" "VELOCITY_Y2" 
 ZONE T="TIME=1.000000000000e+01"
0.000000000000e+00 0.000000000000e+00 1.013250000000e+05 1.013250000000e+05 1.000000000000e+00 0.000000000000e+00 -2.003796223651e-17 -3.912769459194e-18 -1.322558140097e-22 -1.086825312589e-23 
3.333333333333e-02 2.631777159435e+00 1.010325987558e+05 1.010299669786e+05 9.999990025301e-01 9.974698609305e-07 -1.370054837832e-15 -1.328634972609e-15 -3.443907396033e-21 2.337107600462e-20 
6.666666666667e-02 4.582634389108e+00 1.007395157380e+05 1.007349331036e+05 9.999982631357e-01 1.736864259860e-06 -1.778318174609e-15 -1.788673927468e-15 -3.586935257183e-20 -4.348569122030e-21 
1.000000000000e-01 5.998154290669e+00 1.004458956759e+05 1.004398975216e+05 9.999977266395e-01 2.273360457883e-06 -2.210686544672e-15 -2.175755470068e-15 -2.507502027238e-19 -6.839898464015e-20 
1.333333333333e-01 7.006231239222e+00 1.001518657156e+05 1.001448594844e+05 9.999973445683e-01 2.655431701637e-06 -2.877226024184e-15 -2.689611473981e-15 -4.240746764506e-19 1.610900848508e-19 
1.666666666667e-01 7.714881822427e+00 9.985753324195e+04 9.984981836013e+04 9.999970759826e-01 2.924017359351e-06 -3.400124496422e-15 -3.338924204978e-15 -1.283911368835e-19 4.087805832074e-19 
2.000000000000e-01 8.212817575859e+00 9.956298644662e+04 9.955477362905e+04 9.999968872600e-01 3.112739989541e-06 -3.516793816917e-15 -3.797019428577e-15 -2.723445116166e-20 2.508036090458e-19 
2.333333333333e-01 8.572454708653e+00 9.926829732062e+04 9.925972486591e+04 9.999967509539e-01 3.249046059084e-06 -3.371581448111e-15 -3.885245148186e-15 -5.765750919685e-19 -1.419654527017e-19 
2.666666666667e-01 8.855075018489e+00 9.897352678575e+04 9.896467171073e+04 9.999966438380e-01 3.356161982770e-06 -3.423588355104e-15 -4.314253373249e-15 -3.896008849772e-19 -4.580216747404e-19 
3.000000000000e-01 9.118192126705e+00 9.867873201981e+04 9.866961382768e+04 9.999965441140e-01 3.455885998038e-06 -3.965878740720e-15 -5.143455889945e-15 7.950346239444e-19 -5.636185945948e-19 
3.333333333333e-01 9.425784753578e+00 9.838397663334e+04 9.837455084859e+04 9.999964275333e-01 3.572466679147e-06 -4.381299620406e-15 -5.192380596555e-15 1.090702266350e-18 -1.408268142730e-19 
3.666666666667e-01 9.862902738820e+00 9.808934519583e+04 9.807948229309e+04 9.999962618612e-01 3.738138766973e-06 -4.179676085949e-15 -4.281650354569e-15 6.133740288460e-19 3.000727608003e-19 
4.000000000000e-01 1.055724034410e+01 9.779496469156e+04 9.778440745122e+04 9.999959987003e-01 4.001299662604e-06 -3.899650857832e-15 -3.574769222670e-15 5.264393939464e-19 1.548038074685e-18 
4.333333333333e-01 1.171163443607e+01 9.750103684168e+04 9.748932520724e+04 9.999955611734e-01 4.438826567310e-06 -4.212674453654e-15 -3.683149037309e-15 -1.155525319495e-19 2.711661713821e-18 
4.666666666667e-01 1.365303343667e+01 9.720788680819e+04 9.719423377476e+04 9.999948253638e-01 5.174636202865e-06 -4.273042398992e-15 -4.297209898920e-15 -1.115513702883e-18 -5.127574970468e-20 
5.000000000000e-01 1.690511830629e+01 9.691603542289e+04 9.689913030459e+04 9.999935927911e-01 6.407208889225e-06 -4.234210662957e-15 -4.112586019272e-15 -1.936559536737e-18 4.803142407337e-19 
5.333333333333e-01 2.229294434709e+01 9.662630326504e+04 9.660401032069e+04 9.999915507512e-01 8.449248837028e-06 -3.597611908428e-15 -2.483921132029e-15 -2.155034666280e-18 2.428008044730e-18 
5.666666666667e-01 3.108777937142e+01 9.633995472025e+04 9.630886694088e+04 9.999882174207e-01 1.178257925960e-05 -4.086013841896e-15 -2.106489075560e-15 -3.404431409712e-18 9.913732538742e-19 
6.000000000000e-01 4.519699691264e+01 9.605888685460e+04 9.601368985769e+04 9.999828698862e-01 1.713011379967e-05 -6.184951726414e-15 -2.991634393903e-15 -5.641674430743e-18 -1.701842535736e-18 
6.333333333333e-01 6.739492927506e+01 9.578585903312e+04 9.571846410385e+04 9.999744566479e-01 2.554335214455e-05 -6.984452195345e-15 -4.213922409337e-16 -1.923468787818e-18 1.694132998898e-18 
6.666666666667e-01 1.015726518976e+02 9.552474137647e+04 9.542316872457e+04 9.999615029492e-01 3.849705079584e-05 -7.867238284941e-15 1.070293019759e-15 -1.525727643650e-18 2.138454727148e-18 
7.000000000000e-01 1.529540620264e+02 9.528072970728e+04 9.512777564526e+04 9.999420288810e-01 5.797111904848e-05 -6.415783701948e-15 -2.913378960234e-16 -1.693891209770e-18 -2.804300081083e-19 
7.333333333333e-01 2.281797458996e+02 9.506042901577e+04 9.483224926987e+04 9.999135175945e-01 8.648240549314e-05 -8.684504773737e-15 -7.952202295478e-15 -1.242935838845e-17 -3.599169914611e-19 
7.666666666667e-01 3.351022298626e+02 9.487164988600e+04 9.453654765614e+04 9.998729929039e-01 1.270070961402e-04 -1.436982541275e-14 -3.536016072105e-14 -4.047188985867e-17 -4.664418483340e-18 
8.000000000000e-01 4.820869791511e+02 9.472271335088e+04 9.424062637173e+04 9.998172842140e-01 1.827157859680e-04 4.184141447951e-15 -1.058068791612e-13 -9.715381208755e-18 -2.370796456308e-17 
8.333333333333e-01 6.766555052851e+02 9.462110139622e+04 9.394444589094e+04 9.997435407969e-01 2.564592030581e-04 -4.162092017640e-15 -3.305078737024e-13 -3.455272808451e-17 -1.271951499158e-16 
8.666666666667e-01 9.237299788928e+02 9.457171104926e+04 9.364798107036e+04 9.997042844073e-01 2.957155926808e-04 1.413516456559e-13 -9.070333000744e-13 6.997931856874e-17 -6.048995805525e-17 
9.000000000000e-01 1.328118362039e+03 9.467878538029e+04 9.335066701825e+04 9.990286747259e-01 9.713252741315e-04 1.361797207980e-12 -2.546582175335e-12 1.588820455794e-16 1.414986453092e-16 
9.333333333333e-01 2.097881957125e+03 9.514927802644e+04 9.305139606931e+04 9.978230066024e-01 2.176993397589e-03 1.350391252526e-11 -2.958958506544e-12 2.358849398993e-15 1.752771880786e-15 
9.666666666667e-01 3.755830379843e+03 9.650321584060e+04 9.274738546075e+04 9.938579294587e-01 6.142070541322e-03 6.089175836331e-11 5.916849581786e-12 1.693598849090e-14 4.835192080789e-15 
1.000000000000e+00 8.900898035023e+03 1.013250000000e+05 9.242410196498e+04 9.300302138658e-01 6.996978613424e-02 1.464800167933e-11 -8.479591837638e-12 1.405899750458e-16 4.012764222408e-17 
 TITLE = "Profiles along polylines"
 VARIABLES = "DIST" "PRESSURE1" "PRESSURE2" "PRESSURE_W" "SATURATION1" SATURATION2 "VELOCITY_X1" "VELOCITY_Y1" "VELOCITY_X2" "VELOCITY_Y2" 
 ZONE T="TIME=2.000000000000e+01"
0.000000000000e+00 0.000000000000e+00 1.013250000000e+05 1.013250000000e+05 1.000000000000e+00 0.000000000000e+00 -1.799871605146e-17 -1.676565274377e-18 -9.337821507514e-23 -4.836513222595e-23 
3.333333333333e-02 4.341330937129e+00 1.010265660846e+05 1.010222247536e+05 9.999983545922e-01 1.645407838424e-06 -1.451934661491e-16 -1.416907577058e-16 1.287037826859e-20 -1.395810072644e-20 
6.666666666667e-02 7.943377697312e+00 1.007273921760e+05 1.007194487983e+05 9.999969893804e-01 3.010619580968e-06 -1.679550745786e-16 -1.794507306780e-16 5.886189977517e-20 -3.500768604964e-20 
1.000000000000e-01 1.094230856779e+01 1.004276136407e+05 1.004166713321e+05 9.999958527556e-01 4.147244370145e-06 -1.117067964770e-16 -1.374591626620e-16 1.243946357446e-19 -3.563427408755e-20 
1.333333333333e-01 1.347877777059e+01 1.001273703129e+05 1.001138915351e+05 9.999948914084e-01 5.108591562775e-06 -1.769260608217e-16 -2.346178990639e-16 1.050309411870e-19 -3.448209032377e-20 
1.666666666667e-01 1.570295675073e+01 9.982681149874e+04 9.981110854199e+04 9.999940484224e-01 5.951577638275e-06 -2.079555486541e-16 -3.227505349197e-16 1.107146473624e-19 -3.308101965104e-20 
2.000000000000e-01 1.778221643816e+01 9.952610361705e+04 9.950832140062e+04 9.999932603621e-01 6.739637852027e-06 -2.311861465415e-16 -4.249363083612e-16 7.813193296554e-20 -4.891601556553e-20 
2.333333333333e-01 1.991232310944e+01 9.922544133434e+04 9.920552901123e+04 9.999924530304e-01 7.546969581718e-06 -1.812103716812e-16 -4.744413508012e-16 -2.435193031860e-20 -1.757972321959e-19 
2.666666666667e-01 2.233301470035e+01 9.892506305717e+04 9.890273004247e+04 9.999915355641e-01 8.464435901412e-06 -1.501172669634e-16 -4.118473179900e-16 3.174717739622e-20 -2.297697816412e-19 
3.000000000000e-01 2.534877462877e+01 9.862527159410e+04 9.859992281948e+04 9.999903925609e-01 9.607439072079e-06 -7.565682089077e-17 -1.475629939566e-16 2.084669803749e-19 -3.185983029136e-19 
3.333333333333e-01 2.935546368291e+01 9.832646064465e+04 9.829710518097e+04 9.999888739857e-01 1.112601429054e-05 -2.129883761958e-16 -3.447138564608e-17 5.099539955194e-19 -1.347563099156e-19 
3.666666666667e-01 3.487312708300e+01 9.802914743077e+04 9.799427430369e+04 9.999867827361e-01 1.321726389558e-05 -6.726860242444e-16 -3.764214869659e-16 3.277648972108e-19 -5.223654732513e-20 
4.000000000000e-01 4.258468502403e+01 9.773401118121e+04 9.769142649618e+04 9.999838599785e-01 1.614002147066e-05 -7.614259461960e-16 -3.777087166822e-16 -8.058090286739e-20 -1.676135288680e-19 
4.333333333333e-01 5.337925288122e+01 9.744193622207e+04 9.738855696919e+04 9.999797687294e-01 2.023127063455e-05 -4.903626790765e-16 -2.140077069949e-16 -8.915341762385e-20 -8.990370205033e-20 
4.666666666667e-01 6.839747490931e+01 9.715405707186e+04 9.708565959695e+04 9.999740766730e-01 2.592332696549e-05 -3.325756247366e-16 -2.631127507112e-16 2.465001987935e-19 4.045066110251e-21 
5.000000000000e-01 8.907449728123e+01 9.687180119102e+04 9.678272669374e+04 9.999662398748e-01 3.376012521439e-05 -2.745343523486e-16 -4.277917555004e-16 3.416737587218e-19 2.185480683325e-19 
5.333333333333e-01 1.171741171585e+02 9.659692295777e+04 9.647974884061e+04 9.999555898379e-01 4.441016214407e-05 -4.869757456550e-16 -1.357278746466e-15 6.836090888411e-19 7.036036449356e-19 
5.666666666667e-01 1.548053173494e+02 9.633152012733e+04 9.617671480998e+04 9.999413272367e-01 5.867276332872e-05 -7.262314901197e-16 -3.292390893496e-15 1.759535791161e-18 1.411549954694e-18 
6.000000000000e-01 2.044098014874e+02 9.607802145079e+04 9.587361164931e+04 9.999225266411e-01 7.747335886177e-05 3.065332866697e-15 -3.364601725863e-15 3.997413533126e-18 2.677349993088e-19 
6.333333333333e-01 2.687057198636e+02 9.583913072283e+04 9.557042500297e+04 9.998981578451e-01 1.018421548854e-04 9.755954542550e-15 -2.341964578056e-15 2.055307505610e-17 -3.307745371042e-18 
6.666666666667e-01 3.505671865313e+02 9.561770696771e+04 9.526713978118e+04 9.998671315306e-01 1.328684693671e-04 -1.630314922297e-15 -8.471209651480e-15 3.834672777592e-17 -1.695325234939e-17 
7.000000000000e-01 4.528097756940e+02 9.541655111163e+04 9.496374133593e+04 9.998283805669e-01 1.716194330856e-04 -1.628399215147e-14 8.319623676461e-15 3.016012472369e-17 -9.169760924322e-18 
7.333333333333e-01 5.778407160758e+02 9.523805807934e+04 9.466021736327e+04 9.997809925902e-01 2.190074097999e-04 -7.904163718055e-15 2.061127062142e-14 2.044576307362e-17 -2.546939058093e-17 
7.666666666667e-01 7.271449369610e+02 9.508370561968e+04 9.435656068272e+04 9.997244047974e-01 2.755952025576e-04 2.443991102190e-15 8.292967465760e-14 3.678597515458e-17 -4.965096265330e-17 
8.000000000000e-01 9.007279249201e+02 9.495350014655e+04 9.405277222163e+04 9.996821093828e-01 3.178906171764e-04 -1.180450605015e-13 3.199076826910e-13 2.663858363325e-19 -1.061366833421e-17 