 TITLE = "Time curves in points"
 VARIABLES = "TIME"  "PRESSURE1"  "PRESSURE2"  "PRESSURE_W"  "SATURATION1" SATURATION2  "VELOCITY_X1"  "VELOCITY_Y1"  "VELOCITY_X2"  "VELOCITY_Y2" 
 ZONE T="POINT=POINT0"
0.000000000000e+00 0.000000000000e+00 1.013250000000e+05 1.013250000000e+05 1.000000000000e+00 3.330669073875e-16 0.000000000000e+00 0.000000000000e+00 0.000000000000e+00 0.000000000000e+00 
1.000000000000e-03 0.000000000000e+00 1.013250000000e+05 1.013250000000e+05 1.000000000000e+00 0.000000000000e+00 -1.688126193326e-17 -3.156994789917e-18 -1.018776784429e-22 -1.343281943914e-23 
2.000000000000e-03 0.000000000000e+00 1.013250000000e+05 1.013250000000e+05 1.000000000000e+00 0.000000000000e+00 -1.894046397293e-17 -6.472252556187e-18 -1.067336986979e-22 -4.122560259784e-23 
3.000000000000e-03 0.000000000000e+00 1.013250000000e+05 1.013250000000e+05 1.000000000000e+00 0.000000000000e+00 -1.508727621014e-17 -5.524810149184e-18 -1.427386116087e-22 -3.688528068938e-23 
4.000000000000e-03 0.000000000000e+00 1.013250000000e+05 1.013250000000e+05 1.000000000000e+00 2.220446049250e-16 -1.714709110856e-17 -6.123372805805e-18 -1.262991967866e-22 -3.291375811715e-23 
5.000000000000e-03 0.000000000000e+00 1.013250000000e+05 1.013250000000e+05 1.000000000000e+00 2.220446049250e-16 -1.580287861847e-17 -4.546116205533e-18 -9.670546698396e-23 -4.276348747878e-23 
6.000000000000e-03 0.000000000000e+00 1.013250000000e+05 1.013250000000e+05 1.000000000000e+00 0.000000000000e+00 -1.504809964452e-17 -7.085196684577e-18 -1.038826573722e-22 -1.508682460767e-23 
7.000000000000e-03 0.000000000000e+00 1.013250000000e+05 1.013250000000e+05 1.000000000000e+00 2.220446049250e-16 -1.686452373107e-17 -5.879091188552e-18 -1.291435389248e-22 -2.553402798520e-23 
8.000000000000e-03 0.000000000000e+00 1.013250000000e+05 1.013250000000e+05 1.000000000000e+00 0.000000000000e+00 -1.689085979076e-17 -3.442288551447e-18 -9.087719210521e-23 -4.113834272138e-23 
9.000000000000e-03 0.000000000000e+00 1.013250000000e+05 1.013250000000e+05 1.000000000000e+00 1.110223024625e-16 -1.821222561882e-17 -2.579569785002e-18 -1.144782733842e-22 -5.290668930061e-23 
1.000000000000e-02 0.000000000000e+00 1.013250000000e+05 1.013250000000e+05 1.000000000000e+00 1.110223024625e-16 -1.292719986123e-17 -4.496404890078e-18 -9.509659761214e-23 -3.184506156701e-23 
2.000000000000e-02 0.000000000000e+00 1.013250000000e+05 1.013250000000e+05 1.000000000000e+00 0.000000000000e+00 -1.864262004683e-17 -2.564187894738e-18 -1.143900873005e-22 -3.647375972156e-23 
3.000000000000e-02 0.000000000000e+00 1.013250000000e+05 1.013250000000e+05 1.000000000000e+00 0.000000000000e+00 -1.847010044451e-17 -4.011611967377e-18 -1.114299879650e-22 -9.383036526118e-24 
4.000000000000e-02 0.000000000000e+00 1.013250000000e+05 1.013250000000e+05 1.000000000000e+00 0.000000000000e+00 -1.731881509432e-17 -5.709963918813e-18 -1.291114301602e-22 -4.225133153857e-23 
5.000000000000e-02 0.000000000000e+00 1.013250000000e+05 1.013250000000e+05 1.000000000000e+00 0.000000000000e+00 -1.322199641509e-17 -6.020932375393e-18 -1.200924899085e-22 -3.189959437441e-23 
6.000000000000e-02 0.000000000000e+00 1.013250000000e+05 1.013250000000e+05 1.000000000000e+00 0.000000000000e+00 -1.706683593746e-17 -6.670794689643e-18 -1.103454739027e-22 -1.742120213132e-23 
7.000000000000e-02 0.000000000000e+00 1.013250000000e+05 1.013250000000e+05 1.000000000000e+00 0.000000000000e+00 -1.923755537328e-17 -1.984868717002e-18 -1.188278245070e-22 -4.528135469879e-23 
8.000000000000e-02 0.000000000000e+00 1.013250000000e+05 1.013250000000e+05 1.000000000000e+00 0.000000000000e+00 -1.737202236171e-17 -7.959540283192e-19 -1.258640472908e-22 -4.570863725289e-23 
9.000000000000e-02 0.000000000000e+00 1.013250000000e+05 1.013250000000e+05 1.000000000000e+00 1.110223024625e-16 -1.964990079243e-17 -6.555801938668e-18 -1.107157970231e-22 -1.646745003645e-23 
1.000000000000e-01 0.000000000000e+00 1.013250000000e+05 1.013250000000e+05 1.000000000000e+00 0.000000000000e+00 -1.898489883080e-17 -4.963831632148e-18 -9.748373785597e-23 -4.705334954260e-23 
2.000000000000e-01 0.000000000000e+00 1.013250000000e+05 1.013250000000e+05 1.000000000000e+00 0.000000000000e+00 -1.668268489453e-17 -2.346481191612e-18 -1.111121198285e-22 -2.552675493600e-23 
3.000000000000e-01 0.000000000000e+00 1.013250000000e+05 1.013250000000e+05 1.000000000000e+00 2.220446049250e-16 -1.900319382037e-17 -4.690329951418e-18 -1.264440815411e-22 -1.157905160059e-23 
4.000000000000e-01 0.000000000000e+00 1.013250000000e+05 1.013250000000e+05 1.000000000000e+00 0.000000000000e+00 -1.796098343081e-17 -8.260389172824e-18 -1.249605364567e-22 -1.645985533436e-23 
5.000000000000e-01 0.000000000000e+00 1.013250000000e+05 1.013250000000e+05 1.000000000000e+00 1.110223024625e-16 -2.041041970728e-17 -7.502388447583e-18 -1.246391210434e-22 -4.315372999251e-23 
6.000000000000e-01 0.000000000000e+00 1.013250000000e+05 1.013250000000e+05 1.000000000000e+00 0.000000000000e+00 -1.983435227022e-17 -5.243610131996e-18 -1.128492902457e-22 -3.609263759242e-23 
7.000000000000e-01 0.000000000000e+00 1.013250000000e+05 1.013250000000e+05 1.000000000000e+00 0.000000000000e+00 -2.009086809059e-17 -2.710101400091e-18 -1.158092741356e-22 -5.607100443411e-23 
8.000000000000e-01 0.000000000000e+00 1.013250000000e+05 1.013250000000e+05 1.000000000000e+00 0.000000000000e+00 -1.793429439318e-17 -5.421793628192e-18 -1.101351229088e-22 -3.716476727206e-23 
9.000000000000e-01 0.000000000000e+00 1.013250000000e+05 1.013250000000e+05 1.000000000000e+00 0.000000000000e+00 -1.568802165993e-17 -6.923175943244e-18 -9.126118762130e-23 -1.389314614174e-24 
1.000000000000e+00 0.000000000000e+00 1.013250000000e+05 1.013250000000e+05 1.000000000000e+00 0.000000000000e+00 -1.742798243155e-17 -3.906355589361e-18 -1.278975845130e-22 -4.608277874901e-23 
2.000000000000e+00 0.000000000000e+00 1.013250000000e+05 1.013250000000e+05 1.000000000000e+00 1.110223024625e-16 -1.869328107370e-17 -3.288969927300e-18 -1.561220691028e-22 -8.902078665760e-23 
3.000000000000e+00 0.000000000000e+00 1.013250000000e+05 1.013250000000e+05 1.000000000000e+00 1.110223024625e-16 -1.772683745251e-17 -6.795620670850e-18 -1.501770285366e-22 -2.797991979741e-23 
4.000000000000e+00 0.000000000000e+00 1.013250000000e+05 1.013250000000e+05 1.000000000000e+00 0.000000000000e+00 -1.391946083522e-17 -2.814241077491e-18 -1.654147881663e-22 -6.377918060797e-23 
5.000000000000e+00 0.000000000000e+00 1.013250000000e+05 1.013250000000e+05 1.000000000000e+00 0.000000000000e+00 -1.856419360172e-17 -5.012385135846e-18 -2.056726388585e-22 -9.112803401984e-23 
6.000000000000e+00 0.000000000000e+00 1.013250000000e+05 1.013250000000e+05 1.000000000000e+00 0.000000000000e+00 -2.086016558923e-17 -4.289968159104e-18 -1.199565645907e-22 -1.446324490912e-23 
7.000000000000e+00 0.000000000000e+00 1.013250000000e+05 1.013250000000e+05 1.000000000000e+00 0.000000000000e+00 -1.659410331999e-17 -3.815898624664e-18 -1.120324296087e-22 -3.846829592333e-23 
8.000000000000e+00 0.000000000000e+00 1.013250000000e+05 1.013250000000e+05 1.000000000000e+00 2.220446049250e-16 -1.687364167532e-17 -5.807025063640e-18 -1.241950756459e-22 -3.134320616688e-23 
9.000000000000e+00 0.000000000000e+00 1.013250000000e+05 1.013250000000e+05 1.000000000000e+00 0.000000000000e+00 -1.428477053359e-17 -6.070281753403e-18 -1.205501310109e-22 -2.477889773910e-23 
1.000000000000e+01 0.000000000000e+00 1.013250000000e+05 1.013250000000e+05 1.000000000000e+00 0.000000000000e+00 -2.003796223651e-17 -3.912769459194e-18 -1.322558140097e-22 -1.086825312589e-23 
1.100000000000e+01 0.000000000000e+00 1.013250000000e+05 1.013250000000e+05 1.000000000000e+00 1.110223024625e-16 -1.452751925194e-17 -7.933080708902e-18 -1.250773148042e-22 -2.738956877618e-23 
1.200000000000e+01 0.000000000000e+00 1.013250000000e+05 1.013250000000e+05 1.000000000000e+00 0.000000000000e+00 -1.969356198149e-17 -3.031258819784e-18 -1.077664078003e-22 -2.539932696142e-23 
1.300000000000e+01 0.000000000000e+00 1.013250000000e+05 1.013250000000e+05 1.000000000000e+00 1.110223024625e-16 -2.233869867442e-17 -5.666413716720e-18 -9.805996829901e-23 -3.141670947036e-23 
1.400000000000e+01 0.000000000000e+00 1.013250000000e+05 1.013250000000e+05 1.000000000000e+00 0.000000000000e+00 -1.341170056045e-17 -2.931894183488e-18 -9.713615448569e-23 -1.469918441446e-23 
1.500000000000e+01 0.000000000000e+00 1.013250000000e+05 1.013250000000e+05 1.000000000000e+00 1.110223024625e-16 -2.083467625498e-17 -5.842671831788e-18 -1.029852215961e-22 -2.296383452555e-23 
1.600000000000e+01 0.000000000000e+00 1.013250000000e+05 1.013250000000e+05 1.000000000000e+00 0.000000000000e+00 -1.825800157940e-17 -6.966544000917e-18 -1.225127495938e-22 -4.803963925047e-24 
1.700000000000e+01 0.000000000000e+00 1.013250000000e+05 1.013250000000e+05 1.000000000000e+00 0.000000000000e+00 -1.578220520597e-17 -4.745337268004e-18 -1.232708682677e-22 -3.542189897477e-23 
1.800000000000e+01 0.000000000000e+00 1.013250000000e+05 1.013250000000e+05 1.000000000000e+00 0.000000000000e+00 -2.194119841661e-17 -5.438107845493e-18 -1.144818404332e-22 -5.006825032141e-23 
1.900000000000e+01 0.000000000000e+00 1.013250000000e+05 1.013250000000e+05 1.000000000000e+00 0.000000000000e+00 -2.118518465882e-17 -1.390242866809e-18 -1.177266889034e-22 -1.843312453556e-23 
2.000000000000e+01 0.000000000000e+00 1.013250000000e+05 1.013250000000e+05 1.000000000000e+00 0.000000000000e+00 -1.799871605146e-17 -1.676565274377e-18 -9.337821507514e-23 -4.836513222595e-23 
2.100000000000e+01 0.000000000000e+00 1.013250000000e+05 1.013250000000e+05 1.000000000000e+00 0.000000000000e+00 -1.613027083463e-17 -2.416340802509e-18 -1.097534825389e-22 -3.800875286279e-23 
2.200000000000e+01 0.000000000000e+00 1.013250000000e+05 1.013250000000e+05 1.000000000000e+00 0.000000000000e+00 -1.787235515787e-17 -6.231992910643e-18 -1.136082990842e-22 -3.807032396166e-23 
2.300000000000e+01 0.000000000000e+00 1.013250000000e+05 1.013250000000e+05 1.000000000000e+00 0.000000000000e+00 -1.834055352180e-17 -1.626864415811e-18 -1.165054992295e-22 -4.857116761117e-23 
2.400000000000e+01 0.000000000000e+00 1.013250000000e+05 1.013250000000e+05 1.000000000000e+00 1.110223024625e-16 -1.638779397885e-17 -4.737086910583e-18 -1.226790015446e-22 -3.660815334532e-23 
2.500000000000e+01 0.000000000000e+00 1.013250000000e+05 1.013250000000e+05 1.000000000000e+00 0.000000000000e+00 -1.686492887970e-17 -1.706319265039e-18 -1.258976955115e-22 -1.538151373551e-23 
2.600000000000e+01 0.000000000000e+00 1.013250000000e+05 1.013250000000e+05 1.000000000000e+00 1.110223024625e-16 -1.789890089358e-17 -7.360497779514e-18 -1.057876602037e-22 -4.740913094884e-23 
2.700000000000e+01 0.000000000000e+00 1.013250000000e+05 1.013250000000e+05 1.000000000000e+00 0.000000000000e+00 -1.670669824027e-17 -3.655008788255e-18 -1.140823081038e-22 -2.685328405739e-23 
2.800000000000e+01 0.000000000000e+00 1.013250000000e+05 1.013250000000e+05 1.000000000000e+00 0.000000000000e+00 -1.863429771476e-17 -1.698336453509e-18 -9.770132783337e-23 -2.013858231864e-23 
2.900000000000e+01 0.000000000000e+00 1.013250000000e+05 1.013250000000e+05 1.000000000000e+00 0.000000000000e+00 -2.225180631253e-17 -4.557207919875e-18 -1.125232327447e-22 -1.940569828203e-23 
3.000000000000e+01 0.000000000000e+00 1.013250000000e+05 1.013250000000e+05 1.000000000000e+00 0.000000000000e+00 -1.745051644286e-17 -6.597968022565e-18 -1.224122076631e-22 -4.117480198530e-23 
3.100000000000e+01 0.000000000000e+00 1.013250000000e+05 1.013250000000e+05 1.000000000000e+00 1.110223024625e-16 -1.808563683216e-17 -2.987183952758e-18 -8.744951854144e-23 -4.784714972773e-23 
3.200000000000e+01 0.000000000000e+00 1.013250000000e+05 1.013250000000e+05 1.000000000000e+00 0.000000000000e+00 -1.761319852395e-17 -4.262905257212e-18 -1.296444643158e-22 -2.371414243042e-23 
3.300000000000e+01 0.000000000000e+00 1.013250000000e+05 1.013250000000e+05 1.000000000000e+00 1.110223024625e-16 -1.773496815304e-17 -3.621504991563e-18 -9.256572767505e-23 -3.443778807119e-23 
3.400000000000e+01 0.000000000000e+00 1.013250000000e+05 1.013250000000e+05 1.000000000000e+00 0.000000000000e+00 -1.791387054107e-17 -7.583906067521e-18 -1.173800928645e-22 -4.017048493217e-23 
3.500000000000e+01 0.000000000000e+00 1.013250000000e+05 1.013250000000e+05 1.000000000000e+00 0.000000000000e+00 -1.720106775262e-17 -3.419970044713e-18 -1.121222972597e-22 -5.151830525694e-23 
3.600000000000e+01 0.000000000000e+00 1.013250000000e+05 1.013250000000e+05 1.000000000000e+00 0.000000000000e+00 -1.618322855743e-17 -8.438075513165e-18 -1.294704853244e-22 -3.413974589490e-23 
3.700000000000e+01 0.000000000000e+00 1.013250000000e+05 1.013250000000e+05 1.000000000000e+00 0.000000000000e+00 -1.447758691608e-17 -3.382763055961e-18 -9.222386574017e-23 -3.114178134758e-23 
3.800000000000e+01 0.000000000000e+00 1.013250000000e+05 1.013250000000e+05 1.000000000000e+00 1.110223024625e-16 -1.491231445785e-17 -4.092060548945e-18 -1.340540148851e-22 -3.032909140453e-23 
3.900000000000e+01 0.000000000000e+00 1.013250000000e+05 1.013250000000e+05 1.000000000000e+00 0.000000000000e+00 -1.930168560351e-17 -6.436063351716e-18 -1.328110640245e-22 -1.147573069810e-23 
4.000000000000e+01 0.000000000000e+00 1.013250000000e+05 1.013250000000e+05 1.000000000000e+00 0.000000000000e+00 -1.737909909047e-17 -5.876958637390e-18 -1.407432106826e-22 -2.305010019440e-23 
4.100000000000e+01 0.000000000000e+00 1.013250000000e+05 1.013250000000e+05 1.000000000000e+00 0.000000000000e+00 -1.410753121152e-17 -4.454579683203e-18 -1.478907087477e-22 1.330982637059e-24 
4.200000000000e+01 0.000000000000e+00 1.013250000000e+05 1.013250000000e+05 1.000000000000e+00 0.000000000000e+00 -1.856944512206e-17 -2.701692980433e-18 -1.533301219360e-22 -6.485837925201e-23 
4.300000000000e+01 0.000000000000e+00 1.013250000000e+05 1.013250000000e+05 1.000000000000e+00 0.000000000000e+00 -1.702748639837e-17 -2.973887671799e-18 -1.342857624641e-22 -2.292684609858e-23 
4.400000000000e+01 0.000000000000e+00 1.013250000000e+05 1.013250000000e+05 1.000000000000e+00 0.000000000000e+00 -1.669152217494e-17 -4.417984895834e-18 -1.152196940122e-22 -1.605040446383e-23 
4.500000000000e+01 0.000000000000e+00 1.013250000000e+05 1.013250000000e+05 1.000000000000e+00 0.000000000000e+00 -1.470789322463e-17 -4.410231784146e-18 -1.374054543846e-22 -2.996968076804e-23 
4.600000000000e+01 0.000000000000e+00 1.013250000000e+05 1.013250000000e+05 1.000000000000e+00 0.000000000000e+00 -2.032859999954e-17 -4.131174270690e-18 -1.064280412921e-22 -2.404827880212e-23 
4.700000000000e+01 0.000000000000e+00 1.013250000000e+05 1.013250000000e+05 1.000000000000e+00 1.110223024625e-16 -1.761537175154e-17 -4.811632487306e-18 -7.436389867636e-23 -2.519044774502e-23 
4.800000000000e+01 0.000000000000e+00 1.013250000000e+05 1.013250000000e+05 1.000000000000e+00 0.000000000000e+00 -1.851914417230e-17 -3.318346817305e-18 -9.549998327078e-23 8.960108386340e-24 
4.900000000000e+01 0.000000000000e+00 1.013250000000e+05 1.013250000000e+05 1.000000000000e+00 1.110223024625e-16 -1.436869117026e-17 -5.208476085336e-18 -1.006250749932e-22 -4.570228504774e-23 
5.000000000000e+01 0.000000000000e+00 1.013250000000e+05 1.013250000000e+05 1.000000000000e+00 0.000000000000e+00 -1.837097891103e-17 -5.554203998989e-18 -1.224554122790e-22 -5.165192496303e-23 
5.100000000000e+01 0.000000000000e+00 1.013250000000e+05 1.013250000000e+05 1.000000000000e+00 0.000000000000e+00 -1.551062618572e-17 -7.524460786233e-18 -8.679427981447e-23 -2.014468462349e-23 
5.200000000000e+01 0.000000000000e+00 1.013250000000e+05 1.013250000000e+05 1.000000000000e+00 0.000000000000e+00 -1.715063002120e-17 -2.939947112669e-18 -9.691638533961e-23 3.216996278159e-24 
5.300000000000e+01 0.000000000000e+00 1.013250000000e+05 1.013250000000e+05 1.000000000000e+00 3.330669073875e-16 -1.159014364427e-17 -3.606444002282e-18 -8.840805838917e-23 -4.462386361933e-23 
5.400000000000e+01 0.000000000000e+00 1.013250000000e+05 1.013250000000e+05 1.000000000000e+00 0.000000000000e+00 -2.113099381337e-17 -6.702140106865e-18 -1.762457725187e-22 -5.424152871179e-24 
5.500000000000e+01 0.000000000000e+00 1.013250000000e+05 1.013250000000e+05 1.000000000000e+00 0.000000000000e+00 -1.666564597736e-17 -4.142240644699e-18 -1.616536573900e-22 -2.004129933997e-23 
5.600000000000e+01 0.000000000000e+00 1.013250000000e+05 1.013250000000e+05 1.000000000000e+00 0.000000000000e+00 -1.785672417325e-17 -3.384472628495e-18 -1.354348690742e-22 -5.627470667919e-23 
5.700000000000e+01 0.000000000000e+00 1.013250000000e+05 1.013250000000e+05 1.000000000000e+00 0.000000000000e+00 -1.292954597458e-17 -3.205523014765e-18 -8.174203401286e-23 -5.196507452789e-23 
5.800000000000e+01 0.000000000000e+00 1.013250000000e+05 1.013250000000e+05 1.000000000000e+00 1.110223024625e-16 -1.634745514832e-17 -3.575616335960e-18 -5.489889526471e-23 -2.464521698493e-23 
5.900000000000e+01 0.000000000000e+00 1.013250000000e+05 1.013250000000e+05 1.000000000000e+00 0.000000000000e+00 -1.558457269372e-17 -2.931718832039e-18 -4.312691761345e-24 6.686246253768e-24 
6.000000000000e+01 0.000000000000e+00 1.013250000000e+05 1.013250000000e+05 1.000000000000e+00 0.000000000000e+00 -1.318095321018e-17 -6.586260528494e-18 -1.826756240926e-23 -4.351280550296e-23 
6.100000000000e+01 0.000000000000e+00 1.013250000000e+05 1.013250000000e+05 1.000000000000e+00 0.000000000000e+00 -1.869271914703e-17 -4.745316774289e-18 -8.101621871458e-23 -3.283527458653e-23 
6.200000000000e+01 0.000000000000e+00 1.013250000000e+05 1.013250000000e+05 1.000000000000e+00 0.000000000000e+00 -1.892528660496e-17 -4.333908914541e-18 -1.480798059332e-22 -7.663687771099e-23 
6.300000000000e+01 0.000000000000e+00 1.013250000000e+05 1.013250000000e+05 1.000000000000e+00 0.000000000000e+00 -1.796098617833e-17 -3.566438772739e-18 -1.325751415822e-22 -5.554788413841e-23 
6.400000000000e+01 0.000000000000e+00 1.013250000000e+05 1.013250000000e+05 1.000000000000e+00 0.000000000000e+00 -2.162029676996e-17 -2.149403015039e-18 -1.765164373042e-22 -3.121216978075e-23 
6.500000000000e+01 0.000000000000e+00 1.013250000000e+05 1.013250000000e+05 1.000000000000e+00 0.000000000000e+00 -1.892047486036e-17 -4.620757107918e-18 -2.183827848746e-22 -2.958389126737e-23 
6.600000000000e+01 0.000000000000e+00 1.013250000000e+05 1.013250000000e+05 1.000000000000e+00 0.000000000000e+00 -1.777976941831e-17 -5.225359127071e-18 -1.606887829211e-22 -4.565096303126e-23 
6.700000000000e+01 0.000000000000e+00 1.013250000000e+05 1.013250000000e+05 1.000000000000e+00 3.330669073875e-16 -1.375877419291e-17 -3.201619564361e-18 -1.331535177627e-22 -3.573020961614e-23 
6.800000000000e+01 0.000000000000e+00 1.013250000000e+05 1.013250000000e+05 1.000000000000e+00 0.000000000000e+00 -1.464021479322e-17 -3.314113236835e-18 -1.579965801049e-22 -8.197339736226e-24 
6.900000000000e+01 0.000000000000e+00 1.013250000000e+05 1.013250000000e+05 1.000000000000e+00 0.000000000000e+00 -1.364278768327e-17 -6.974258522781e-18 -1.339605649856e-22 -9.383703131207e-23 
7.000000000000e+01 0.000000000000e+00 1.013250000000e+05 1.013250000000e+05 1.000000000000e+00 0.000000000000e+00 -1.665869770313e-17 -3.302383305006e-18 -1.574445991730e-22 -8.867626744153e-23 
7.100000000000e+01 0.000000000000e+00 1.013250000000e+05 1.013250000000e+05 1.000000000000e+00 0.000000000000e+00 -1.811793786202e-17 -5.610678560840e-18 -1.290937411867e-22 -3.400072652741e-23 
7.200000000000e+01 0.000000000000e+00 1.013250000000e+05 1.013250000000e+05 1.000000000000e+00 1.110223024625e-16 -1.345075391757e-17 -5.299853274785e-18 -1.169581886899e-22 -4.231085242626e-23 
7.300000000000e+01 0.000000000000e+00 1.013250000000e+05 1.013250000000e+05 1.000000000000e+00 0.000000000000e+00 -1.915919405658e-17 -4.634695118958e-18 -1.168950388050e-22 -1.628101400457e-23 
7.400000000000e+01 0.000000000000e+00 1.013250000000e+05 1.013250000000e+05 1.000000000000e+00 0.000000000000e+00 -1.695757812289e-17 -4.575393964919e-18 -8.022612069624e-23 -7.792494392320e-24 
7.500000000000e+01 0.000000000000e+00 1.013250000000e+05 1.013250000000e+05 1.000000000000e+00 0.000000000000e+00 -1.812856257248e-17 -4.522714202862e-18 -6.715929943419e-23 -1.815667946004e-23 
7.600000000000e+01 0.000000000000e+00 1.013250000000e+05 1.013250000000e+05 1.000000000000e+00 0.000000000000e+00 -1.634218109938e-17 -4.416534780189e-18 -1.931935475075e-22 -9.681466699100e-23 
7.700000000000e+01 0.000000000000e+00 1.013250000000e+05 1.013250000000e+05 1.000000000000e+00 0.000000000000e+00 -1.560933493622e-17 8.070771887543e-21 -1.718335456683e-22 -1.280826588812e-22 
7.800000000000e+01 0.000000000000e+00 1.013250000000e+05 1.013250000000e+05 1.000000000000e+00 1.110223024625e-16 -1.555345231513e-17 -5.712789436415e-18 -5.752331146860e-23 -5.758431797644e-23 
7.900000000000e+01 0.000000000000e+00 1.013250000000e+05 1.013250000000e+05 1.000000000000e+00 0.000000000000e+00 -1.809813356426e-17 -6.778733797589e-18 -1.422772005528e-22 -4.875379182178e-23 
8.000000000000e+01 0.000000000000e+00 1.013250000000e+05 1.013250000000e+05 1.000000000000e+00 0.000000000000e+00 -2.027992742336e-17 -2.639919600641e-18 -1.447441373020e-22 -1.502779739947e-22 
8.100000000000e+01 0.000000000000e+00 1.013250000000e+05 1.013250000000e+05 1.000000000000e+00 0.000000000000e+00 -1.659929058870e-17 -4.560497129558e-18 -9.692453693493e-23 -6.700132425569e-23 
8.200000000000e+01 0.000000000000e+00 1.013250000000e+05 1.013250000000e+05 1.000000000000e+00 1.110223024625e-16 -1.929661231087e-17 2.772909615121e-20 -7.568642142030e-24 -6.339447795972e-23 
8.300000000000e+01 0.000000000000e+00 1.013250000000e+05 1.013250000000e+05 1.000000000000e+00 0.000000000000e+00 -1.712392103109e-17 -5.035756433136e-18 -2.031723346070e-22 -1.294616132329e-22 
8.400000000000e+01 0.000000000000e+00 1.013250000000e+05 1.013250000000e+05 1.000000000000e+00 0.000000000000e+00 -1.738908692898e-17 -7.947557594948e-18 -5.872325903222e-23 4.823377365957e-23 
8.500000000000e+01 0.000000000000e+00 1.013250000000e+05 1.013250000000e+05 1.000000000000e+00 0.000000000000e+00 -1.822562159334e-17 -3.591688586252e-18 -1.471874959033e-23 4.244751788587e-23 
8.600000000000e+01 0.000000000000e+00 1.013250000000e+05 1.013250000000e+05 1.000000000000e+00 1.110223024625e-16 -1.686884016246e-17 -5.137104154371e-18 -1.966707155283e-22 -3.859837534840e-23 
8.700000000000e+01 0.000000000000e+00 1.013250000000e+05 1.013250000000e+05 1.000000000000e+00 1.110223024625e-16 -1.762332042550e-17 -4.821233539973e-18 -8.397375081037e-23 -5.131509781615e-23 
8.800000000000e+01 0.000000000000e+00 1.013250000000e+05 1.013250000000e+05 1.000000000000e+00 1.110223024625e-16 -1.444198791660e-17 -2.693924764167e-19 -1.640560247411e-22 -7.409426905455e-23 
8.900000000000e+01 0.000000000000e+00 1.013250000000e+05 1.013250000000e+05 1.000000000000e+00 0.000000000000e+00 -1.812688380788e-17 -1.531622453836e-18 -2.233828400095e-22 -1.945926522337e-23 
9.000000000000e+01 0.000000000000e+00 1.013250000000e+05 1.013250000000e+05 1.000000000000e+00 0.000000000000e+00 -1.961401770647e-17 -4.326435948506e-18 -2.035436635120e-22 7.117262613502e-24 
9.100000000000e+01 0.000000000000e+00 1.013250000000e+05 1.013250000000e+05 1.000000000000e+00 0.000000000000e+00 -1.529547890698e-17 -6.016755609939e-18 -1.427645832872e-22 1.613838927057e-23 
9.200000000000e+01 0.000000000000e+00 1.013250000000e+05 1.013250000000e+05 1.000000000000e+00 1.110223024625e-16 -2.040974878803e-17 -2.658424334971e-18 -8.604302610468e-23 -5.888663480062e-23 
9.300000000000e+01 0.000000000000e+00 1.013250000000e+05 1.013250000000e+05 1.000000000000e+00 0.000000000000e+00 -1.863474216019e-17 -5.607260673296e-18 -2.121146726624e-23 3.891157133231e-23 
9.400000000000e+01 0.000000000000e+00 1.013250000000e+05 1.013250000000e+05 1.000000000000e+00 1.110223024625e-16 -1.805678278834e-17 -6.807683594163e-18 6.353503625212e-23 6.476255205204e-23 
9.500000000000e+01 0.000000000000e+00 1.013250000000e+05 1.013250000000e+05 1.000000000000e+00 0.000000000000e+00 -1.590197249353e-17 -4.670653490728e-18 2.918181769748e-23 -7.039955894532e-23 
9.600000000000e+01 0.000000000000e+00 1.013250000000e+05 1.013250000000e+05 1.000000000000e+00 0.000000000000e+00 -1.789672271920e-17 -3.403415212237e-18 -1.048739892274e-22 -3.356248294669e-23 
9.700000000000e+01 0.000000000000e+00 1.013250000000e+05 1.013250000000e+05 1.000000000000e+00 0.000000000000e+00 -2.210966334740e-17 -4.046040428975e-18 -1.540229181549e-22 -9.436595135016e-23 
9.800000000000e+01 0.000000000000e+00 1.013250000000e+05 1.013250000000e+05 1.000000000000e+00 0.000000000000e+00 -1.669600272218e-17 -6.549866314739e-18 -1.008748225442e-22 -2.058349321075e-23 
9.900000000000e+01 0.000000000000e+00 1.013250000000e+05 1.013250000000e+05 1.000000000000e+00 0.000000000000e+00 -1.522063051084e-17 -3.166253485782e-18 -7.241170318032e-23 -8.394007275326e-23 
1.000000000000e+02 0.000000000000e+00 1.013250000000e+05 1.013250000000e+05 1.000000000000e+00 0.000000000000e+00 -1.911711970141e-17 -6.653264834942e-18 -6.217219402228e-23 6.489757386358e-23 
1.010000000000e+02 0.000000000000e+00 1.013250000000e+05 1.013250000000e+05 1.000000000000e+00 0.000000000000e+00 -2.177140611688e-17 -5.056278970922e-18 -4.115116533736e-23 1.950997467692e-23 
1.020000000000e+02 0.000000000000e+00 1.013250000000e+05 1.013250000000e+05 1.000000000000e+00 0.000000000000e+00 -1.939382411048e-17 -3.443997873249e-18 -3.820216354730e-23 -7.828410795576e-23 
1.030000000000e+02 0.000000000000e+00 1.013250000000e+05 1.013250000000e+05 1.000000000000e+00 2.220446049250e-16 -1.485179738637e-17 -7.239712868826e-19 7.552502995927e-24 5.010240009390e-23 
1.040000000000e+02 0.000000000000e+00 1.013250000000e+05 1.013250000000e+05 1.000000000000e+00 0.000000000000e+00 -1.756916064371e-17 -1.977527171557e-18 3.376361506304e-23 4.954293862680e-23 
1.050000000000e+02 0.000000000000e+00 1.013250000000e+05 1.013250000000e+05 1.000000000000e+00 0.000000000000e+00 -2.185244284442e-17 -6.413536608986e-18 -1.869965994132e-22 -2.681708177398e-22 
1.060000000000e+02 0.000000000000e+00 1.013250000000e+05 1.013250000000e+05 1.000000000000e+00 0.000000000000e+00 -2.167730640511e-17 -5.872602754973e-18 -1.949624548118e-22 -2.175957664528e-22 
1.070000000000e+02 0.000000000000e+00 1.013250000000e+05 1.013250000000e+05 1.000000000000e+00 1.110223024625e-16 -1.804673692511e-17 -3.099632971901e-18 -2.742849921437e-22 -1.858012530541e-22 
1.080000000000e+02 0.000000000000e+00 1.013250000000e+05 1.013250000000e+05 1.000000000000e+00 0.000000000000e+00 -1.549947960890e-17 -4.442979732128e-18 -1.081806784192e-22 -1.099044333423e-23 
1.090000000000e+02 0.000000000000e+00 1.013250000000e+05 1.013250000000e+05 1.000000000000e+00 0.000000000000e+00 -2.183842337941e-17 -7.279068936607e-18 -6.192764660380e-23 -2.906121391827e-23 
1.100000000000e+02 0.000000000000e+00 1.013250000000e+05 1.013250000000e+05 1.000000000000e+00 0.000000000000e+00 -1.563180789286e-17 -3.619929747536e-18 -1.435000322819e-22 2.101275190533e-23 
1.110000000000e+02 0.000000000000e+00 1.013250000000e+05 1.013250000000e+05 1.000000000000e+00 0.000000000000e+00 -1.652251747582e-17 -5.807365232004e-18 -1.136029893487e-22 -4.964969331787e-23 
1.120000000000e+02 0.000000000000e+00 1.013250000000e+05 1.013250000000e+05 1.000000000000e+00 1.110223024625e-16 -1.627169071655e-17 -5.665748789264e-18 -9.285384226654e-23 -6.930601957581e-23 
1.130000000000e+02 0.000000000000e+00 1.013250000000e+05 1.013250000000e+05 1.000000000000e+00 0.000000000000e+00 -1.647868817201e-17 -6.052467178217e-18 -1.076532830969e-22 -1.196689214318e-22 
1.140000000000e+02 0.000000000000e+00 1.013250000000e+05 1.013250000000e+05 1.000000000000e+00 1.110223024625e-16 -1.619407606364e-17 -1.867273325421e-18 -1.184516052685e-22 -9.723384615640e-23 
1.150000000000e+02 0.000000000000e+00 1.013250000000e+05 1.013250000000e+05 1.000000000000e+00 0.000000000000e+00 -1.743468545933e-17 -6.462866265878e-18 -1.266594737577e-22 1.762189454639e-23 
1.160000000000e+02 0.000000000000e+00 1.013250000000e+05 1.013250000000e+05 1.000000000000e+00 0.000000000000e+00 -1.987425750082e-17 -3.669005756669e-18 -1.993373206291e-22 4.340075573392e-23 
1.170000000000e+02 0.000000000000e+00 1.013250000000e+05 1.013250000000e+05 1.000000000000e+00 1.110223024625e-16 -1.992795609652e-17 -7.786451157425e-18 -1.481982457157e-22 -1.087999830441e-22 
1.180000000000e+02 0.000000000000e+00 1.013250000000e+05 1.013250000000e+05 1.000000000000e+00 0.000000000000e+00 -1.833157145277e-17 -6.758714854005e-18 -3.716954523704e-23 -7.575935771484e-24 
1.190000000000e+02 0.000000000000e+00 1.013250000000e+05 1.013250000000e+05 1.000000000000e+00 0.000000000000e+00 -2.032086280209e-17 -1.569431249522e-18 -6.708268687329e-23 -5.272786511116e-23 
1.200000000000e+02 0.000000000000e+00 1.013250000000e+05 1.013250000000e+05 1.000000000000e+00 1.110223024625e-16 -1.743870382640e-17 -7.888215861647e-18 -1.145486469646e-22 -3.880028746683e-23 
