 TITLE = "Profiles along polylines"
 VARIABLES = "DIST" "PRESSURE1" "PRESSURE2" "PRESSURE_W" "SATURATION1" SATURATION2 "VELOCITY_X1" "VELOCITY_Y1" "VELOCITY_X2" "VELOCITY_Y2" 
 ZONE T="TIME=0.000000000000e+00"
0.000000000000e+00 0.000000000000e+00 1.013250000000e+05 1.013250000000e+05 1.000000000000e+00 1.110223024625e-16 0.000000000000e+00 0.000000000000e+00 0.000000000000e+00 0.000000000000e+00 
5.263157894737e-02 0.000000000000e+00 1.013250000000e+05 1.013250000000e+05 1.000000000000e+00 0.000000000000e+00 0.000000000000e+00 0.000000000000e+00 0.000000000000e+00 0.000000000000e+00 
1.052631578947e-01 0.000000000000e+00 1.013250000000e+05 1.013250000000e+05 1.000000000000e+00 0.000000000000e+00 0.000000000000e+00 0.000000000000e+00 0.000000000000e+00 0.000000000000e+00 
1.578947368421e-01 0.000000000000e+00 1.013250000000e+05 1.013250000000e+05 1.000000000000e+00 0.000000000000e+00 0.000000000000e+00 0.000000000000e+00 0.000000000000e+00 0.000000000000e+00 
2.105263157895e-01 0.000000000000e+00 1.013250000000e+05 1.013250000000e+05 1.000000000000e+00 0.000000000000e+00 0.000000000000e+00 0.000000000000e+00 0.000000000000e+00 0.000000000000e+00 
2.631578947368e-01 0.000000000000e+00 1.013250000000e+05 1.013250000000e+05 1.000000000000e+00 0.000000000000e+00 0.000000000000e+00 0.000000000000e+00 0.000000000000e+00 0.000000000000e+00 
3.157894736842e-01 0.000000000000e+00 1.013250000000e+05 1.013250000000e+05 1.000000000000e+00 0.000000000000e+00 0.000000000000e+00 0.000000000000e+00 0.000000000000e+00 0.000000000000e+00 
3.684210526316e-01 0.000000000000e+00 1.013250000000e+05 1.013250000000e+05 1.000000000000e+00 0.000000000000e+00 0.000000000000e+00 0.000000000000e+00 0.000000000000e+00 0.000000000000e+00 
4.210526315789e-01 0.000000000000e+00 1.013250000000e+05 1.013250000000e+05 1.000000000000e+00 0.000000000000e+00 0.000000000000e+00 0.000000000000e+00 0.000000000000e+00 0.000000000000e+00 
4.736842105263e-01 0.000000000000e+00 1.013250000000e+05 1.013250000000e+05 1.000000000000e+00 0.000000000000e+00 0.000000000000e+00 0.000000000000e+00 0.000000000000e+00 0.000000000000e+00 
5.263157894737e-01 0.000000000000e+00 1.013250000000e+05 1.013250000000e+05 1.000000000000e+00 0.000000000000e+00 0.000000000000e+00 0.000000000000e+00 0.000000000000e+00 0.000000000000e+00 
5.789473684210e-01 0.000000000000e+00 1.013250000000e+05 1.013250000000e+05 1.000000000000e+00 0.000000000000e+00 0.000000000000e+00 0.000000000000e+00 0.000000000000e+00 0.000000000000e+00 
6.315789473684e-01 0.000000000000e+00 1.013250000000e+05 1.013250000000e+05 1.000000000000e+00 0.000000000000e+00 0.000000000000e+00 0.000000000000e+00 0.000000000000e+00 0.000000000000e+00 
6.842105263158e-01 0.000000000000e+00 1.013250000000e+05 1.013250000000e+05 1.000000000000e+00 0.000000000000e+00 0.000000000000e+00 0.000000000000e+00 0.000000000000e+00 0.000000000000e+00 
7.368421052631e-01 0.000000000000e+00 1.013250000000e+05 1.013250000000e+05 1.000000000000e+00 0.000000000000e+00 0.000000000000e+00 0.000000000000e+00 0.000000000000e+00 0.000000000000e+00 
7.894736842105e-01 0.000000000000e+00 1.013250000000e+05 1.013250000000e+05 1.000000000000e+00 0.000000000000e+00 0.000000000000e+00 0.000000000000e+00 0.000000000000e+00 0.000000000000e+00 
8.421052631579e-01 0.000000000000e+00 1.013250000000e+05 1.013250000000e+05 1.000000000000e+00 0.000000000000e+00 0.000000000000e+00 0.000000000000e+00 0.000000000000e+00 0.000000000000e+00 
8.947368421053e-01 0.000000000000e+00 1.013250000000e+05 1.013250000000e+05 1.000000000000e+00 0.000000000000e+00 0.000000000000e+00 0.000000000000e+00 0.000000000000e+00 0.000000000000e+00 
9.473684210526e-01 0.000000000000e+00 1.013250000000e+05 1.013250000000e+05 1.000000000000e+00 0.000000000000e+00 0.000000000000e+00 0.000000000000e+00 0.000000000000e+00 0.000000000000e+00 
1.000000000000e+00 0.000000000000e+00 1.013250000000e+05 1.013250000000e+05 1.000000000000e+00 1.110223024625e-16 0.000000000000e+00 0.000000000000e+00 0.000000000000e+00 0.000000000000e+00 
 TITLE = "Profiles along polylines"
 VARIABLES = "DIST" "PRESSURE1" "PRESSURE2" "PRESSURE_W" "SATURATION1" SATURATION2 "VELOCITY_X1" "VELOCITY_Y1" "VELOCITY_X2" "VELOCITY_Y2" 
 ZONE T="TIME=1.000000000000e-03"
0.000000000000e+00 0.000000000000e+00 1.013250000000e+05 1.013250000000e+05 1.000000000000e+00 2.997602166488e-15 9.144290771014e-15 -2.616649203238e-04 4.247620976415e-20 1.931087194636e-11 
5.263157894737e-02 7.868884473517e-08 1.013187522814e+05 1.013187522814e+05 1.000000000000e+00 2.864375403533e-14 8.340915488983e-14 -2.616649201630e-04 6.701578037932e-19 1.930882364340e-11 
1.052631578947e-01 4.668566100268e-08 1.013125045622e+05 1.013125045622e+05 1.000000000000e+00 1.887379141863e-14 -1.803500613997e-14 -2.616649200423e-04 -1.563935519825e-19 1.930807980865e-11 
1.578947368421e-01 9.811162493286e-08 1.013062568427e+05 1.013062568426e+05 1.000000000000e+00 4.640732242933e-14 -3.728564800404e-13 -2.616649194341e-04 -3.196963854340e-18 1.930680393278e-11 
2.105263157895e-01 2.153993195954e-07 1.013000091209e+05 1.013000091207e+05 9.999999999999e-01 9.303668946359e-14 -5.342630847044e-13 -2.616649176419e-04 -4.380689239943e-18 1.930607320137e-11 
2.631578947368e-01 3.269239405307e-07 1.012937613952e+05 1.012937613949e+05 9.999999999999e-01 1.365574320289e-13 -6.823970271794e-13 -2.616649153701e-04 -5.366070446685e-18 1.930451463003e-11 
3.157894736842e-01 5.799049423047e-07 1.012875136639e+05 1.012875136634e+05 9.999999999998e-01 2.300382107023e-13 -6.411683218841e-13 -2.616649113788e-04 -4.709515216014e-18 1.930350632500e-11 
3.684210526316e-01 8.222388807130e-07 1.012812659240e+05 1.012812659231e+05 9.999999999997e-01 3.290701044989e-13 -9.669742435014e-13 -2.616649062677e-04 -7.377104686189e-18 1.930297732937e-11 
4.210526315789e-01 9.828354044573e-07 1.012750181706e+05 1.012750181696e+05 9.999999999996e-01 3.801403636317e-13 -8.690287017125e-13 -2.616648981407e-04 -6.379972948827e-18 1.930114873387e-11 
4.736842105263e-01 1.028880872637e-06 1.012687704021e+05 1.012687704010e+05 9.999999999996e-01 3.956834859764e-13 -6.278514206967e-13 -2.616648911875e-04 -4.212404085345e-18 1.930019139991e-11 
5.263157894737e-01 1.043145936843e-06 1.012625226186e+05 1.012625226175e+05 9.999999999996e-01 3.914646384828e-13 -4.180751504500e-13 -2.616648828982e-04 -2.465180569414e-18 1.929959249570e-11 
5.789473684210e-01 1.039231386041e-06 1.012562748205e+05 1.012562748195e+05 9.999999999996e-01 3.896882816434e-13 -1.105348480177e-13 -2.616648762699e-04 4.386550970617e-20 1.929846025059e-11 
6.315789473684e-01 8.158095549715e-07 1.012500270084e+05 1.012500270076e+05 9.999999999997e-01 3.030908857227e-13 1.005588388431e-13 -2.616648694827e-04 9.258894383427e-19 1.929723987362e-11 
6.842105263158e-01 6.749388128885e-07 1.012437791862e+05 1.012437791855e+05 9.999999999998e-01 2.429167977880e-13 2.324021963378e-12 -2.616648661034e-04 1.630739238553e-17 1.929607829745e-11 
7.368421052631e-01 4.727889752393e-07 1.012375313640e+05 1.012375313635e+05 9.999999999998e-01 1.743050148661e-13 1.091211927180e-11 -2.616648705053e-04 7.336781966023e-17 1.929484845872e-11 
7.894736842105e-01 3.610857336043e-07 1.012312835749e+05 1.012312835746e+05 9.999999999999e-01 1.323385845353e-13 5.347881331974e-11 -2.616649082912e-04 3.577338589675e-16 1.929380132797e-11 
8.421052631579e-01 2.951794187191e-07 1.012250359845e+05 1.012250359842e+05 9.999999999996e-01 3.839151219154e-13 2.955776829146e-10 -2.616651368524e-04 1.991481775075e-15 1.929093286041e-11 
8.947368421053e-01 2.600808808894e-05 1.012187896031e+05 1.012187895771e+05 9.999999993750e-01 6.250082673631e-10 1.719580900562e-09 -2.616663249647e-04 4.417038895767e-14 1.921522466342e-11 
9.473684210526e-01 5.828001833522e-02 1.012126078289e+05 1.012125495488e+05 9.999987182837e-01 1.281716299095e-06 -5.134593352059e-08 -2.615241531439e-04 5.638396718808e-11 -1.165937983210e-10 
1.000000000000e+00 1.195168385435e+02 1.013250000000e+05 1.012054831615e+05 9.999565834568e-01 4.341654321549e-05 -7.319781978897e-08 -2.610759446016e-04 8.465742801766e-11 -5.211644233435e-10 
 TITLE = "Profiles along polylines"
 VARIABLES = "DIST" "PRESSURE1" "PRESSURE2" "PRESSURE_W" "SATURATION1" SATURATION2 "VELOCITY_X1" "VELOCITY_Y1" "VELOCITY_X2" "VELOCITY_Y2" 
 ZONE T="TIME=5.000000000000e+00"
0.000000000000e+00 0.000000000000e+00 1.013250000000e+05 1.013250000000e+05 9.999999212442e-01 7.875580432248e-08 -7.165174788959e-11 -3.702458236952e-05 -3.225899019781e-13 1.514051210344e-09 
5.263157894737e-02 2.101055660839e+00 1.008829577306e+05 1.008808566750e+05 9.999991586419e-01 8.413580685485e-07 -8.906494043384e-11 -3.702329601868e-05 -1.995089674265e-13 1.510038017746e-09 
1.052631578947e-01 3.084729816375e+00 1.004397935408e+05 1.004367088110e+05 9.999988184767e-01 1.181523259453e-06 -1.575637138818e-10 -3.702011571953e-05 -8.998365299882e-14 1.506350943116e-09 
1.578947368421e-01 3.522210102070e+00 9.999607544000e+04 9.999255322989e+04 9.999986560349e-01 1.343965052802e-06 -2.122173293561e-10 -3.701567006608e-05 -4.421696057501e-14 1.500850035203e-09 
2.105263157895e-01 3.711895477416e+00 9.955210007006e+04 9.954838817458e+04 9.999985907672e-01 1.409232750715e-06 -2.362022715687e-10 -3.701058323475e-05 -1.942900971551e-14 1.495002490838e-09 
2.631578947368e-01 3.798235667202e+00 9.910801100410e+04 9.910421276843e+04 9.999985584183e-01 1.441581714889e-06 -2.375926380863e-10 -3.700515163932e-05 -7.364012444635e-15 1.488388079615e-09 
3.157894736842e-01 3.848736215434e+00 9.866387531186e+04 9.866002657564e+04 9.999985401943e-01 1.459805653914e-06 -2.441912501128e-10 -3.699952756671e-05 -1.215757839747e-15 1.481999859294e-09 
3.684210526316e-01 3.901157020071e+00 9.821973048834e+04 9.821582933132e+04 9.999985189775e-01 1.481022541938e-06 -2.631507106152e-10 -3.699377995014e-05 6.879965881969e-15 1.475145433794e-09 
4.210526315789e-01 4.001248988217e+00 9.777562197815e+04 9.777162072916e+04 9.999984789584e-01 1.521041552932e-06 -2.818983544337e-10 -3.698781569934e-05 2.596937964296e-14 1.468325204067e-09 
4.736842105263e-01 4.257745163401e+00 9.733165786739e+04 9.732740012223e+04 9.999983702736e-01 1.629726436914e-06 -3.295445255609e-10 -3.698122238927e-05 8.103810979799e-14 1.460542973752e-09 
5.263157894737e-01 4.980998962001e+00 9.688814677078e+04 9.688316577182e+04 9.999980765242e-01 1.923475770882e-06 -4.525613059052e-10 -3.697306778902e-05 2.247069075388e-13 1.451340294967e-09 
5.789473684210e-01 7.023693291645e+00 9.644593669034e+04 9.643891299705e+04 9.999972126405e-01 2.787359508538e-06 -8.028350708600e-10 -3.696053382570e-05 6.272168604040e-13 1.436807261173e-09 
6.315789473684e-01 1.272582859154e+01 9.600735485385e+04 9.599462902525e+04 9.999949179198e-01 5.082080222873e-06 -1.632236358517e-09 -3.693702323057e-05 1.584145493973e-12 1.410108344916e-09 
6.842105263158e-01 2.797168394607e+01 9.557825356587e+04 9.555028188192e+04 9.999887202724e-01 1.127972762849e-05 -3.461297692436e-09 -3.688596227068e-05 3.711773453619e-12 1.352125765854e-09 
7.368421052631e-01 6.689222706155e+01 9.517268716374e+04 9.510579493668e+04 9.999724753503e-01 2.752464973488e-05 -7.354608366995e-09 -3.677261600331e-05 8.175416440523e-12 1.223918850599e-09 
7.894736842105e-01 1.601995891545e+02 9.482120129552e+04 9.466100170637e+04 9.999355343605e-01 6.446563948748e-05 -1.470205790518e-08 -3.653336066568e-05 1.647322183721e-11 9.548083394646e-10 
8.421052631579e-01 3.671978847798e+02 9.458277867745e+04 9.421558079267e+04 9.998508313290e-01 1.491686709660e-04 -2.724375247134e-08 -3.608644800218e-05 2.928469353265e-11 4.545496024596e-10 
8.947368421053e-01 7.752473988979e+02 9.454430239650e+04 9.376905499760e+04 9.997409470922e-01 2.590529078237e-04 -1.861742511733e-07 -3.509083023124e-05 1.985264790760e-10 -6.682132510885e-10 
9.473684210526e-01 1.794196903222e+03 9.511337530608e+04 9.331917840285e+04 9.985791301435e-01 1.420869856546e-03 -2.008512511564e-06 -2.831884497245e-05 2.248530078008e-09 -8.523156142938e-09 
1.000000000000e+00 8.486134033142e+03 1.013250000000e+05 9.283886596686e+04 9.452999661779e-01 5.470003382209e-02 -2.528411048894e-06 -1.237808928418e-05 3.443776813594e-09 -2.667224155603e-08 
 TITLE = "Profiles along polylines"
 VARIABLES = "DIST" "PRESSURE1" "PRESSURE2" "PRESSURE_W" "SATURATION1" SATURATION2 "VELOCITY_X1" "VELOCITY_Y1" "VELOCITY_X2" "VELOCITY_Y2" 
 ZONE T="TIME=1.000000000000e+01"
0.000000000000e+00 0.000000000000e+00 1.013250000000e+05 1.013250000000e+05 9.999998603522e-01 1.396478401805e-07 -4.919733648418e-11 -2.553474822961e-05 -3.880551055695e-13 1.584870533617e-09 
5.263157894737e-02 3.818635116445e+00 1.008622780451e+05 1.008584594100e+05 9.999984602913e-01 1.539708670895e-06 -6.939598554608e-11 -2.553377215207e-05 -2.518596811293e-13 1.581001913804e-09 
1.052631578947e-01 6.128873120229e+00 1.003980443037e+05 1.003919154306e+05 9.999976431483e-01 2.356851725338e-06 -1.332932347068e-10 -2.553120558601e-05 -1.453967126631e-13 1.578058610962e-09 
1.578947368421e-01 7.478246982061e+00 9.993284324398e+04 9.992536499699e+04 9.999971339187e-01 2.866081344255e-06 -1.968440892087e-10 -2.552725889312e-05 -9.125642131366e-14 1.573129769865e-09 
2.105263157895e-01 8.260076040377e+00 9.946706587054e+04 9.945880579449e+04 9.999968572743e-01 3.142725681915e-06 -2.395413817537e-10 -2.552231621310e-05 -4.495530145234e-14 1.567464574643e-09 
2.631578947368e-01 8.762946488794e+00 9.900099907097e+04 9.899223612449e+04 9.999966638110e-01 3.336188992620e-06 -2.636846704333e-10 -2.551656599055e-05 -5.150514012091e-15 1.560456892783e-09 
3.157894736842e-01 9.232581951334e+00 9.853488713589e+04 9.852565455394e+04 9.999964866482e-01 3.513351798157e-06 -3.044832506092e-10 -2.551000186326e-05 4.117415525333e-14 1.552983147755e-09 
3.684210526316e-01 9.970505625128e+00 9.806902987262e+04 9.805905936699e+04 9.999961840471e-01 3.815952919206e-06 -3.931880709832e-10 -2.550228197859e-05 1.301670494126e-13 1.543805932547e-09 
4.210526315789e-01 1.150721282943e+01 9.760395483057e+04 9.759244761774e+04 9.999955770543e-01 4.422945744542e-06 -5.423324884546e-10 -2.549237013392e-05 3.024603893264e-13 1.532411070963e-09 
4.736842105263e-01 1.491205223349e+01 9.714072550589e+04 9.712581345365e+04 9.999941692575e-01 5.830742538571e-06 -8.495579851422e-10 -2.547782281561e-05 6.622184393879e-13 1.515413927916e-09 
5.263157894737e-01 2.242056100525e+01 9.668156528805e+04 9.665914472705e+04 9.999912120572e-01 8.787942766597e-06 -1.418116361838e-09 -2.545427452760e-05 1.326847888010e-12 1.488498725155e-09 
5.789473684210e-01 3.838655645477e+01 9.623080443113e+04 9.619241787467e+04 9.999846623168e-01 1.533768321460e-05 -2.524620575121e-09 -2.541321280022e-05 2.613342275071e-12 1.441294824977e-09 
6.315789473684e-01 7.108158380142e+01 9.579666980332e+04 9.572558821952e+04 9.999719311137e-01 2.806888631368e-05 -4.329588838420e-09 -2.534201055336e-05 4.708129751933e-12 1.360219098263e-09 
6.842105263158e-01 1.345237154806e+02 9.539310400547e+04 9.525858028999e+04 9.999468911871e-01 5.310881290610e-05 -6.770197316726e-09 -2.521996332502e-05 7.558293503726e-12 1.221643506055e-09 
7.368421052631e-01 2.507517263419e+02 9.504202751210e+04 9.479127578576e+04 9.998997949349e-01 1.002050650794e-04 -1.062226804950e-08 -2.502321913143e-05 1.200609333100e-11 9.990690557904e-10 
7.894736842105e-01 4.508315648558e+02 9.477433996169e+04 9.432350839683e+04 9.998230035297e-01 1.769964703167e-04 -1.841500257289e-08 -2.472805040760e-05 2.082875889790e-11 6.661385533916e-10 
8.421052631579e-01 7.753253449304e+02 9.463038632675e+04 9.385506098182e+04 9.997056073041e-01 2.943926958594e-04 -7.029383601118e-08 -2.429890244732e-05 7.933230431426e-11 1.807088544847e-10 
8.947368421053e-01 1.300892405259e+03 9.468641773128e+04 9.338552532602e+04 9.990086709343e-01 9.913290656977e-04 -2.139069889813e-07 -2.295782519820e-05 2.319810472645e-10 -1.333960920743e-09 
9.473684210526e-01 2.670153895071e+03 9.558159056822e+04 9.291143667315e+04 9.959578795117e-01 4.042120488294e-03 -1.478815705001e-06 -1.631088620459e-05 1.614084687355e-09 -9.009059124045e-09 
1.000000000000e+00 8.914185216404e+03 1.013250000000e+05 9.241081478360e+04 9.349040433229e-01 6.509595667712e-02 -1.869501575410e-06 -4.010583798653e-06 2.540192595803e-09 -2.366352442808e-08 
 TITLE = "Profiles along polylines"
 VARIABLES = "DIST" "PRESSURE1" "PRESSURE2" "PRESSURE_W" "SATURATION1" SATURATION2 "VELOCITY_X1" "VELOCITY_Y1" "VELOCITY_X2" "VELOCITY_Y2" 
 ZONE T="TIME=2.000000000000e+01"
0.000000000000e+00 0.000000000000e+00 1.013250000000e+05 1.013250000000e+05 9.999997647960e-01 2.352039709663e-07 -4.045154408983e-11 -1.917762505324e-05 -4.160611550505e-13 1.617947966724e-09 
5.263157894737e-02 6.552005949963e+00 1.008526193940e+05 1.008460673881e+05 9.999973404002e-01 2.659599769528e-06 -6.353650343651e-11 -1.917674666152e-05 -2.718013725912e-13 1.614095066979e-09 
1.052631578947e-01 1.143841385595e+01 1.003785702145e+05 1.003671318007e+05 9.999955777049e-01 4.422295125872e-06 -1.353740618063e-10 -1.917430258639e-05 -1.543821753021e-13 1.611302608022e-09 
1.578947368421e-01 1.526273146205e+01 9.990345259751e+04 9.988818986605e+04 9.999941030352e-01 5.896964801355e-06 -2.332235905162e-10 -1.917004492012e-05 -6.003130488611e-14 1.605993486056e-09 
2.105263157895e-01 1.867366741270e+01 9.942791153036e+04 9.940923786295e+04 9.999928444793e-01 7.155520687974e-06 -3.452496924120e-10 -1.916370859334e-05 6.903836166895e-14 1.598681811412e-09 
2.631578947368e-01 2.248291014358e+01 9.895275414852e+04 9.893027123838e+04 9.999913318277e-01 8.668172348791e-06 -4.735219113409e-10 -1.915457806891e-05 2.344404333614e-13 1.587684217070e-09 
3.157894736842e-01 2.783422712508e+01 9.847911791926e+04 9.845128369214e+04 9.999892860339e-01 1.071396606744e-05 -6.833674029066e-10 -1.914138299052e-05 4.825526396429e-13 1.572431307263e-09 
3.684210526316e-01 3.645560074282e+01 9.800872141388e+04 9.797226581314e+04 9.999858060776e-01 1.419392240298e-05 -1.050607756555e-09 -1.912215311533e-05 9.028081642635e-13 1.549811715700e-09 
4.210526315789e-01 5.097249352132e+01 9.754417590197e+04 9.749320340845e+04 9.999802205518e-01 1.977944818909e-05 -1.550135740572e-09 -1.909397614071e-05 1.490736779836e-12 1.517190775032e-09 
4.736842105263e-01 7.527417240516e+01 9.708934974290e+04 9.701407557049e+04 9.999704262876e-01 2.957371239320e-05 -2.265918097959e-09 -1.905233216687e-05 2.337461833698e-12 1.468867658177e-09 
5.263157894737e-01 1.150339606417e+02 9.664988589051e+04 9.653485192987e+04 9.999552013125e-01 4.479868746854e-05 -3.176440697268e-09 -1.899262357026e-05 3.411930544483e-12 1.400279309504e-09 
5.789473684210e-01 1.778190170512e+02 9.623331119647e+04 9.605549217942e+04 9.999300590583e-01 6.994094174795e-05 -4.389987832050e-09 -1.890878676464e-05 4.844783382138e-12 1.304034416661e-09 
6.315789473684e-01 2.733444497198e+02 9.584928926542e+04 9.557594481570e+04 9.998938036444e-01 1.061963556247e-04 -5.690782973743e-09 -1.879769425864e-05 6.384080495521e-12 1.177183449819e-09 
6.842105263158e-01 4.123977042730e+02 9.550855087399e+04 9.509615316972e+04 9.998400068859e-01 1.599931141485e-04 -6.209133803547e-09 -1.865626895167e-05 7.048820022374e-12 1.016076179298e-09 
7.368421052631e-01 6.050714511717e+02 9.522113654816e+04 9.461606509699e+04 9.997634623380e-01 2.365376620084e-04 -3.974042624529e-09 -1.849203515813e-05 4.586512256237e-12 8.294348300244e-10 
7.894736842105e-01 8.563349522507e+02 9.499199198981e+04 9.413565703756e+04 9.996814800098e-01 3.185199901821e-04 -1.662221959929e-08 -1.824390976123e-05 1.964545588630e-11 5.459181274894e-10 
8.421052631579e-01 1.240949412225e+03 9.489547739656e+04 9.365452798433e+04 9.991081245497e-01 8.918754502785e-04 -4.591094430535e-08 -1.750220297296e-05 5.279338972652e-11 -2.932647772894e-10 
8.947368421053e-01 2.028748788533e+03 9.519999192761e+04 9.317124313908e+04 9.976428968671e-01 2.357103132880e-03 -1.754246793833e-07 -1.575322427626e-05 1.992355937927e-10 -2.297493823647e-09 
9.473684210526e-01 3.740776703113e+03 9.642381747431e+04 9.268304077120e+04 9.903105220150e-01 9.689477984991e-03 -8.127236612947e-07 -9.964721933127e-06 8.784528377756e-10 -8.981700086329e-09 
1.000000000000e+00 9.150529649140e+03 1.013250000000e+05 9.217447035086e+04 9.267246901928e-01 7.327530980716e-02 -1.119114035660e-06 -1.594959841991e-06 1.514374966873e-09 -1.918064439798e-08 
 TITLE = "Profiles along polylines"
 VARIABLES = "DIST" "PRESSURE1" "PRESSURE2" "PRESSURE_W" "SATURATION1" SATURATION2 "VELOCITY_X1" "VELOCITY_Y1" "VELOCITY_X2" "VELOCITY_Y2" 
 ZONE T="TIME=3.000000000000e+01"
0.000000000000e+00 0.000000000000e+00 1.013250000000e+05 1.013250000000e+05 9.999996422371e-01 3.577628908680e-07 -6.566555804571e-11 -1.620229428458e-05 -3.878941141083e-13 1.625746556760e-09 
5.263157894737e-02 1.009044288655e+01 1.008503578928e+05 1.008402674499e+05 9.999958812952e-01 4.118704793998e-06 -1.047270875586e-10 -1.620090454338e-05 -2.235655504119e-13 1.621265329307e-09 
1.052631578947e-01 1.883986676361e+01 1.003743699547e+05 1.003555300879e+05 9.999926782437e-01 7.321756261947e-06 -2.280893812090e-10 -1.619688873595e-05 -4.352903823442e-14 1.616592886815e-09 
1.578947368421e-01 2.729364426809e+01 9.989807579415e+04 9.987078214988e+04 9.999893728424e-01 1.062715760924e-05 -4.068160527140e-10 -1.618961222887e-05 1.489231664693e-13 1.607690066822e-09 
2.105263157895e-01 3.669240322613e+01 9.942270913498e+04 9.938601673175e+04 9.999858554242e-01 1.414457578441e-05 -6.173691006331e-10 -1.617838102333e-05 3.968542901148e-13 1.594575897333e-09 
2.631578947368e-01 4.862227440995e+01 9.894984741238e+04 9.890122513797e+04 9.999811124076e-01 1.888759243096e-05 -8.461664502009e-10 -1.616192624738e-05 6.830590004657e-13 1.574951337899e-09 
3.157894736842e-01 6.518981338355e+01 9.848158576101e+04 9.841639594763e+04 9.999748251600e-01 2.517483996334e-05 -1.173574577668e-09 -1.613856218724e-05 1.073490190206e-12 1.547757016813e-09 
3.684210526316e-01 8.919551761564e+01 9.802070961898e+04 9.793151410136e+04 9.999652370960e-01 3.476290396609e-05 -1.669572144744e-09 -1.610637621777e-05 1.651522173578e-12 1.510012150304e-09 
4.210526315789e-01 1.242358245288e+02 9.757079621534e+04 9.744656039081e+04 9.999519298488e-01 4.807015120400e-05 -2.225566446560e-09 -1.606324760158e-05 2.312052733656e-12 1.459976561540e-09 
4.736842105263e-01 1.747471909502e+02 9.713625846682e+04 9.696151127587e+04 9.999317964807e-01 6.820351930581e-05 -2.879510586873e-09 -1.600632894312e-05 3.094622030665e-12 1.393945870190e-09 
5.263157894737e-01 2.460799457150e+02 9.672241848978e+04 9.647633854407e+04 9.999048098541e-01 9.519014590520e-05 -3.568849501706e-09 -1.593432745258e-05 3.919133637918e-12 1.311051164721e-09 
5.789473684210e-01 3.441484264349e+02 9.633515970348e+04 9.599101127705e+04 9.998659017802e-01 1.340982198023e-04 -4.387779356787e-09 -1.584523888435e-05 4.901742460800e-12 1.208597082272e-09 
6.315789473684e-01 4.753736091815e+02 9.598086979453e+04 9.550549618535e+04 9.998165737787e-01 1.834262213469e-04 -5.323987290066e-09 -1.573985959284e-05 6.018617192626e-12 1.087908594576e-09 
6.842105263158e-01 6.461756663528e+02 9.566593605156e+04 9.501976038520e+04 9.997508854330e-01 2.491145669616e-04 -7.086814738017e-09 -1.561562417134e-05 8.083563547332e-12 9.458866342222e-10 
7.368421052631e-01 8.637376840647e+02 9.539750483461e+04 9.453376715054e+04 9.996704086512e-01 3.295913488017e-04 -1.991606330433e-08 -1.546775712884e-05 2.303003805106e-11 7.763905520807e-10 
7.894736842105e-01 1.143333607320e+03 9.519077212314e+04 9.404743851582e+04 9.993348177995e-01 6.651822005135e-04 -3.647870104026e-08 -1.507610148402e-05 4.218952888705e-11 3.295870249943e-10 
8.421052631579e-01 1.650338888969e+03 9.521023453534e+04 9.355989564637e+04 9.983515038779e-01 1.648496122131e-03 -6.559060974973e-08 -1.417107733558e-05 7.692346662075e-11 -6.997116074671e-10 
8.947368421053e-01 2.567106682450e+03 9.563728145890e+04 9.307017477645e+04 9.960220537776e-01 3.977946222423e-03 -1.606127807644e-07 -1.239652457913e-05 1.861758418969e-10 -2.749129851501e-09 
9.473684210526e-01 4.436295447141e+03 9.701171541415e+04 9.257541996701e+04 9.851384136378e-01 1.486158636221e-02 -5.124672832795e-07 -7.247770698545e-06 5.534957863981e-10 -8.708142166911e-09 
1.000000000000e+00 9.260758615162e+03 1.013250000000e+05 9.206424138484e+04 9.224546488817e-01 7.754535111829e-02 -7.417004385317e-07 -1.030935955861e-06 9.968035083823e-10 -1.635836385761e-08 
 TITLE = "Profiles along polylines"
 VARIABLES = "DIST" "PRESSURE1" "PRESSURE2" "PRESSURE_W" "SATURATION1" SATURATION2 "VELOCITY_X1" "VELOCITY_Y1" "VELOCITY_X2" "VELOCITY_Y2" 
 ZONE T="TIME=6.000000000000e+01"
0.000000000000e+00 0.000000000000e+00 1.013250000000e+05 1.013250000000e+05 9.999988276356e-01 1.172364426205e-06 -1.487543044076e-10 -1.181097900351e-05 -2.442305822224e-13 1.574749680442e-09 
5.263157894737e-02 3.358667311814e+01 1.008652938291e+05 1.008317071560e+05 9.999862066494e-01 1.379335062568e-05 -2.306507687431e-10 -1.180782845457e-05 -3.873921046378e-14 1.568407207878e-09 
1.052631578947e-01 6.712966078757e+01 1.004055331814e+05 1.003384035206e+05 9.999738102165e-01 2.618978352043e-05 -4.813229115727e-10 -1.179898005782e-05 2.929869107417e-13 1.557937617151e-09 
1.578947368421e-01 1.028168864370e+02 9.994789404020e+04 9.984507715376e+04 9.999598262234e-01 4.017377657295e-05 -7.968097404307e-10 -1.178385447419e-05 6.545379368196e-13 1.539703990029e-09 
2.105263157895e-01 1.428854960788e+02 9.949460136271e+04 9.935171586664e+04 9.999448949638e-01 5.510503618655e-05 -1.093870849706e-09 -1.176246551883e-05 1.009924152353e-12 1.514499107385e-09 
2.631578947368e-01 1.896437169412e+02 9.904795096466e+04 9.885830724772e+04 9.999264809108e-01 7.351908922293e-05 -1.330308759567e-09 -1.173445673639e-05 1.308990611072e-12 1.481230035133e-09 
3.157894736842e-01 2.454952033185e+02 9.861033373646e+04 9.836483853314e+04 9.999055932590e-01 9.440674103267e-05 -1.606556697707e-09 -1.169968619377e-05 1.644642450227e-12 1.440508832797e-09 
3.684210526316e-01 3.128977304686e+02 9.818419456460e+04 9.787129683414e+04 9.998790237559e-01 1.209762440582e-04 -1.961817749327e-09 -1.165837260459e-05 2.065351845887e-12 1.391981855822e-09 
4.210526315789e-01 3.942642426654e+02 9.777193391813e+04 9.737766967546e+04 9.998485963076e-01 1.514036924157e-04 -2.242896502740e-09 -1.161094162493e-05 2.408059466623e-12 1.336686743959e-09 
4.736842105263e-01 4.918815532017e+02 9.737582698741e+04 9.688394543421e+04 9.998101507191e-01 1.898492808823e-04 -2.494733081552e-09 -1.155731278956e-05 2.722826320401e-12 1.274189310941e-09 
5.263157894737e-01 6.078948887524e+02 9.699800830344e+04 9.639011341468e+04 9.997668387006e-01 2.331612994264e-04 -2.753287597337e-09 -1.149868753299e-05 3.043271410730e-12 1.206285870350e-09 
5.789473684210e-01 7.442830359310e+02 9.664044699077e+04 9.589616395484e+04 9.997132379120e-01 2.867620879641e-04 -3.639199315757e-09 -1.143442355728e-05 4.089029110517e-12 1.131894437635e-09 
6.315789473684e-01 9.035173788160e+02 9.630560216861e+04 9.540208478980e+04 9.996573792632e-01 3.426207368393e-04 -1.019894881535e-08 -1.136219390818e-05 1.179615264949e-11 1.048228287363e-09 
6.842105263158e-01 1.092354336988e+03 9.600019595687e+04 9.490784161988e+04 9.994415061175e-01 5.584938825138e-04 -1.622961687210e-08 -1.117993836092e-05 1.885821481293e-11 8.386541486710e-10 
7.368421052631e-01 1.384495180549e+03 9.579753811012e+04 9.441304292957e+04 9.988681913586e-01 1.131808641385e-03 -2.268350296315e-08 -1.078210589658e-05 2.669992757185e-11 3.843963766236e-10 
7.894736842105e-01 1.847926928587e+03 9.576525690193e+04 9.391732997334e+04 9.980445146855e-01 1.955485314474e-03 -3.058831186778e-08 -1.024382978821e-05 3.679009038881e-11 -2.345166936104e-10 
8.421052631579e-01 2.525680258717e+03 9.594616800744e+04 9.342048774872e+04 9.961069793323e-01 3.893020667683e-03 -6.061794217910e-08 -9.400086902531e-06 7.286330828169e-11 -1.208650846516e-09 
8.947368421053e-01 3.614752378786e+03 9.653624838302e+04 9.292149600423e+04 9.910273722386e-01 8.972627761384e-03 -1.277262048889e-07 -7.596762785207e-06 1.529420429247e-10 -3.307757292327e-09 
9.473684210526e-01 5.625407908983e+03 9.804302762149e+04 9.241761971250e+04 9.737246686658e-01 2.627533133418e-02 -2.051521666593e-07 -3.803279544495e-06 2.241648184340e-10 -7.734115612997e-09 
1.000000000000e+00 9.421398747221e+03 1.013250000000e+05 9.190360125278e+04 9.162560198454e-01 8.374398015464e-02 -3.204956559032e-07 -4.607408641738e-07 4.203822040964e-10 -1.192161897226e-08 
 ZONE T="TIME=1.200000000000e+02"
0.000000000000e+00 0.000000000000e+00 1.013250000000e+05 1.013250000000e+05 9.999969368049e-01 3.063195063380e-06 -8.276474111347e-11 -8.260502657646e-06 -2.160690378329e-13 1.412009235658e-09 
5.263157894737e-02 8.796963387872e+01 1.009127560356e+05 1.008247864017e+05 9.999638699671e-01 3.613003289571e-05 -1.442895784620e-10 -8.258152994245e-06 -6.239138971599e-14 1.407269429122e-09 
1.052631578947e-01 1.756953793876e+02 1.005002613015e+05 1.003245659221e+05 9.999315256900e-01 6.847431001789e-05 -3.152243122758e-10 -8.252004098104e-06 1.658447489234e-13 1.399992684463e-09 
1.578947368421e-01 2.646644526110e+02 1.000889948941e+05 9.982433044148e+04 9.998968316686e-01 1.031683314157e-04 -5.153187137718e-10 -8.241714017351e-06 3.932061697750e-13 1.387540205413e-09 
2.105263157895e-01 3.562935117698e+02 9.968036573559e+04 9.932407222382e+04 9.998629670935e-01 1.370329064853e-04 -6.860437716764e-10 -8.227663349783e-06 5.974090231362e-13 1.370941069138e-09 
2.631578947368e-01 4.519094877674e+02 9.927569361132e+04 9.882378412355e+04 9.998256053559e-01 1.743946440831e-04 -8.008419316635e-10 -8.210008408585e-06 7.463708998548e-13 1.349856620134e-09 
3.157894736842e-01 5.527342189586e+02 9.887619388068e+04 9.832345966172e+04 9.997882807773e-01 2.117192227232e-04 -9.211171515163e-10 -8.189189658563e-06 8.935717527522e-13 1.325379267314e-09 