VARIABLES  = "X","Y","Z", "PRESSURE1", "PRESSURE2", "PRESSURE_W", "SATURATION1", SATURATION2, "VELOCITY_X1", "VELOCITY_Y1", "VELOCITY_X2", "VELOCITY_Y2"
ZONE T="0.000000000000e+00s", N=59, E=76, F=FEPOINT, ET=QUADRILATERAL
STRANDID=1, SOLUTIONTIME=0.000000000000e+00
0.000000000000e+00 0.000000000000e+00 0.000000000000e+00 0.000000000000e+00 1.013250000000e+05 1.013250000000e+05 1.000000000000e+00 1.110223024625e-16 0.000000000000e+00 0.000000000000e+00 0.000000000000e+00 0.000000000000e+00 
1.000000000000e-01 0.000000000000e+00 0.000000000000e+00 0.000000000000e+00 1.013250000000e+05 1.013250000000e+05 1.000000000000e+00 1.110223024625e-16 0.000000000000e+00 0.000000000000e+00 0.000000000000e+00 0.000000000000e+00 
1.000000000000e-01 0.000000000000e+00 1.000000000000e+00 0.000000000000e+00 1.013250000000e+05 1.013250000000e+05 1.000000000000e+00 1.110223024625e-16 0.000000000000e+00 0.000000000000e+00 0.000000000000e+00 0.000000000000e+00 
0.000000000000e+00 0.000000000000e+00 1.000000000000e+00 0.000000000000e+00 1.013250000000e+05 1.013250000000e+05 1.000000000000e+00 1.110223024625e-16 0.000000000000e+00 0.000000000000e+00 0.000000000000e+00 0.000000000000e+00 
1.000000000000e-01 0.000000000000e+00 5.263157894737e-02 0.000000000000e+00 1.013250000000e+05 1.013250000000e+05 1.000000000000e+00 0.000000000000e+00 0.000000000000e+00 0.000000000000e+00 0.000000000000e+00 0.000000000000e+00 
1.000000000000e-01 0.000000000000e+00 1.052631578947e-01 0.000000000000e+00 1.013250000000e+05 1.013250000000e+05 1.000000000000e+00 0.000000000000e+00 0.000000000000e+00 0.000000000000e+00 0.000000000000e+00 0.000000000000e+00 
1.000000000000e-01 0.000000000000e+00 1.578947368421e-01 0.000000000000e+00 1.013250000000e+05 1.013250000000e+05 1.000000000000e+00 0.000000000000e+00 0.000000000000e+00 0.000000000000e+00 0.000000000000e+00 0.000000000000e+00 
1.000000000000e-01 0.000000000000e+00 2.105263157895e-01 0.000000000000e+00 1.013250000000e+05 1.013250000000e+05 1.000000000000e+00 0.000000000000e+00 0.000000000000e+00 0.000000000000e+00 0.000000000000e+00 0.000000000000e+00 
1.000000000000e-01 0.000000000000e+00 2.631578947368e-01 0.000000000000e+00 1.013250000000e+05 1.013250000000e+05 1.000000000000e+00 0.000000000000e+00 0.000000000000e+00 0.000000000000e+00 0.000000000000e+00 0.000000000000e+00 
1.000000000000e-01 0.000000000000e+00 3.157894736842e-01 0.000000000000e+00 1.013250000000e+05 1.013250000000e+05 1.000000000000e+00 0.000000000000e+00 0.000000000000e+00 0.000000000000e+00 0.000000000000e+00 0.000000000000e+00 
1.000000000000e-01 0.000000000000e+00 3.684210526316e-01 0.000000000000e+00 1.013250000000e+05 1.013250000000e+05 1.000000000000e+00 0.000000000000e+00 0.000000000000e+00 0.000000000000e+00 0.000000000000e+00 0.000000000000e+00 
1.000000000000e-01 0.000000000000e+00 4.210526315789e-01 0.000000000000e+00 1.013250000000e+05 1.013250000000e+05 1.000000000000e+00 0.000000000000e+00 0.000000000000e+00 0.000000000000e+00 0.000000000000e+00 0.000000000000e+00 
1.000000000000e-01 0.000000000000e+00 4.736842105263e-01 0.000000000000e+00 1.013250000000e+05 1.013250000000e+05 1.000000000000e+00 0.000000000000e+00 0.000000000000e+00 0.000000000000e+00 0.000000000000e+00 0.000000000000e+00 
1.000000000000e-01 0.000000000000e+00 5.263157894737e-01 0.000000000000e+00 1.013250000000e+05 1.013250000000e+05 1.000000000000e+00 0.000000000000e+00 0.000000000000e+00 0.000000000000e+00 0.000000000000e+00 0.000000000000e+00 
1.000000000000e-01 0.000000000000e+00 5.789473684210e-01 0.000000000000e+00 1.013250000000e+05 1.013250000000e+05 1.000000000000e+00 0.000000000000e+00 0.000000000000e+00 0.000000000000e+00 0.000000000000e+00 0.000000000000e+00 
1.000000000000e-01 0.000000000000e+00 6.315789473684e-01 0.000000000000e+00 1.013250000000e+05 1.013250000000e+05 1.000000000000e+00 0.000000000000e+00 0.000000000000e+00 0.000000000000e+00 0.000000000000e+00 0.000000000000e+00 
1.000000000000e-01 0.000000000000e+00 6.842105263158e-01 0.000000000000e+00 1.013250000000e+05 1.013250000000e+05 1.000000000000e+00 0.000000000000e+00 0.000000000000e+00 0.000000000000e+00 0.000000000000e+00 0.000000000000e+00 
1.000000000000e-01 0.000000000000e+00 7.368421052631e-01 0.000000000000e+00 1.013250000000e+05 1.013250000000e+05 1.000000000000e+00 0.000000000000e+00 0.000000000000e+00 0.000000000000e+00 0.000000000000e+00 0.000000000000e+00 
1.000000000000e-01 0.000000000000e+00 7.894736842105e-01 0.000000000000e+00 1.013250000000e+05 1.013250000000e+05 1.000000000000e+00 0.000000000000e+00 0.000000000000e+00 0.000000000000e+00 0.000000000000e+00 0.000000000000e+00 
1.000000000000e-01 0.000000000000e+00 8.421052631579e-01 0.000000000000e+00 1.013250000000e+05 1.013250000000e+05 1.000000000000e+00 0.000000000000e+00 0.000000000000e+00 0.000000000000e+00 0.000000000000e+00 0.000000000000e+00 
1.000000000000e-01 0.000000000000e+00 8.947368421053e-01 0.000000000000e+00 1.013250000000e+05 1.013250000000e+05 1.000000000000e+00 0.000000000000e+00 0.000000000000e+00 0.000000000000e+00 0.000000000000e+00 0.000000000000e+00 
1.000000000000e-01 0.000000000000e+00 9.473684210526e-01 0.000000000000e+00 1.013250000000e+05 1.013250000000e+05 1.000000000000e+00 0.000000000000e+00 0.000000000000e+00 0.000000000000e+00 0.000000000000e+00 0.000000000000e+00 
0.000000000000e+00 0.000000000000e+00 5.263157894737e-02 0.000000000000e+00 1.013250000000e+05 1.013250000000e+05 1.000000000000e+00 0.000000000000e+00 0.000000000000e+00 0.000000000000e+00 0.000000000000e+00 0.000000000000e+00 
0.000000000000e+00 0.000000000000e+00 1.052631578947e-01 0.000000000000e+00 1.013250000000e+05 1.013250000000e+05 1.000000000000e+00 0.000000000000e+00 0.000000000000e+00 0.000000000000e+00 0.000000000000e+00 0.000000000000e+00 
0.000000000000e+00 0.000000000000e+00 1.578947368421e-01 0.000000000000e+00 1.013250000000e+05 1.013250000000e+05 1.000000000000e+00 0.000000000000e+00 0.000000000000e+00 0.000000000000e+00 0.000000000000e+00 0.000000000000e+00 
0.000000000000e+00 0.000000000000e+00 2.105263157895e-01 0.000000000000e+00 1.013250000000e+05 1.013250000000e+05 1.000000000000e+00 0.000000000000e+00 0.000000000000e+00 0.000000000000e+00 0.000000000000e+00 0.000000000000e+00 
0.000000000000e+00 0.000000000000e+00 2.631578947368e-01 0.000000000000e+00 1.013250000000e+05 1.013250000000e+05 1.000000000000e+00 0.000000000000e+00 0.000000000000e+00 0.000000000000e+00 0.000000000000e+00 0.000000000000e+00 
0.000000000000e+00 0.000000000000e+00 3.157894736842e-01 0.000000000000e+00 1.013250000000e+05 1.013250000000e+05 1.000000000000e+00 0.000000000000e+00 0.000000000000e+00 0.000000000000e+00 0.000000000000e+00 0.000000000000e+00 
0.000000000000e+00 0.000000000000e+00 3.684210526316e-01 0.000000000000e+00 1.013250000000e+05 1.013250000000e+05 1.000000000000e+00 0.000000000000e+00 0.000000000000e+00 0.000000000000e+00 0.000000000000e+00 0.000000000000e+00 
0.000000000000e+00 0.000000000000e+00 4.210526315789e-01 0.000000000000e+00 1.013250000000e+05 1.013250000000e+05 1.000000000000e+00 0.000000000000e+00 0.000000000000e+00 0.000000000000e+00 0.000000000000e+00 0.000000000000e+00 
0.000000000000e+00 0.000000000000e+00 4.736842105263e-01 0.000000000000e+00 1.013250000000e+05 1.013250000000e+05 1.000000000000e+00 0.000000000000e+00 0.000000000000e+00 0.000000000000e+00 0.000000000000e+00 0.000000000000e+00 
0.000000000000e+00 0.000000000000e+00 5.263157894737e-01 0.000000000000e+00 1.013250000000e+05 1.013250000000e+05 1.000000000000e+00 0.000000000000e+00 0.000000000000e+00 0.000000000000e+00 0.000000000000e+00 0.000000000000e+00 
0.000000000000e+00 0.000000000000e+00 5.789473684210e-01 0.000000000000e+00 1.013250000000e+05 1.013250000000e+05 1.000000000000e+00 0.000000000000e+00 0.000000000000e+00 0.000000000000e+00 0.000000000000e+00 0.000000000000e+00 
0.000000000000e+00 0.000000000000e+00 6.315789473684e-01 0.000000000000e+00 1.013250000000e+05 1.013250000000e+05 1.000000000000e+00 0.000000000000e+00 0.000000000000e+00 0.000000000000e+00 0.000000000000e+00 0.000000000000e+00 
0.000000000000e+00 0.000000000000e+00 6.842105263158e-01 0.000000000000e+00 1.013250000000e+05 1.013250000000e+05 1.000000000000e+00 0.000000000000e+00 0.000000000000e+00 0.000000000000e+00 0.000000000000e+00 0.000000000000e+00 
0.000000000000e+00 0.000000000000e+00 7.368421052631e-01 0.000000000000e+00 1.013250000000e+05 1.013250000000e+05 1.000000000000e+00 0.000000000000e+00 0.000000000000e+00 0.000000000000e+00 0.000000000000e+00 0.000000000000e+00 
0.000000000000e+00 0.000000000000e+00 7.894736842105e-01 0.000000000000e+00 1.013250000000e+05 1.013250000000e+05 1.000000000000e+00 0.000000000000e+00 0.000000000000e+00 0.000000000000e+00 0.000000000000e+00 0.000000000000e+00 
0.000000000000e+00 0.000000000000e+00 8.421052631579e-01 0.000000000000e+00 1.013250000000e+05 1.013250000000e+05 1.000000000000e+00 0.000000000000e+00 0.000000000000e+00 0.000000000000e+00 0.000000000000e+00 0.000000000000e+00 
0.000000000000e+00 0.000000000000e+00 8.947368421053e-01 0.000000000000e+00 1.013250000000e+05 1.013250000000e+05 1.000000000000e+00 0.000000000000e+00 0.000000000000e+00 0.000000000000e+00 0.000000000000e+00 0.000000000000e+00 
0.000000000000e+00 0.000000000000e+00 9.473684210526e-01 0.000000000000e+00 1.013250000000e+05 1.013250000000e+05 1.000000000000e+00 0.000000000000e+00 0.000000000000e+00 0.000000000000e+00 0.000000000000e+00 0.000000000000e+00 
5.004875982315e-02 0.000000000000e+00 1.315897463623e-01 0.000000000000e+00 1.013250000000e+05 1.013250000000e+05 1.000000000000e+00 1.110223024625e-16 0.000000000000e+00 0.000000000000e+00 0.000000000000e+00 0.000000000000e+00 
4.996587977644e-02 0.000000000000e+00 8.157235458635e-01 0.000000000000e+00 1.013250000000e+05 1.013250000000e+05 1.000000000000e+00 1.110223024625e-16 0.000000000000e+00 0.000000000000e+00 0.000000000000e+00 0.000000000000e+00 
5.005418120630e-02 0.000000000000e+00 2.368736435449e-01 0.000000000000e+00 1.013250000000e+05 1.013250000000e+05 1.000000000000e+00 1.110223024625e-16 0.000000000000e+00 0.000000000000e+00 0.000000000000e+00 0.000000000000e+00 
4.930219925596e-02 0.000000000000e+00 4.474163218213e-01 0.000000000000e+00 1.013250000000e+05 1.013250000000e+05 1.000000000000e+00 1.110223024625e-16 0.000000000000e+00 0.000000000000e+00 0.000000000000e+00 0.000000000000e+00 
5.003885161692e-02 0.000000000000e+00 9.682205693950e-01 0.000000000000e+00 1.013250000000e+05 1.013250000000e+05 1.000000000000e+00 1.110223024625e-16 0.000000000000e+00 0.000000000000e+00 0.000000000000e+00 0.000000000000e+00 
4.927263472712e-02 0.000000000000e+00 5.525782080655e-01 0.000000000000e+00 1.013250000000e+05 1.013250000000e+05 1.000000000000e+00 1.110223024625e-16 0.000000000000e+00 0.000000000000e+00 0.000000000000e+00 0.000000000000e+00 
5.001671943120e-02 0.000000000000e+00 3.421781001610e-01 0.000000000000e+00 1.013250000000e+05 1.013250000000e+05 1.000000000000e+00 1.110223024625e-16 0.000000000000e+00 0.000000000000e+00 0.000000000000e+00 0.000000000000e+00 
5.038000531035e-02 0.000000000000e+00 7.103956692128e-01 0.000000000000e+00 1.013250000000e+05 1.013250000000e+05 1.000000000000e+00 1.110223024625e-16 0.000000000000e+00 0.000000000000e+00 0.000000000000e+00 0.000000000000e+00 
5.044966027600e-02 0.000000000000e+00 3.163764606507e-02 0.000000000000e+00 1.013250000000e+05 1.013250000000e+05 1.000000000000e+00 1.110223024625e-16 0.000000000000e+00 0.000000000000e+00 0.000000000000e+00 0.000000000000e+00 
4.966059977814e-02 0.000000000000e+00 6.565186924197e-01 0.000000000000e+00 1.013250000000e+05 1.013250000000e+05 1.000000000000e+00 1.110223024625e-16 0.000000000000e+00 0.000000000000e+00 0.000000000000e+00 0.000000000000e+00 
4.963313618498e-02 0.000000000000e+00 9.192141406196e-01 0.000000000000e+00 1.013250000000e+05 1.013250000000e+05 1.000000000000e+00 1.110223024625e-16 0.000000000000e+00 0.000000000000e+00 0.000000000000e+00 0.000000000000e+00 
5.212391606825e-02 0.000000000000e+00 2.895238508574e-01 0.000000000000e+00 1.013250000000e+05 1.013250000000e+05 1.000000000000e+00 1.110223024625e-16 0.000000000000e+00 0.000000000000e+00 0.000000000000e+00 0.000000000000e+00 
4.795755155494e-02 0.000000000000e+00 1.842277056820e-01 0.000000000000e+00 1.013250000000e+05 1.013250000000e+05 1.000000000000e+00 1.110223024625e-16 0.000000000000e+00 0.000000000000e+00 0.000000000000e+00 0.000000000000e+00 
4.780146615200e-02 0.000000000000e+00 5.000384367359e-01 0.000000000000e+00 1.013250000000e+05 1.013250000000e+05 1.000000000000e+00 1.110223024625e-16 0.000000000000e+00 0.000000000000e+00 0.000000000000e+00 0.000000000000e+00 
4.783702757909e-02 0.000000000000e+00 3.947923954782e-01 0.000000000000e+00 1.013250000000e+05 1.013250000000e+05 1.000000000000e+00 1.110223024625e-16 0.000000000000e+00 0.000000000000e+00 0.000000000000e+00 0.000000000000e+00 
5.218158768062e-02 0.000000000000e+00 7.631920623808e-01 0.000000000000e+00 1.013250000000e+05 1.013250000000e+05 1.000000000000e+00 1.110223024625e-16 0.000000000000e+00 0.000000000000e+00 0.000000000000e+00 0.000000000000e+00 
5.220914573457e-02 0.000000000000e+00 7.941970554122e-02 0.000000000000e+00 1.013250000000e+05 1.013250000000e+05 1.000000000000e+00 1.110223024625e-16 0.000000000000e+00 0.000000000000e+00 0.000000000000e+00 0.000000000000e+00 
4.747042649413e-02 0.000000000000e+00 6.045337204113e-01 0.000000000000e+00 1.013250000000e+05 1.013250000000e+05 1.000000000000e+00 1.110223024625e-16 0.000000000000e+00 0.000000000000e+00 0.000000000000e+00 0.000000000000e+00 
4.751725086677e-02 0.000000000000e+00 8.676386343643e-01 0.000000000000e+00 1.013250000000e+05 1.013250000000e+05 1.000000000000e+00 1.110223024625e-16 0.000000000000e+00 0.000000000000e+00 0.000000000000e+00 0.000000000000e+00 
21  59  20  21
16  58  15  16
23  57  24  23
36  56  37  36
12  55  11  12
14  54  13  14
27  52  28  27
8  53  7  8
43  52  27  43
24  57  41  24
11  55  47  11
48  56  36  48
37  56  42  37
13  54  44  13
49  57  23  49
43  53  8  43
44  55  12  44
7  53  41  7
46  54  14  46
28  52  47  28
51  59  21  51
50  58  16  50
40  51  45  40
45  51  22  45
48  50  17  48
35  50  48  35
20  59  42  20
15  58  46  15
39  51  40  39
11  47  10  11
34  50  35  34
3  45  22  3
18  48  17  18
22  51  21  22
32  46  33  32
17  50  16  17
15  46  14  15
24  41  25  24
7  41  6  7
9  43  8  9
28  47  29  28
30  44  31  30
37  42  38  37
26  43  27  26
13  44  12  13
20  42  19  20
40  45  4  40
35  48  36  35
1  49  23  1
5  49  2  5
47  52  10  47
9  52  43  9
26  53  43  26
32  54  46  32
44  54  31  44
41  53  25  41
47  55  29  47
30  55  44  30
42  56  19  42
18  56  48  18
41  57  6  41
5  57  49  5
42  59  38  42
46  58  33  46
39  59  51  39
34  58  50  34
25  53  26  25
10  52  9  10
31  54  32  31
19  56  18  19
29  55  30  29
6  57  5  6
38  59  39  38
33  58  34  33
4  45  3  4
2  49  1  2
VARIABLES  = "X","Y","Z", "PRESSURE1", "PRESSURE2", "PRESSURE_W", "SATURATION1", SATURATION2, "VELOCITY_X1", "VELOCITY_Y1", "VELOCITY_X2", "VELOCITY_Y2"
ZONE T="1.000000000000e-03s", N=59, E=76, F=FEPOINT, ET=QUADRILATERAL
STRANDID=1, SOLUTIONTIME=1.000000000000e-03
0.000000000000e+00 0.000000000000e+00 0.000000000000e+00 0.000000000000e+00 1.013250000000e+05 1.013250000000e+05 1.000000000000e+00 2.997602166488e-15 9.144290771014e-15 -2.616649203238e-04 4.247620976415e-20 1.931087194636e-11 
1.000000000000e-01 0.000000000000e+00 0.000000000000e+00 0.000000000000e+00 1.013250000000e+05 1.013250000000e+05 1.000000000000e+00 5.551115123126e-16 -5.654640276020e-15 -2.616649203181e-04 -1.779153908435e-20 1.931012364514e-11 
1.000000000000e-01 0.000000000000e+00 1.000000000000e+00 1.195869434339e+02 1.013250000000e+05 1.012054130566e+05 9.999603332139e-01 3.966678609779e-05 1.021222434681e-07 -2.610637474859e-04 -8.475710558666e-11 -5.211542699838e-10 
0.000000000000e+00 0.000000000000e+00 1.000000000000e+00 1.195168385435e+02 1.013250000000e+05 1.012054831615e+05 9.999565834568e-01 4.341654321549e-05 -7.319781978897e-08 -2.610759446016e-04 8.465742801766e-11 -5.211644233435e-10 
1.000000000000e-01 0.000000000000e+00 5.263157894737e-02 7.776922701589e-08 1.013187522814e+05 1.013187522813e+05 1.000000000000e+00 2.675637489347e-14 -7.795155566744e-14 -2.616649201559e-04 -6.421121724043e-19 1.930877434216e-11 
1.000000000000e-01 0.000000000000e+00 1.052631578947e-01 4.952780917449e-08 1.013125045622e+05 1.013125045622e+05 1.000000000000e+00 1.743050148661e-14 3.329145837455e-14 -2.616649200320e-04 2.479594262180e-19 1.930790354347e-11 
1.000000000000e-01 0.000000000000e+00 1.578947368421e-01 9.624307860670e-08 1.013062568426e+05 1.013062568425e+05 1.000000000000e+00 4.307665335546e-14 3.879260135805e-13 -2.616649194239e-04 3.261640821756e-18 1.930698883553e-11 
1.000000000000e-01 0.000000000000e+00 2.105263157895e-01 2.150004910222e-07 1.013000091209e+05 1.013000091206e+05 9.999999999999e-01 8.415490526659e-14 5.316618661197e-13 -2.616649176763e-04 4.323693141817e-18 1.930594519489e-11 
1.000000000000e-01 0.000000000000e+00 2.631578947368e-01 3.302160503061e-07 1.012937613953e+05 1.012937613949e+05 9.999999999999e-01 1.316724507205e-13 6.916368067189e-13 -2.616649153873e-04 5.469263066138e-18 1.930460490759e-11 
1.000000000000e-01 0.000000000000e+00 3.157894736842e-01 5.715084688468e-07 1.012875136640e+05 1.012875136634e+05 9.999999999998e-01 2.151612221724e-13 6.725138210583e-13 -2.616649113429e-04 4.970247055215e-18 1.930339982053e-11 
1.000000000000e-01 0.000000000000e+00 3.684210526316e-01 8.290465694467e-07 1.012812659238e+05 1.012812659230e+05 9.999999999997e-01 3.190780972773e-13 9.737217452220e-13 -2.616649062349e-04 7.347874172853e-18 1.930280230421e-11 
1.000000000000e-01 0.000000000000e+00 4.210526315789e-01 9.728332239113e-07 1.012750181703e+05 1.012750181694e+05 9.999999999996e-01 3.770317391627e-13 9.220638410648e-13 -2.616648981007e-04 6.719215848563e-18 1.930218775325e-11 
1.000000000000e-01 0.000000000000e+00 4.736842105263e-01 9.892449661533e-07 1.012687704017e+05 1.012687704007e+05 9.999999999996e-01 3.756994715332e-13 7.330095879547e-13 -2.616648912028e-04 4.998429111725e-18 1.930076019882e-11 
1.000000000000e-01 0.000000000000e+00 5.263157894737e-01 1.040373167652e-06 1.012625226184e+05 1.012625226173e+05 9.999999999996e-01 3.992361996552e-13 5.205508116353e-13 -2.616648828536e-04 3.203545711708e-18 1.929956675125e-11 
1.000000000000e-01 0.000000000000e+00 5.789473684210e-01 9.920037806083e-07 1.012562748200e+05 1.012562748190e+05 9.999999999996e-01 3.694822225953e-13 3.754668390134e-13 -2.616648761421e-04 1.859200809238e-18 1.929882340831e-11 
1.000000000000e-01 0.000000000000e+00 6.315789473684e-01 8.358003443897e-07 1.012500270073e+05 1.012500270065e+05 9.999999999997e-01 3.228528555610e-13 7.584887461113e-13 -2.616648686340e-04 4.811611988636e-18 1.929775967106e-11 
1.000000000000e-01 0.000000000000e+00 6.842105263158e-01 6.565257810026e-07 1.012437791808e+05 1.012437791802e+05 9.999999999997e-01 2.505773366579e-13 1.955364459656e-12 -2.616648619202e-04 1.232908323724e-17 1.929629503007e-11 
1.000000000000e-01 0.000000000000e+00 7.368421052631e-01 4.761685248254e-07 1.012375313385e+05 1.012375313380e+05 9.999999999998e-01 1.791899961745e-13 9.825636390971e-12 -2.616648502818e-04 6.525685498983e-17 1.929579664411e-11 
1.000000000000e-01 0.000000000000e+00 7.894736842105e-01 3.527000699527e-07 1.012312834515e+05 1.012312834511e+05 9.999999999999e-01 1.363353874240e-13 4.711877275427e-11 -2.616648101120e-04 3.147149224436e-16 1.929479627349e-11 
1.000000000000e-01 0.000000000000e+00 8.421052631579e-01 3.037206315296e-07 1.012250353845e+05 1.012250353842e+05 1.000000000000e+00 0.000000000000e+00 1.971735260653e-10 -2.616646498146e-04 1.304119271556e-15 1.929451070989e-11 
1.000000000000e-01 0.000000000000e+00 8.947368421053e-01 2.498834987939e-05 1.012187866261e+05 1.012187866011e+05 1.000000000000e+00 0.000000000000e+00 6.473077291669e-10 -2.616639401755e-04 -2.761883313807e-14 1.923159967984e-11 
1.000000000000e-01 0.000000000000e+00 9.473684210526e-01 5.782136407215e-02 1.012125928833e+05 1.012125350619e+05 1.000000000000e+00 0.000000000000e+00 6.213116465705e-08 -2.615140414615e-04 -5.642181215958e-11 -1.165739056555e-10 
0.000000000000e+00 0.000000000000e+00 5.263157894737e-02 7.868884473517e-08 1.013187522814e+05 1.013187522814e+05 1.000000000000e+00 2.864375403533e-14 8.340915488983e-14 -2.616649201630e-04 6.701578037932e-19 1.930882364340e-11 
0.000000000000e+00 0.000000000000e+00 1.052631578947e-01 4.668566100268e-08 1.013125045622e+05 1.013125045622e+05 1.000000000000e+00 1.887379141863e-14 -1.803500613997e-14 -2.616649200423e-04 -1.563935519825e-19 1.930807980865e-11 
0.000000000000e+00 0.000000000000e+00 1.578947368421e-01 9.811162493286e-08 1.013062568427e+05 1.013062568426e+05 1.000000000000e+00 4.640732242933e-14 -3.728564800404e-13 -2.616649194341e-04 -3.196963854340e-18 1.930680393278e-11 
0.000000000000e+00 0.000000000000e+00 2.105263157895e-01 2.153993195954e-07 1.013000091209e+05 1.013000091207e+05 9.999999999999e-01 9.303668946359e-14 -5.342630847044e-13 -2.616649176419e-04 -4.380689239943e-18 1.930607320137e-11 
0.000000000000e+00 0.000000000000e+00 2.631578947368e-01 3.269239405307e-07 1.012937613952e+05 1.012937613949e+05 9.999999999999e-01 1.365574320289e-13 -6.823970271794e-13 -2.616649153701e-04 -5.366070446685e-18 1.930451463003e-11 
0.000000000000e+00 0.000000000000e+00 3.157894736842e-01 5.799049423047e-07 1.012875136639e+05 1.012875136634e+05 9.999999999998e-01 2.300382107023e-13 -6.411683218841e-13 -2.616649113788e-04 -4.709515216014e-18 1.930350632500e-11 
0.000000000000e+00 0.000000000000e+00 3.684210526316e-01 8.222388807130e-07 1.012812659240e+05 1.012812659231e+05 9.999999999997e-01 3.290701044989e-13 -9.669742435014e-13 -2.616649062677e-04 -7.377104686189e-18 1.930297732937e-11 
0.000000000000e+00 0.000000000000e+00 4.210526315789e-01 9.828354044573e-07 1.012750181706e+05 1.012750181696e+05 9.999999999996e-01 3.801403636317e-13 -8.690287017125e-13 -2.616648981407e-04 -6.379972948827e-18 1.930114873387e-11 
0.000000000000e+00 0.000000000000e+00 4.736842105263e-01 1.028880872637e-06 1.012687704021e+05 1.012687704010e+05 9.999999999996e-01 3.956834859764e-13 -6.278514206967e-13 -2.616648911875e-04 -4.212404085345e-18 1.930019139991e-11 
0.000000000000e+00 0.000000000000e+00 5.263157894737e-01 1.043145936843e-06 1.012625226186e+05 1.012625226175e+05 9.999999999996e-01 3.914646384828e-13 -4.180751504500e-13 -2.616648828982e-04 -2.465180569414e-18 1.929959249570e-11 
0.000000000000e+00 0.000000000000e+00 5.789473684210e-01 1.039231386041e-06 1.012562748205e+05 1.012562748195e+05 9.999999999996e-01 3.896882816434e-13 -1.105348480177e-13 -2.616648762699e-04 4.386550970617e-20 1.929846025059e-11 
0.000000000000e+00 0.000000000000e+00 6.315789473684e-01 8.158095549715e-07 1.012500270084e+05 1.012500270076e+05 9.999999999997e-01 3.030908857227e-13 1.005588388431e-13 -2.616648694827e-04 9.258894383427e-19 1.929723987362e-11 
0.000000000000e+00 0.000000000000e+00 6.842105263158e-01 6.749388128885e-07 1.012437791862e+05 1.012437791855e+05 9.999999999998e-01 2.429167977880e-13 2.324021963378e-12 -2.616648661034e-04 1.630739238553e-17 1.929607829745e-11 
0.000000000000e+00 0.000000000000e+00 7.368421052631e-01 4.727889752393e-07 1.012375313640e+05 1.012375313635e+05 9.999999999998e-01 1.743050148661e-13 1.091211927180e-11 -2.616648705053e-04 7.336781966023e-17 1.929484845872e-11 
0.000000000000e+00 0.000000000000e+00 7.894736842105e-01 3.610857336043e-07 1.012312835749e+05 1.012312835746e+05 9.999999999999e-01 1.323385845353e-13 5.347881331974e-11 -2.616649082912e-04 3.577338589675e-16 1.929380132797e-11 
0.000000000000e+00 0.000000000000e+00 8.421052631579e-01 2.951794187191e-07 1.012250359845e+05 1.012250359842e+05 9.999999999996e-01 3.839151219154e-13 2.955776829146e-10 -2.616651368524e-04 1.991481775075e-15 1.929093286041e-11 
0.000000000000e+00 0.000000000000e+00 8.947368421053e-01 2.600808808894e-05 1.012187896031e+05 1.012187895771e+05 9.999999993750e-01 6.250082673631e-10 1.719580900562e-09 -2.616663249647e-04 4.417038895767e-14 1.921522466342e-11 
0.000000000000e+00 0.000000000000e+00 9.473684210526e-01 5.828001833522e-02 1.012126078289e+05 1.012125495488e+05 9.999987182837e-01 1.281716299095e-06 -5.134593352059e-08 -2.615241531439e-04 5.638396718808e-11 -1.165937983210e-10 
5.004875982315e-02 0.000000000000e+00 1.315897463623e-01 1.387814278677e-07 1.013093794209e+05 1.013093794208e+05 9.999999999999e-01 5.451195050910e-14 1.354404073655e-14 -2.616649199422e-04 8.555320906400e-20 1.930753973469e-11 
4.996587977644e-02 0.000000000000e+00 8.157235458635e-01 1.942654860150e-07 1.012281674119e+05 1.012281674117e+05 9.999999999999e-01 7.760458942130e-14 9.779741850384e-11 -2.616648502837e-04 6.537002794705e-16 1.929344851866e-11 
5.005418120630e-02 0.000000000000e+00 2.368736435449e-01 4.070228302328e-07 1.012968815156e+05 1.012968815152e+05 9.999999999998e-01 1.583178033115e-13 -4.119614646660e-15 -2.616649166713e-04 -2.864446771315e-20 1.930484344576e-11 
4.930219925596e-02 0.000000000000e+00 4.474163218213e-01 7.721881366918e-07 1.012718886014e+05 1.012718886006e+05 9.999999999997e-01 3.053113317719e-13 7.902248086620e-14 -2.616648945767e-04 5.717962971515e-19 1.930093337294e-11 
5.003885161692e-02 0.000000000000e+00 9.682205693950e-01 1.804503453064e-01 1.012102367810e+05 1.012100563306e+05 9.999999338915e-01 6.610854086375e-08 9.354012641443e-09 -2.613474901543e-04 -2.918329711630e-14 -2.782827793339e-10 
4.927263472712e-02 0.000000000000e+00 5.525782080655e-01 6.180786373759e-07 1.012594050554e+05 1.012594050547e+05 9.999999999998e-01 2.451372438372e-13 1.097792948516e-13 -2.616648794310e-04 7.984394180119e-19 1.929884851555e-11 
5.001671943120e-02 0.000000000000e+00 3.421781001610e-01 6.495050892615e-07 1.012843811492e+05 1.012843811486e+05 9.999999999997e-01 2.554623179662e-13 1.751835647058e-14 -2.616649091595e-04 1.159961747975e-19 1.930265525523e-11 
5.038000531035e-02 0.000000000000e+00 7.103956692128e-01 3.400601086278e-07 1.012406707758e+05 1.012406707755e+05 9.999999999999e-01 1.314504061156e-13 4.145720128706e-12 -2.616648619067e-04 2.772250376449e-17 1.929592440020e-11 
5.044966027600e-02 0.000000000000e+00 3.163764606507e-02 5.774397269585e-08 1.013212444009e+05 1.013212444009e+05 1.000000000000e+00 2.098321516542e-14 2.638971467660e-15 -2.616649202284e-04 1.725467747518e-20 1.930922566756e-11 
4.966059977814e-02 0.000000000000e+00 6.565186924197e-01 5.668681409524e-07 1.012470664448e+05 1.012470664442e+05 9.999999999998e-01 2.191580250610e-13 8.609872351387e-13 -2.616648661782e-04 5.757735700501e-18 1.929715240713e-11 
4.963313618498e-02 0.000000000000e+00 9.192141406196e-01 1.266097512753e-04 1.012158814970e+05 1.012158813704e+05 9.999999999534e-01 4.664668651344e-11 2.331182596853e-09 -2.616637172290e-04 1.607434904775e-14 1.901155884387e-11 
5.212391606825e-02 0.000000000000e+00 2.895238508574e-01 7.500849523356e-07 1.012906315770e+05 1.012906315763e+05 9.999999999997e-01 2.843281166065e-13 3.232280668275e-15 -2.616649135308e-04 5.126489459066e-20 1.930406633479e-11 
4.795755155494e-02 0.000000000000e+00 1.842277056820e-01 4.573859154685e-07 1.013031309441e+05 1.013031309437e+05 9.999999999998e-01 1.733058141440e-13 6.372402858003e-15 -2.616649186917e-04 1.981104040551e-20 1.930592904938e-11 
4.780146615200e-02 0.000000000000e+00 5.000384367359e-01 1.277935698329e-06 1.012656419511e+05 1.012656419498e+05 9.999999999995e-01 4.842792833415e-13 5.830609980525e-14 -2.616648869650e-04 4.175751351763e-19 1.930013437234e-11 
4.783702757909e-02 0.000000000000e+00 3.947923954782e-01 1.452911785018e-06 1.012781354573e+05 1.012781354559e+05 9.999999999994e-01 5.505595979116e-13 2.090478891528e-14 -2.616649022590e-04 1.035108841848e-19 1.930201546686e-11 
5.218158768062e-02 0.000000000000e+00 7.631920623808e-01 3.986427220137e-07 1.012344033740e+05 1.012344033736e+05 9.999999999998e-01 1.509903313490e-13 2.008020534276e-11 -2.616648578631e-04 1.342283956919e-16 1.929524626918e-11 
5.220914573457e-02 0.000000000000e+00 7.941970554122e-02 1.078983081645e-09 1.013155723520e+05 1.013155723520e+05 1.000000000000e+00 2.220446049250e-16 3.651984667712e-15 -2.616649201269e-04 1.862033100634e-20 1.930781428070e-11 
4.747042649413e-02 0.000000000000e+00 6.045337204113e-01 9.624687186700e-07 1.012532375068e+05 1.012532375059e+05 9.999999999996e-01 3.648192858918e-13 2.074738980971e-13 -2.616648725791e-04 1.421060116418e-18 1.929766866920e-11 
4.751725086677e-02 0.000000000000e+00 8.676386343643e-01 3.886272124522e-07 1.012220045913e+05 1.012220045909e+05 9.999999999999e-01 1.472155730653e-13 4.853217881881e-10 -2.616647723880e-04 3.244086697189e-15 1.929392119043e-11 
21  59  20  21
16  58  15  16
23  57  24  23
36  56  37  36
12  55  11  12
14  54  13  14
27  52  28  27
8  53  7  8
43  52  27  43
24  57  41  24
11  55  47  11
48  56  36  48
37  56  42  37
13  54  44  13
49  57  23  49
43  53  8  43
44  55  12  44
7  53  41  7
46  54  14  46
28  52  47  28
51  59  21  51
50  58  16  50
40  51  45  40
45  51  22  45
48  50  17  48
35  50  48  35
20  59  42  20
15  58  46  15
39  51  40  39
11  47  10  11
34  50  35  34
3  45  22  3
18  48  17  18
22  51  21  22
32  46  33  32
17  50  16  17
15  46  14  15
24  41  25  24
7  41  6  7
9  43  8  9
28  47  29  28
30  44  31  30
37  42  38  37
26  43  27  26
13  44  12  13
20  42  19  20
40  45  4  40
35  48  36  35
1  49  23  1
5  49  2  5
47  52  10  47
9  52  43  9
26  53  43  26
32  54  46  32
44  54  31  44
41  53  25  41
47  55  29  47
30  55  44  30
42  56  19  42
18  56  48  18
41  57  6  41
5  57  49  5
42  59  38  42
46  58  33  46
39  59  51  39
34  58  50  34
25  53  26  25
10  52  9  10
31  54  32  31
19  56  18  19
29  55  30  29
6  57  5  6
38  59  39  38
33  58  34  33
4  45  3  4
2  49  1  2