 TITLE = "Time curves in points"
 VARIABLES = "TIME"  "PRESSURE1"  "PRESSURE2"  "PRESSURE_W"  "SATURATION1" SATURATION2  "VELOCITY_X1"  "VELOCITY_Y1"  "VELOCITY_X2"  "VELOCITY_Y2" 
 ZONE T="POINT=POINT0"
0.000000000000e+00 0.000000000000e+00 1.013250000000e+05 1.013250000000e+05 1.000000000000e+00 1.110223024625e-16 0.000000000000e+00 0.000000000000e+00 0.000000000000e+00 0.000000000000e+00 
1.000000000000e-03 0.000000000000e+00 1.013250000000e+05 1.013250000000e+05 1.000000000000e+00 2.997602166488e-15 9.144290771014e-15 -2.616649203238e-04 4.247620976415e-20 1.931087194636e-11 
2.000000000000e-03 0.000000000000e+00 1.013250000000e+05 1.013250000000e+05 1.000000000000e+00 2.953193245503e-14 -1.679462735586e-13 -2.585059876380e-04 -1.511121418979e-18 4.044697159750e-11 
3.000000000000e-03 0.000000000000e+00 1.013250000000e+05 1.013250000000e+05 9.999999999999e-01 9.581224702515e-14 -4.753996004214e-13 -2.553925076983e-04 -4.534712816379e-18 6.127871710151e-11 
4.000000000000e-03 0.000000000000e+00 1.013250000000e+05 1.013250000000e+05 9.999999999998e-01 2.173816682216e-13 -9.062832714593e-13 -2.523237736767e-04 -9.217124366397e-18 8.181084616418e-11 
5.000000000000e-03 0.000000000000e+00 1.013250000000e+05 1.013250000000e+05 9.999999999996e-01 4.096722960867e-13 -1.455906660159e-12 -2.492991161094e-04 -1.575195699077e-17 1.020478462126e-10 
6.000000000000e-03 0.000000000000e+00 1.013250000000e+05 1.013250000000e+05 9.999999999993e-01 6.863398738233e-13 -2.118554033798e-12 -2.463178697349e-04 -2.431555010814e-17 1.219941762961e-10 
7.000000000000e-03 0.000000000000e+00 1.013250000000e+05 1.013250000000e+05 9.999999999989e-01 1.061373211542e-12 -2.887787580432e-12 -2.433793096262e-04 -3.506663980091e-17 1.416546944041e-10 
8.000000000000e-03 0.000000000000e+00 1.013250000000e+05 1.013250000000e+05 9.999999999985e-01 1.547650896327e-12 -3.758450420585e-12 -2.404828714204e-04 -4.816319597810e-17 1.610331840113e-10 
9.000000000000e-03 0.000000000000e+00 1.013250000000e+05 1.013250000000e+05 9.999999999978e-01 2.157496403754e-12 -4.727170411439e-12 -2.376278570013e-04 -6.376749678307e-17 1.801343232183e-10 
1.000000000000e-02 0.000000000000e+00 1.013250000000e+05 1.013250000000e+05 9.999999999971e-01 2.902789120185e-12 -5.787622954613e-12 -2.348136248485e-04 -8.201094454927e-17 1.989624112394e-10 
2.000000000000e-02 0.000000000000e+00 1.013250000000e+05 1.013250000000e+05 9.999999999795e-01 2.049549419070e-11 -1.366091688745e-11 -2.259774551140e-04 -3.949726318354e-16 2.580764503878e-10 
3.000000000000e-02 0.000000000000e+00 1.013250000000e+05 1.013250000000e+05 9.999999999611e-01 3.893307898295e-11 -1.429795573100e-11 -2.175348022174e-04 -6.675176171252e-16 3.145559793696e-10 
4.000000000000e-02 0.000000000000e+00 1.013250000000e+05 1.013250000000e+05 9.999999999359e-01 6.412526065702e-11 -1.943232135099e-11 -2.094792783845e-04 -1.066414789897e-15 3.684433969322e-10 
5.000000000000e-02 0.000000000000e+00 1.013250000000e+05 1.013250000000e+05 9.999999999033e-01 9.669132161605e-11 -2.488111264517e-11 -2.017836824875e-04 -1.572590220852e-15 4.199208265433e-10 
6.000000000000e-02 0.000000000000e+00 1.013250000000e+05 1.013250000000e+05 9.999999998628e-01 1.372215674422e-10 -3.098886241896e-11 -1.944306446281e-04 -2.193427428085e-15 4.691046002814e-10 
7.000000000000e-02 0.000000000000e+00 1.013250000000e+05 1.013250000000e+05 9.999999998155e-01 1.845477104467e-10 -3.611377273619e-11 -1.898212037853e-04 -2.899469176545e-15 4.999339438685e-10 
8.000000000000e-02 0.000000000000e+00 1.013250000000e+05 1.013250000000e+05 9.999999997643e-01 2.357372075323e-10 -3.891489289204e-11 -1.853590367843e-04 -3.636979700121e-15 5.297772774673e-10 
9.000000000000e-02 0.000000000000e+00 1.013250000000e+05 1.013250000000e+05 9.999999997076e-01 2.924392950021e-10 -4.302984331853e-11 -1.810289409115e-04 -4.453656527750e-15 5.587361799240e-10 
1.000000000000e-01 0.000000000000e+00 1.013250000000e+05 1.013250000000e+05 9.999999996464e-01 3.536454462605e-10 -4.606350999737e-11 -1.775168795861e-04 -5.320011801170e-15 5.822224190334e-10 
2.000000000000e-01 0.000000000000e+00 1.013250000000e+05 1.013250000000e+05 9.999999987312e-01 1.268771976370e-09 -6.623004305589e-11 -1.549358709005e-04 -1.684686668240e-14 7.331710884262e-10 
3.000000000000e-01 0.000000000000e+00 1.013250000000e+05 1.013250000000e+05 9.999999975781e-01 2.421899791827e-09 -8.081479026052e-11 -1.385894833718e-04 -3.013125377607e-14 8.423876318816e-10 
4.000000000000e-01 0.000000000000e+00 1.013250000000e+05 1.013250000000e+05 9.999999962382e-01 3.761753797349e-09 -9.115574110361e-11 -1.258887873051e-04 -4.437005173833e-14 9.271983519000e-10 
5.000000000000e-01 0.000000000000e+00 1.013250000000e+05 1.013250000000e+05 9.999999947516e-01 5.248422696447e-09 -9.865574403752e-11 -1.155948342509e-04 -5.900887277295e-14 9.958958532364e-10 
6.000000000000e-01 0.000000000000e+00 1.013250000000e+05 1.013250000000e+05 9.999999931619e-01 6.838105526263e-09 -1.031503535536e-10 -1.075180067548e-04 -7.349933876883e-14 1.049754150320e-09 
7.000000000000e-01 0.000000000000e+00 1.013250000000e+05 1.013250000000e+05 9.999999914928e-01 8.507204274366e-09 -1.056415907756e-10 -1.006674244574e-04 -8.762927244916e-14 1.095402976595e-09 
8.000000000000e-01 0.000000000000e+00 1.013250000000e+05 1.013250000000e+05 9.999999897627e-01 1.023726503568e-08 -1.076230537477e-10 -9.476287699269e-05 -1.012677678377e-13 1.134718492771e-09 
9.000000000000e-01 0.000000000000e+00 1.013250000000e+05 1.013250000000e+05 9.999999879866e-01 1.201339605572e-08 -1.084464824944e-10 -8.961523115298e-05 -1.143318492657e-13 1.168967261632e-09 
1.000000000000e+00 0.000000000000e+00 1.013250000000e+05 1.013250000000e+05 9.999999861764e-01 1.382363490343e-08 -1.083633654540e-10 -8.508358388396e-05 -1.267834068870e-13 1.199092918959e-09 
2.000000000000e+00 0.000000000000e+00 1.013250000000e+05 1.013250000000e+05 9.999999684373e-01 3.156268602034e-08 -9.685373792309e-11 -6.353838714147e-05 -2.052502992422e-13 1.341417558702e-09 
3.000000000000e+00 0.000000000000e+00 1.013250000000e+05 1.013250000000e+05 9.999999516311e-01 4.836894595961e-08 -8.708357818151e-11 -5.061798488259e-05 -2.581475790045e-13 1.426155404210e-09 
4.000000000000e+00 0.000000000000e+00 1.013250000000e+05 1.013250000000e+05 9.999999359049e-01 6.409505970417e-08 -7.877953586874e-11 -4.244259350343e-05 -2.954583938599e-13 1.479269731051e-09 
5.000000000000e+00 0.000000000000e+00 1.013250000000e+05 1.013250000000e+05 9.999999212442e-01 7.875580432248e-08 -7.165174788959e-11 -3.702458236952e-05 -3.225899019781e-13 1.514051210344e-09 
6.000000000000e+00 0.000000000000e+00 1.013250000000e+05 1.013250000000e+05 9.999999075581e-01 9.244193965863e-08 -6.561050366351e-11 -3.323384264281e-05 -3.428535206721e-13 1.538047844991e-09 
7.000000000000e+00 0.000000000000e+00 1.013250000000e+05 1.013250000000e+05 9.999998947345e-01 1.052654790001e-07 -6.044064564770e-11 -3.048872071110e-05 -3.583576534601e-13 1.555137984672e-09 
8.000000000000e+00 0.000000000000e+00 1.013250000000e+05 1.013250000000e+05 9.999998826571e-01 1.173429384771e-07 -5.621466614137e-11 -2.841035086545e-05 -3.705198811650e-13 1.567843454224e-09 
9.000000000000e+00 0.000000000000e+00 1.013250000000e+05 1.013250000000e+05 9.999998712265e-01 1.287735122979e-07 -5.227832596815e-11 -2.680645407215e-05 -3.802164285830e-13 1.577440164923e-09 
1.000000000000e+01 0.000000000000e+00 1.013250000000e+05 1.013250000000e+05 9.999998603522e-01 1.396478401805e-07 -4.919733648418e-11 -2.553474822961e-05 -3.880551055695e-13 1.584870533617e-09 
1.100000000000e+01 0.000000000000e+00 1.013250000000e+05 1.013250000000e+05 9.999998499450e-01 1.500550290690e-07 -4.648832172230e-11 -2.448260805481e-05 -3.944946132766e-13 1.590878836474e-09 
1.200000000000e+01 0.000000000000e+00 1.013250000000e+05 1.013250000000e+05 9.999998399239e-01 1.600761201370e-07 -4.441575077039e-11 -2.358680618705e-05 -3.998313470698e-13 1.595879843864e-09 
1.300000000000e+01 0.000000000000e+00 1.013250000000e+05 1.013250000000e+05 9.999998302142e-01 1.697858448280e-07 -4.243663977551e-11 -2.281364136903e-05 -4.042472432407e-13 1.600091526422e-09 
1.400000000000e+01 0.000000000000e+00 1.013250000000e+05 1.013250000000e+05 9.999998207425e-01 1.792575403670e-07 -4.111063358354e-11 -2.213326862717e-05 -4.078727605662e-13 1.603706223022e-09 
1.500000000000e+01 0.000000000000e+00 1.013250000000e+05 1.013250000000e+05 9.999998114364e-01 1.885636219390e-07 -4.009726798109e-11 -2.152491252792e-05 -4.107876020243e-13 1.606855695569e-09 
1.600000000000e+01 0.000000000000e+00 1.013250000000e+05 1.013250000000e+05 9.999998022226e-01 1.977773638195e-07 -3.943055005176e-11 -2.097468196459e-05 -4.130473110872e-13 1.609625588435e-09 
1.700000000000e+01 0.000000000000e+00 1.013250000000e+05 1.013250000000e+05 9.999997930271e-01 2.069729403420e-07 -3.910524991131e-11 -2.047144452745e-05 -4.146860853346e-13 1.612083012117e-09 
1.800000000000e+01 0.000000000000e+00 1.013250000000e+05 1.013250000000e+05 9.999997837745e-01 2.162254730820e-07 -3.925875924347e-11 -2.000754892233e-05 -4.157259727928e-13 1.614271710598e-09 
1.900000000000e+01 0.000000000000e+00 1.013250000000e+05 1.013250000000e+05 9.999997743895e-01 2.256104539855e-07 -3.955629743541e-11 -1.957827050272e-05 -4.161787847204e-13 1.616215866756e-09 
2.000000000000e+01 0.000000000000e+00 1.013250000000e+05 1.013250000000e+05 9.999997647960e-01 2.352039709663e-07 -4.045154408983e-11 -1.917762505324e-05 -4.160611550505e-13 1.617947966724e-09 
2.100000000000e+01 0.000000000000e+00 1.013250000000e+05 1.013250000000e+05 9.999997549186e-01 2.450813564314e-07 -4.175118011146e-11 -1.880209988022e-05 -4.153853497782e-13 1.619484057305e-09 
2.200000000000e+01 0.000000000000e+00 1.013250000000e+05 1.013250000000e+05 9.999997446839e-01 2.553161098096e-07 -4.303139341743e-11 -1.844996401844e-05 -4.141642365166e-13 1.620828460229e-09 
2.300000000000e+01 0.000000000000e+00 1.013250000000e+05 1.013250000000e+05 9.999997340201e-01 2.659799006599e-07 -4.490902589729e-11 -1.811685190770e-05 -4.124218559612e-13 1.622003294089e-09 
2.400000000000e+01 0.000000000000e+00 1.013250000000e+05 1.013250000000e+05 9.999997228593e-01 2.771407323632e-07 -4.717415529770e-11 -1.780201706793e-05 -4.101785975000e-13 1.623006896639e-09 
2.500000000000e+01 0.000000000000e+00 1.013250000000e+05 1.013250000000e+05 9.999997111375e-01 2.888624911490e-07 -4.952848551686e-11 -1.750303454053e-05 -4.074593801438e-13 1.623849152292e-09 
2.600000000000e+01 0.000000000000e+00 1.013250000000e+05 1.013250000000e+05 9.999996987955e-01 3.012045193262e-07 -5.252429753483e-11 -1.721851706348e-05 -4.042975531941e-13 1.624533475832e-09 
2.700000000000e+01 0.000000000000e+00 1.013250000000e+05 1.013250000000e+05 9.999996857793e-01 3.142206578266e-07 -5.538547716093e-11 -1.694718774349e-05 -4.007231021763e-13 1.625063094787e-09 
2.800000000000e+01 0.000000000000e+00 1.013250000000e+05 1.013250000000e+05 9.999996720411e-01 3.279589078087e-07 -5.862816211095e-11 -1.668798262576e-05 -3.967733462875e-13 1.625440391907e-09 
2.900000000000e+01 0.000000000000e+00 1.013250000000e+05 1.013250000000e+05 9.999996575389e-01 3.424611364489e-07 -6.210436742400e-11 -1.643995345347e-05 -3.924845120758e-13 1.625667583097e-09 
3.000000000000e+01 0.000000000000e+00 1.013250000000e+05 1.013250000000e+05 9.999996422371e-01 3.577628908680e-07 -6.566555804571e-11 -1.620229428458e-05 -3.878941141083e-13 1.625746556760e-09 
3.100000000000e+01 0.000000000000e+00 1.013250000000e+05 1.013250000000e+05 9.999996261068e-01 3.738932471409e-07 -6.954991982129e-11 -1.597478221606e-05 -3.830404279041e-13 1.625676054650e-09 
3.200000000000e+01 0.000000000000e+00 1.013250000000e+05 1.013250000000e+05 9.999996091247e-01 3.908753465343e-07 -7.333472461849e-11 -1.575577655886e-05 -3.779613852484e-13 1.625464643916e-09 
3.300000000000e+01 0.000000000000e+00 1.013250000000e+05 1.013250000000e+05 9.999995912741e-01 4.087258951291e-07 -7.720836960315e-11 -1.554598223233e-05 -3.726930082266e-13 1.625105974222e-09 
3.400000000000e+01 0.000000000000e+00 1.013250000000e+05 1.013250000000e+05 9.999995725437e-01 4.274562623863e-07 -8.119902019912e-11 -1.534360408044e-05 -3.672723687843e-13 1.624610933914e-09 
3.500000000000e+01 0.000000000000e+00 1.013250000000e+05 1.013250000000e+05 9.999995529278e-01 4.470722196892e-07 -8.511553481233e-11 -1.514847953174e-05 -3.617327008464e-13 1.623980047708e-09 
3.600000000000e+01 0.000000000000e+00 1.013250000000e+05 1.013250000000e+05 9.999995324256e-01 4.675744280647e-07 -8.911476303915e-11 -1.496028397617e-05 -3.561063553554e-13 1.623215426510e-09 
3.700000000000e+01 0.000000000000e+00 1.013250000000e+05 1.013250000000e+05 9.999995110413e-01 4.889587352785e-07 -9.307209454238e-11 -1.477900198339e-05 -3.504218841041e-13 1.622317678137e-09 
3.800000000000e+01 0.000000000000e+00 1.013250000000e+05 1.013250000000e+05 9.999994887832e-01 5.112168163235e-07 -9.700919871970e-11 -1.460385822440e-05 -3.447076060894e-13 1.621292714470e-09 
3.900000000000e+01 0.000000000000e+00 1.013250000000e+05 1.013250000000e+05 9.999994656637e-01 5.343363305155e-07 -1.007744964154e-10 -1.443471629944e-05 -3.389884912072e-13 1.620142669389e-09 
4.000000000000e+01 0.000000000000e+00 1.013250000000e+05 1.013250000000e+05 9.999994416986e-01 5.583013931165e-07 -1.044097580339e-10 -1.427114321640e-05 -3.332886396418e-13 1.618872008786e-09 
4.100000000000e+01 0.000000000000e+00 1.013250000000e+05 1.013250000000e+05 9.999994169072e-01 5.830928427875e-07 -1.082159164106e-10 -1.411294113699e-05 -3.276305540891e-13 1.617483948863e-09 
4.200000000000e+01 0.000000000000e+00 1.013250000000e+05 1.013250000000e+05 9.999993913114e-01 6.086885829815e-07 -1.115369427478e-10 -1.395982326172e-05 -3.220318722049e-13 1.615982589968e-09 
4.300000000000e+01 0.000000000000e+00 1.013250000000e+05 1.013250000000e+05 9.999993649361e-01 6.350639025765e-07 -1.150553635100e-10 -1.381161680972e-05 -3.165133797948e-13 1.614371526984e-09 
4.400000000000e+01 0.000000000000e+00 1.013250000000e+05 1.013250000000e+05 9.999993378082e-01 6.621918199334e-07 -1.184125845796e-10 -1.366834241926e-05 -3.110892016641e-13 1.612653357774e-09 
4.500000000000e+01 0.000000000000e+00 1.013250000000e+05 1.013250000000e+05 9.999993099564e-01 6.900435802759e-07 -1.213305124262e-10 -1.352885529232e-05 -3.057737380943e-13 1.610838494675e-09 
4.600000000000e+01 0.000000000000e+00 1.013250000000e+05 1.013250000000e+05 9.999992814113e-01 7.185887245242e-07 -1.243758198010e-10 -1.339375225209e-05 -3.005809833002e-13 1.608925955212e-09 
4.700000000000e+01 0.000000000000e+00 1.013250000000e+05 1.013250000000e+05 9.999992522043e-01 7.477957291169e-07 -1.271982944132e-10 -1.326191829892e-05 -2.955212447438e-13 1.606926305421e-09 
4.800000000000e+01 0.000000000000e+00 1.013250000000e+05 1.013250000000e+05 9.999992223681e-01 7.776318509123e-07 -1.297616722369e-10 -1.313351029360e-05 -2.906038435535e-13 1.604841727856e-09 
4.900000000000e+01 0.000000000000e+00 1.013250000000e+05 1.013250000000e+05 9.999991919365e-01 8.080635138796e-07 -1.322924408728e-10 -1.300833869078e-05 -2.858374760010e-13 1.602676802394e-09 
5.000000000000e+01 0.000000000000e+00 1.013250000000e+05 1.013250000000e+05 9.999991609435e-01 8.390565146010e-07 -1.346575855025e-10 -1.288628256880e-05 -2.812278888432e-13 1.600435711656e-09 
5.100000000000e+01 0.000000000000e+00 1.013250000000e+05 1.013250000000e+05 9.999991294237e-01 8.705763068217e-07 -1.368045944713e-10 -1.276715671240e-05 -2.767802499922e-13 1.598123101657e-09 
5.200000000000e+01 0.000000000000e+00 1.013250000000e+05 1.013250000000e+05 9.999990974118e-01 9.025882161673e-07 -1.388279725185e-10 -1.265118980867e-05 -2.724978301112e-13 1.595740889309e-09 
5.300000000000e+01 0.000000000000e+00 1.013250000000e+05 1.013250000000e+05 9.999990649422e-01 9.350577931944e-07 -1.404212304059e-10 -1.253774367812e-05 -2.683811521144e-13 1.593296714855e-09 
5.400000000000e+01 0.000000000000e+00 1.013250000000e+05 1.013250000000e+05 9.999990320490e-01 9.679510383220e-07 -1.422200146110e-10 -1.242691518395e-05 -2.644338420105e-13 1.590793282499e-09 
5.500000000000e+01 0.000000000000e+00 1.013250000000e+05 1.013250000000e+05 9.999989987656e-01 1.001234370523e-06 -1.436727403857e-10 -1.231849334035e-05 -2.606531805481e-13 1.588235313769e-09 
5.600000000000e+01 0.000000000000e+00 1.013250000000e+05 1.013250000000e+05 9.999989651253e-01 1.034874690942e-06 -1.450021296758e-10 -1.221250011732e-05 -2.570396987613e-13 1.585625925220e-09 
5.700000000000e+01 0.000000000000e+00 1.013250000000e+05 1.013250000000e+05 9.999989311605e-01 1.068839464824e-06 -1.461493733325e-10 -1.210881395018e-05 -2.535921185314e-13 1.582969137414e-09 
5.800000000000e+01 0.000000000000e+00 1.013250000000e+05 1.013250000000e+05 9.999988969033e-01 1.103096718191e-06 -1.470310180381e-10 -1.200737544824e-05 -2.503091705822e-13 1.580268500093e-09 
5.900000000000e+01 0.000000000000e+00 1.013250000000e+05 1.013250000000e+05 9.999988623848e-01 1.137615189273e-06 -1.479187830276e-10 -1.190810237917e-05 -2.471899358713e-13 1.577527645255e-09 
6.000000000000e+01 0.000000000000e+00 1.013250000000e+05 1.013250000000e+05 9.999988276356e-01 1.172364426205e-06 -1.487543044076e-10 -1.181097900351e-05 -2.442305822224e-13 1.574749680442e-09 
6.100000000000e+01 0.000000000000e+00 1.013250000000e+05 1.013250000000e+05 9.999987926849e-01 1.207315060592e-06 -1.493326364056e-10 -1.171656808018e-05 -2.414261854860e-13 1.571933750833e-09 
6.200000000000e+01 0.000000000000e+00 1.013250000000e+05 1.013250000000e+05 9.999987575609e-01 1.242439118032e-06 -1.495761558278e-10 -1.162366791304e-05 -2.387725252084e-13 1.569090639233e-09 
6.300000000000e+01 0.000000000000e+00 1.013250000000e+05 1.013250000000e+05 9.999987222902e-01 1.277709780645e-06 -1.500547102758e-10 -1.153264118022e-05 -2.362658718029e-13 1.566220563799e-09 
6.400000000000e+01 0.000000000000e+00 1.013250000000e+05 1.013250000000e+05 9.999986868986e-01 1.313101387734e-06 -1.502994929068e-10 -1.144341377870e-05 -2.338989963561e-13 1.563326549253e-09 
6.500000000000e+01 0.000000000000e+00 1.013250000000e+05 1.013250000000e+05 9.999986514107e-01 1.348589306893e-06 -1.503681229105e-10 -1.135592431913e-05 -2.316679658835e-13 1.560411434088e-09 
6.600000000000e+01 0.000000000000e+00 1.013250000000e+05 1.013250000000e+05 9.999986158502e-01 1.384149758810e-06 -1.503226802687e-10 -1.127014903739e-05 -2.295694307178e-13 1.557477721178e-09 
6.700000000000e+01 0.000000000000e+00 1.013250000000e+05 1.013250000000e+05 9.999985802402e-01 1.419759849464e-06 -1.501821634925e-10 -1.118600419880e-05 -2.276000364336e-13 1.554528227258e-09 
6.800000000000e+01 0.000000000000e+00 1.013250000000e+05 1.013250000000e+05 9.999985446025e-01 1.455397523498e-06 -1.498671853626e-10 -1.110345345397e-05 -2.257558809406e-13 1.551565369608e-09 
6.900000000000e+01 0.000000000000e+00 1.013250000000e+05 1.013250000000e+05 9.999985089582e-01 1.491041764612e-06 -1.495759772188e-10 -1.102246677264e-05 -2.240329061974e-13 1.548591420509e-09 
7.000000000000e+01 0.000000000000e+00 1.013250000000e+05 1.013250000000e+05 9.999984733273e-01 1.526672664176e-06 -1.489972030291e-10 -1.094316600625e-05 -2.224245982675e-13 1.545607529620e-09 
7.100000000000e+01 0.000000000000e+00 1.013250000000e+05 1.013250000000e+05 9.999984377284e-01 1.562271567446e-06 -1.482785973065e-10 -1.086522719514e-05 -2.209259039437e-13 1.542617701210e-09 
7.200000000000e+01 0.000000000000e+00 1.013250000000e+05 1.013250000000e+05 9.999984021790e-01 1.597820952215e-06 -1.479986630964e-10 -1.078870565286e-05 -2.195333101549e-13 1.539623292045e-09 
7.300000000000e+01 0.000000000000e+00 1.013250000000e+05 1.013250000000e+05 9.999983666959e-01 1.633304098081e-06 -1.472610543734e-10 -1.071355797999e-05 -2.182393226379e-13 1.536626240754e-09 
7.400000000000e+01 0.000000000000e+00 1.013250000000e+05 1.013250000000e+05 9.999983312951e-01 1.668704920688e-06 -1.465021847438e-10 -1.063983541394e-05 -2.170429428319e-13 1.533627790160e-09 
7.500000000000e+01 0.000000000000e+00 1.013250000000e+05 1.013250000000e+05 9.999982959922e-01 1.704007828840e-06 -1.456774282703e-10 -1.056740931482e-05 -2.159419604464e-13 1.530630337365e-09 
7.600000000000e+01 0.000000000000e+00 1.013250000000e+05 1.013250000000e+05 9.999982608023e-01 1.739197671990e-06 -1.447806168939e-10 -1.049632315803e-05 -2.149347329923e-13 1.527635085423e-09 
7.700000000000e+01 0.000000000000e+00 1.013250000000e+05 1.013250000000e+05 9.999982257401e-01 1.774259907217e-06 -1.438201794915e-10 -1.042647719474e-05 -2.140186235309e-13 1.524644134874e-09 
7.800000000000e+01 0.000000000000e+00 1.013250000000e+05 1.013250000000e+05 9.999981908193e-01 1.809180688150e-06 -1.426452694139e-10 -1.035818827707e-05 -2.131889388154e-13 1.521656734269e-09 
7.900000000000e+01 0.000000000000e+00 1.013250000000e+05 1.013250000000e+05 9.999981560525e-01 1.843947456504e-06 -1.417260472965e-10 -1.029090036420e-05 -2.124424351276e-13 1.518677837979e-09 
8.000000000000e+01 0.000000000000e+00 1.013250000000e+05 1.013250000000e+05 9.999981214512e-01 1.878548849921e-06 -1.404671965607e-10 -1.022493151182e-05 -2.117700447941e-13 1.515706439466e-09 
8.100000000000e+01 0.000000000000e+00 1.013250000000e+05 1.013250000000e+05 9.999980870251e-01 1.912974853080e-06 -1.393340468669e-10 -1.015998270507e-05 -2.111670877157e-13 1.512745524091e-09 
8.200000000000e+01 0.000000000000e+00 1.013250000000e+05 1.013250000000e+05 9.999980527836e-01 1.947216394904e-06 -1.382133673055e-10 -1.009614781137e-05 -2.106267874876e-13 1.509795357799e-09 
8.300000000000e+01 0.000000000000e+00 1.013250000000e+05 1.013250000000e+05 9.999980187350e-01 1.981264991069e-06 -1.369674537098e-10 -1.003337067220e-05 -2.101463460433e-13 1.506857152324e-09 
8.400000000000e+01 0.000000000000e+00 1.013250000000e+05 1.013250000000e+05 9.999979848876e-01 2.015112351650e-06 -1.357203828127e-10 -9.971672019083e-06 -2.097245593571e-13 1.503931586168e-09 
8.500000000000e+01 0.000000000000e+00 1.013250000000e+05 1.013250000000e+05 9.999979512498e-01 2.048750226358e-06 -1.344457695047e-10 -9.910990966134e-06 -2.093617071903e-13 1.501019879990e-09 
8.600000000000e+01 0.000000000000e+00 1.013250000000e+05 1.013250000000e+05 9.999979178296e-01 2.082170436735e-06 -1.330744775532e-10 -9.851207392814e-06 -2.090582161475e-13 1.498123643514e-09 
8.700000000000e+01 0.000000000000e+00 1.013250000000e+05 1.013250000000e+05 9.999978846349e-01 2.115365055011e-06 -1.316843379073e-10 -9.792338310718e-06 -2.088133732286e-13 1.495243544590e-09 
8.800000000000e+01 0.000000000000e+00 1.013250000000e+05 1.013250000000e+05 9.999978516733e-01 2.148326747831e-06 -1.302794613892e-10 -9.734375633296e-06 -2.086238563530e-13 1.492380359997e-09 
8.900000000000e+01 0.000000000000e+00 1.013250000000e+05 1.013250000000e+05 9.999978189508e-01 2.181049179040e-06 -1.288419595207e-10 -9.677291714325e-06 -2.084844718643e-13 1.489534898656e-09 
9.000000000000e+01 0.000000000000e+00 1.013250000000e+05 1.013250000000e+05 9.999977864729e-01 2.213527127148e-06 -1.275086657782e-10 -9.621253520473e-06 -2.083895619326e-13 1.486706558414e-09 
9.100000000000e+01 0.000000000000e+00 1.013250000000e+05 1.013250000000e+05 9.999977542436e-01 2.245756355213e-06 -1.259791245092e-10 -9.565960517412e-06 -2.083324626470e-13 1.483897765832e-09 
9.200000000000e+01 0.000000000000e+00 1.013250000000e+05 1.013250000000e+05 9.999977222668e-01 2.277733199385e-06 -1.244288851496e-10 -9.511503079889e-06 -2.083109089519e-13 1.481108277582e-09 
9.300000000000e+01 0.000000000000e+00 1.013250000000e+05 1.013250000000e+05 9.999976905461e-01 2.309453940308e-06 -1.228994620509e-10 -9.457839361920e-06 -2.083251110692e-13 1.478338740306e-09 
9.400000000000e+01 0.000000000000e+00 1.013250000000e+05 1.013250000000e+05 9.999976590855e-01 2.340914467713e-06 -1.213942531307e-10 -9.405004184638e-06 -2.083765200858e-13 1.475589326876e-09 
9.500000000000e+01 0.000000000000e+00 1.013250000000e+05 1.013250000000e+05 9.999976278898e-01 2.372110248894e-06 -1.198621003910e-10 -9.352922743715e-06 -2.084680241819e-13 1.472860984918e-09 
9.600000000000e+01 0.000000000000e+00 1.013250000000e+05 1.013250000000e+05 9.999975969635e-01 2.403036512888e-06 -1.183266011483e-10 -9.301606959848e-06 -2.086015032321e-13 1.470154105596e-09 
9.700000000000e+01 0.000000000000e+00 1.013250000000e+05 1.013250000000e+05 9.999975663114e-01 2.433688589543e-06 -1.166726043701e-10 -9.251310021718e-06 -2.087753021108e-13 1.467467468295e-09 
9.800000000000e+01 0.000000000000e+00 1.013250000000e+05 1.013250000000e+05 9.999975359373e-01 2.464062660801e-06 -1.152286513076e-10 -9.201586079461e-06 -2.089880941518e-13 1.464804417478e-09 
9.900000000000e+01 0.000000000000e+00 1.013250000000e+05 1.013250000000e+05 9.999975058440e-01 2.494156025268e-06 -1.136426448508e-10 -9.152536774272e-06 -2.092317593804e-13 1.462164539497e-09 
1.000000000000e+02 0.000000000000e+00 1.013250000000e+05 1.013250000000e+05 9.999974760325e-01 2.523967498336e-06 -1.120573790748e-10 -9.104184940886e-06 -2.094983132371e-13 1.459547797302e-09 
1.010000000000e+02 0.000000000000e+00 1.013250000000e+05 1.013250000000e+05 9.999974465023e-01 2.553497729929e-06 -1.104580561511e-10 -9.056475669474e-06 -2.097775575223e-13 1.456954492695e-09 
1.020000000000e+02 0.000000000000e+00 1.013250000000e+05 1.013250000000e+05 9.999974172511e-01 2.582748933389e-06 -1.088130369713e-10 -9.009592180532e-06 -2.100591915245e-13 1.454383181102e-09 
1.030000000000e+02 0.000000000000e+00 1.013250000000e+05 1.013250000000e+05 9.999973882757e-01 2.611724308710e-06 -1.073464509827e-10 -8.963230802844e-06 -2.103384004540e-13 1.451835576461e-09 
1.040000000000e+02 0.000000000000e+00 1.013250000000e+05 1.013250000000e+05 9.999973595731e-01 2.640426938871e-06 -1.058197926072e-10 -8.917458995264e-06 -2.106134147805e-13 1.449310923856e-09 
1.050000000000e+02 0.000000000000e+00 1.013250000000e+05 1.013250000000e+05 9.999973311410e-01 2.668858974153e-06 -1.043242735194e-10 -8.872288867702e-06 -2.108896036033e-13 1.446808931060e-09 
1.060000000000e+02 0.000000000000e+00 1.013250000000e+05 1.013250000000e+05 9.999973029788e-01 2.697021175169e-06 -1.028243887191e-10 -8.827719472845e-06 -2.111742864005e-13 1.444329530636e-09 
1.070000000000e+02 0.000000000000e+00 1.013250000000e+05 1.013250000000e+05 9.999972750869e-01 2.724913071628e-06 -1.012911562552e-10 -8.783726632014e-06 -2.114747404889e-13 1.441872931807e-09 
1.080000000000e+02 0.000000000000e+00 1.013250000000e+05 1.013250000000e+05 9.999972474666e-01 2.752533389216e-06 -9.980837510717e-11 -8.740305138321e-06 -2.117959252359e-13 1.439439295810e-09 
1.090000000000e+02 0.000000000000e+00 1.013250000000e+05 1.013250000000e+05 9.999972201193e-01 2.779880697856e-06 -9.833279314666e-11 -8.697422670826e-06 -2.121396321547e-13 1.437028980163e-09 
1.100000000000e+02 0.000000000000e+00 1.013250000000e+05 1.013250000000e+05 9.999971930459e-01 2.806954131684e-06 -9.684032563598e-11 -8.655090064565e-06 -2.125030336038e-13 1.434641997503e-09 
1.110000000000e+02 0.000000000000e+00 1.013250000000e+05 1.013250000000e+05 9.999971662460e-01 2.833753998455e-06 -9.534566062946e-11 -8.613297195493e-06 -2.128797439216e-13 1.432278384349e-09 
1.120000000000e+02 0.000000000000e+00 1.013250000000e+05 1.013250000000e+05 9.999971397178e-01 2.860282166450e-06 -9.386682076052e-11 -8.572031616788e-06 -2.132609646081e-13 1.429938038417e-09 
1.130000000000e+02 0.000000000000e+00 1.013250000000e+05 1.013250000000e+05 9.999971134576e-01 2.886542375569e-06 -9.238831308725e-11 -8.531295528271e-06 -2.136353484338e-13 1.427620574642e-09 
1.140000000000e+02 0.000000000000e+00 1.013250000000e+05 1.013250000000e+05 9.999970874604e-01 2.912539626698e-06 -9.078420428678e-11 -8.491188270411e-06 -2.139945578248e-13 1.425324834631e-09 
1.150000000000e+02 0.000000000000e+00 1.013250000000e+05 1.013250000000e+05 9.999970617207e-01 2.938279280440e-06 -8.952318287869e-11 -8.451488649146e-06 -2.143375186181e-13 1.423051768093e-09 
1.160000000000e+02 0.000000000000e+00 1.013250000000e+05 1.013250000000e+05 9.999970362345e-01 2.963765546093e-06 -8.816305193946e-11 -8.412279707463e-06 -2.146673617229e-13 1.420800405664e-09 
1.170000000000e+02 0.000000000000e+00 1.013250000000e+05 1.013250000000e+05 9.999970109993e-01 2.989000731812e-06 -8.683876092069e-11 -8.373554308748e-06 -2.149951277056e-13 1.418570569024e-09 
1.180000000000e+02 0.000000000000e+00 1.013250000000e+05 1.013250000000e+05 9.999969860150e-01 3.013984983147e-06 -8.529422136450e-11 -8.335512106998e-06 -2.153318439723e-13 1.416360921691e-09 
1.190000000000e+02 0.000000000000e+00 1.013250000000e+05 1.013250000000e+05 9.999969612829e-01 3.038717092618e-06 -8.410608275757e-11 -8.297798592676e-06 -2.156888062616e-13 1.414173942660e-09 
1.200000000000e+02 0.000000000000e+00 1.013250000000e+05 1.013250000000e+05 9.999969368049e-01 3.063195063380e-06 -8.276474111347e-11 -8.260502657646e-06 -2.160690378329e-13 1.412009235658e-09 
