VARIABLES  = "X","Y","Z", "PRESSURE1", "SATURATION1"
ZONE T="0.000000000000e+00s", N=201, E=200, F=FEPOINT, ET=QUADRILATERAL
STRANDID=1, SOLUTIONTIME=0.000000000000e+00
0.000000000000e+00 0.000000000000e+00 0.000000000000e+00 0.000000000000e+00 1.000000000000e+00 
0.000000000000e+00 0.000000000000e+00 5.000000000000e-03 0.000000000000e+00 1.000000000000e+00 
0.000000000000e+00 0.000000000000e+00 1.000000000000e-02 0.000000000000e+00 1.000000000000e+00 
0.000000000000e+00 0.000000000000e+00 1.500000000000e-02 0.000000000000e+00 1.000000000000e+00 
0.000000000000e+00 0.000000000000e+00 2.000000000000e-02 0.000000000000e+00 1.000000000000e+00 
0.000000000000e+00 0.000000000000e+00 2.500000000000e-02 0.000000000000e+00 1.000000000000e+00 
0.000000000000e+00 0.000000000000e+00 3.000000000000e-02 0.000000000000e+00 1.000000000000e+00 
0.000000000000e+00 0.000000000000e+00 3.500000000000e-02 0.000000000000e+00 1.000000000000e+00 
0.000000000000e+00 0.000000000000e+00 4.000000000000e-02 0.000000000000e+00 1.000000000000e+00 
0.000000000000e+00 0.000000000000e+00 4.500000000000e-02 0.000000000000e+00 1.000000000000e+00 
0.000000000000e+00 0.000000000000e+00 5.000000000000e-02 0.000000000000e+00 1.000000000000e+00 
0.000000000000e+00 0.000000000000e+00 5.500000000000e-02 0.000000000000e+00 1.000000000000e+00 
0.000000000000e+00 0.000000000000e+00 6.000000000000e-02 0.000000000000e+00 1.000000000000e+00 
0.000000000000e+00 0.000000000000e+00 6.500000000000e-02 0.000000000000e+00 1.000000000000e+00 
0.000000000000e+00 0.000000000000e+00 7.000000000000e-02 0.000000000000e+00 1.000000000000e+00 
0.000000000000e+00 0.000000000000e+00 7.500000000000e-02 0.000000000000e+00 1.000000000000e+00 
0.000000000000e+00 0.000000000000e+00 8.000000000000e-02 0.000000000000e+00 1.000000000000e+00 
0.000000000000e+00 0.000000000000e+00 8.500000000000e-02 0.000000000000e+00 1.000000000000e+00 
0.000000000000e+00 0.000000000000e+00 9.000000000000e-02 0.000000000000e+00 1.000000000000e+00 
0.000000000000e+00 0.000000000000e+00 9.500000000000e-02 0.000000000000e+00 1.000000000000e+00 
0.000000000000e+00 0.000000000000e+00 1.000000000000e-01 0.000000000000e+00 1.000000000000e+00 
0.000000000000e+00 0.000000000000e+00 1.050000000000e-01 0.000000000000e+00 1.000000000000e+00 
0.000000000000e+00 0.000000000000e+00 1.100000000000e-01 0.000000000000e+00 1.000000000000e+00 
0.000000000000e+00 0.000000000000e+00 1.150000000000e-01 0.000000000000e+00 1.000000000000e+00 
0.000000000000e+00 0.000000000000e+00 1.200000000000e-01 0.000000000000e+00 1.000000000000e+00 
0.000000000000e+00 0.000000000000e+00 1.250000000000e-01 0.000000000000e+00 1.000000000000e+00 
0.000000000000e+00 0.000000000000e+00 1.300000000000e-01 0.000000000000e+00 1.000000000000e+00 
0.000000000000e+00 0.000000000000e+00 1.350000000000e-01 0.000000000000e+00 1.000000000000e+00 
0.000000000000e+00 0.000000000000e+00 1.400000000000e-01 0.000000000000e+00 1.000000000000e+00 
0.000000000000e+00 0.000000000000e+00 1.450000000000e-01 0.000000000000e+00 1.000000000000e+00 
0.000000000000e+00 0.000000000000e+00 1.500000000000e-01 0.000000000000e+00 1.000000000000e+00 
0.000000000000e+00 0.000000000000e+00 1.550000000000e-01 0.000000000000e+00 1.000000000000e+00 
0.000000000000e+00 0.000000000000e+00 1.600000000000e-01 0.000000000000e+00 1.000000000000e+00 
0.000000000000e+00 0.000000000000e+00 1.650000000000e-01 0.000000000000e+00 1.000000000000e+00 
0.000000000000e+00 0.000000000000e+00 1.700000000000e-01 0.000000000000e+00 1.000000000000e+00 
0.000000000000e+00 0.000000000000e+00 1.750000000000e-01 0.000000000000e+00 1.000000000000e+00 
0.000000000000e+00 0.000000000000e+00 1.800000000000e-01 0.000000000000e+00 1.000000000000e+00 
0.000000000000e+00 0.000000000000e+00 1.850000000000e-01 0.000000000000e+00 1.000000000000e+00 
0.000000000000e+00 0.000000000000e+00 1.900000000000e-01 0.000000000000e+00 1.000000000000e+00 
0.000000000000e+00 0.000000000000e+00 1.950000000000e-01 0.000000000000e+00 1.000000000000e+00 
0.000000000000e+00 0.000000000000e+00 2.000000000000e-01 0.000000000000e+00 1.000000000000e+00 
0.000000000000e+00 0.000000000000e+00 2.050000000000e-01 0.000000000000e+00 1.000000000000e+00 
0.000000000000e+00 0.000000000000e+00 2.100000000000e-01 0.000000000000e+00 1.000000000000e+00 
0.000000000000e+00 0.000000000000e+00 2.150000000000e-01 0.000000000000e+00 1.000000000000e+00 
0.000000000000e+00 0.000000000000e+00 2.200000000000e-01 0.000000000000e+00 1.000000000000e+00 
0.000000000000e+00 0.000000000000e+00 2.250000000000e-01 0.000000000000e+00 1.000000000000e+00 
0.000000000000e+00 0.000000000000e+00 2.300000000000e-01 0.000000000000e+00 1.000000000000e+00 
0.000000000000e+00 0.000000000000e+00 2.350000000000e-01 0.000000000000e+00 1.000000000000e+00 
0.000000000000e+00 0.000000000000e+00 2.400000000000e-01 0.000000000000e+00 1.000000000000e+00 
0.000000000000e+00 0.000000000000e+00 2.450000000000e-01 0.000000000000e+00 1.000000000000e+00 
0.000000000000e+00 0.000000000000e+00 2.500000000000e-01 0.000000000000e+00 1.000000000000e+00 
0.000000000000e+00 0.000000000000e+00 2.550000000000e-01 0.000000000000e+00 1.000000000000e+00 
0.000000000000e+00 0.000000000000e+00 2.600000000000e-01 0.000000000000e+00 1.000000000000e+00 
0.000000000000e+00 0.000000000000e+00 2.650000000000e-01 0.000000000000e+00 1.000000000000e+00 
0.000000000000e+00 0.000000000000e+00 2.700000000000e-01 0.000000000000e+00 1.000000000000e+00 
0.000000000000e+00 0.000000000000e+00 2.750000000000e-01 0.000000000000e+00 1.000000000000e+00 
0.000000000000e+00 0.000000000000e+00 2.800000000000e-01 0.000000000000e+00 1.000000000000e+00 
0.000000000000e+00 0.000000000000e+00 2.850000000000e-01 0.000000000000e+00 1.000000000000e+00 
0.000000000000e+00 0.000000000000e+00 2.900000000000e-01 0.000000000000e+00 1.000000000000e+00 
0.000000000000e+00 0.000000000000e+00 2.950000000000e-01 0.000000000000e+00 1.000000000000e+00 
0.000000000000e+00 0.000000000000e+00 3.000000000000e-01 0.000000000000e+00 1.000000000000e+00 
0.000000000000e+00 0.000000000000e+00 3.050000000000e-01 0.000000000000e+00 1.000000000000e+00 
0.000000000000e+00 0.000000000000e+00 3.100000000000e-01 0.000000000000e+00 1.000000000000e+00 
0.000000000000e+00 0.000000000000e+00 3.150000000000e-01 0.000000000000e+00 1.000000000000e+00 
0.000000000000e+00 0.000000000000e+00 3.200000000000e-01 0.000000000000e+00 1.000000000000e+00 
0.000000000000e+00 0.000000000000e+00 3.250000000000e-01 0.000000000000e+00 1.000000000000e+00 
0.000000000000e+00 0.000000000000e+00 3.300000000000e-01 0.000000000000e+00 1.000000000000e+00 
0.000000000000e+00 0.000000000000e+00 3.350000000000e-01 0.000000000000e+00 1.000000000000e+00 
0.000000000000e+00 0.000000000000e+00 3.400000000000e-01 0.000000000000e+00 1.000000000000e+00 
0.000000000000e+00 0.000000000000e+00 3.450000000000e-01 0.000000000000e+00 1.000000000000e+00 
0.000000000000e+00 0.000000000000e+00 3.500000000000e-01 0.000000000000e+00 1.000000000000e+00 
0.000000000000e+00 0.000000000000e+00 3.550000000000e-01 0.000000000000e+00 1.000000000000e+00 
0.000000000000e+00 0.000000000000e+00 3.600000000000e-01 0.000000000000e+00 1.000000000000e+00 
0.000000000000e+00 0.000000000000e+00 3.650000000000e-01 0.000000000000e+00 1.000000000000e+00 
0.000000000000e+00 0.000000000000e+00 3.700000000000e-01 0.000000000000e+00 1.000000000000e+00 
0.000000000000e+00 0.000000000000e+00 3.750000000000e-01 0.000000000000e+00 1.000000000000e+00 
0.000000000000e+00 0.000000000000e+00 3.800000000000e-01 0.000000000000e+00 1.000000000000e+00 
0.000000000000e+00 0.000000000000e+00 3.850000000000e-01 0.000000000000e+00 1.000000000000e+00 
0.000000000000e+00 0.000000000000e+00 3.900000000000e-01 0.000000000000e+00 1.000000000000e+00 
0.000000000000e+00 0.000000000000e+00 3.950000000000e-01 0.000000000000e+00 1.000000000000e+00 
0.000000000000e+00 0.000000000000e+00 4.000000000000e-01 0.000000000000e+00 1.000000000000e+00 
0.000000000000e+00 0.000000000000e+00 4.050000000000e-01 0.000000000000e+00 1.000000000000e+00 
0.000000000000e+00 0.000000000000e+00 4.100000000000e-01 0.000000000000e+00 1.000000000000e+00 
0.000000000000e+00 0.000000000000e+00 4.150000000000e-01 0.000000000000e+00 1.000000000000e+00 
0.000000000000e+00 0.000000000000e+00 4.200000000000e-01 0.000000000000e+00 1.000000000000e+00 
0.000000000000e+00 0.000000000000e+00 4.250000000000e-01 0.000000000000e+00 1.000000000000e+00 
0.000000000000e+00 0.000000000000e+00 4.300000000000e-01 0.000000000000e+00 1.000000000000e+00 
0.000000000000e+00 0.000000000000e+00 4.350000000000e-01 0.000000000000e+00 1.000000000000e+00 
0.000000000000e+00 0.000000000000e+00 4.400000000000e-01 0.000000000000e+00 1.000000000000e+00 
0.000000000000e+00 0.000000000000e+00 4.450000000000e-01 0.000000000000e+00 1.000000000000e+00 
0.000000000000e+00 0.000000000000e+00 4.500000000000e-01 0.000000000000e+00 1.000000000000e+00 
0.000000000000e+00 0.000000000000e+00 4.550000000000e-01 0.000000000000e+00 1.000000000000e+00 
0.000000000000e+00 0.000000000000e+00 4.600000000000e-01 0.000000000000e+00 1.000000000000e+00 
0.000000000000e+00 0.000000000000e+00 4.650000000000e-01 0.000000000000e+00 1.000000000000e+00 
0.000000000000e+00 0.000000000000e+00 4.700000000000e-01 0.000000000000e+00 1.000000000000e+00 
0.000000000000e+00 0.000000000000e+00 4.750000000000e-01 0.000000000000e+00 1.000000000000e+00 
0.000000000000e+00 0.000000000000e+00 4.800000000000e-01 0.000000000000e+00 1.000000000000e+00 
0.000000000000e+00 0.000000000000e+00 4.850000000000e-01 0.000000000000e+00 1.000000000000e+00 
0.000000000000e+00 0.000000000000e+00 4.900000000000e-01 0.000000000000e+00 1.000000000000e+00 
0.000000000000e+00 0.000000000000e+00 4.950000000000e-01 0.000000000000e+00 1.000000000000e+00 
0.000000000000e+00 0.000000000000e+00 5.000000000000e-01 0.000000000000e+00 1.000000000000e+00 
0.000000000000e+00 0.000000000000e+00 5.050000000000e-01 0.000000000000e+00 1.000000000000e+00 
0.000000000000e+00 0.000000000000e+00 5.100000000000e-01 0.000000000000e+00 1.000000000000e+00 
0.000000000000e+00 0.000000000000e+00 5.150000000000e-01 0.000000000000e+00 1.000000000000e+00 
0.000000000000e+00 0.000000000000e+00 5.200000000000e-01 0.000000000000e+00 1.000000000000e+00 
0.000000000000e+00 0.000000000000e+00 5.250000000000e-01 0.000000000000e+00 1.000000000000e+00 
0.000000000000e+00 0.000000000000e+00 5.300000000000e-01 0.000000000000e+00 1.000000000000e+00 
0.000000000000e+00 0.000000000000e+00 5.350000000000e-01 0.000000000000e+00 1.000000000000e+00 
0.000000000000e+00 0.000000000000e+00 5.400000000000e-01 0.000000000000e+00 1.000000000000e+00 
0.000000000000e+00 0.000000000000e+00 5.450000000000e-01 0.000000000000e+00 1.000000000000e+00 
0.000000000000e+00 0.000000000000e+00 5.500000000000e-01 0.000000000000e+00 1.000000000000e+00 
0.000000000000e+00 0.000000000000e+00 5.550000000000e-01 0.000000000000e+00 1.000000000000e+00 
0.000000000000e+00 0.000000000000e+00 5.600000000000e-01 0.000000000000e+00 1.000000000000e+00 
0.000000000000e+00 0.000000000000e+00 5.650000000000e-01 0.000000000000e+00 1.000000000000e+00 
0.000000000000e+00 0.000000000000e+00 5.700000000000e-01 0.000000000000e+00 1.000000000000e+00 
0.000000000000e+00 0.000000000000e+00 5.750000000000e-01 0.000000000000e+00 1.000000000000e+00 
0.000000000000e+00 0.000000000000e+00 5.800000000000e-01 0.000000000000e+00 1.000000000000e+00 
0.000000000000e+00 0.000000000000e+00 5.850000000000e-01 0.000000000000e+00 1.000000000000e+00 
0.000000000000e+00 0.000000000000e+00 5.900000000000e-01 0.000000000000e+00 1.000000000000e+00 
0.000000000000e+00 0.000000000000e+00 5.950000000000e-01 0.000000000000e+00 1.000000000000e+00 
0.000000000000e+00 0.000000000000e+00 6.000000000000e-01 0.000000000000e+00 1.000000000000e+00 
0.000000000000e+00 0.000000000000e+00 6.050000000000e-01 0.000000000000e+00 1.000000000000e+00 
0.000000000000e+00 0.000000000000e+00 6.100000000000e-01 0.000000000000e+00 1.000000000000e+00 
0.000000000000e+00 0.000000000000e+00 6.150000000000e-01 0.000000000000e+00 1.000000000000e+00 
0.000000000000e+00 0.000000000000e+00 6.200000000000e-01 0.000000000000e+00 1.000000000000e+00 
0.000000000000e+00 0.000000000000e+00 6.250000000000e-01 0.000000000000e+00 1.000000000000e+00 
0.000000000000e+00 0.000000000000e+00 6.300000000000e-01 0.000000000000e+00 1.000000000000e+00 
0.000000000000e+00 0.000000000000e+00 6.350000000000e-01 0.000000000000e+00 1.000000000000e+00 
0.000000000000e+00 0.000000000000e+00 6.400000000000e-01 0.000000000000e+00 1.000000000000e+00 
0.000000000000e+00 0.000000000000e+00 6.450000000000e-01 0.000000000000e+00 1.000000000000e+00 
0.000000000000e+00 0.000000000000e+00 6.500000000000e-01 0.000000000000e+00 1.000000000000e+00 
0.000000000000e+00 0.000000000000e+00 6.550000000000e-01 0.000000000000e+00 1.000000000000e+00 
0.000000000000e+00 0.000000000000e+00 6.600000000000e-01 0.000000000000e+00 1.000000000000e+00 
0.000000000000e+00 0.000000000000e+00 6.650000000000e-01 0.000000000000e+00 1.000000000000e+00 
0.000000000000e+00 0.000000000000e+00 6.700000000000e-01 0.000000000000e+00 1.000000000000e+00 
0.000000000000e+00 0.000000000000e+00 6.750000000000e-01 0.000000000000e+00 1.000000000000e+00 
0.000000000000e+00 0.000000000000e+00 6.800000000000e-01 0.000000000000e+00 1.000000000000e+00 
0.000000000000e+00 0.000000000000e+00 6.850000000000e-01 0.000000000000e+00 1.000000000000e+00 
0.000000000000e+00 0.000000000000e+00 6.900000000000e-01 0.000000000000e+00 1.000000000000e+00 
0.000000000000e+00 0.000000000000e+00 6.950000000000e-01 0.000000000000e+00 1.000000000000e+00 
0.000000000000e+00 0.000000000000e+00 7.000000000000e-01 0.000000000000e+00 1.000000000000e+00 
0.000000000000e+00 0.000000000000e+00 7.050000000000e-01 0.000000000000e+00 1.000000000000e+00 
0.000000000000e+00 0.000000000000e+00 7.100000000000e-01 0.000000000000e+00 1.000000000000e+00 
0.000000000000e+00 0.000000000000e+00 7.150000000000e-01 0.000000000000e+00 1.000000000000e+00 
0.000000000000e+00 0.000000000000e+00 7.200000000000e-01 0.000000000000e+00 1.000000000000e+00 
0.000000000000e+00 0.000000000000e+00 7.250000000000e-01 0.000000000000e+00 1.000000000000e+00 
0.000000000000e+00 0.000000000000e+00 7.300000000000e-01 0.000000000000e+00 1.000000000000e+00 
0.000000000000e+00 0.000000000000e+00 7.350000000000e-01 0.000000000000e+00 1.000000000000e+00 
0.000000000000e+00 0.000000000000e+00 7.400000000000e-01 0.000000000000e+00 1.000000000000e+00 
0.000000000000e+00 0.000000000000e+00 7.450000000000e-01 0.000000000000e+00 1.000000000000e+00 
0.000000000000e+00 0.000000000000e+00 7.500000000000e-01 0.000000000000e+00 1.000000000000e+00 
0.000000000000e+00 0.000000000000e+00 7.550000000000e-01 0.000000000000e+00 1.000000000000e+00 
0.000000000000e+00 0.000000000000e+00 7.600000000000e-01 0.000000000000e+00 1.000000000000e+00 
0.000000000000e+00 0.000000000000e+00 7.650000000000e-01 0.000000000000e+00 1.000000000000e+00 
0.000000000000e+00 0.000000000000e+00 7.700000000000e-01 0.000000000000e+00 1.000000000000e+00 
0.000000000000e+00 0.000000000000e+00 7.750000000000e-01 0.000000000000e+00 1.000000000000e+00 
0.000000000000e+00 0.000000000000e+00 7.800000000000e-01 0.000000000000e+00 1.000000000000e+00 
0.000000000000e+00 0.000000000000e+00 7.850000000000e-01 0.000000000000e+00 1.000000000000e+00 
0.000000000000e+00 0.000000000000e+00 7.900000000000e-01 0.000000000000e+00 1.000000000000e+00 
0.000000000000e+00 0.000000000000e+00 7.950000000000e-01 0.000000000000e+00 1.000000000000e+00 
0.000000000000e+00 0.000000000000e+00 8.000000000000e-01 0.000000000000e+00 1.000000000000e+00 
0.000000000000e+00 0.000000000000e+00 8.050000000000e-01 0.000000000000e+00 1.000000000000e+00 
0.000000000000e+00 0.000000000000e+00 8.100000000000e-01 0.000000000000e+00 1.000000000000e+00 
0.000000000000e+00 0.000000000000e+00 8.150000000000e-01 0.000000000000e+00 1.000000000000e+00 
0.000000000000e+00 0.000000000000e+00 8.200000000000e-01 0.000000000000e+00 1.000000000000e+00 
0.000000000000e+00 0.000000000000e+00 8.250000000000e-01 0.000000000000e+00 1.000000000000e+00 
0.000000000000e+00 0.000000000000e+00 8.300000000000e-01 0.000000000000e+00 1.000000000000e+00 
0.000000000000e+00 0.000000000000e+00 8.350000000000e-01 0.000000000000e+00 1.000000000000e+00 
0.000000000000e+00 0.000000000000e+00 8.400000000000e-01 0.000000000000e+00 1.000000000000e+00 
0.000000000000e+00 0.000000000000e+00 8.450000000000e-01 0.000000000000e+00 1.000000000000e+00 
0.000000000000e+00 0.000000000000e+00 8.500000000000e-01 0.000000000000e+00 1.000000000000e+00 
0.000000000000e+00 0.000000000000e+00 8.550000000000e-01 0.000000000000e+00 1.000000000000e+00 
0.000000000000e+00 0.000000000000e+00 8.600000000000e-01 0.000000000000e+00 1.000000000000e+00 
0.000000000000e+00 0.000000000000e+00 8.650000000000e-01 0.000000000000e+00 1.000000000000e+00 
0.000000000000e+00 0.000000000000e+00 8.700000000000e-01 0.000000000000e+00 1.000000000000e+00 
0.000000000000e+00 0.000000000000e+00 8.750000000000e-01 0.000000000000e+00 1.000000000000e+00 
0.000000000000e+00 0.000000000000e+00 8.800000000000e-01 0.000000000000e+00 1.000000000000e+00 
0.000000000000e+00 0.000000000000e+00 8.850000000000e-01 0.000000000000e+00 1.000000000000e+00 
0.000000000000e+00 0.000000000000e+00 8.900000000000e-01 0.000000000000e+00 1.000000000000e+00 
0.000000000000e+00 0.000000000000e+00 8.950000000000e-01 0.000000000000e+00 1.000000000000e+00 
0.000000000000e+00 0.000000000000e+00 9.000000000000e-01 0.000000000000e+00 1.000000000000e+00 
0.000000000000e+00 0.000000000000e+00 9.050000000000e-01 0.000000000000e+00 1.000000000000e+00 
0.000000000000e+00 0.000000000000e+00 9.100000000000e-01 0.000000000000e+00 1.000000000000e+00 
0.000000000000e+00 0.000000000000e+00 9.150000000000e-01 0.000000000000e+00 1.000000000000e+00 
0.000000000000e+00 0.000000000000e+00 9.200000000000e-01 0.000000000000e+00 1.000000000000e+00 
0.000000000000e+00 0.000000000000e+00 9.250000000000e-01 0.000000000000e+00 1.000000000000e+00 
0.000000000000e+00 0.000000000000e+00 9.300000000000e-01 0.000000000000e+00 1.000000000000e+00 
0.000000000000e+00 0.000000000000e+00 9.350000000000e-01 0.000000000000e+00 1.000000000000e+00 
0.000000000000e+00 0.000000000000e+00 9.400000000000e-01 0.000000000000e+00 1.000000000000e+00 
0.000000000000e+00 0.000000000000e+00 9.450000000000e-01 0.000000000000e+00 1.000000000000e+00 
0.000000000000e+00 0.000000000000e+00 9.500000000000e-01 0.000000000000e+00 1.000000000000e+00 
0.000000000000e+00 0.000000000000e+00 9.550000000000e-01 0.000000000000e+00 1.000000000000e+00 
0.000000000000e+00 0.000000000000e+00 9.600000000000e-01 0.000000000000e+00 1.000000000000e+00 
0.000000000000e+00 0.000000000000e+00 9.650000000000e-01 0.000000000000e+00 1.000000000000e+00 
0.000000000000e+00 0.000000000000e+00 9.700000000000e-01 0.000000000000e+00 1.000000000000e+00 
0.000000000000e+00 0.000000000000e+00 9.750000000000e-01 0.000000000000e+00 1.000000000000e+00 
0.000000000000e+00 0.000000000000e+00 9.800000000000e-01 0.000000000000e+00 1.000000000000e+00 
0.000000000000e+00 0.000000000000e+00 9.850000000000e-01 0.000000000000e+00 1.000000000000e+00 
0.000000000000e+00 0.000000000000e+00 9.900000000000e-01 0.000000000000e+00 1.000000000000e+00 
0.000000000000e+00 0.000000000000e+00 9.950000000000e-01 0.000000000000e+00 1.000000000000e+00 
0.000000000000e+00 0.000000000000e+00 1.000000000000e+00 0.000000000000e+00 1.000000000000e+00 
1  2  2  1
2  3  3  2
3  4  4  3
4  5  5  4
5  6  6  5
6  7  7  6
7  8  8  7
8  9  9  8
9  10  10  9
10  11  11  10
11  12  12  11
12  13  13  12
13  14  14  13
14  15  15  14
15  16  16  15
16  17  17  16
17  18  18  17
18  19  19  18
19  20  20  19
20  21  21  20
21  22  22  21
22  23  23  22
23  24  24  23
24  25  25  24
25  26  26  25
26  27  27  26
27  28  28  27
28  29  29  28
29  30  30  29
30  31  31  30
31  32  32  31
32  33  33  32
33  34  34  33
34  35  35  34
35  36  36  35
36  37  37  36
37  38  38  37
38  39  39  38
39  40  40  39
40  41  41  40
41  42  42  41
42  43  43  42
43  44  44  43
44  45  45  44
45  46  46  45
46  47  47  46
47  48  48  47
48  49  49  48
49  50  50  49
50  51  51  50
51  52  52  51
52  53  53  52
53  54  54  53
54  55  55  54
55  56  56  55
56  57  57  56
57  58  58  57
58  59  59  58
59  60  60  59
60  61  61  60
61  62  62  61
62  63  63  62
63  64  64  63
64  65  65  64
65  66  66  65
66  67  67  66
67  68  68  67
68  69  69  68
69  70  70  69
70  71  71  70
71  72  72  71
72  73  73  72
73  74  74  73
74  75  75  74
75  76  76  75
76  77  77  76
77  78  78  77
78  79  79  78
79  80  80  79
80  81  81  80
81  82  82  81
82  83  83  82
83  84  84  83
84  85  85  84
85  86  86  85
86  87  87  86
87  88  88  87
88  89  89  88
89  90  90  89
90  91  91  90
91  92  92  91
92  93  93  92
93  94  94  93
94  95  95  94
95  96  96  95
96  97  97  96
97  98  98  97
98  99  99  98
99  100  100  99
100  101  101  100
101  102  102  101
102  103  103  102
103  104  104  103
104  105  105  104
105  106  106  105
106  107  107  106
107  108  108  107
108  109  109  108
109  110  110  109
110  111  111  110
111  112  112  111
112  113  113  112
113  114  114  113
114  115  115  114
115  116  116  115
116  117  117  116
117  118  118  117
118  119  119  118
119  120  120  119
120  121  121  120
121  122  122  121
122  123  123  122
123  124  124  123
124  125  125  124
125  126  126  125
126  127  127  126
127  128  128  127
128  129  129  128
129  130  130  129
130  131  131  130
131  132  132  131
132  133  133  132
133  134  134  133
134  135  135  134
135  136  136  135
136  137  137  136
137  138  138  137
138  139  139  138
139  140  140  139
140  141  141  140
141  142  142  141
142  143  143  142
143  144  144  143
144  145  145  144
145  146  146  145
146  147  147  146
147  148  148  147
148  149  149  148
149  150  150  149
150  151  151  150
151  152  152  151
152  153  153  152
153  154  154  153
154  155  155  154
155  156  156  155
156  157  157  156
157  158  158  157
158  159  159  158
159  160  160  159
160  161  161  160
161  162  162  161
162  163  163  162
163  164  164  163
164  165  165  164
165  166  166  165
166  167  167  166
167  168  168  167
168  169  169  168
169  170  170  169
170  171  171  170
171  172  172  171
172  173  173  172
173  174  174  173
174  175  175  174
175  176  176  175
176  177  177  176
177  178  178  177
178  179  179  178
179  180  180  179
180  181  181  180
181  182  182  181
182  183  183  182
183  184  184  183
184  185  185  184
185  186  186  185
186  187  187  186
187  188  188  187
188  189  189  188
189  190  190  189
190  191  191  190
191  192  192  191
192  193  193  192
193  194  194  193
194  195  195  194
195  196  196  195
196  197  197  196
197  198  198  197
198  199  199  198
199  200  200  199
200  201  201  200
VARIABLES  = "X","Y","Z", "PRESSURE1", "SATURATION1"
ZONE T="1.800000000000e+02s", N=201, E=200, F=FEPOINT, ET=QUADRILATERAL
STRANDID=1, SOLUTIONTIME=1.800000000000e+02
0.000000000000e+00 0.000000000000e+00 0.000000000000e+00 0.000000000000e+00 9.999924705751e-01 
0.000000000000e+00 0.000000000000e+00 5.000000000000e-03 -3.071669367162e+00 9.999884798025e-01 
0.000000000000e+00 0.000000000000e+00 1.000000000000e-02 -6.144356240840e+00 9.999804947505e-01 
0.000000000000e+00 0.000000000000e+00 1.500000000000e-02 -9.219843649613e+00 9.999725003688e-01 
0.000000000000e+00 0.000000000000e+00 2.000000000000e-02 -1.229991469410e+01 9.999644920249e-01 
0.000000000000e+00 0.000000000000e+00 2.500000000000e-02 -1.538635296967e+01 9.999564650848e-01 
0.000000000000e+00 0.000000000000e+00 3.000000000000e-02 -1.848094298853e+01 9.999484149114e-01 
0.000000000000e+00 0.000000000000e+00 3.500000000000e-02 -2.158547060085e+01 9.999403368635e-01 
0.000000000000e+00 0.000000000000e+00 4.000000000000e-02 -2.470172341489e+01 9.999322262952e-01 
0.000000000000e+00 0.000000000000e+00 4.500000000000e-02 -2.783149121568e+01 9.999240785542e-01 
0.000000000000e+00 0.000000000000e+00 5.000000000000e-02 -3.097656638222e+01 9.999158889810e-01 
0.000000000000e+00 0.000000000000e+00 5.500000000000e-02 -3.413874430288e+01 9.999076529081e-01 
0.000000000000e+00 0.000000000000e+00 6.000000000000e-02 -3.731982378878e+01 9.998993656582e-01 
0.000000000000e+00 0.000000000000e+00 6.500000000000e-02 -4.052160748497e+01 9.998910225438e-01 
0.000000000000e+00 0.000000000000e+00 7.000000000000e-02 -4.374590227917e+01 9.998826188661e-01 
0.000000000000e+00 0.000000000000e+00 7.500000000000e-02 -4.699451970784e+01 9.998741499133e-01 
0.000000000000e+00 0.000000000000e+00 8.000000000000e-02 -5.026927635933e+01 9.998656109604e-01 
0.000000000000e+00 0.000000000000e+00 8.500000000000e-02 -5.357199427402e+01 9.998569972676e-01 
0.000000000000e+00 0.000000000000e+00 9.000000000000e-02 -5.690450134100e+01 9.998483040795e-01 
0.000000000000e+00 0.000000000000e+00 9.500000000000e-02 -6.026863169137e+01 9.998395266241e-01 
0.000000000000e+00 0.000000000000e+00 1.000000000000e-01 -6.366622608761e+01 9.998306601116e-01 
0.000000000000e+00 0.000000000000e+00 1.050000000000e-01 -6.709913230915e+01 9.998216997336e-01 
0.000000000000e+00 0.000000000000e+00 1.100000000000e-01 -7.056920553357e+01 9.998126406622e-01 
0.000000000000e+00 0.000000000000e+00 1.150000000000e-01 -7.407830871353e+01 9.998034780486e-01 
0.000000000000e+00 0.000000000000e+00 1.200000000000e-01 -7.762831294898e+01 9.997942070225e-01 
0.000000000000e+00 0.000000000000e+00 1.250000000000e-01 -8.122109785459e+01 9.997848226912e-01 
0.000000000000e+00 0.000000000000e+00 1.300000000000e-01 -8.485855192206e+01 9.997753201384e-01 
0.000000000000e+00 0.000000000000e+00 1.350000000000e-01 -8.854257287721e+01 9.997656944234e-01 
0.000000000000e+00 0.000000000000e+00 1.400000000000e-01 -9.227506803156e+01 9.997559405804e-01 
0.000000000000e+00 0.000000000000e+00 1.450000000000e-01 -9.605795462819e+01 9.997460536170e-01 
0.000000000000e+00 0.000000000000e+00 1.500000000000e-01 -9.989316018172e+01 9.997360285142e-01 
0.000000000000e+00 0.000000000000e+00 1.550000000000e-01 -1.037826228121e+02 9.997258602249e-01 
0.000000000000e+00 0.000000000000e+00 1.600000000000e-01 -1.077282915723e+02 9.997155436730e-01 
0.000000000000e+00 0.000000000000e+00 1.650000000000e-01 -1.117321267689e+02 9.997050737531e-01 
0.000000000000e+00 0.000000000000e+00 1.700000000000e-01 -1.157961002765e+02 9.996944453293e-01 
0.000000000000e+00 0.000000000000e+00 1.750000000000e-01 -1.199221958452e+02 9.996836532345e-01 
0.000000000000e+00 0.000000000000e+00 1.800000000000e-01 -1.241124094002e+02 9.996726922696e-01 
0.000000000000e+00 0.000000000000e+00 1.850000000000e-01 -1.283687493345e+02 9.996615572029e-01 
0.000000000000e+00 0.000000000000e+00 1.900000000000e-01 -1.326932367944e+02 9.996502427691e-01 
0.000000000000e+00 0.000000000000e+00 1.950000000000e-01 -1.370879059563e+02 9.996387436689e-01 
0.000000000000e+00 0.000000000000e+00 2.000000000000e-01 -1.415548042963e+02 9.996270545681e-01 
0.000000000000e+00 0.000000000000e+00 2.050000000000e-01 -1.460959928510e+02 9.996151700968e-01 
0.000000000000e+00 0.000000000000e+00 2.100000000000e-01 -1.507135464707e+02 9.996030848492e-01 
0.000000000000e+00 0.000000000000e+00 2.150000000000e-01 -1.554095540627e+02 9.995907933827e-01 
0.000000000000e+00 0.000000000000e+00 2.200000000000e-01 -1.601861188272e+02 9.995782902170e-01 
0.000000000000e+00 0.000000000000e+00 2.250000000000e-01 -1.650453584835e+02 9.995655698343e-01 
0.000000000000e+00 0.000000000000e+00 2.300000000000e-01 -1.699894054868e+02 9.995526266778e-01 
0.000000000000e+00 0.000000000000e+00 2.350000000000e-01 -1.750204072362e+02 9.995394551521e-01 
0.000000000000e+00 0.000000000000e+00 2.400000000000e-01 -1.801405262726e+02 9.995260496220e-01 
0.000000000000e+00 0.000000000000e+00 2.450000000000e-01 -1.853519404672e+02 9.995124044122e-01 
0.000000000000e+00 0.000000000000e+00 2.500000000000e-01 -1.906568431999e+02 9.994985138071e-01 
0.000000000000e+00 0.000000000000e+00 2.550000000000e-01 -1.960574435276e+02 9.994843720502e-01 
0.000000000000e+00 0.000000000000e+00 2.600000000000e-01 -2.015559663421e+02 9.994699733435e-01 
0.000000000000e+00 0.000000000000e+00 2.650000000000e-01 -2.071546525174e+02 9.994553118476e-01 
0.000000000000e+00 0.000000000000e+00 2.700000000000e-01 -2.128557590467e+02 9.994403816809e-01 
0.000000000000e+00 0.000000000000e+00 2.750000000000e-01 -2.186615591682e+02 9.994251769195e-01 
0.000000000000e+00 0.000000000000e+00 2.800000000000e-01 -2.245743424801e+02 9.994096915969e-01 
0.000000000000e+00 0.000000000000e+00 2.850000000000e-01 -2.305964150441e+02 9.993939197036e-01 
0.000000000000e+00 0.000000000000e+00 2.900000000000e-01 -2.367300994779e+02 9.993778551874e-01 
0.000000000000e+00 0.000000000000e+00 2.950000000000e-01 -2.429777350357e+02 9.993614919523e-01 
0.000000000000e+00 0.000000000000e+00 3.000000000000e-01 -2.493416776778e+02 9.993448238592e-01 
0.000000000000e+00 0.000000000000e+00 3.050000000000e-01 -2.558243001274e+02 9.993278447252e-01 
0.000000000000e+00 0.000000000000e+00 3.100000000000e-01 -2.624279919162e+02 9.993105483238e-01 
0.000000000000e+00 0.000000000000e+00 3.150000000000e-01 -2.691551594175e+02 9.992929283847e-01 
0.000000000000e+00 0.000000000000e+00 3.200000000000e-01 -2.760082258666e+02 9.992749785938e-01 
0.000000000000e+00 0.000000000000e+00 3.250000000000e-01 -2.829896313700e+02 9.992566925932e-01 
0.000000000000e+00 0.000000000000e+00 3.300000000000e-01 -2.901018329005e+02 9.992380639811e-01 
0.000000000000e+00 0.000000000000e+00 3.350000000000e-01 -2.973473042810e+02 9.992190863122e-01 
0.000000000000e+00 0.000000000000e+00 3.400000000000e-01 -3.047285361543e+02 9.991997530973e-01 
0.000000000000e+00 0.000000000000e+00 3.450000000000e-01 -3.122480359409e+02 9.991800578038e-01 
0.000000000000e+00 0.000000000000e+00 3.500000000000e-01 -3.199083277828e+02 9.991599938558e-01 
0.000000000000e+00 0.000000000000e+00 3.550000000000e-01 -3.277119524755e+02 9.991395546341e-01 