# vtk DataFile Version 3.0
Unstructured Grid from OpenGeoSys-GEM
ASCII
DATASET UNSTRUCTURED_GRID
FIELD TimesAndCycles 2
TIME 1 1 double
11.4359
CYCLE 1 1 long
8
POINTS 1915 double
0 0 -0.00125 
0 0 -0.00375 
0 0 -0.00625 
0 0 -0.00875 
0 0 -0.01125 
0 0 -0.01375 
0 0 -0.01625 
0 0 -0.01875 
0 0 -0.02125 
0 0 -0.005 
0 0 -0.0025 
0 0 -0.0225 
0 0 -0.0175 
0 0 -0.0125 
0 0 -0.0075 
0 0 0 
0 0 -0.02 
0 0 -0.015 
0 0 -0.01 
0 0 0.005 
0.005 0 0.005 
0.01 0 0.005 
0.015 0 0.005 
0.02 0 0.005 
0.025 0 0.005 
0.005 0 0 
0.01 0 0 
0.015 0 0 
0.02 0 0 
0.025 0 0 
0.0025 0 0.005 
0.005 0 0.0025 
0.0025 0 0 
0 0 0.0025 
0.0025 0 0.0025 
0.0075 0 0.005 
0.01 0 0.0025 
0.0075 0 0 
0.0075 0 0.0025 
0.0125 0 0.005 
0.015 0 0.0025 
0.0125 0 0 
0.0125 0 0.0025 
0.0175 0 0.005 
0.02 0 0.0025 
0.0175 0 0 
0.0175 0 0.0025 
0.0225 0 0.005 
0.025 0 0.0025 
0.0225 0 0 
0.0225 0 0.0025 
0.00125 0 0.005 
0.0025 0 0.00375 
0.00125 0 0.0025 
0 0 0.00375 
0.00125 0 0.00375 
0.00375 0 0.005 
0.005 0 0.00375 
0.00375 0 0.0025 
0.00375 0 0.00375 
0.005 0 0.00125 
0.00375 0 0 
0.0025 0 0.00125 
0.00375 0 0.00125 
0.00125 0 0 
0 0 0.00125 
0.00125 0 0.00125 
0.00625 0 0.005 
0.0075 0 0.00375 
0.00625 0 0.0025 
0.00625 0 0.00375 
0.00875 0 0.005 
0.01 0 0.00375 
0.00875 0 0.0025 
0.00875 0 0.00375 
0.01 0 0.00125 
0.00875 0 0 
0.0075 0 0.00125 
0.00875 0 0.00125 
0.00625 0 0 
0.00625 0 0.00125 
0.01125 0 0.005 
0.0125 0 0.00375 
0.01125 0 0.0025 
0.01125 0 0.00375 
0.01375 0 0.005 
0.015 0 0.00375 
0.01375 0 0.0025 
0.01375 0 0.00375 
0.015 0 0.00125 
0.01375 0 0 
0.0125 0 0.00125 
0.01375 0 0.00125 
0.01125 0 0 
0.01125 0 0.00125 
0.01625 0 0.005 
0.0175 0 0.00375 
0.01625 0 0.0025 
0.01625 0 0.00375 
0.01875 0 0.005 
0.02 0 0.00375 
0.01875 0 0.0025 
0.01875 0 0.00375 
0.02 0 0.00125 
0.01875 0 0 
0.0175 0 0.00125 
0.01875 0 0.00125 
0.01625 0 0 
0.01625 0 0.00125 
0.02125 0 0.005 
0.0225 0 0.00375 
0.02125 0 0.0025 
0.02125 0 0.00375 
0.02375 0 0.005 
0.025 0 0.00375 
0.02375 0 0.0025 
0.02375 0 0.00375 
0.025 0 0.00125 
0.02375 0 0 
0.0225 0 0.00125 
0.02375 0 0.00125 
0.02125 0 0 
0.02125 0 0.00125 
0.005 0 -0.005 
0.01 0 -0.005 
0.015 0 -0.005 
0.02 0 -0.005 
0.025 0 -0.005 
0.005 0 -0.01 
0.01 0 -0.01 
0.015 0 -0.01 
0.02 0 -0.01 
0.025 0 -0.01 
0.005 0 -0.015 
0.01 0 -0.015 
0.015 0 -0.015 
0.02 0 -0.015 
0.025 0 -0.015 
0.005 0 -0.02 
0.01 0 -0.02 
0.015 0 -0.02 
0.02 0 -0.02 
0.025 0 -0.02 
0.005 0 -0.0025 
0.0025 0 -0.005 
0.0025 0 -0.0025 
0.01 0 -0.0025 
0.0075 0 -0.005 
0.0075 0 -0.0025 
0.015 0 -0.0025 
0.0125 0 -0.005 
0.0125 0 -0.0025 
0.02 0 -0.0025 
0.0175 0 -0.005 
0.0175 0 -0.0025 
0.025 0 -0.0025 
0.0225 0 -0.005 
0.0225 0 -0.0025 
0.005 0 -0.0075 
0.0025 0 -0.01 
0.0025 0 -0.0075 
0.01 0 -0.0075 
0.0075 0 -0.01 
0.0075 0 -0.0075 
0.015 0 -0.0075 
0.0125 0 -0.01 
0.0125 0 -0.0075 
0.02 0 -0.0075 
0.0175 0 -0.01 
0.0175 0 -0.0075 
0.025 0 -0.0075 
0.0225 0 -0.01 
0.0225 0 -0.0075 
0.005 0 -0.0125 
0.0025 0 -0.015 
0.0025 0 -0.0125 
0.01 0 -0.0125 
0.0075 0 -0.015 
0.0075 0 -0.0125 
0.015 0 -0.0125 
0.0125 0 -0.015 
0.0125 0 -0.0125 
0.02 0 -0.0125 
0.0175 0 -0.015 
0.0175 0 -0.0125 
0.025 0 -0.0125 
0.0225 0 -0.015 
0.0225 0 -0.0125 
0.005 0 -0.0175 
0.0025 0 -0.02 
0.0025 0 -0.0175 
0.01 0 -0.0175 
0.0075 0 -0.02 
0.0075 0 -0.0175 
0.015 0 -0.0175 
0.0125 0 -0.02 
0.0125 0 -0.0175 
0.02 0 -0.0175 
0.0175 0 -0.02 
0.0175 0 -0.0175 
0.025 0 -0.0175 
0.0225 0 -0.02 
0.0225 0 -0.0175 
0.0025 0 -0.0225 
0.0025 0 -0.00125 
0.00125 0 -0.0025 
0.00125 0 -0.00125 
0.005 0 -0.00125 
0.00375 0 -0.0025 
0.00375 0 -0.00125 
0.005 0 -0.00375 
0.00375 0 -0.005 
0.0025 0 -0.00375 
0.00375 0 -0.00375 
0.00125 0 -0.005 
0.00125 0 -0.00375 
0.0075 0 -0.00125 
0.00625 0 -0.0025 
0.00625 0 -0.00125 
0.01 0 -0.00125 
0.00875 0 -0.0025 
0.00875 0 -0.00125 
0.01 0 -0.00375 
0.00875 0 -0.005 
0.0075 0 -0.00375 
0.00875 0 -0.00375 
0.00625 0 -0.005 
0.00625 0 -0.00375 
0.0125 0 -0.00125 
0.01125 0 -0.0025 
0.01125 0 -0.00125 
0.015 0 -0.00125 
0.01375 0 -0.0025 
0.01375 0 -0.00125 
0.015 0 -0.00375 
0.01375 0 -0.005 
0.0125 0 -0.00375 
0.01375 0 -0.00375 
0.01125 0 -0.005 
0.01125 0 -0.00375 
0.0175 0 -0.00125 
0.01625 0 -0.0025 
0.01625 0 -0.00125 
0.02 0 -0.00125 
0.01875 0 -0.0025 
0.01875 0 -0.00125 
0.02 0 -0.00375 
0.01875 0 -0.005 
0.0175 0 -0.00375 
0.01875 0 -0.00375 
0.01625 0 -0.005 
0.01625 0 -0.00375 
0.0225 0 -0.00125 
0.02125 0 -0.0025 
0.02125 0 -0.00125 
0.025 0 -0.00125 
0.02375 0 -0.0025 
0.02375 0 -0.00125 
0.025 0 -0.00375 
0.02375 0 -0.005 
0.0225 0 -0.00375 
0.02375 0 -0.00375 
0.02125 0 -0.005 
0.02125 0 -0.00375 
0.0025 0 -0.00625 
0.00125 0 -0.0075 
0.00125 0 -0.00625 
0.005 0 -0.00625 
0.00375 0 -0.0075 
0.00375 0 -0.00625 
0.005 0 -0.00875 
0.00375 0 -0.01 
0.0025 0 -0.00875 
0.00375 0 -0.00875 
0.00125 0 -0.01 
0.00125 0 -0.00875 
0.0075 0 -0.00625 
0.00625 0 -0.0075 
0.00625 0 -0.00625 
0.01 0 -0.00625 
0.00875 0 -0.0075 
0.00875 0 -0.00625 
0.01 0 -0.00875 
0.00875 0 -0.01 
0.0075 0 -0.00875 
0.00875 0 -0.00875 
0.00625 0 -0.01 
0.00625 0 -0.00875 
0.0125 0 -0.00625 
0.01125 0 -0.0075 
0.01125 0 -0.00625 
0.015 0 -0.00625 
0.01375 0 -0.0075 
0.01375 0 -0.00625 
0.015 0 -0.00875 
0.01375 0 -0.01 
0.0125 0 -0.00875 
0.01375 0 -0.00875 
0.01125 0 -0.01 
0.01125 0 -0.00875 
0.0175 0 -0.00625 
0.01625 0 -0.0075 
0.01625 0 -0.00625 
0.02 0 -0.00625 
0.01875 0 -0.0075 
0.01875 0 -0.00625 
0.02 0 -0.00875 
0.01875 0 -0.01 
0.0175 0 -0.00875 
0.01875 0 -0.00875 
0.01625 0 -0.01 
0.01625 0 -0.00875 
0.0225 0 -0.00625 
0.02125 0 -0.0075 
0.02125 0 -0.00625 
0.025 0 -0.00625 
0.02375 0 -0.0075 
0.02375 0 -0.00625 
0.025 0 -0.00875 
0.02375 0 -0.01 
0.0225 0 -0.00875 
0.02375 0 -0.00875 
0.02125 0 -0.01 
0.02125 0 -0.00875 
0.0025 0 -0.01125 
0.00125 0 -0.0125 
0.00125 0 -0.01125 
0.005 0 -0.01125 
0.00375 0 -0.0125 
0.00375 0 -0.01125 
0.005 0 -0.01375 
0.00375 0 -0.015 
0.0025 0 -0.01375 
0.00375 0 -0.01375 
0.00125 0 -0.015 
0.00125 0 -0.01375 
0.0075 0 -0.01125 
0.00625 0 -0.0125 
0.00625 0 -0.01125 
0.01 0 -0.01125 
0.00875 0 -0.0125 
0.00875 0 -0.01125 
0.01 0 -0.01375 
0.00875 0 -0.015 
0.0075 0 -0.01375 
0.00875 0 -0.01375 
0.00625 0 -0.015 
0.00625 0 -0.01375 
0.0125 0 -0.01125 
0.01125 0 -0.0125 
0.01125 0 -0.01125 
0.015 0 -0.01125 
0.01375 0 -0.0125 
0.01375 0 -0.01125 
0.015 0 -0.01375 
0.01375 0 -0.015 
0.0125 0 -0.01375 
0.01375 0 -0.01375 
0.01125 0 -0.015 
0.01125 0 -0.01375 
0.0175 0 -0.01125 
0.01625 0 -0.0125 
0.01625 0 -0.01125 
0.02 0 -0.01125 
0.01875 0 -0.0125 
0.01875 0 -0.01125 
0.02 0 -0.01375 
0.01875 0 -0.015 
0.0175 0 -0.01375 
0.01875 0 -0.01375 
0.01625 0 -0.015 
0.01625 0 -0.01375 
0.0225 0 -0.01125 
0.02125 0 -0.0125 
0.02125 0 -0.01125 
0.025 0 -0.01125 
0.02375 0 -0.0125 
0.02375 0 -0.01125 
0.025 0 -0.01375 
0.02375 0 -0.015 
0.0225 0 -0.01375 
0.02375 0 -0.01375 
0.02125 0 -0.015 
0.02125 0 -0.01375 
0.0025 0 -0.01625 
0.00125 0 -0.0175 
0.00125 0 -0.01625 
0.005 0 -0.01625 
0.00375 0 -0.0175 
0.00375 0 -0.01625 
0.005 0 -0.01875 
0.00375 0 -0.02 
0.0025 0 -0.01875 
0.00375 0 -0.01875 
0.00125 0 -0.02 
0.00125 0 -0.01875 
0.0075 0 -0.01625 
0.00625 0 -0.0175 
0.00625 0 -0.01625 
0.01 0 -0.01625 
0.00875 0 -0.0175 
0.00875 0 -0.01625 
0.01 0 -0.01875 
0.00875 0 -0.02 
0.0075 0 -0.01875 
0.00875 0 -0.01875 
0.00625 0 -0.02 
0.00625 0 -0.01875 
0.0125 0 -0.01625 
0.01125 0 -0.0175 
0.01125 0 -0.01625 
0.015 0 -0.01625 
0.01375 0 -0.0175 
0.01375 0 -0.01625 
0.015 0 -0.01875 
0.01375 0 -0.02 
0.0125 0 -0.01875 
0.01375 0 -0.01875 
0.01125 0 -0.02 
0.01125 0 -0.01875 
0.0175 0 -0.01625 
0.01625 0 -0.0175 
0.01625 0 -0.01625 
0.02 0 -0.01625 
0.01875 0 -0.0175 
0.01875 0 -0.01625 
0.02 0 -0.01875 
0.01875 0 -0.02 
0.0175 0 -0.01875 
0.01875 0 -0.01875 
0.01625 0 -0.02 
0.01625 0 -0.01875 
0.0225 0 -0.01625 
0.02125 0 -0.0175 
0.02125 0 -0.01625 
0.025 0 -0.01625 
0.02375 0 -0.0175 
0.02375 0 -0.01625 
0.025 0 -0.01875 
0.02375 0 -0.02 
0.0225 0 -0.01875 
0.02375 0 -0.01875 
0.02125 0 -0.02 
0.02125 0 -0.01875 
0.0025 0 -0.02125 
0.00125 0 -0.0225 
0.00125 0 -0.02125 
0.00375 0 -0.02125 
0 0 -0.02375 
0.00125 0 -0.02375 
0.005 0 -0.02125 
0.00625 0 -0.02125 
0.01 0 -0.02125 
0.00875 0 -0.02125 
0.01125 0 -0.02125 
0.015 0 -0.02125 
0.01375 0 -0.02125 
0.01625 0 -0.02125 
0.02 0 -0.02125 
0.01875 0 -0.02125 
0.02125 0 -0.02125 
0.025 0 -0.02125 
0.02375 0 -0.02125 
0.0075 0 -0.02125 
0.0125 0 -0.02125 
0.0175 0 -0.02125 
0.0225 0 -0.02125 
0.00375 0 -0.0225 
0.00375 0 -0.02375 
0.0025 0 -0.02375 
0.005 0 -0.0225 
0 0 -0.02625 
0 0 -0.02375 
0 0 -0.02875 
0 0 -0.03125 
0 0 -0.03375 
0 0 -0.03625 
0 0 -0.03875 
0 0 -0.04125 
0 0 -0.04375 
0 0 -0.04625 
0 0 -0.0425 
0 0 -0.0375 
0 0 -0.0325 
0 0 -0.0275 
0 0 -0.045 
0 0 -0.04 
0 0 -0.035 
0 0 -0.03 
0 0 -0.025 
0.005 0 -0.025 
0.01 0 -0.025 
0.015 0 -0.025 
0.02 0 -0.025 
0.025 0 -0.025 
0.005 0 -0.03 
0.01 0 -0.03 
0.015 0 -0.03 
0.02 0 -0.03 
0.025 0 -0.03 
0.005 0 -0.035 
0.01 0 -0.035 
0.015 0 -0.035 
0.02 0 -0.035 
0.025 0 -0.035 
0.005 0 -0.04 
0.01 0 -0.04 
0.015 0 -0.04 
0.02 0 -0.04 
0.025 0 -0.04 
0.005 0 -0.045 
0.01 0 -0.045 
0.015 0 -0.045 
0.02 0 -0.045 
0.025 0 -0.045 
0.005 0 -0.0225 
0.0025 0 -0.025 
0.01 0 -0.0225 
0.0075 0 -0.025 
0.0075 0 -0.0225 
0.015 0 -0.0225 
0.0125 0 -0.025 
0.0125 0 -0.0225 
0.02 0 -0.0225 
0.0175 0 -0.025 
0.0175 0 -0.0225 
0.025 0 -0.0225 
0.0225 0 -0.025 
0.0225 0 -0.0225 
0.005 0 -0.0275 
0.0025 0 -0.03 
0.0025 0 -0.0275 
0.01 0 -0.0275 
0.0075 0 -0.03 
0.0075 0 -0.0275 
0.015 0 -0.0275 
0.0125 0 -0.03 
0.0125 0 -0.0275 
0.02 0 -0.0275 
0.0175 0 -0.03 
0.0175 0 -0.0275 
0.025 0 -0.0275 
0.0225 0 -0.03 
0.0225 0 -0.0275 
0.005 0 -0.0325 
0.0025 0 -0.035 
0.0025 0 -0.0325 
0.01 0 -0.0325 
0.0075 0 -0.035 
0.0075 0 -0.0325 
0.015 0 -0.0325 
0.0125 0 -0.035 
0.0125 0 -0.0325 
0.02 0 -0.0325 
0.0175 0 -0.035 
0.0175 0 -0.0325 
0.025 0 -0.0325 
0.0225 0 -0.035 
0.0225 0 -0.0325 
0.005 0 -0.0375 
0.0025 0 -0.04 
0.0025 0 -0.0375 
0.01 0 -0.0375 
0.0075 0 -0.04 
0.0075 0 -0.0375 
0.015 0 -0.0375 
0.0125 0 -0.04 
[...]
POINT_DATA 1915
SCALARS 1-Al double 1
LOOKUP_TABLE default
0.00741399
0.00741393
0.00741393
0.00741393
0.00741393
0.00741393
0.00741393
0.00741393
0.00741393
0.00741393
0.00741395
0.00741393
0.00741393
0.00741393
0.00741393
0.00741403
0.00741393
0.00741393
0.00741393
9.99971e-08
9.99971e-08
9.99971e-08
9.99971e-08
9.99971e-08
9.99971e-08
0.00741409
0.00741409
0.00741409
0.00741409
0.00741409
9.99971e-08
4.39298e-08
0.00741409
7.755e-08
6.03984e-08
9.99971e-08
4.67227e-08
0.00741409
4.17833e-08
9.99971e-08
9.94288e-08
0.00741409
9.36851e-08
9.99971e-08
1.00306e-07
0.00741409
1.00159e-07
9.99971e-08
1.00364e-07
0.00741409
1.00328e-07
9.99971e-08
1.71519e-07
2.47471e-06
2.70852e-07
2.06562e-07
9.99971e-08
1.46358e-07
2.82215e-06
1.93116e-07
2.52056e-06
0.00741409
2.24751e-06
2.95055e-06
0.00741409
5.69793e-06
5.20714e-06
9.99971e-08
1.08833e-07
4.48767e-08
1.15772e-07
9.99971e-08
1.06523e-07
4.31753e-08
1.07399e-07
2.42606e-06
0.00741409
2.44026e-06
2.43667e-06
0.00741409
2.45784e-06
9.99971e-08
1.01144e-07
6.97371e-08
1.03666e-07
9.99971e-08
1.00238e-07
9.66972e-08
1.0055e-07
2.36797e-06
0.00741409
2.37869e-06
2.37097e-06
0.00741409
2.40232e-06
9.99971e-08
1.001e-07
9.98285e-08
1.0015e-07
9.99971e-08
1.00066e-07
1.00258e-07
1.00076e-07
2.36663e-06
0.00741409
2.36662e-06
2.36667e-06
0.00741409
2.36696e-06
9.99971e-08
1.0006e-07
1.00315e-07
1.00064e-07
9.99971e-08
1.00051e-07
1.00349e-07
1.00055e-07
2.3671e-06
0.00741398
2.36679e-06
2.36702e-06
0.00741409
2.36676e-06
0.00741409
0.00741623
0.00741409
0.00741409
0.00741409
0.00741409
0.00741409
0.00741409
0.00741409
0.00741409
0.00741409
0.00741409
0.00741409
0.00741409
0.00741409
0.00741409
0.00741409
0.00741421
0.00741409
0.00741418
0.00741409
0.00741409
0.00741409
0.00741032
0.00741409
0.00741409
0.00741409
0.00741409
0.00741438
0.00741409
0.00741409
0.00741409
0.00741409
0.00741409
0.00741409
0.00741409
0.00741409
0.00741409
0.00741409
0.0074139
0.00741409
0.00741409
0.00741409
0.00741409
0.00741409
0.00741409
0.00741409
0.00741409
0.00741409
0.00741409
0.00741409
0.00741409
0.00741409
0.00741409
0.00741409
0.00741409
0.00741409
0.00741409
0.00741409
0.00741409
0.00741409
0.00741409
0.00741409
0.00741409
0.00741409
0.00741409
0.00741409
0.00741409
0.00741409
0.0074141
0.00741409
0.00741409
0.00741409
0.00741409
0.00741409
0.00741409
0.00741409
0.00741408
0.00741408
0.00741409
0.00741409
0.00741409
0.00741409
0.00741409
0.00741409
0.00741409
0.00741087
0.00741409
0.00741409
0.00741409
0.00741409
0.00741409
0.00741409
0.00741409
0.00741409
0.00741409
0.00741409
0.00741409
0.00741409
0.00741409
0.00741409
0.00741409
0.00741409
0.00741409
0.00741409
0.00741409
0.00741409
0.00741409
0.00741409
0.00741409
0.00741408
0.00741409
0.00741409
0.00741409
0.00741409
0.00741409
0.00741409
0.00741409
0.00741409
0.00741409
0.00741409
0.00741409
0.00741409
0.00741409
0.00741409
0.00741409
0.00741409
0.00741409
0.00741409
0.00741409
0.00741409
0.00741409
0.00741409
0.00741409
0.00741409
0.00741409
0.00741409
0.00741409
0.00741409
0.00741409
0.00741409
0.00741409
0.00741409
0.00741409
0.00741397
0.00741409
0.00741409
0.00741409
0.00741409
0.00741409
0.00741409
0.00741409
0.00741409
0.00741409
0.00741409
0.00741409
0.00741409
0.00741409
0.00741409
0.00741409
0.00741409
0.00741409
0.00741409
0.00741409
0.00741409
0.00741409
0.00741409
0.00741409
0.00741409
0.00741409
0.00741409
0.00741409
0.00741409
0.00741409
0.00741409
0.00741409
0.00741409
0.00741409
0.00741409
0.00741409
0.00741409
0.00741409
0.00741409
0.00741409
0.00741409
0.00741409
0.00741409
0.00741408
0.00741409
0.00741409
0.00741409
0.00741409
0.00741409
0.00741409
0.00741409
0.00741409
0.00741409
0.00741409
0.00741408
0.00741409
0.00741409
0.00741409
0.00741409
0.00741409
0.00741409
0.00741409
0.00741409
0.00741409
0.00741409
0.00741409
0.00741409
0.00741409
0.00741409
0.00741409
0.00741409
0.00741409
0.00741409
0.00741409
0.00741409
0.00741409
0.00741226
0.00741409
0.00741409
0.0074146
0.00741412
0.00741409
0.00741409
0.00741409
0.00741409
0.00741409
0.00741409
0.00741409
0.00741409
0.00741409
0.00741295
0.00741409
0.00741409
0.00741409
0.00741409
0.00741409
0.00741409
0.00741409
0.00741409
0.00741409
0.00741409
0.00741409
0.00741409
0.00741409
0.00741409
0.00741409
0.00741475
0.00741409
0.00741409
0.00741409
0.00741409
0.00741409
0.00741409
0.00741409
0.00741409
0.00741412
0.00741409
0.00741409
0.00741409
0.00741409
0.00741409
0.00741409
0.00741409
0.00741409
0.00741409
0.00741409
0.00741409
0.00741409
0.00741409
0.00741409
0.00741409
0.00741409
0.00741409
0.00741409
0.00741409
0.00741409
0.00741409
0.00741409
0.00741409
0.00741409
0.00741409
0.00741409
0.00741409
0.00741409
0.00741409
0.00741409
0.00741409
0.00741409
0.00741409
0.00741409
0.00741409
0.00741409
0.00741409
0.00741409
0.00741409
0.00741409
0.00741409
0.00741538
0.00741409
0.00741409
0.00741409
0.00741409
0.00741409
0.00741409
0.00741409
0.00741409
0.00741409
0.00741409
0.00741409
0.00741409
0.00741443
0.00741409
0.00741409
0.0074152
0.00741409
0.00741409
0.00741409
0.00741409
0.00741409
0.00741409
0.00741409
0.00741393
0.00741409
0.00741409
0.00741409
0.00741409
0.00741409
0.00741409
0.00741409
0.00741223
0.00741595
0.00741409
0.00741409
0.00741409
0.00741409
0.00741409
0.00741409
0.00741409
0.00741409
0.00741409
0.00741409
0.00741409
0.00741409
0.00741409
0.00741393
0.00741393
0.00741393
0.00741393
0.00741393
0.00741393
0.00741393
0.00741393
0.00741393
0.00741393
0.00741393
0.00741393
0.00741393
0.00741393
0.00741393
0.00741393
0.00741393
0.00741393
0.00741393
0.00741409
0.00741409
0.00741409
0.00741409
0.00741409
0.00741409
0.00741409
0.00741409
0.00741409
0.00741409
0.00741409
0.00741409
0.00741409
0.00741409
0.00741409
0.00741601
0.00741409
0.00741409
0.00741409
0.00741409
0.00741409
0.00741409
0.00741409
0.00741409
0.00741409
0.00741409
0.00741409
0.00741409
0.00741409
0.00741409
0.00741409
0.00741409
0.00741409
0.00741409
0.00741409
0.00741409
0.00741409
0.00741409
0.00741408
0.00741066
0.00741409
0.00741409
0.00741409
0.00741409
0.00741409
0.00741409
0.00741409
0.00741409
0.00741409
0.00741409
0.00741409
0.00741408
0.00741409
0.00741409
0.00741409
0.00741433
0.00741148
0.00741409
0.00741409
0.00741409
0.00741409
0.00741409
0.00741409
0.00741409
0.00741409
0.00741409
0.00741409
0.00741409
0.00741409
0.00741409
0.00741409
0.00741409
0.00741409
0.00741409
0.00741409
0.00741409
0.00741409
0.00741409
0.00741409
0.00741409
0.00741411
0.00741409
0.00741409
0.00741409
0.00741409
0.00741762
0.00741409
0.00741064
0.00741409
0.00741409
0.00741409
0.00741409
0.00741409
0.00741409
0.00741409
0.00741409
0.00741409
0.00741409
0.00741409
0.00741409
0.00741409
0.00741409
0.00741409
0.00741409
0.00741409
0.00741409
0.00741409
0.00741409
0.00741409
0.00741409
0.00741409
0.00741409
0.00741409
0.00741409
0.00741409
0.00741409
0.00741409
0.00741409
0.00741409
0.00741409
0.00741409
0.00741409
0.00741409
0.00741409
0.00741223
0.00741409
0.00741409
0.00741409
0.00741409
0.00741409
0.00741409
0.00741409
0.00741409
0.00741595
0.00741409
0.00741409
0.00741409
0.00741409
0.00741409
0.00741409
0.00741409
0.00741409
0.00741409
0.00741409
0.00741409
0.00741409
0.00741409
0.00741409
0.00741409
0.00741409
0.00741409
0.00741409
0.00741409
0.00741543
0.00741409
0.0074127
0.00741409
0.00741409
0.00741409
0.00741409
0.00741409
0.00741349
0.00741409
0.00741409
0.00741409
0.00741409
0.00741409
0.00741409
0.00741409
0.00741409
0.00741409
0.00741409
0.00741409
0.00741408
0.00741409
0.00741409
0.00741409
0.00741409
0.00741409
0.00741409
0.00741409
0.00741409
0.00741409
0.00741409
0.00741409
0.00741409
0.00741409
0.00741409
0.00741409
0.00741409
0.00741409
0.00741409
0.00741409
0.00741409
0.00741421
0.00741409
0.00741409
0.00741409
0.00741409
0.00741409
0.00741409
0.00741409
0.00741409
0.00741409
0.00741409
0.00741409
0.00741409
0.00741409
0.00741409
0.00741409
0.00741409
0.00741409
0.00741409
0.00741409
0.00741409
0.00741409
0.00741409
0.00741409
0.00741409
0.00741361
0.00741409
0.00741409
0.00741408
0.00741409
0.00741409
0.00741409
0.00741409
0.00741409
0.00741409
0.00741409
0.00741409
0.00741409
0.00741409
0.00741409
0.00741409
0.00741395
0.00741409
0.00741409
0.00741409
0.00741409
0.00741409
0.00741409
0.00741409
0.00741409
0.00741409
0.00741409
0.00741409
0.00741409
0.00741409
0.00741409
0.00741409
0.00741409
0.00741409
0.00741409
0.00741409
0.00741409
0.00741409
0.00741409
0.00741409
0.00741409
0.00741409
0.00741409
0.00741409
0.00741409
0.00741409
0.00741409
0.00741409
0.00741409
0.00741409
0.00741408
0.00741409
0.00741409
0.00741409
0.00741425
0.0074141
0.00741409
0.00741409
0.00741409
0.00741409
0.00741409
0.00741409
0.00741409
0.00741409
0.00741409
0.00741409
0.00741409
0.00741409
0.00741409
0.00741409
0.00741409
0.00741409
0.00741409
0.00741409
0.00741409
0.00741409
0.00741409
0.00741409
0.00741409
0.00741409
0.00741409
0.00741409
0.00741409
0.00741409
0.00741409
0.00741409
0.00741409
0.00741409
0.00741409
0.00741409
0.00741409
0.00741409
0.00741409
0.00741345
0.00741409
0.00741409
0.00741409
0.00741409
0.00741409
0.00741409
0.00741409
0.00741409
0.00741409
0.00741409
0.00741409
0.00741409
0.00741409
0.00741408
0.00741409
0.00741409
0.00741409
0.00741409
0.00741409
0.00741409
0.00741409
0.00741409
0.00741409
0.00741409
0.0074136
0.00741409
0.00741409
0.00741409
0.00741409
0.00741409
0.00741409
0.00741409
0.00741409
0.00741409
0.00741409
0.00741409
0.00741484
0.00741409
0.00741409
0.00741409
0.00741409
0.00741409
0.00741409
0.00741409
0.00741409
0.00741409
0.00741409
0.00741409
0.00741409
0.00741409
0.00741409
0.00741409
0.00741409
0.00741409
0.00741408
0.00740672
0.00741409
0.00741751
0.00741409
0.00741409
0.00741409
0.00741409
0.00741409
0.00741409
0.00741409
0.00741409
0.00741409
0.00741409
0.00741409
0.00741409
0.00741409
0.00741409
0.00741409
0.00741409
0.00741409
0.00741409
0.00741408
0.00741409
0.00741409
0.00741409
0.00741409
0.00741409
0.00741409
0.00741409
0.00741409
0.00741409
0.00741409
0.00741409
0.00741409
0.00741409
0.00741409
0.00741409
0.00741409
0.00741409
0.00741409
0.00741409
0.00741409
0.00741409
0.00741409
0.00741409
0.00741409
0.00741409
0.00741393
0.00741409
0.00741393
0.00741409
0.00741409
0.00741409
0.00741409
0.00741409
0.00741409
0.00741409
0.0074141
0.00741409
0.00741409
0.00741409
0.00741409
0.00741409
0.00741421
0.00741409
0.00741409
0.00741409
0.00741409
0.00741409
0.00741408
0.00741409
0.00741418
0.00741409
0.00741409
0.00741409
0.00741409
0.00741409
0.00741409
0.00741409
0.00741409
0.00741409
0.00741409
0.00741409
0.00741409
0.00741409
0.00741409
0.00741409
0.00741409
0.00741409
0.00741409
0.00741409
0.00741393
0.00741393
0.00741393
0.00741409
0.00741409
0.00741409
0.00741409
0.00741409
0.00741409
0.00741409
0.00741409
0.00741409
0.00741409
0.00741409
0.00741409
0.00741409
0.00741409
0.00741409
0.00741409
0.00741361
0.00741409
0.00741409
0.00741409
0.00741409
0.00741409
0.00741409
0.00741409
0.00741409
0.00741409
0.00741409
0.00741409
0.00741409
0.00741409
0.00741409
0.00741409
0.00741409
0.00741409
0.00741409
0.00741409
0.00741409
0.00741409
0.00741409
0.00741409
0.00741409
0.00741409
0.00741409
0.00741409
0.00741409
0.00741409
0.00741409
0.00741409
0.00741409
0.00741409
0.00741409
0.00741409
0.00741409
0.00741405
0.00741409
0.00741409
0.00741409
0.00741409
0.00741409
0.00741409
0.00741409
0.00741409
0.00741409
0.00741409
0.00741409
0.00741409
0.00741409
0.00741409
0.00741409
0.00741409
0.00741563
0.00741409
0.00741409
0.00741409
0.00741409
0.00741409
0.00741409
0.00741409
0.00741409
0.00741409
0.00741409
0.00741409
0.00741409
0.00741409
0.00741409
0.00741409
0.00741409
0.00741409
0.00741409
0.00741409
0.00741409
0.00741409
0.00741409
0.00741409
0.00741409
0.00741409
0.00741409
0.00741409
0.00741409
0.00741409
0.00741409
0.00740908
0.00741409
0.00741347
0.00741409
0.00741409
0.00741409
0.00741409
0.00741409
0.00741409
0.00741409
0.00741409
0.00741409
0.00741409
0.00741409
0.00741409
0.00741409
0.00741409
0.00741409
0.00741409
0.00741409
0.00741409
0.00741409
0.00741409
0.00741409
0.00741409
0.00741409
0.00741409
0.00741409
0.00741409
0.00741886
0.00741409
0.00741404
0.00741409
0.00741408
0.00741409
0.00741409
0.00741409
0.00741409
0.00741409
0.00741409
0.00741409
0.00741409
0.00741409
0.00741409
0.00741409
0.00741409
0.00741409
0.00741409
0.00741409
0.00741409
0.00741409
0.00741409
0.00741409
0.00741409
0.00741409
0.00741409
0.00741409
0.00741409
0.00741409
0.0074194
0.00741409
0.00741409
0.0074136
0.00741409
0.00741409
0.00741409
0.00741401
0.00741409
0.00741409
0.00741409
0.00741409
0.00741409
0.00741409
0.00741409
0.00741409
0.00741409
0.00741409
0.00741409
0.00741409
0.00741409
0.00741409
0.00741409
0.00741409
0.00741409
0.00741409
0.00741409
0.00741409
0.00741409
0.00741409
0.00741409
0.00741409
0.00741409
0.00741409
0.00741409
0.00741409
0.00741409
0.00741409
0.00741409
0.00741409
0.00741409
0.00741409
0.00741409
0.00741409
0.00741409
0.00741409
0.00741409
0.00741409
0.00741409
0.00741409
0.00741409
0.00741409
0.00741409
0.00741409
0.00741409
0.00741409
0.00741409
0.00741409
0.00741409
0.00741409
0.00741409
0.00741409
0.00741409
0.00741409
0.00741409
0.00741409
0.00741409
0.00741409
0.00741409
0.00741409
0.00741409
0.00741409
0.00741409
0.00741409
0.00741409
0.00741409
0.00741409
0.00741409
0.00741409
0.00741409
0.00741409
0.00741409
0.00741409
0.00741409
0.00741409
0.00741409
0.00741409
0.00741409
0.00741409
0.00741409
0.00741409
0.00741409
0.00741409
0.00741409
0.00741409
0.00741409
0.00741409
0.00741409
0.00741409
0.00741409
0.00741409
0.00741409
0.00741409
0.00741409
0.00741409
0.00741409
0.00741409
0.00741409
0.00741409
0.00741409
0.00741409
0.00741409
0.00741406
0.00741409
0.00741409
0.00741409
0.00741409
0.00741409
0.00741409
0.00741409
0.00741409
0.00741409
0.00741409
0.00741409
0.00741409
0.00741409
0.00741409
0.00741409
0.00741409
0.00741409
0.00741409
0.00741409
0.00741409
0.00741409
0.00741409
0.00741409
0.00741409
0.00741409
0.00741409
0.00741409
0.00741409
0.00741409
0.00741409
0.0074175
0.00741409
0.00741409
0.00741409
0.00741409
0.00741409
0.00741409
0.00741407
0.00741409
0.00741409
0.00741409
0.00741409
0.00741409
0.00740896
0.00741409
0.00741409
0.00741409
0.00741409
0.00741409
0.00741409
0.00741409
0.00741409
0.00741409
0.00741409
0.00741409
0.00741409
0.00741409
0.00741409
0.00741409
0.00741409
0.00741409
0.00741409
0.00741409
0.00741409
0.00741408
0.00741409
0.00741409
0.00741409
0.00741409
0.00741409
0.00741409
0.00741409
0.00741409
0.00741409
0.00741409
0.00741409
0.00741409
0.00741409
0.00741409
0.00741409
0.00741409
0.00741409
0.00741409
0.00741409
0.00741409
0.00741409
0.00741409
0.00741409
0.00741409
0.00741409
0.00741409
0.00741409
0.00741409
0.00741409
0.00741409
0.00741409
0.00741409
0.00741409
0.00741389
0.00741409
0.00741409
0.00741409
0.00741409
0.00741409
0.00741409
0.00741409
0.00741409
0.00741409
0.00741409
0.00741409
0.00741409
0.00741409
0.00741403
0.00741409
0.00741409
0.00741409
0.00741409
0.00741409
0.00741409
0.00741409
0.00741409
0.00741409
0.00741409
0.00741409
0.00741409
0.00741409
0.00741409
0.00741409
0.00741409
0.00741409
0.00741409
0.00741409
0.00741409
0.00741409
0.00741409
0.00741409
0.00741409
0.00741409
0.00741409
0.00741409
0.00741396
0.00741409
0.00741409
0.00741409
0.00741409
0.00741409
0.00741409
0.00741409
0.00741409
0.00741409
0.00741409
0.00741409
0.00741409
0.00741409
0.00741409
0.00741409
0.00741409
0.00741409
0.00741409
0.00741409
0.00741409
0.00741409
0.00741409
0.00741409
0.00741409
0.00741393
0.00741409
0.00741409
0.00741409
0.00741409
0.00741409
0.00741409
0.00741409
0.00741409
0.00741409
0.00741409
0.00741409
0.00741409
0.00741409
0.00741409
0.00741409
0.00741409
0.00741409
0.00741409
0.00741409
0.00741409
0.00741409
0.00741409
0.00741225
0.00741409
0.00741408
0.00741409
0.00741409
0.00741409
0.00741409
0.00741409
0.00741409
0.00740946
0.00741409
0.00741409
0.00741409
0.00741409
0.00741409
0.00741409
0.00741409
0.00741409
0.00741409
0.00741409
0.00741409
0.00741409
0.00741409
0.00741409
0.00741409
0.00741409
0.00741409
0.00741409
0.00741409
0.00741409
0.00741409
0.00741409
0.00741409
0.00741409
0.00741409
0.00741409
0.00741409
0.00741409
0.00741409
0.00741409
0.00741409
0.00741409
0.00741409
0.00741409
0.00741409
0.00741409
0.00741409
0.00741409
0.00741409
0.00741409
0.00741409
0.00741409
0.00741409
0.00741409
0.00741409
0.00741409
0.00741409
0.00741409
0.00741409
0.00741409
0.00741409
0.00741409
0.00741409
0.00741409
0.00741409
0.00741409
0.00741409
0.00741409
0.00741409
0.00741409
0.00741409
0.00741409
0.00741409
0.00741409
0.00741409
0.00741409
0.00741409
0.00741409
0.00741409
0.00741409
0.00741409
0.00741409
0.00741409
0.00741409
0.00741409
0.00741409
0.00741409
0.00741409
0.00741409
0.00741409
0.00741409
0.00741409
0.00741409
0.00741409
0.00740743
0.00741409
0.00741409
0.00741409
0.00741409
0.00741409
0.00741409
0.00741409
0.00741409
0.00741409
0.00741409
0.00741409
0.00741409
0.00741409
0.00741409
0.00741409
0.00741409
0.00741409
0.00741409
0.00741438
0.00741409
0.00741409
0.00741409
0.00741409
0.00741409
0.00741409
0.00741409
0.00741409
0.00741409
0.00741409
0.00741409
0.00741409
0.00741409
0.00741409
0.00741398
0.00741409
0.00741409
0.00741409
0.00741409
0.00741409
0.00741409
0.00741409
0.00741409
0.00741409
0.00741409
0.00741409
0.00741409
0.00741409
0.00741409
0.00741409
0.00741409
0.00741408
0.00741409
0.00741409
0.00741409
0.00741409
0.00741409
0.00741409
0.00741225
0.00741409
0.00741409
0.00741409
0.00740946
0.00741409
0.00741409
0.00741409
0.00741409
0.00741409
0.00741409
0.00741409
0.00741409
0.00741409
0.00741409
0.00741409
0.00741409
0.00741409
0.00741409
0.00741409
0.00741409
0.00741409
0.00741409
0.00741409
0.00741409
0.00741409
0.00741409
0.00741409
0.00741409
0.00741409
0.00741409
0.00741409
0.00741409
0.00741409
0.00741409
0.00741409
0.00741409
0.00741409
0.00741409
0.00741409
0.00741409
0.00741409
0.00741409
0.00741409
0.00741409
0.00741409
0.00741409
0.00741409
0.00741409
0.00741409
0.00741409
0.00741409
0.00741409
0.00741409
0.00741409
0.00741409
0.00741408
0.00741409
0.00741409
0.00741409
0.00741409
0.00741409
0.00741409
0.00741409
0.00741409
0.00741409
0.00741409
0.00741409
0.00741408
0.00741409
0.00741409
0.00741409
0.00741409
0.00741409
0.00741409
0.00741409
0.00741409
0.00741409
0.00741409
0.00741409
0.00741409
0.00741409
0.00741409
0.00741409
0.00741409
0.00741409
0.00741409
0.00741408
0.00741335
0.00741755
0.00741409
0.00741409
0.00741409
0.00741409
0.00741409
0.00741409
0.00741409
0.00741409
0.00741409
0.00741409
0.00741409
0.00741409
0.00741409
0.00741409
0.00741409
0.00741409
0.00741409
0.00741409
0.00741409
0.00741409
0.00741409
0.00741409
0.00741409
0.00741408
0.00741409
0.00741409
0.00741409
0.00742018
0.00741409
0.00741409
0.00741409
0.00741409
0.00741409
0.00741409
0.00741409
0.00741409
0.00741409
0.00741409
0.00741409
0.00741409
0.00741409
0.00741407
0.00741409
0.00741409
0.00741409
0.00741409
0.00741409
0.00741409
0.00741409
0.00741409
0.00741409
0.00741409
0.00741409
0.00741409
0.00741409
0.00741409
0.00741409
0.00741409
0.00741409
0.00741409
0.00741409
0.00741409
0.00741409
0.00741409
0.00741409
0.00741409
0.00741409
0.00741409
0.00741409
0.00741409
0.00741409
0.00741409
0.00741409
0.00741409
0.00741409
0.00741409
0.00741409
0.00741409
0.00741409
0.00741409
0.00741409
0.00741409
0.00741409
0.00741409
0.00741409
0.00741409
0.00741409
0.00741409
0.00741409
0.00741409
0.00741409
0.00741409
0.00741409
0.00741409
0.00741409
0.00741409
0.00741409
0.00741409
0.00741409
0.00741409
0.00741409
0.00741409
0.00741409
0.00741409
0.00741409
0.00741409
0.00741409
0.00741409
0.00741409
0.00741409
0.00741409
0.00741409
0.00741419
0.00741409
0.00741409
0.00741409
0.00741409
0.00741409
0.00741409
0.00741409
0.00741409
0.00741409
0.00741409
0.00741409
0.00741409
0.00741409
0.00741409
0.00741409
0.00741409
0.00741409
0.00741409
0.00741409
0.00741409
0.00741409
0.00741409
0.00741409
0.00741409
0.00741409
0.00741409
0.00741409
0.00741409
0.00741409
0.00741409
0.00741409
0.00741409
0.00741409
0.00741409
0.00741409
0.00741409
0.00741409
0.00741409