# vtk DataFile Version 3.0
Unstructured Grid from OpenGeoSys-GEM
ASCII
DATASET UNSTRUCTURED_GRID
FIELD TimesAndCycles 2
TIME 1 1 double
11.4359
CYCLE 1 1 long
8
POINTS 1915 double
0 0 -0.00125 
0 0 -0.00375 
0 0 -0.00625 
0 0 -0.00875 
0 0 -0.01125 
0 0 -0.01375 
0 0 -0.01625 
0 0 -0.01875 
0 0 -0.02125 
0 0 -0.005 
0 0 -0.0025 
0 0 -0.0225 
0 0 -0.0175 
0 0 -0.0125 
0 0 -0.0075 
0 0 0 
0 0 -0.02 
0 0 -0.015 
0 0 -0.01 
0 0 0.005 
0.005 0 0.005 
0.01 0 0.005 
0.015 0 0.005 
0.02 0 0.005 
0.025 0 0.005 
0.005 0 0 
0.01 0 0 
0.015 0 0 
0.02 0 0 
0.025 0 0 
0.0025 0 0.005 
0.005 0 0.0025 
0.0025 0 0 
0 0 0.0025 
0.0025 0 0.0025 
0.0075 0 0.005 
0.01 0 0.0025 
0.0075 0 0 
0.0075 0 0.0025 
0.0125 0 0.005 
0.015 0 0.0025 
0.0125 0 0 
0.0125 0 0.0025 
0.0175 0 0.005 
0.02 0 0.0025 
0.0175 0 0 
0.0175 0 0.0025 
0.0225 0 0.005 
0.025 0 0.0025 
0.0225 0 0 
0.0225 0 0.0025 
0.00125 0 0.005 
0.0025 0 0.00375 
0.00125 0 0.0025 
0 0 0.00375 
0.00125 0 0.00375 
0.00375 0 0.005 
0.005 0 0.00375 
0.00375 0 0.0025 
0.00375 0 0.00375 
0.005 0 0.00125 
0.00375 0 0 
0.0025 0 0.00125 
0.00375 0 0.00125 
0.00125 0 0 
0 0 0.00125 
0.00125 0 0.00125 
0.00625 0 0.005 
0.0075 0 0.00375 
0.00625 0 0.0025 
0.00625 0 0.00375 
0.00875 0 0.005 
0.01 0 0.00375 
0.00875 0 0.0025 
0.00875 0 0.00375 
0.01 0 0.00125 
0.00875 0 0 
0.0075 0 0.00125 
0.00875 0 0.00125 
0.00625 0 0 
0.00625 0 0.00125 
0.01125 0 0.005 
0.0125 0 0.00375 
0.01125 0 0.0025 
0.01125 0 0.00375 
0.01375 0 0.005 
0.015 0 0.00375 
0.01375 0 0.0025 
0.01375 0 0.00375 
0.015 0 0.00125 
0.01375 0 0 
0.0125 0 0.00125 
0.01375 0 0.00125 
0.01125 0 0 
0.01125 0 0.00125 
0.01625 0 0.005 
0.0175 0 0.00375 
0.01625 0 0.0025 
0.01625 0 0.00375 
0.01875 0 0.005 
0.02 0 0.00375 
0.01875 0 0.0025 
0.01875 0 0.00375 
0.02 0 0.00125 
0.01875 0 0 
0.0175 0 0.00125 
0.01875 0 0.00125 
0.01625 0 0 
0.01625 0 0.00125 
0.02125 0 0.005 
0.0225 0 0.00375 
0.02125 0 0.0025 
0.02125 0 0.00375 
0.02375 0 0.005 
0.025 0 0.00375 
0.02375 0 0.0025 
0.02375 0 0.00375 
0.025 0 0.00125 
0.02375 0 0 
0.0225 0 0.00125 
0.02375 0 0.00125 
0.02125 0 0 
0.02125 0 0.00125 
0.005 0 -0.005 
0.01 0 -0.005 
0.015 0 -0.005 
0.02 0 -0.005 
0.025 0 -0.005 
0.005 0 -0.01 
0.01 0 -0.01 
0.015 0 -0.01 
0.02 0 -0.01 
0.025 0 -0.01 
0.005 0 -0.015 
0.01 0 -0.015 
0.015 0 -0.015 
0.02 0 -0.015 
0.025 0 -0.015 
0.005 0 -0.02 
0.01 0 -0.02 
0.015 0 -0.02 
0.02 0 -0.02 
0.025 0 -0.02 
0.005 0 -0.0025 
0.0025 0 -0.005 
0.0025 0 -0.0025 
0.01 0 -0.0025 
0.0075 0 -0.005 
0.0075 0 -0.0025 
0.015 0 -0.0025 
0.0125 0 -0.005 
0.0125 0 -0.0025 
0.02 0 -0.0025 
0.0175 0 -0.005 
0.0175 0 -0.0025 
0.025 0 -0.0025 
0.0225 0 -0.005 
0.0225 0 -0.0025 
0.005 0 -0.0075 
0.0025 0 -0.01 
0.0025 0 -0.0075 
0.01 0 -0.0075 
0.0075 0 -0.01 
0.0075 0 -0.0075 
0.015 0 -0.0075 
0.0125 0 -0.01 
0.0125 0 -0.0075 
0.02 0 -0.0075 
0.0175 0 -0.01 
0.0175 0 -0.0075 
0.025 0 -0.0075 
0.0225 0 -0.01 
0.0225 0 -0.0075 
0.005 0 -0.0125 
0.0025 0 -0.015 
0.0025 0 -0.0125 
0.01 0 -0.0125 
0.0075 0 -0.015 
0.0075 0 -0.0125 
0.015 0 -0.0125 
0.0125 0 -0.015 
0.0125 0 -0.0125 
0.02 0 -0.0125 
0.0175 0 -0.015 
0.0175 0 -0.0125 
0.025 0 -0.0125 
0.0225 0 -0.015 
0.0225 0 -0.0125 
0.005 0 -0.0175 
0.0025 0 -0.02 
0.0025 0 -0.0175 
0.01 0 -0.0175 
0.0075 0 -0.02 
0.0075 0 -0.0175 
0.015 0 -0.0175 
0.0125 0 -0.02 
0.0125 0 -0.0175 
0.02 0 -0.0175 
0.0175 0 -0.02 
0.0175 0 -0.0175 
0.025 0 -0.0175 
0.0225 0 -0.02 
0.0225 0 -0.0175 
0.0025 0 -0.0225 
0.0025 0 -0.00125 
0.00125 0 -0.0025 
0.00125 0 -0.00125 
0.005 0 -0.00125 
0.00375 0 -0.0025 
0.00375 0 -0.00125 
0.005 0 -0.00375 
0.00375 0 -0.005 
0.0025 0 -0.00375 
0.00375 0 -0.00375 
0.00125 0 -0.005 
0.00125 0 -0.00375 
0.0075 0 -0.00125 
0.00625 0 -0.0025 
0.00625 0 -0.00125 
0.01 0 -0.00125 
0.00875 0 -0.0025 
0.00875 0 -0.00125 
0.01 0 -0.00375 
0.00875 0 -0.005 
0.0075 0 -0.00375 
0.00875 0 -0.00375 
0.00625 0 -0.005 
0.00625 0 -0.00375 
0.0125 0 -0.00125 
0.01125 0 -0.0025 
0.01125 0 -0.00125 
0.015 0 -0.00125 
0.01375 0 -0.0025 
0.01375 0 -0.00125 
0.015 0 -0.00375 
0.01375 0 -0.005 
0.0125 0 -0.00375 
0.01375 0 -0.00375 
0.01125 0 -0.005 
0.01125 0 -0.00375 
0.0175 0 -0.00125 
0.01625 0 -0.0025 
0.01625 0 -0.00125 
0.02 0 -0.00125 
0.01875 0 -0.0025 
0.01875 0 -0.00125 
0.02 0 -0.00375 
0.01875 0 -0.005 
0.0175 0 -0.00375 
0.01875 0 -0.00375 
0.01625 0 -0.005 
0.01625 0 -0.00375 
0.0225 0 -0.00125 
0.02125 0 -0.0025 
0.02125 0 -0.00125 
0.025 0 -0.00125 
0.02375 0 -0.0025 
0.02375 0 -0.00125 
0.025 0 -0.00375 
0.02375 0 -0.005 
0.0225 0 -0.00375 
0.02375 0 -0.00375 
0.02125 0 -0.005 
0.02125 0 -0.00375 
0.0025 0 -0.00625 
0.00125 0 -0.0075 
0.00125 0 -0.00625 
0.005 0 -0.00625 
0.00375 0 -0.0075 
0.00375 0 -0.00625 
0.005 0 -0.00875 
0.00375 0 -0.01 
0.0025 0 -0.00875 
0.00375 0 -0.00875 
0.00125 0 -0.01 
0.00125 0 -0.00875 
0.0075 0 -0.00625 
0.00625 0 -0.0075 
0.00625 0 -0.00625 
0.01 0 -0.00625 
0.00875 0 -0.0075 
0.00875 0 -0.00625 
0.01 0 -0.00875 
0.00875 0 -0.01 
0.0075 0 -0.00875 
0.00875 0 -0.00875 
0.00625 0 -0.01 
0.00625 0 -0.00875 
0.0125 0 -0.00625 
0.01125 0 -0.0075 
0.01125 0 -0.00625 
0.015 0 -0.00625 
0.01375 0 -0.0075 
0.01375 0 -0.00625 
0.015 0 -0.00875 
0.01375 0 -0.01 
0.0125 0 -0.00875 
0.01375 0 -0.00875 
0.01125 0 -0.01 
0.01125 0 -0.00875 
0.0175 0 -0.00625 
0.01625 0 -0.0075 
0.01625 0 -0.00625 
0.02 0 -0.00625 
0.01875 0 -0.0075 
0.01875 0 -0.00625 
0.02 0 -0.00875 
0.01875 0 -0.01 
0.0175 0 -0.00875 
0.01875 0 -0.00875 
0.01625 0 -0.01 
0.01625 0 -0.00875 
0.0225 0 -0.00625 
0.02125 0 -0.0075 
0.02125 0 -0.00625 
0.025 0 -0.00625 
0.02375 0 -0.0075 
0.02375 0 -0.00625 
0.025 0 -0.00875 
0.02375 0 -0.01 
0.0225 0 -0.00875 
0.02375 0 -0.00875 
0.02125 0 -0.01 
0.02125 0 -0.00875 
0.0025 0 -0.01125 
0.00125 0 -0.0125 
0.00125 0 -0.01125 
0.005 0 -0.01125 
0.00375 0 -0.0125 
0.00375 0 -0.01125 
0.005 0 -0.01375 
0.00375 0 -0.015 
0.0025 0 -0.01375 
0.00375 0 -0.01375 
0.00125 0 -0.015 
0.00125 0 -0.01375 
0.0075 0 -0.01125 
0.00625 0 -0.0125 
0.00625 0 -0.01125 
0.01 0 -0.01125 
0.00875 0 -0.0125 
0.00875 0 -0.01125 
0.01 0 -0.01375 
0.00875 0 -0.015 
0.0075 0 -0.01375 
0.00875 0 -0.01375 
0.00625 0 -0.015 
0.00625 0 -0.01375 
0.0125 0 -0.01125 
0.01125 0 -0.0125 
0.01125 0 -0.01125 
0.015 0 -0.01125 
0.01375 0 -0.0125 
0.01375 0 -0.01125 
0.015 0 -0.01375 
0.01375 0 -0.015 
0.0125 0 -0.01375 
0.01375 0 -0.01375 
0.01125 0 -0.015 
0.01125 0 -0.01375 
0.0175 0 -0.01125 
0.01625 0 -0.0125 
0.01625 0 -0.01125 
0.02 0 -0.01125 
0.01875 0 -0.0125 
0.01875 0 -0.01125 
0.02 0 -0.01375 
0.01875 0 -0.015 
0.0175 0 -0.01375 
0.01875 0 -0.01375 
0.01625 0 -0.015 
0.01625 0 -0.01375 
0.0225 0 -0.01125 
0.02125 0 -0.0125 
0.02125 0 -0.01125 
0.025 0 -0.01125 
0.02375 0 -0.0125 
0.02375 0 -0.01125 
0.025 0 -0.01375 
0.02375 0 -0.015 
0.0225 0 -0.01375 
0.02375 0 -0.01375 
0.02125 0 -0.015 
0.02125 0 -0.01375 
0.0025 0 -0.01625 
0.00125 0 -0.0175 
0.00125 0 -0.01625 
0.005 0 -0.01625 
0.00375 0 -0.0175 
0.00375 0 -0.01625 
0.005 0 -0.01875 
0.00375 0 -0.02 
0.0025 0 -0.01875 
0.00375 0 -0.01875 
0.00125 0 -0.02 
0.00125 0 -0.01875 
0.0075 0 -0.01625 
0.00625 0 -0.0175 
0.00625 0 -0.01625 
0.01 0 -0.01625 
0.00875 0 -0.0175 
0.00875 0 -0.01625 
0.01 0 -0.01875 
0.00875 0 -0.02 
0.0075 0 -0.01875 
0.00875 0 -0.01875 
0.00625 0 -0.02 
0.00625 0 -0.01875 
0.0125 0 -0.01625 
0.01125 0 -0.0175 
0.01125 0 -0.01625 
0.015 0 -0.01625 
0.01375 0 -0.0175 
0.01375 0 -0.01625 
0.015 0 -0.01875 
0.01375 0 -0.02 
0.0125 0 -0.01875 
0.01375 0 -0.01875 
0.01125 0 -0.02 
0.01125 0 -0.01875 
0.0175 0 -0.01625 
0.01625 0 -0.0175 
0.01625 0 -0.01625 
0.02 0 -0.01625 
0.01875 0 -0.0175 
0.01875 0 -0.01625 
0.02 0 -0.01875 
0.01875 0 -0.02 
0.0175 0 -0.01875 
0.01875 0 -0.01875 
0.01625 0 -0.02 
0.01625 0 -0.01875 
0.0225 0 -0.01625 
0.02125 0 -0.0175 
0.02125 0 -0.01625 
0.025 0 -0.01625 
0.02375 0 -0.0175 
0.02375 0 -0.01625 
0.025 0 -0.01875 
0.02375 0 -0.02 
0.0225 0 -0.01875 
0.02375 0 -0.01875 
0.02125 0 -0.02 
0.02125 0 -0.01875 
0.0025 0 -0.02125 
0.00125 0 -0.0225 
0.00125 0 -0.02125 
0.00375 0 -0.02125 
0 0 -0.02375 
0.00125 0 -0.02375 
0.005 0 -0.02125 
0.00625 0 -0.02125 
0.01 0 -0.02125 
0.00875 0 -0.02125 
0.01125 0 -0.02125 
0.015 0 -0.02125 
0.01375 0 -0.02125 
0.01625 0 -0.02125 
0.02 0 -0.02125 
0.01875 0 -0.02125 
0.02125 0 -0.02125 
0.025 0 -0.02125 
0.02375 0 -0.02125 
0.0075 0 -0.02125 
0.0125 0 -0.02125 
0.0175 0 -0.02125 
0.0225 0 -0.02125 
0.00375 0 -0.0225 
0.00375 0 -0.02375 
0.0025 0 -0.02375 
0.005 0 -0.0225 
0 0 -0.02625 
0 0 -0.02375 
0 0 -0.02875 
0 0 -0.03125 
0 0 -0.03375 
0 0 -0.03625 
0 0 -0.03875 
0 0 -0.04125 
0 0 -0.04375 
0 0 -0.04625 
0 0 -0.0425 
0 0 -0.0375 
0 0 -0.0325 
0 0 -0.0275 
0 0 -0.045 
0 0 -0.04 
0 0 -0.035 
0 0 -0.03 
0 0 -0.025 
0.005 0 -0.025 
0.01 0 -0.025 
0.015 0 -0.025 
0.02 0 -0.025 
0.025 0 -0.025 
0.005 0 -0.03 
0.01 0 -0.03 
0.015 0 -0.03 
0.02 0 -0.03 
0.025 0 -0.03 
0.005 0 -0.035 
0.01 0 -0.035 
0.015 0 -0.035 
0.02 0 -0.035 
0.025 0 -0.035 
0.005 0 -0.04 
0.01 0 -0.04 
0.015 0 -0.04 
0.02 0 -0.04 
0.025 0 -0.04 
0.005 0 -0.045 
0.01 0 -0.045 
0.015 0 -0.045 
0.02 0 -0.045 
0.025 0 -0.045 
0.005 0 -0.0225 
0.0025 0 -0.025 
0.01 0 -0.0225 
0.0075 0 -0.025 
0.0075 0 -0.0225 
0.015 0 -0.0225 
0.0125 0 -0.025 
0.0125 0 -0.0225 
0.02 0 -0.0225 
0.0175 0 -0.025 
0.0175 0 -0.0225 
0.025 0 -0.0225 
0.0225 0 -0.025 
0.0225 0 -0.0225 
0.005 0 -0.0275 
0.0025 0 -0.03 
0.0025 0 -0.0275 
0.01 0 -0.0275 
0.0075 0 -0.03 
0.0075 0 -0.0275 
0.015 0 -0.0275 
0.0125 0 -0.03 
0.0125 0 -0.0275 
0.02 0 -0.0275 
0.0175 0 -0.03 
0.0175 0 -0.0275 
0.025 0 -0.0275 
0.0225 0 -0.03 
0.0225 0 -0.0275 
0.005 0 -0.0325 
0.0025 0 -0.035 
0.0025 0 -0.0325 
0.01 0 -0.0325 
0.0075 0 -0.035 
0.0075 0 -0.0325 
0.015 0 -0.0325 
0.0125 0 -0.035 
0.0125 0 -0.0325 
0.02 0 -0.0325 
0.0175 0 -0.035 
0.0175 0 -0.0325 
0.025 0 -0.0325 
0.0225 0 -0.035 
0.0225 0 -0.0325 
0.005 0 -0.0375 
0.0025 0 -0.04 
0.0025 0 -0.0375 
0.01 0 -0.0375 
0.0075 0 -0.04 
0.0075 0 -0.0375 
0.015 0 -0.0375 
0.0125 0 -0.04 
[...]
POINT_DATA 1915
SCALARS 1-Al double 1
LOOKUP_TABLE default
0.00741075
0.00741384
0.00741394
0.00741393
0.00741393
0.00741393
0.00741393
0.00741393
0.00741393
0.007414
0.0074151
0.00741393
0.00741393
0.00741393
0.00741393
0.00741242
0.00741393
0.00741393
0.00741393
9.99971e-08
9.99971e-08
9.99971e-08
9.99971e-08
9.99971e-08
9.99971e-08
0.00741409
0.00741409
0.00741409
0.00741409
0.00741409
9.99971e-08
8.54295e-08
0.00741496
3.98363e-06
3.01743e-07
9.99971e-08
3.0641e-06
0.00741409
3.25144e-06
9.99971e-08
4.15442e-08
0.00741409
3.22002e-06
9.99971e-08
7.77686e-08
0.00741409
5.96343e-08
9.99971e-08
9.25658e-08
0.00741409
8.72925e-08
9.99971e-08
3.40593e-06
7.04669e-07
2.06082e-07
1.28579e-06
9.99971e-08
2.56081e-07
4.93842e-08
5.1881e-07
4.74232e-06
0.00741409
1.08295e-05
1.05669e-05
0.00741409
0.000125588
9.12564e-05
9.99971e-08
1.58644e-07
7.17548e-08
1.35025e-07
9.99971e-08
1.49905e-07
3.07684e-06
1.52201e-07
3.86308e-06
0.00741409
4.23659e-06
4.09233e-06
0.00741409
5.01037e-06
9.99971e-08
1.36689e-07
3.62815e-08
1.4194e-07
9.99971e-08
1.13394e-07
3.94938e-08
1.23075e-07
2.9322e-06
0.00741409
3.2672e-06
2.79251e-06
0.00741409
3.4445e-06
9.99971e-08
1.09345e-07
4.86767e-08
1.11698e-07
9.99971e-08
1.05443e-07
7.1253e-08
1.07077e-07
2.80615e-06
0.00741409
2.85554e-06
2.84719e-06
0.00741409
2.6361e-06
9.99971e-08
1.03178e-07
8.32706e-08
1.04171e-07
9.99971e-08
1.0193e-07
9.0417e-08
1.02456e-07
2.84237e-06
0.00741409
2.8537e-06
2.84337e-06
0.00741409
2.78093e-06
0.00741409
0.00741409
0.00741409
0.00741409
0.00741409
0.00741409
0.00741409
0.00741409
0.00741409
0.00741409
0.00741409
0.00741409
0.00741666
0.00741409
0.00741409
0.00741409
0.00741409
0.00741582
0.00741409
0.00741409
0.00741409
0.00741409
0.00741409
0.00741409
0.00741409
0.00741409
0.00741409
0.00741409
0.00741409
0.00741409
0.00741409
0.00741566
0.00741409
0.00741409
0.00741409
0.00741409
0.00741409
0.00741409
0.00741409
0.00741409
0.0074104
0.00741409
0.00741409
0.00741409
0.00741409
0.00741409
0.00741409
0.00741409
0.00741409
0.00741409
0.00741409
0.00741468
0.00741409
0.00741409
0.00741409
0.00741078
0.00741409
0.00741426
0.00741409
0.00741409
0.00741409
0.00741409
0.00741409
0.00741409
0.00741409
0.00741409
0.00741409
0.00741409
0.00741409
0.00740711
0.00741409
0.00741409
0.00741409
0.00741409
0.00741365
0.00741409
0.00741409
0.00741306
0.00741409
0.00741409
0.00741409
0.00741409
0.00741409
0.00741409
0.00741409
0.00741409
0.00741409
0.00741409
0.00741409
0.00741409
0.00741409
0.00741409
0.00741409
0.00741409
0.00741409
0.00741409
0.00741409
0.00741409
0.00741409
0.00741409
0.00741409
0.00741409
0.00741409
0.00741409
0.00741409
0.00741409
0.00741409
0.00741409
0.00741409
0.00741409
0.00741409
0.00741409
0.00741409
0.00741409
0.00741409
0.00741409
0.00741409
0.00741414
0.00741409
0.00741409
0.00741409
0.00741409
0.00741409
0.00741409
0.00741409
0.00741408
0.00741409
0.00741409
0.00741409
0.00741409
0.00741409
0.00741409
0.00741409
0.00741409
0.00741409
0.00741409
0.00741409
0.00741409
0.00741409
0.00741409
0.00741409
0.00741409
0.00741409
0.00741409
0.00741407
0.00741409
0.00741409
0.00741409
0.00741409
0.00741409
0.00741409
0.00741409
0.00741409
0.00741409
0.00741409
0.00741409
0.00741765
0.00741409
0.00741409
0.00741409
0.00741409
0.00741409
0.00741409
0.00741409
0.00741409
0.00741409
0.00741409
0.00741409
0.00741409
0.00741409
0.00741409
0.00741409
0.00741409
0.00741409
0.00741409
0.00741409
0.00741409
0.00741409
0.00741409
0.00741409
0.00741409
0.00741409
0.00741409
0.00741409
0.00741409
0.00741409
0.00741409
0.00741408
0.00741409
0.00741409
0.00741409
0.00741409
0.00741409
0.00741409
0.00741409
0.00741409
0.00741408
0.00741409
0.00741409
0.00741409
0.00741409
0.00741409
0.00741409
0.00741409
0.00741409
0.00741409
0.00741409
0.00741409
0.00741722
0.00741409
0.00741409
0.00741409
0.00741408
0.00741409
0.00741409
0.00741409
0.00741409
0.00741409
0.00741409
0.00741409
0.00741409
0.00741409
0.00741409
0.00741389
0.00741409
0.00741409
0.00741409
0.00741409
0.00740849
0.00741409
0.00741409
0.00741409
0.00741409
0.00741409
0.00741409
0.00741409
0.00741409
0.00741409
0.00741409
0.00741409
0.00741409
0.00741409
0.00741409
0.00741409
0.00741409
0.00741409
0.00741409
0.00741409
0.00741409
0.00741409
0.00741409
0.00741409
0.00741409
0.00741409
0.00741409
0.00741409
0.00741409
0.00741409
0.00741409
0.00741409
0.00741408
0.00741409
0.00741409
0.00741409
0.00741409
0.00741409
0.00741409
0.00741409
0.00741409
0.00741409
0.00741409
0.00741409
0.00741409
0.00741409
0.00741794
0.00741409
0.00741409
0.00741409
0.00741409
0.00741409
0.00741409
0.00741409
0.00741409
0.00741409
0.00741409
0.00741409
0.0074112
0.00741409
0.00741409
0.00741409
0.00741409
0.00741409
0.00741409
0.00741409
0.00741409
0.00741409
0.00741409
0.00741409
0.00741409
0.00741409
0.00741409
0.00741409
0.00741409
0.00741409
0.00741409
0.00741409
0.00741409
0.00741409
0.00741409
0.00741409
0.00741409
0.00741409
0.00741409
0.00741409
0.00741409
0.00741409
0.00741564
0.00741457
0.00741409
0.00741409
0.00741409
0.00741409
0.00741409
0.00741409
0.00741409
0.00741393
0.00741409
0.00741409
0.00741409
0.00741409
0.00741409
0.00741409
0.00741409
0.00741409
0.00741409
0.00741409
0.00741409
0.00741409
0.00741409
0.00741409
0.00741409
0.00741409
0.00741409
0.00741409
0.00741409
0.00741409
0.00741409
0.00741409
0.00741393
0.00741393
0.00741393
0.00741393
0.00741393
0.00741393
0.00741393
0.00741393
0.00741393
0.00741393
0.00741393
0.00741393
0.00741393
0.00741393
0.00741393
0.00741393
0.00741393
0.00741393
0.00741393
0.00741409
0.00741409
0.00741409
0.00741409
0.00741409
0.00741409
0.00741409
0.00741409
0.00741409
0.00741409
0.00741409
0.00741409
0.00741409
0.00741409
0.00741409
0.00741375
0.00741409
0.00741409
0.00741409
0.00741409
0.00741409
0.00741409
0.00741409
0.00741409
0.00741409
0.00741409
0.00741409
0.00741409
0.00741374
0.00741409
0.00741409
0.00741409
0.00741409
0.00741409
0.00741409
0.00741409
0.00741409
0.00741409
0.00741409
0.00741409
0.00741409
0.00741409
0.00741409
0.00741409
0.00741408
0.00741409
0.00741409
0.00741409
0.00741409
0.00741409
0.00741409
0.00741409
0.00741409
0.00741409
0.00741409
0.00741409
0.00741409
0.00741409
0.00741409
0.00741409
0.00741409
0.00741409
0.00741409
0.00741409
0.00741413
0.00741409
0.00741409
0.00741409
0.00741409
0.00741409
0.00741409
0.00741409
0.00741409
0.00741409
0.00741409
0.00741409
0.00741409
0.00741408
0.00741409
0.00741408
0.00741409
0.00741409
0.00741409
0.00741412
0.00741409
0.00741409
0.00741409
0.00741409
0.00741409
0.00741409
0.00741409
0.00741409
0.00741409
0.00741409
0.00741409
0.00741409
0.00741409
0.00741409
0.00741409
0.00741409
0.00741409
0.00741409
0.00741409
0.00741409
0.00741409
0.00741409
0.00741409
0.00741409
0.00741409
0.00741409
0.00741409
0.00741745
0.00741409
0.00741409
0.00741409
0.00741222
0.00741409
0.00741409
0.00741409
0.00741409
0.00741409
0.00741409
0.00741409
0.00741409
0.00741409
0.0074184
0.00741408
0.00741409
0.00741409
0.00741409
0.00741873
0.00741409
0.00741409
0.00741409
0.00741409
0.00741409
0.00741409
0.00741409
0.00740803
0.00741409
0.00741409
0.00741409
0.00741409
0.00741409
0.00741409
0.00741409
0.00741409
0.00741409
0.00741409
0.00741409
0.00741409
0.00741409
0.00741409
0.00741409
0.00741409
0.00741409
0.00741409
0.00741409
0.00741409
0.00741409
0.00741364
0.00741409
0.00741409
0.00741409
0.00741409
0.00741409
0.00741409
0.00741409
0.00741409
0.00741409
0.00741409
0.00740765
0.00741409
0.00741409
0.00741409
0.00741409
0.00741409
0.00741409
0.00741409
0.00741409
0.00741409
0.00741409
0.00741409
0.00741409
0.00741409
0.00741409
0.00741409
0.00741409
0.00741409
0.00741408
0.00741409
0.00741409
0.00741409
0.00741408
0.00741409
0.00741409
0.00741409
0.00741409
0.00741409
0.00741409
0.00741409
0.00741409
0.00741409
0.00741409
0.00741409
0.00741409
0.00741409
0.00741409
0.00741409
0.00741409
0.00741408
0.00741409
0.00741409
0.00741409
0.00741409
0.00741408
0.00741409
0.00741409
0.00741409
0.00741409
0.00741409
0.00741563
0.00741409
0.00741408
0.00741409
0.00741409
0.00741409
0.00741409
0.00741408
0.00741409
0.00741409
0.00741409
0.00741409
0.00741409
0.00741409
0.00741409
0.00741409
0.00741409
0.00741355
0.00741409
0.00741409
0.00741409
0.00741409
0.00741409
0.00741409
0.00741409
0.00741409
0.00741409
0.00741409
0.00741409
0.00741408
0.00741409
0.00741409
0.00741409
0.00741409
0.00741409
0.00741409
0.00741409
0.00741409
0.00741409
0.00741409
0.00741409
0.00741409
0.00741409
0.00741409
0.00741409
0.00741409
0.00741409
0.00741409
0.00741409
0.00741409
0.00741409
0.00741409
0.00741409
0.00741409
0.00741409
0.00741409
0.00741409
0.00741409
0.00741409
0.00741409
0.00741409
0.00741409
0.00741409
0.00741409
0.00741409
0.00741409
0.00741409
0.00741409
0.00741409
0.00741409
0.00741409
0.00741409
0.00741409
0.00741409
0.00741409
0.00741409
0.00741409
0.00741409
0.00741409
0.00741409
0.00741409
0.00741409
0.00741408
0.00741409
0.00741409
0.00741409
0.00741409
0.00741409
0.00741409
0.00741409
0.00741409
0.00741409
0.00741409
0.00741409
0.00741409
0.00741409
0.00741409
0.00741409
0.00741409
0.00741409
0.00741409
0.00741409
0.00741409
0.00741409
0.00741409
0.00741409
0.00741409
0.00741409
0.00741409
0.00741409
0.00741409
0.00741409
0.00741409
0.00741409
0.00741409
0.00741409
0.00741409
0.00741409
0.00741409
0.00741409
0.00741409
0.00741409
0.00741015
0.00741409
0.00741409
0.00741409
0.00741409
0.00741409
0.00741408
0.00741409
0.00741409
0.00741394
0.00741409
0.00741409
0.00741409
0.00741409
0.00741409
0.00741409
0.00741409
0.00741409
0.00741409
0.00741409
0.00741409
0.00741409
0.00741409
0.00741528
0.00741409
0.00741409
0.00741409
0.00741409
0.00741409
0.00741409
0.00741409
0.00741409
0.00741409
0.00741409
0.00741405
0.00741409
0.00741456
0.00741409
0.00741409
0.00741409
0.00741409
0.00741409
0.00741409
0.00741409
0.00741409
0.00741409
0.00741409
0.00741467
0.00741409
0.00741409
0.00741409
0.00741409
0.00741409
0.00741409
0.00741309
0.00741409
0.00741409
0.00741409
0.00741409
0.00741409
0.00741393
0.00741409
0.00741409
0.00741382
0.00741409
0.00741409
0.00741409
0.00741409
0.00741409
0.00741356
0.00741409
0.00741409
0.00741393
0.00741409
0.00741393
0.00741409
0.00741409
0.00741409
0.00741409
0.00741409
0.00741409
0.00741409
0.00740711
0.00741409
0.00741409
0.00741409
0.00741409
0.00741409
0.00741582
0.00741409
0.00741409
0.00741409
0.00741409
0.00741409
0.00741409
0.00741564
0.00741409
0.00741409
0.00741381
0.00741409
0.00741409
0.00741425
0.00741409
0.00741409
0.00741109
0.00741536
0.00741409
0.00741409
0.00741289
0.00741409
0.00741807
0.00741409
0.00741464
0.00741409
0.00741409
0.00741409
0.00741393
0.00741393
0.00741393
0.00741409
0.00741409
0.00741409
0.00741409
0.00741409
0.00741484
0.00741409
0.00741409
0.00741409
0.00741409
0.00741409
0.00741409
0.00741409
0.00741409
0.00741409
0.00741408
0.00741409
0.00741409
0.00741409
0.00741409
0.00741409
0.00741408
0.00741409
0.00741409
0.00741409
0.0074116
0.00741409
0.00741409
0.00741409
0.00741409
0.00741409
0.00741409
0.00741409
0.00741409
0.00741425
0.00741409
0.00741409
0.00741536
0.00741409
0.00741409
0.00741409
0.00741409
0.00741409
0.00741409
0.00741409
0.00741409
0.00741409
0.00741409
0.00741409
0.00741409
0.00741409
0.00741409
0.00741409
0.00741409
0.00741409
0.00741409
0.00741409
0.00741409
0.00741409
0.00741409
0.00741409
0.00741409
0.00741409
0.00741409
0.00741409
0.00741409
0.00741409
0.00741396
0.00741409
0.00741409
0.00741409
0.00741409
0.00741409
0.00741409
0.00741409
0.00741409
0.00741409
0.00741409
0.00741409
0.00741409
0.00741409
0.00741409
0.00741409
0.00741409
0.00741409
0.00741409
0.00741409
0.00741409
0.00741409
0.00741409
0.00741409
0.00741409
0.00741409
0.00741409
0.00741409
0.00741409
0.00741409
0.00741409
0.00741409
0.00741409
0.00741409
0.00741409
0.00741409
0.00741409
0.00741409
0.00741409
0.00741409
0.00741409
0.00741409
0.00741409
0.00741409
0.00740993
0.00741409
0.00741409
0.00741409
0.00741409
0.00741409
0.00741409
0.00741409
0.00741409
0.00741381
0.00741409
0.00741409
0.00741409
0.00741409
0.00741408
0.00741409
0.00741409
0.00741409
0.00741409
0.00741409
0.00741409
0.00741409
0.00741407
0.00741409
0.00741109
0.00741409
0.00741409
0.00741409
0.00741409
0.00741409
0.00741409
0.00741409
0.00741289
0.00741807
0.00741409
0.00741409
0.00741409
0.00741409
0.00741409
0.00741409
0.00741464
0.00741409
0.00741409
0.00741409
0.00741409
0.00741409
0.00741409
0.00741409
0.00741409
0.00741409
0.00741409
0.00741409
0.00741409
0.00741409
0.00741409
0.00741409
0.00741409
0.00741409
0.00741134
0.00741409
0.00741409
0.00741409
0.00741409
0.00741409
0.00741409
0.00741409
0.00741409
0.00741409
0.00741409
0.00741409
0.00741409
0.00741409
0.00741409
0.00741409
0.00741408
0.00741409
0.00741409
0.00741409
0.00741409
0.00741409
0.00741409
0.00741409
0.00741409
0.00741409
0.00741409
0.00741409
0.00741409
0.00741409
0.00741409
0.00741409
0.00741409
0.00741409
0.00741409
0.00741409
0.00741378
0.00741409
0.00741409
0.00741409
0.00741409
0.00741409
0.00741409
0.00741409
0.00741409
0.00741409
0.00741409
0.00741409
0.00741409
0.00741409
0.00741409
0.00741409
0.00741409
0.00741409
0.00741409
0.00741408
0.00741409
0.00741409
0.00741409
0.00741409
0.00741409
0.00741409
0.00741409
0.00741409
0.00741409
0.00741394
0.00741409
0.00741409
0.00741409
0.00741409
0.00741409
0.00741409
0.00741483
0.00741409
0.00741409
0.00741409
0.00741409
0.00741409
0.00741409
0.00741409
0.00741409
0.00741409
0.00741409
0.00741409
0.00741409
0.00741409
0.00741409
0.00741409
0.00741409
0.00741409
0.00741409
0.00741409
0.00741409
0.00741409
0.00741409
0.00741409
0.00741409
0.00741409
0.00741409
0.00741409
0.00741409
0.00741409
0.00741409
0.00741409
0.00741409
0.00741409
0.00741409
0.00741409
0.00741409
0.00741409
0.00741409
0.00741409
0.00741409
0.00741409
0.00741409
0.00741409
0.00741409
0.0074141
0.00741409
0.00741409
0.00741409
0.00741409
0.00741409
0.00741409
0.00741409
0.00741409
0.00741409
0.00741409
0.00741409
0.00741409
0.00741409
0.00741408
0.007415
0.00741409
0.00741409
0.0074137
0.00741409
0.00741409
0.00741408
0.00741409
0.00741409
0.00741409
0.00741405
0.00741409
0.00741409
0.00741409
0.0074133
0.00741409
0.00741409
0.00741409
0.00741409
0.00741409
0.00741409
0.00741409
0.00741409
0.00741409
0.00741409
0.00741409
0.00741409
0.00741409
0.00741409
0.00741409
0.00741409
0.00741409
0.00741409
0.00741409
0.00741409
0.00741409
0.00741409
0.00741409
0.00741409
0.00741409
0.00741409
0.00741409
0.00741409
0.00741409
0.00741409
0.00741409
0.00741409
0.00741409
0.00741423
0.00741409
0.00741409
0.00741409
0.00741409
0.00741409
0.00741409
0.00741409
0.00741609
0.00741409
0.00741409
0.00741409
0.00741409
0.00741409
0.00741409
0.00741409
0.00741409
0.00741409
0.00741409
0.00741409
0.00741409
0.00741409
0.00741409
0.00741409
0.00741409
0.00741409
0.00741408
0.00741409
0.00741409
0.00741409
0.00741409
0.00741409
0.00741409
0.00741409
0.00741409
0.00741409
0.00741409
0.00741409
0.00741409
0.00741409
0.00741409
0.00741409
0.00741409
0.00741409
0.00741833
0.00741409
0.00741409
0.00741409
0.00741388
0.00741409
0.00741409
0.00741219
0.00741409
0.00741409
0.00741409
0.00741409
0.00741409
0.00741409
0.00741409
0.00741409
0.00741409
0.00741409
0.00741409
0.00741409
0.00741409
0.00741409
0.00741409
0.00741409
0.00741409
0.00741397
0.00741409
0.00741409
0.00741409
0.00741409
0.00741409
0.00741409
0.00741409
0.00741409
0.00741409
0.00741409
0.00741409
0.00741409
0.00741409
0.00741409
0.00741409
0.00741409
0.00741515
0.00741409
0.00741409
0.00741393
0.00741409
0.00741409
0.00741309
0.00741409
0.00741409
0.00741409
0.00741409
0.00741409
0.00741409
0.00741382
0.00741409
0.00741409
0.00741393
0.00741409
0.00741409
0.00741356
0.00741409
0.00741409
0.00741409
0.00741409
0.00741409
0.00741409
0.00741409
0.00741409
0.00741399
0.00741409
0.00740759
0.00741409
0.00741409
0.00741409
0.00741409
0.00741409
0.00741409
0.00741409
0.00741409
0.00741409
0.00741409
0.00741409
0.00741409
0.00741409
0.00741409
0.00741409
0.00741409
0.00741409
0.00741409
0.00741409
0.00741409
0.00741409
0.00741317
0.00741409
0.00741409
0.00741409
0.00741409
0.00741409
0.00741409
0.00741362
0.00741409
0.00741409
0.00741409
0.00741409
0.00741409
0.00741409
0.00741409
0.00741409
0.00741409
0.00741409
0.00741405
0.00741409
0.00741408
0.00741409
0.00741409
0.00741409
0.00741409
0.00741409
0.00741409
0.00741409
0.00741409
0.00741409
0.00741409
0.00741409
0.00741409
0.00741409
0.00741409
0.00741409
0.00741409
0.00741409
0.00741409
0.00741409
0.00741408
0.00741408
0.00741409
0.00741409
0.00741409
0.00741409
0.00741409
0.00741409
0.00741409
0.00741409
0.00741409
0.00741408
0.00741409
0.00741409
0.00741409
0.00741409
0.00741409
0.00741409
0.00741409
0.00741409
0.00741409
0.00741409
0.00741408
0.00741409
0.00741409
0.00741409
0.00741409
0.00741409
0.00741409
0.00741409
0.00741409
0.00741409
0.00741409
0.00741409
0.00741447
0.00741409
0.0074141
0.00741408
0.00741409
0.00741409
0.00741409
0.00741409
0.00741409
0.00741409
0.00741409
0.00741409
0.00741409
0.00741409
0.00741409
0.00741409
0.00741409
0.00741409
0.00741409
0.00741409
0.00741409
0.00741409
0.00741358
0.00741409
0.00741408
0.00741409
0.00741409
0.00741409
0.00741409
0.00741409
0.00741409
0.00741409
0.00741409
0.00741409
0.00741421
0.00741409
0.00741356
0.00741409
0.00741409
0.00741408
0.00741409
0.00741409
0.00741409
0.00741409
0.00741409
0.00741399
0.00741409
0.00740759
0.00741409
0.00741409
0.00741409
0.00741409
0.00741409
0.00741409
0.00741409
0.00741409
0.00741409
0.00741409
0.00741409
0.00741409
0.00741409
0.00741409
0.00741409
0.00741409
0.00741409
0.00741409
0.00741383
0.00741409
0.00741409
0.00741409
0.00741409
0.00741409
0.00741409
0.00741409
0.00741409
0.00741409
0.00741026
0.00741409
0.00741409
0.00741409
0.00741409
0.00741409
0.00741409
0.00741409
0.00741574
0.00741409
0.00741409
0.00741409
0.00741409
0.00741409
0.00741409
0.00741409
0.00741409
0.00741409
0.00741409
0.00741409
0.00741409
0.00741409
0.00741409
0.00741409
0.00741409
0.00741409
0.00741409
0.00741409
0.00741409
0.00741409
0.00741409
0.00741409
0.00741409
0.00741424
0.00741409
0.00741409
0.00741409
0.00741409
0.00741409
0.00741409
0.00741409
0.00741409
0.00741409
0.00741409
0.00741409
0.00741409
0.00741409
0.00741409
0.00741409
0.00741409
0.00741409
0.00741417
0.00741409
0.00741409
0.00741409
0.00741409
0.00741409
0.00741409
0.00741409
0.00740671
0.00741409
0.00741409
0.00741408
0.00741409
0.00741409
0.00741409
0.00741409
0.00741409
0.00741409
0.00741409
0.00741409
0.00741409
0.00741409
0.00741409
0.00741409
0.00741409
0.00741573
0.00741409
0.00741409
0.00741409
0.00741409
0.00741409
0.00741409
0.00741409
0.00741409
0.00741409
0.00741448
0.00741408
0.00741409
0.00741409
0.00741409
0.00741409
0.00741409
0.00741409
0.00741409
0.00741409
0.00741409
0.00741409
0.00741409
0.00741409
0.00741409
0.00741409
0.00741409
0.00741409
0.00741409
0.00741409
0.00741409
0.00741409
0.00741409
0.00741409
0.00741409
0.00741409
0.00741409
0.00741409
0.00741409
0.00741409
0.00741409
0.00741409
0.00741409
0.00741409
0.00741409
0.00741409
0.00741409
0.00741409
0.00741409
0.00741409
0.00741409
0.00741409
0.00741409
0.00741409
0.00741409
0.00741409
0.00741409
0.00741409
0.00741409
0.00741408
0.00741409
0.00741409
0.00741409
0.00741409
0.00741409
0.00741409
0.00741404
0.00741409
0.00741409
0.00741409
0.00741408
0.00741408
0.00741409
0.00741409
0.00741409
0.00741409
0.00741409
0.00741408
0.00741409
0.00741102
0.00741409
0.00741409
0.00741409
0.00741409
0.00741409
0.00741444
0.00741409
0.00741409
0.00741059
0.00741409
0.00741409
0.00741409
0.00741409
0.00741409
0.00741305
0.00741409
0.00741409
0.00741409
0.00741409
0.00741409
0.00741409
0.00741409
0.00741409
0.00741409
0.00741409
0.00741409
0.00741409
0.00741409
0.00741409
0.00741409
0.00741409
0.00741409
0.00741409
0.00741409
0.00741409
0.00741409
0.00741422
0.00741409
0.00741409
0.00741409
0.00741409
0.00741381
0.00741409
0.00741409
0.00741409
0.00741664
0.00741409
0.00741596
0.00741409
0.00741409
0.00741409
0.00741409
0.00741409
0.00741409
0.00741409
0.00741409
0.00741409
0.00741409
0.00741409
0.00741409
0.00741409
0.00741409