 TITLE = "Profiles along polylines"
 VARIABLES = "DIST" "VISCOSITY" 
 ZONE T="TIME=0.000000000000e+00"
0.000000000000e+00 8.716215077900e-04 
2.000000000000e-01 8.716215077900e-04 
4.000000000000e-01 8.716215077900e-04 
6.000000000000e-01 8.716215077900e-04 
8.000000000000e-01 8.716215077900e-04 
1.000000000000e+00 8.716215077900e-04 
1.200000000000e+00 8.716215077900e-04 
1.400000000000e+00 8.716215077900e-04 
1.600000000000e+00 8.716215077900e-04 
1.800000000000e+00 8.716215077900e-04 
2.000000000000e+00 8.716215077900e-04 
2.200000000000e+00 8.716215077900e-04 
2.400000000000e+00 8.716215077900e-04 
2.600000000000e+00 8.716215077900e-04 
2.800000000000e+00 8.716215077900e-04 
3.000000000000e+00 8.716215077900e-04 
3.200000000000e+00 8.716215077900e-04 
3.400000000000e+00 8.716215077900e-04 
3.600000000000e+00 8.716215077900e-04 
3.800000000000e+00 8.716215077900e-04 
4.000000000000e+00 8.716215077900e-04 
4.200000000000e+00 8.716215077900e-04 
4.400000000000e+00 8.716215077900e-04 
4.600000000000e+00 8.716215077900e-04 
4.800000000000e+00 8.716215077900e-04 
5.000000000000e+00 8.716215077900e-04 
5.200000000000e+00 8.716215077900e-04 
 TITLE = "Profiles along polylines"
 VARIABLES = "DIST" "VISCOSITY" 
 ZONE T="TIME=1.000000000000e+05"
0.000000000000e+00 2.273874245969e-04 
2.000000000000e-01 3.079180516975e-04 
4.000000000000e-01 3.998318897301e-04 
6.000000000000e-01 4.939130319786e-04 
8.000000000000e-01 5.810008478752e-04 
1.000000000000e+00 6.552115114993e-04 
1.200000000000e+00 7.145271845298e-04 
1.400000000000e+00 7.597350795078e-04 
1.600000000000e+00 7.930261438697e-04 
1.800000000000e+00 8.169511343074e-04 
2.000000000000e+00 8.338541247430e-04 
2.200000000000e+00 8.456555174187e-04 
2.400000000000e+00 8.538280706190e-04 
2.600000000000e+00 8.594559951036e-04 
2.800000000000e+00 8.633167523603e-04 
3.000000000000e+00 8.659582987666e-04 
3.200000000000e+00 8.677624255896e-04 
3.400000000000e+00 8.689931074430e-04 
3.600000000000e+00 8.698319135825e-04 
3.800000000000e+00 8.704032910648e-04 
4.000000000000e+00 8.707923211408e-04 
4.200000000000e+00 8.710570451799e-04 
4.400000000000e+00 8.712369259663e-04 
4.600000000000e+00 8.713585334963e-04 
4.800000000000e+00 8.714390937325e-04 
5.000000000000e+00 8.714879791053e-04 
5.200000000000e+00 8.715051962669e-04 
 ZONE T="TIME=2.000000000000e+05"
0.000000000000e+00 2.273874245969e-04 
2.000000000000e-01 2.540625679134e-04 
4.000000000000e-01 2.929042325811e-04 
6.000000000000e-01 3.419503374679e-04 
8.000000000000e-01 3.989517108330e-04 
1.000000000000e+00 4.608235123608e-04 
1.200000000000e+00 5.239214158978e-04 
1.400000000000e+00 5.846902128724e-04 
1.600000000000e+00 6.402873038706e-04 
1.800000000000e+00 6.889255600404e-04 
2.000000000000e+00 7.298867696021e-04 
2.200000000000e+00 7.633070057515e-04 
2.400000000000e+00 7.898764799862e-04 
2.600000000000e+00 8.105609298567e-04 
2.800000000000e+00 8.263948504773e-04 
3.000000000000e+00 8.383534524540e-04 
3.200000000000e+00 8.472884045621e-04 
3.400000000000e+00 8.539067689362e-04 
3.600000000000e+00 8.587751078288e-04 
3.800000000000e+00 8.623358632235e-04 
4.000000000000e+00 8.649279345499e-04 
4.200000000000e+00 8.668069331480e-04 
4.400000000000e+00 8.681627855772e-04 
4.600000000000e+00 8.691333070048e-04 
4.800000000000e+00 8.698119005762e-04 
5.000000000000e+00 8.702445275458e-04 
5.200000000000e+00 8.704018149179e-04 
 ZONE T="TIME=3.000000000000e+05"
0.000000000000e+00 2.273874245969e-04 
2.000000000000e-01 2.394649813548e-04 
4.000000000000e-01 2.581736951727e-04 
6.000000000000e-01 2.836256900226e-04 
8.000000000000e-01 3.156978637177e-04 
1.000000000000e+00 3.539672181242e-04 
1.200000000000e+00 3.975799993851e-04 
1.400000000000e+00 4.451992426727e-04 
1.600000000000e+00 4.950842258207e-04 
1.800000000000e+00 5.452894541019e-04 
2.000000000000e+00 5.939221344709e-04 
2.200000000000e+00 6.393794428138e-04 
2.400000000000e+00 6.805043666084e-04 
2.600000000000e+00 7.166370758730e-04 
2.800000000000e+00 7.475755266692e-04 
3.000000000000e+00 7.734795017740e-04 
3.200000000000e+00 7.947545972176e-04 
3.400000000000e+00 8.119434268140e-04 
3.600000000000e+00 8.256387257750e-04 
3.800000000000e+00 8.364224874517e-04 
4.000000000000e+00 8.448286586063e-04 
4.200000000000e+00 8.513237969376e-04 
4.400000000000e+00 8.562989512780e-04 
4.600000000000e+00 8.600648211262e-04 
4.800000000000e+00 8.628377186747e-04 
5.000000000000e+00 8.646885418199e-04 
5.200000000000e+00 8.653808225435e-04 
 ZONE T="TIME=4.000000000000e+05"
0.000000000000e+00 2.273874245969e-04 
2.000000000000e-01 2.333719324934e-04 
4.000000000000e-01 2.430552600429e-04 
6.000000000000e-01 2.568401161035e-04 
8.000000000000e-01 2.749880985805e-04 
1.000000000000e+00 2.976511015607e-04 
1.200000000000e+00 3.248496798818e-04 
1.400000000000e+00 3.564195438093e-04 
1.600000000000e+00 3.919560003692e-04 
1.800000000000e+00 4.307837881329e-04 
2.000000000000e+00 4.719712617904e-04 
2.200000000000e+00 5.143944071617e-04 
2.400000000000e+00 5.568407178149e-04 
2.600000000000e+00 5.981307442332e-04 
2.800000000000e+00 6.372307806574e-04 
3.000000000000e+00 6.733348403999e-04 
3.200000000000e+00 7.059048520955e-04 
3.400000000000e+00 7.346698701896e-04 
3.600000000000e+00 7.595937671939e-04 
3.800000000000e+00 7.808245239561e-04 
4.000000000000e+00 7.986373285263e-04 
4.200000000000e+00 8.133797380453e-04 
4.400000000000e+00 8.254210848354e-04 
4.600000000000e+00 8.350985799454e-04 
4.800000000000e+00 8.426313794648e-04 
5.000000000000e+00 8.479165347539e-04 
5.200000000000e+00 8.499559390774e-04 
 ZONE T="TIME=5.000000000000e+05"
0.000000000000e+00 2.273874245969e-04 
2.000000000000e-01 2.303583056999e-04 
4.000000000000e-01 2.354117628984e-04 
6.000000000000e-01 2.429261339186e-04 
8.000000000000e-01 2.532012425569e-04 
1.000000000000e+00 2.664746149650e-04 
1.200000000000e+00 2.829312958749e-04 
1.400000000000e+00 3.026988489125e-04 
1.600000000000e+00 3.258277084453e-04 
1.800000000000e+00 3.522623228300e-04 
2.000000000000e+00 3.818113733125e-04 
2.200000000000e+00 4.141262970822e-04 
2.400000000000e+00 4.486963269986e-04 
2.600000000000e+00 4.848651688676e-04 
2.800000000000e+00 5.218696792388e-04 
3.000000000000e+00 5.588956459920e-04 
3.200000000000e+00 5.951416146626e-04 
3.400000000000e+00 6.298799874360e-04 
3.600000000000e+00 6.625057730824e-04 
3.800000000000e+00 6.925666824009e-04 
4.000000000000e+00 7.197721897884e-04 
4.200000000000e+00 7.439816400700e-04 
4.400000000000e+00 7.651693883070e-04 
4.600000000000e+00 7.833511555187e-04 
4.800000000000e+00 7.984084606548e-04 
5.000000000000e+00 8.095981441241e-04 
5.200000000000e+00 8.140770486721e-04 
 ZONE T="TIME=6.000000000000e+05"
0.000000000000e+00 2.273874245969e-04 
2.000000000000e-01 2.287860987076e-04 
4.000000000000e-01 2.313190135809e-04 
6.000000000000e-01 2.352793849598e-04 
8.000000000000e-01 2.409275212393e-04 
1.000000000000e+00 2.484882138053e-04 
1.200000000000e+00 2.581545531558e-04 
1.400000000000e+00 2.700921761398e-04 
1.600000000000e+00 2.844396893369e-04 
1.800000000000e+00 3.013032648242e-04 
2.000000000000e+00 3.207454045946e-04 
2.200000000000e+00 3.427694529605e-04 
2.400000000000e+00 3.673026123995e-04 
2.600000000000e+00 3.941809562763e-04 
2.800000000000e+00 4.231401141830e-04 
3.000000000000e+00 4.538147914532e-04 
3.200000000000e+00 4.857490260391e-04 
3.400000000000e+00 5.184172310643e-04 
3.600000000000e+00 5.512539750810e-04 
3.800000000000e+00 5.836885414855e-04 
4.000000000000e+00 6.151787531475e-04 
4.200000000000e+00 6.452365513779e-04 
4.400000000000e+00 6.734316503563e-04 
4.600000000000e+00 6.993358986777e-04 
4.800000000000e+00 7.222828367039e-04 
5.000000000000e+00 7.405008263826e-04 
5.200000000000e+00 7.481165172485e-04 
 ZONE T="TIME=7.000000000000e+05"
0.000000000000e+00 2.273874245969e-04 
2.000000000000e-01 2.279841832442e-04 
4.000000000000e-01 2.291525837101e-04 
6.000000000000e-01 2.310928517139e-04 
8.000000000000e-01 2.340022539763e-04 
1.000000000000e+00 2.380658941063e-04 
1.200000000000e+00 2.434524751464e-04 
1.400000000000e+00 2.503138357946e-04 
1.600000000000e+00 2.587862838574e-04 
1.800000000000e+00 2.689917790464e-04 
2.000000000000e+00 2.810374899566e-04 
2.200000000000e+00 2.950128775522e-04 
2.400000000000e+00 3.109840875318e-04 
2.600000000000e+00 3.289860094236e-04 
2.800000000000e+00 3.490128617521e-04 
3.000000000000e+00 3.710085681446e-04 
3.200000000000e+00 3.948584557535e-04 
3.400000000000e+00 4.203838706192e-04 
3.600000000000e+00 4.473410893195e-04 
3.800000000000e+00 4.754253188070e-04 
4.000000000000e+00 5.042793866751e-04 
4.200000000000e+00 5.335039941597e-04 
4.400000000000e+00 5.626580840676e-04 
4.600000000000e+00 5.912067227906e-04 
4.800000000000e+00 6.182465609321e-04 
5.000000000000e+00 6.413070440292e-04 
5.200000000000e+00 6.514295301205e-04 
 ZONE T="TIME=8.000000000000e+05"
0.000000000000e+00 2.273874245969e-04 
2.000000000000e-01 2.276097988279e-04 
4.000000000000e-01 2.280878932405e-04 
6.000000000000e-01 2.289402455394e-04 
8.000000000000e-01 2.302964805516e-04 
1.000000000000e+00 2.322901148916e-04 
1.200000000000e+00 2.350525401993e-04 
1.400000000000e+00 2.387089556696e-04 
1.600000000000e+00 2.433763114993e-04 
1.800000000000e+00 2.491628047586e-04 
2.000000000000e+00 2.561682118972e-04 
2.200000000000e+00 2.644843090236e-04 
2.400000000000e+00 2.741947430887e-04 
2.600000000000e+00 2.853739027064e-04 
2.800000000000e+00 2.980845498851e-04 
3.000000000000e+00 3.123741891026e-04 
3.200000000000e+00 3.282703561936e-04 
3.400000000000e+00 3.457751966959e-04 
3.600000000000e+00 3.648598523457e-04 
3.800000000000e+00 3.854592329669e-04 
4.000000000000e+00 4.074675465495e-04 
4.200000000000e+00 4.307338043417e-04 
4.400000000000e+00 4.550512830447e-04 
4.600000000000e+00 4.801102018972e-04 
4.800000000000e+00 5.052581572948e-04 
5.000000000000e+00 5.282548925551e-04 
5.200000000000e+00 5.388612637500e-04 
 ZONE T="TIME=9.000000000000e+05"
0.000000000000e+00 2.273874245969e-04 
2.000000000000e-01 2.274585314505e-04 
4.000000000000e-01 2.276283247168e-04 
6.000000000000e-01 2.279561371357e-04 
8.000000000000e-01 2.285140052079e-04 
1.000000000000e+00 2.293838017684e-04 
1.200000000000e+00 2.306536721461e-04 
1.400000000000e+00 2.324144352305e-04 
1.600000000000e+00 2.347564911381e-04 
1.800000000000e+00 2.377675512208e-04 
2.000000000000e+00 2.415312620163e-04 
2.200000000000e+00 2.461265967188e-04 
2.400000000000e+00 2.516277643744e-04 
2.600000000000e+00 2.581043374867e-04 
2.800000000000e+00 2.656213066347e-04 
3.000000000000e+00 2.742388161369e-04 
3.200000000000e+00 2.840114009996e-04 
3.400000000000e+00 2.949866205231e-04 
3.600000000000e+00 3.072030585297e-04 
3.800000000000e+00 3.206877176593e-04 
4.000000000000e+00 3.354528145085e-04 
4.200000000000e+00 3.514915964003e-04 
4.400000000000e+00 3.687705292947e-04 
4.600000000000e+00 3.872020623302e-04 
4.800000000000e+00 4.064988445649e-04 
5.000000000000e+00 4.252282087718e-04 
5.200000000000e+00 4.342483927175e-04 
 ZONE T="TIME=1.000000000000e+06"
0.000000000000e+00 2.273874245969e-04 
2.000000000000e-01 2.274071696428e-04 
4.000000000000e-01 2.274596855861e-04 
6.000000000000e-01 2.275699030161e-04 
8.000000000000e-01 2.277713637695e-04 
1.000000000000e+00 2.281060995413e-04 
1.200000000000e+00 2.286237645280e-04 
1.400000000000e+00 2.293801712822e-04 
1.600000000000e+00 2.304354718783e-04 
1.800000000000e+00 2.318522555978e-04 
2.000000000000e+00 2.336938031253e-04 
2.200000000000e+00 2.360226648183e-04 
2.400000000000e+00 2.388996418274e-04 
2.600000000000e+00 2.423831654097e-04 
2.800000000000e+00 2.465290054458e-04 
3.000000000000e+00 2.513901991161e-04 
3.200000000000e+00 2.570170736624e-04 
3.400000000000e+00 2.634572383723e-04 
3.600000000000e+00 2.707554340449e-04 
3.800000000000e+00 2.789531446409e-04 
4.000000000000e+00 2.880878740941e-04 
4.200000000000e+00 2.981918752710e-04 
4.400000000000e+00 3.092893296395e-04 
4.600000000000e+00 3.213856635398e-04 
4.800000000000e+00 3.344012194779e-04 
5.000000000000e+00 3.476152494819e-04 
5.200000000000e+00 3.541866042640e-04 
 ZONE T="TIME=1.100000000000e+06"
0.000000000000e+00 2.273874245969e-04 
2.000000000000e-01 2.273923610966e-04 
4.000000000000e-01 2.274068888715e-04 
6.000000000000e-01 2.274399674903e-04 
8.000000000000e-01 2.275048932837e-04 
1.000000000000e+00 2.276199452080e-04 
1.200000000000e+00 2.278087246164e-04 
1.400000000000e+00 2.281001306537e-04 
1.600000000000e+00 2.285279695128e-04 
1.800000000000e+00 2.291302505156e-04 
2.000000000000e+00 2.299482631888e-04 
2.200000000000e+00 2.310255500818e-04 
2.400000000000e+00 2.324068887400e-04 
2.600000000000e+00 2.341373768104e-04 
2.800000000000e+00 2.362616835722e-04 
3.000000000000e+00 2.388234967286e-04 
3.200000000000e+00 2.418651613060e-04 
3.400000000000e+00 2.454274819484e-04 
3.600000000000e+00 2.495496422680e-04 
3.800000000000e+00 2.542691840961e-04 
4.000000000000e+00 2.596219792385e-04 
4.200000000000e+00 2.656420869680e-04 
4.400000000000e+00 2.723611375721e-04 
4.600000000000e+00 2.798049678203e-04 
4.800000000000e+00 2.879673129129e-04 
5.000000000000e+00 2.965246479112e-04 
5.200000000000e+00 3.008691130733e-04 
 ZONE T="TIME=1.200000000000e+06"
0.000000000000e+00 2.273874245969e-04 
2.000000000000e-01 2.273885835635e-04 
4.000000000000e-01 2.273923085784e-04 
6.000000000000e-01 2.274014500340e-04 
8.000000000000e-01 2.274206414159e-04 
1.000000000000e+00 2.274568205368e-04 
1.200000000000e+00 2.275197090494e-04 
1.400000000000e+00 2.276221925227e-04 
1.600000000000e+00 2.277805521017e-04 
1.800000000000e+00 2.280145159596e-04 
2.000000000000e+00 2.283471211560e-04 
2.200000000000e+00 2.288043998688e-04 
2.400000000000e+00 2.294149240706e-04 
2.600000000000e+00 2.302092563887e-04 
2.800000000000e+00 2.312193605255e-04 
3.000000000000e+00 2.324780223526e-04 
3.200000000000e+00 2.340183241324e-04 
3.400000000000e+00 2.358732015729e-04 
3.600000000000e+00 2.380750990101e-04 
3.800000000000e+00 2.406557238003e-04 
4.000000000000e+00 2.436458870855e-04 
4.200000000000e+00 2.470753968618e-04 
4.400000000000e+00 2.509728807333e-04 
4.600000000000e+00 2.553647151734e-04 
4.800000000000e+00 2.602644861632e-04 
5.000000000000e+00 2.655283509094e-04 
5.200000000000e+00 2.682352932140e-04 
 ZONE T="TIME=1.300000000000e+06"
0.000000000000e+00 2.273874245969e-04 
2.000000000000e-01 2.273876888610e-04 
4.000000000000e-01 2.273886024562e-04 
6.000000000000e-01 2.273909973451e-04 
8.000000000000e-01 2.273963422281e-04 
1.000000000000e+00 2.274070131131e-04 
1.200000000000e+00 2.274265950085e-04 
1.400000000000e+00 2.274601924344e-04 
1.600000000000e+00 2.275147217433e-04 
1.800000000000e+00 2.275991570287e-04 
2.000000000000e+00 2.277247041111e-04 
2.200000000000e+00 2.279048834372e-04 
2.400000000000e+00 2.281555117536e-04 
2.600000000000e+00 2.284945827223e-04 
2.800000000000e+00 2.289420566500e-04 
3.000000000000e+00 2.295195777810e-04 
3.200000000000e+00 2.302501431147e-04 
3.400000000000e+00 2.311577489617e-04 
3.600000000000e+00 2.322670405055e-04 
3.800000000000e+00 2.336029859298e-04 
4.000000000000e+00 2.351905906145e-04 
4.200000000000e+00 2.370546567723e-04 
4.400000000000e+00 2.392195594976e-04 
4.600000000000e+00 2.417087322110e-04 
4.800000000000e+00 2.445399329669e-04 
5.000000000000e+00 2.476470255056e-04 
5.200000000000e+00 2.492593694262e-04 
 ZONE T="TIME=1.400000000000e+06"
0.000000000000e+00 2.273874245969e-04 
2.000000000000e-01 2.273874843889e-04 
4.000000000000e-01 2.273877035532e-04 
6.000000000000e-01 2.273883114403e-04 
8.000000000000e-01 2.273897436848e-04 
1.000000000000e+00 2.273927555662e-04 
1.200000000000e+00 2.273985648756e-04 
1.400000000000e+00 2.274090206471e-04 
1.600000000000e+00 2.274267902926e-04 
1.800000000000e+00 2.274555542279e-04 
2.000000000000e+00 2.275001945572e-04 
2.200000000000e+00 2.275669632481e-04 
2.400000000000e+00 2.276636157481e-04 
2.600000000000e+00 2.277994981612e-04 
2.800000000000e+00 2.279855796924e-04 
3.000000000000e+00 2.282344266221e-04 
3.200000000000e+00 2.285601189967e-04 
3.400000000000e+00 2.289781159078e-04 
3.600000000000e+00 2.295050791038e-04 
3.800000000000e+00 2.301586673249e-04 
4.000000000000e+00 2.309573148199e-04 
4.200000000000e+00 2.319200061313e-04 
4.400000000000e+00 2.330660476008e-04 
4.600000000000e+00 2.344147162910e-04 
4.800000000000e+00 2.359827895570e-04 
5.000000000000e+00 2.377395658110e-04 
5.200000000000e+00 2.386583736976e-04 
 ZONE T="TIME=1.500000000000e+06"
0.000000000000e+00 2.273874245969e-04 
2.000000000000e-01 2.273874381764e-04 
4.000000000000e-01 2.273874903146e-04 
6.000000000000e-01 2.273876419803e-04 
8.000000000000e-01 2.273880166406e-04 
1.000000000000e+00 2.273888419242e-04 
1.200000000000e+00 2.273905072863e-04 
1.400000000000e+00 2.273936391255e-04 
1.600000000000e+00 2.273991933658e-04 
1.800000000000e+00 2.274085637560e-04 
2.000000000000e+00 2.274237022377e-04 
2.200000000000e+00 2.274472459333e-04 
2.400000000000e+00 2.274826438505e-04 
2.600000000000e+00 2.275342754994e-04 
2.800000000000e+00 2.276075534355e-04 
3.000000000000e+00 2.277090023308e-04 
3.200000000000e+00 2.278463085195e-04 
3.400000000000e+00 2.280283359123e-04 
3.600000000000e+00 2.282651065360e-04 
3.800000000000e+00 2.285677464587e-04 
4.000000000000e+00 2.289484001931e-04 
4.200000000000e+00 2.294201182917e-04 
4.400000000000e+00 2.299967202245e-04 
4.600000000000e+00 2.306925786803e-04 
4.800000000000e+00 2.315212091206e-04 
5.000000000000e+00 2.324689935833e-04 
5.200000000000e+00 2.329685358690e-04 
 ZONE T="TIME=1.600000000000e+06"
0.000000000000e+00 2.273874245969e-04 
2.000000000000e-01 2.273874277084e-04 
4.000000000000e-01 2.273874401026e-04 
6.000000000000e-01 2.273874776259e-04 
8.000000000000e-01 2.273875742027e-04 
1.000000000000e+00 2.273877958665e-04 
1.200000000000e+00 2.273882617372e-04 
1.400000000000e+00 2.273891735729e-04 
1.600000000000e+00 2.273908552557e-04 
1.800000000000e+00 2.273938030698e-04 
2.000000000000e+00 2.273987469011e-04 
2.200000000000e+00 2.274067215934e-04 
2.400000000000e+00 2.274191466984e-04 
2.600000000000e+00 2.274379118688e-04 
2.800000000000e+00 2.274654642699e-04 
3.000000000000e+00 2.275048937317e-04 
3.200000000000e+00 2.275600110263e-04 
3.400000000000e+00 2.276354146769e-04 
3.600000000000e+00 2.277365421247e-04 
3.800000000000e+00 2.278697018511e-04 
4.000000000000e+00 2.280420841160e-04 
4.200000000000e+00 2.282617490921e-04 
4.400000000000e+00 2.285375907034e-04 
4.600000000000e+00 2.288792451803e-04 
4.800000000000e+00 2.292962895966e-04 
5.000000000000e+00 2.297832739625e-04 
5.200000000000e+00 2.300419630537e-04 
 ZONE T="TIME=1.700000000000e+06"
0.000000000000e+00 2.273874245969e-04 
2.000000000000e-01 2.273874253172e-04 
4.000000000000e-01 2.273874282725e-04 
6.000000000000e-01 2.273874375250e-04 
8.000000000000e-01 2.273874622004e-04 
1.000000000000e+00 2.273875209316e-04 
1.200000000000e+00 2.273876489562e-04 
1.400000000000e+00 2.273879087961e-04 
1.600000000000e+00 2.273884055102e-04 
1.800000000000e+00 2.273893074869e-04 
2.000000000000e+00 2.273908736001e-04 
2.200000000000e+00 2.273934872990e-04 
2.400000000000e+00 2.273976978231e-04 
2.600000000000e+00 2.274042682636e-04 
2.800000000000e+00 2.274142296471e-04 
3.000000000000e+00 2.274289396577e-04 
3.200000000000e+00 2.274501440790e-04 
3.400000000000e+00 2.274800385854e-04 
3.600000000000e+00 2.275213281946e-04 
3.800000000000e+00 2.275772815478e-04 
4.000000000000e+00 2.276517772280e-04 
4.200000000000e+00 2.277493395228e-04 
4.400000000000e+00 2.278751605629e-04 
4.600000000000e+00 2.280350887269e-04 
4.800000000000e+00 2.282352013715e-04 
5.000000000000e+00 2.284736658208e-04 
5.200000000000e+00 2.286013332981e-04 
 ZONE T="TIME=1.800000000000e+06"
0.000000000000e+00 2.273874245969e-04 
2.000000000000e-01 2.273874247654e-04 
4.000000000000e-01 2.273874254733e-04 
6.000000000000e-01 2.273874277535e-04 
8.000000000000e-01 2.273874340248e-04 
1.000000000000e+00 2.273874494393e-04 
1.200000000000e+00 2.273874841589e-04 
1.400000000000e+00 2.273875569839e-04 
1.600000000000e+00 2.273877008402e-04 
1.800000000000e+00 2.273879707036e-04 
2.000000000000e+00 2.273884545744e-04 
2.200000000000e+00 2.273892881072e-04 
2.400000000000e+00 2.273906734295e-04 
2.600000000000e+00 2.273929025532e-04 
2.800000000000e+00 2.273963855828e-04 
3.000000000000e+00 2.274016836712e-04 
3.200000000000e+00 2.274095463680e-04 
3.400000000000e+00 2.274209526816e-04 
3.600000000000e+00 2.274371548450e-04 
3.800000000000e+00 2.274597234714e-04 
4.000000000000e+00 2.274905925346e-04 
4.200000000000e+00 2.275321024074e-04 
4.400000000000e+00 2.275870386087e-04 
4.600000000000e+00 2.276586536488e-04 
4.800000000000e+00 2.277504577726e-04 
5.000000000000e+00 2.278620216150e-04 
5.200000000000e+00 2.279222064580e-04 
 ZONE T="TIME=1.900000000000e+06"
0.000000000000e+00 2.273874245969e-04 
2.000000000000e-01 2.273874246367e-04 
4.000000000000e-01 2.273874248071e-04 
6.000000000000e-01 2.273874253695e-04 
8.000000000000e-01 2.273874269585e-04 
1.000000000000e+00 2.273874309771e-04 
1.200000000000e+00 2.273874402986e-04 
1.400000000000e+00 2.273874604434e-04 
1.600000000000e+00 2.273875014494e-04 
1.800000000000e+00 2.273875807136e-04 
2.000000000000e+00 2.273877271312e-04 
2.200000000000e+00 2.273879869049e-04 
2.400000000000e+00 2.273884314165e-04 
2.600000000000e+00 2.273891675573e-04 
2.800000000000e+00 2.273903508775e-04 
3.000000000000e+00 2.273922018511e-04 
3.200000000000e+00 2.273950254462e-04 
3.400000000000e+00 2.273992340500e-04 
3.600000000000e+00 2.274053736276e-04 
3.800000000000e+00 2.274141527998e-04 
4.000000000000e+00 2.274264743217e-04 
4.200000000000e+00 2.274434682253e-04 
4.400000000000e+00 2.274665254175e-04 
4.600000000000e+00 2.274973245262e-04 
4.800000000000e+00 2.275377380379e-04 
5.000000000000e+00 2.275877774363e-04 
5.200000000000e+00 2.276149692078e-04 
 ZONE T="TIME=2.000000000000e+06"
0.000000000000e+00 2.273874245969e-04 
2.000000000000e-01 2.273874246064e-04 
4.000000000000e-01 2.273874246476e-04 
6.000000000000e-01 2.273874247865e-04 
8.000000000000e-01 2.273874251885e-04 
1.000000000000e+00 2.273874262310e-04 
1.200000000000e+00 2.273874287142e-04 
1.400000000000e+00 2.273874342284e-04 
1.600000000000e+00 2.273874457657e-04 
1.800000000000e+00 2.273874686917e-04 
2.000000000000e+00 2.273875122261e-04 
2.200000000000e+00 2.273875916154e-04 
2.400000000000e+00 2.273877312154e-04 
2.600000000000e+00 2.273879687260e-04 
2.800000000000e+00 2.273883608406e-04 
3.000000000000e+00 2.273889905752e-04 
3.200000000000e+00 2.273899765308e-04 
3.400000000000e+00 2.273914843069e-04 
3.600000000000e+00 2.273937402329e-04 
3.800000000000e+00 2.273970475007e-04 
4.000000000000e+00 2.274018046909e-04 
4.200000000000e+00 2.274085265548e-04 
4.400000000000e+00 2.274178666262e-04 
4.600000000000e+00 2.274306379291e-04 
4.800000000000e+00 2.274477743692e-04 
5.000000000000e+00 2.274693720364e-04 
5.200000000000e+00 2.274811893333e-04 
 ZONE T="TIME=2.100000000000e+06"
0.000000000000e+00 2.273874245969e-04 
2.000000000000e-01 2.273874245992e-04 
4.000000000000e-01 2.273874246092e-04 
6.000000000000e-01 2.273874246436e-04 
8.000000000000e-01 2.273874247452e-04 
1.000000000000e+00 2.273874250147e-04 
1.200000000000e+00 2.273874256722e-04 
1.400000000000e+00 2.273874271687e-04 
1.600000000000e+00 2.273874303798e-04 
1.800000000000e+00 2.273874369256e-04 
2.000000000000e+00 2.273874496777e-04 
2.200000000000e+00 2.273874735353e-04 
2.400000000000e+00 2.273875165704e-04 
2.600000000000e+00 2.273875916673e-04 
2.800000000000e+00 2.273877188011e-04 
3.000000000000e+00 2.273879281200e-04 
3.200000000000e+00 2.273882640083e-04 
3.400000000000e+00 2.273887903127e-04 
3.600000000000e+00 2.273895969141e-04 
3.800000000000e+00 2.273908078067e-04 
4.000000000000e+00 2.273925908211e-04 
4.200000000000e+00 2.273951690797e-04 
4.400000000000e+00 2.273988341240e-04 
4.600000000000e+00 2.274039589466e-04 
4.800000000000e+00 2.274109834475e-04 
5.000000000000e+00 2.274199862028e-04 
5.200000000000e+00 2.274249439859e-04 
 ZONE T="TIME=2.200000000000e+06"
0.000000000000e+00 2.273874245969e-04 
2.000000000000e-01 2.273874245975e-04 
4.000000000000e-01 2.273874245999e-04 
6.000000000000e-01 2.273874246084e-04 
8.000000000000e-01 2.273874246341e-04 
1.000000000000e+00 2.273874247036e-04 
1.200000000000e+00 2.273874248768e-04 
1.400000000000e+00 2.273874252801e-04 
1.600000000000e+00 2.273874261658e-04 
1.800000000000e+00 2.273874280143e-04 
2.000000000000e+00 2.273874317021e-04 
2.200000000000e+00 2.273874387682e-04 
2.400000000000e+00 2.273874518223e-04 
2.600000000000e+00 2.273874751504e-04 
2.800000000000e+00 2.273875155889e-04 
3.000000000000e+00 2.273875837516e-04 
3.200000000000e+00 2.273876957079e-04 
3.400000000000e+00 2.273878752266e-04 
3.600000000000e+00 2.273881567057e-04 
3.800000000000e+00 2.273885889191e-04 
4.000000000000e+00 2.273892397084e-04 
4.200000000000e+00 2.273902017403e-04 
4.400000000000e+00 2.273915993877e-04 
4.600000000000e+00 2.273935959624e-04 
4.800000000000e+00 2.273963887440e-04 
5.000000000000e+00 2.274000250251e-04 
5.200000000000e+00 2.274020396237e-04 
 ZONE T="TIME=2.300000000000e+06"
0.000000000000e+00 2.273874245969e-04 
2.000000000000e-01 2.273874245970e-04 
4.000000000000e-01 2.273874245976e-04 
6.000000000000e-01 2.273874245998e-04 
8.000000000000e-01 2.273874246062e-04 
1.000000000000e+00 2.273874246241e-04 
1.200000000000e+00 2.273874246696e-04 
1.400000000000e+00 2.273874247777e-04 
1.600000000000e+00 2.273874250201e-04 
1.800000000000e+00 2.273874255372e-04 
2.000000000000e+00 2.273874265920e-04 
2.200000000000e+00 2.273874286586e-04 
2.400000000000e+00 2.273874325628e-04 
2.600000000000e+00 2.273874396976e-04 
2.800000000000e+00 2.273874523447e-04 
3.000000000000e+00 2.273874741412e-04 
3.200000000000e+00 2.273875107404e-04 
3.400000000000e+00 2.273875707254e-04 
3.600000000000e+00 2.273876668440e-04 
3.800000000000e+00 2.273878176433e-04 
4.000000000000e+00 2.273880495894e-04 
4.200000000000e+00 2.273883997639e-04 
4.400000000000e+00 2.273889192021e-04 
4.600000000000e+00 2.273896765639e-04 
4.800000000000e+00 2.273907566321e-04 
5.000000000000e+00 2.273921840145e-04 
5.200000000000e+00 2.273929792909e-04 
 ZONE T="TIME=2.400000000000e+06"
0.000000000000e+00 2.273874245969e-04 
2.000000000000e-01 2.273874245969e-04 
4.000000000000e-01 2.273874245971e-04 
6.000000000000e-01 2.273874245976e-04 
8.000000000000e-01 2.273874245993e-04 
1.000000000000e+00 2.273874246039e-04 
1.200000000000e+00 2.273874246157e-04 
1.400000000000e+00 2.273874246446e-04 
1.600000000000e+00 2.273874247105e-04 
1.800000000000e+00 2.273874248540e-04 
2.000000000000e+00 2.273874251528e-04 
2.200000000000e+00 2.273874257506e-04 
2.400000000000e+00 2.273874269038e-04 
2.600000000000e+00 2.273874290563e-04 
2.800000000000e+00 2.273874329528e-04 
3.000000000000e+00 2.273874398108e-04 
3.200000000000e+00 2.273874515698e-04 
3.400000000000e+00 2.273874712476e-04 
3.600000000000e+00 2.273875034369e-04 
3.800000000000e+00 2.273875549842e-04 
4.000000000000e+00 2.273876358975e-04 
4.200000000000e+00 2.273877605387e-04 
4.400000000000e+00 2.273879491472e-04 
4.600000000000e+00 2.273882295786e-04 
4.800000000000e+00 2.273886369339e-04 
5.000000000000e+00 2.273891828965e-04 
5.200000000000e+00 2.273894886889e-04 
 ZONE T="TIME=2.500000000000e+06"
0.000000000000e+00 2.273874245969e-04 
2.000000000000e-01 2.273874245969e-04 
4.000000000000e-01 2.273874245970e-04 
6.000000000000e-01 2.273874245971e-04 
8.000000000000e-01 2.273874245975e-04 
1.000000000000e+00 2.273874245987e-04 
1.200000000000e+00 2.273874246018e-04 
1.400000000000e+00 2.273874246094e-04 
1.600000000000e+00 2.273874246273e-04 
1.800000000000e+00 2.273874246668e-04 
2.000000000000e+00 2.273874247508e-04 
2.200000000000e+00 2.273874249220e-04 
2.400000000000e+00 2.273874252590e-04 
2.600000000000e+00 2.273874259005e-04 
2.800000000000e+00 2.273874270851e-04 
3.000000000000e+00 2.273874292119e-04 
3.200000000000e+00 2.273874329318e-04 
3.400000000000e+00 2.273874392810e-04 
3.600000000000e+00 2.273874498736e-04 
3.800000000000e+00 2.273874671713e-04 
4.000000000000e+00 2.273874948556e-04 
4.200000000000e+00 2.273875383304e-04 
4.400000000000e+00 2.273876053837e-04 
4.600000000000e+00 2.273877069654e-04 
4.800000000000e+00 2.273878571358e-04 
5.000000000000e+00 2.273880610885e-04 
5.200000000000e+00 2.273881758855e-04 
 ZONE T="TIME=2.600000000000e+06"
0.000000000000e+00 2.273874245969e-04 
2.000000000000e-01 2.273874245969e-04 
4.000000000000e-01 2.273874245969e-04 
6.000000000000e-01 2.273874245970e-04 
8.000000000000e-01 2.273874245971e-04 
1.000000000000e+00 2.273874245974e-04 
1.200000000000e+00 2.273874245982e-04 
1.400000000000e+00 2.273874246002e-04 
1.600000000000e+00 2.273874246050e-04 
1.800000000000e+00 2.273874246158e-04 
2.000000000000e+00 2.273874246392e-04 
2.200000000000e+00 2.273874246879e-04 
2.400000000000e+00 2.273874247854e-04 
2.600000000000e+00 2.273874249745e-04 
2.800000000000e+00 2.273874253304e-04 
3.000000000000e+00 2.273874259815e-04 
3.200000000000e+00 2.273874271419e-04 
3.400000000000e+00 2.273874291603e-04 
3.600000000000e+00 2.273874325912e-04 
3.800000000000e+00 2.273874382995e-04 
4.000000000000e+00 2.273874476065e-04 
4.200000000000e+00 2.273874624940e-04 
4.400000000000e+00 2.273874858790e-04 
4.600000000000e+00 2.273875219464e-04 
4.800000000000e+00 2.273875761652e-04 
5.000000000000e+00 2.273876507290e-04 
5.200000000000e+00 2.273876928917e-04 
 ZONE T="TIME=2.700000000000e+06"
0.000000000000e+00 2.273874245969e-04 
2.000000000000e-01 2.273874245969e-04 
4.000000000000e-01 2.273874245969e-04 
6.000000000000e-01 2.273874245969e-04 
8.000000000000e-01 2.273874245969e-04 
1.000000000000e+00 2.273874245970e-04 
1.200000000000e+00 2.273874245972e-04 
1.400000000000e+00 2.273874245978e-04 
1.600000000000e+00 2.273874245991e-04 
1.800000000000e+00 2.273874246020e-04 
2.000000000000e+00 2.273874246085e-04 
2.200000000000e+00 2.273874246222e-04 