 TITLE = "Profiles along polylines"
 VARIABLES = "DIST" "PRESSURE1" "SATURATION1" "SATURATION2" 
 ZONE T="TIME=0.000000000000e+00"
0.000000000000e+00 9.806700000000e+04 1.000000000000e+00 0.000000000000e+00 
3.333333333333e-01 9.806700000000e+04 1.000000000000e+00 0.000000000000e+00 
6.666666666667e-01 9.806700000000e+04 1.000000000000e+00 0.000000000000e+00 
1.000000000000e+00 9.806700000000e+04 1.000000000000e+00 0.000000000000e+00 
1.333333333333e+00 9.806700000000e+04 1.000000000000e+00 0.000000000000e+00 
1.666666666667e+00 9.806700000000e+04 1.000000000000e+00 0.000000000000e+00 
2.000000000000e+00 9.806700000000e+04 1.000000000000e+00 0.000000000000e+00 
2.333333333333e+00 9.806700000000e+04 1.000000000000e+00 0.000000000000e+00 
2.666666666667e+00 9.806700000000e+04 1.000000000000e+00 0.000000000000e+00 
3.000000000000e+00 9.806700000000e+04 1.000000000000e+00 0.000000000000e+00 
3.333333333333e+00 9.806700000000e+04 1.000000000000e+00 0.000000000000e+00 
3.666666666667e+00 9.806700000000e+04 1.000000000000e+00 0.000000000000e+00 
4.000000000000e+00 9.806700000000e+04 1.000000000000e+00 0.000000000000e+00 
4.333333333333e+00 9.806700000000e+04 1.000000000000e+00 0.000000000000e+00 
4.666666666667e+00 9.806700000000e+04 1.000000000000e+00 0.000000000000e+00 
5.000000000000e+00 9.806700000000e+04 8.999977480000e-01 1.000022520000e-01 
5.333333333333e+00 9.806700000000e+04 8.999977480000e-01 1.000022520000e-01 
5.666666666667e+00 9.806700000000e+04 8.999977480000e-01 1.000022520000e-01 
6.000000000000e+00 9.806700000000e+04 8.999977480000e-01 1.000022520000e-01 
6.333333333333e+00 9.806700000000e+04 8.999977480000e-01 1.000022520000e-01 
6.666666666667e+00 9.806700000000e+04 8.999977480000e-01 1.000022520000e-01 
7.000000000000e+00 9.806700000000e+04 8.999977480000e-01 1.000022520000e-01 
7.333333333333e+00 9.806700000000e+04 8.999977480000e-01 1.000022520000e-01 
7.666666666667e+00 9.806700000000e+04 8.999977480000e-01 1.000022520000e-01 
8.000000000000e+00 9.806700000000e+04 8.999977480000e-01 1.000022520000e-01 
8.333333333333e+00 9.806700000000e+04 8.999977480000e-01 1.000022520000e-01 
8.666666666667e+00 9.806700000000e+04 8.999977480000e-01 1.000022520000e-01 
9.000000000000e+00 9.806700000000e+04 8.999977480000e-01 1.000022520000e-01 
9.333333333333e+00 9.806700000000e+04 8.999977480000e-01 1.000022520000e-01 
9.666666666667e+00 9.806700000000e+04 8.999977480000e-01 1.000022520000e-01 
1.000000000000e+01 9.806700000000e+04 8.999977480000e-01 1.000022520000e-01 
1.033333333333e+01 9.806700000000e+04 8.999977480000e-01 1.000022520000e-01 
1.066666666667e+01 9.806700000000e+04 1.000000000000e+00 0.000000000000e+00 
1.100000000000e+01 9.806700000000e+04 1.000000000000e+00 0.000000000000e+00 
1.133333333333e+01 9.806700000000e+04 1.000000000000e+00 0.000000000000e+00 
1.166666666667e+01 9.806700000000e+04 1.000000000000e+00 0.000000000000e+00 
1.200000000000e+01 9.806700000000e+04 1.000000000000e+00 0.000000000000e+00 
1.233333333333e+01 9.806700000000e+04 1.000000000000e+00 0.000000000000e+00 
1.266666666667e+01 9.806700000000e+04 1.000000000000e+00 0.000000000000e+00 
1.300000000000e+01 9.806700000000e+04 1.000000000000e+00 0.000000000000e+00 
1.333333333333e+01 9.806700000000e+04 1.000000000000e+00 0.000000000000e+00 
1.366666666667e+01 9.806700000000e+04 1.000000000000e+00 0.000000000000e+00 
1.400000000000e+01 9.806700000000e+04 1.000000000000e+00 0.000000000000e+00 
1.433333333333e+01 9.806700000000e+04 1.000000000000e+00 0.000000000000e+00 
1.466666666667e+01 9.806700000000e+04 1.000000000000e+00 0.000000000000e+00 
1.500000000000e+01 9.806700000000e+04 1.000000000000e+00 0.000000000000e+00 
1.533333333333e+01 9.806700000000e+04 1.000000000000e+00 0.000000000000e+00 
1.566666666667e+01 9.806700000000e+04 1.000000000000e+00 0.000000000000e+00 
1.600000000000e+01 9.806700000000e+04 1.000000000000e+00 0.000000000000e+00 
1.633333333333e+01 9.806700000000e+04 1.000000000000e+00 0.000000000000e+00 
1.666666666667e+01 9.806700000000e+04 1.000000000000e+00 0.000000000000e+00 
1.700000000000e+01 9.806700000000e+04 1.000000000000e+00 0.000000000000e+00 
1.733333333333e+01 9.806700000000e+04 1.000000000000e+00 0.000000000000e+00 
1.766666666667e+01 9.806700000000e+04 1.000000000000e+00 0.000000000000e+00 
1.800000000000e+01 9.806700000000e+04 1.000000000000e+00 0.000000000000e+00 
1.833333333333e+01 9.806700000000e+04 1.000000000000e+00 0.000000000000e+00 
1.866666666667e+01 9.806700000000e+04 1.000000000000e+00 0.000000000000e+00 
1.900000000000e+01 9.806700000000e+04 1.000000000000e+00 0.000000000000e+00 
1.933333333333e+01 9.806700000000e+04 1.000000000000e+00 0.000000000000e+00 
1.966666666667e+01 9.806700000000e+04 1.000000000000e+00 0.000000000000e+00 
2.000000000000e+01 9.806700000000e+04 1.000000000000e+00 0.000000000000e+00 
2.033333333333e+01 9.806700000000e+04 1.000000000000e+00 0.000000000000e+00 
2.066666666667e+01 9.806700000000e+04 1.000000000000e+00 0.000000000000e+00 
2.100000000000e+01 9.806700000000e+04 1.000000000000e+00 0.000000000000e+00 
2.133333333333e+01 9.806700000000e+04 1.000000000000e+00 0.000000000000e+00 
2.166666666667e+01 9.806700000000e+04 1.000000000000e+00 0.000000000000e+00 
2.200000000000e+01 9.806700000000e+04 1.000000000000e+00 0.000000000000e+00 
2.233333333333e+01 9.806700000000e+04 1.000000000000e+00 0.000000000000e+00 
2.266666666667e+01 9.806700000000e+04 1.000000000000e+00 0.000000000000e+00 
2.300000000000e+01 9.806700000000e+04 1.000000000000e+00 0.000000000000e+00 
2.333333333333e+01 9.806700000000e+04 1.000000000000e+00 0.000000000000e+00 
2.366666666667e+01 9.806700000000e+04 1.000000000000e+00 0.000000000000e+00 
2.400000000000e+01 9.806700000000e+04 1.000000000000e+00 0.000000000000e+00 
2.433333333333e+01 9.806700000000e+04 1.000000000000e+00 0.000000000000e+00 
2.466666666667e+01 9.806700000000e+04 1.000000000000e+00 0.000000000000e+00 
2.500000000000e+01 9.806700000000e+04 1.000000000000e+00 0.000000000000e+00 
2.533333333333e+01 9.806700000000e+04 1.000000000000e+00 0.000000000000e+00 
2.566666666667e+01 9.806700000000e+04 1.000000000000e+00 0.000000000000e+00 
2.600000000000e+01 9.806700000000e+04 1.000000000000e+00 0.000000000000e+00 
2.633333333333e+01 9.806700000000e+04 1.000000000000e+00 0.000000000000e+00 
2.666666666667e+01 9.806700000000e+04 1.000000000000e+00 0.000000000000e+00 
2.700000000000e+01 9.806700000000e+04 1.000000000000e+00 0.000000000000e+00 
2.733333333333e+01 9.806700000000e+04 1.000000000000e+00 0.000000000000e+00 
2.766666666667e+01 9.806700000000e+04 1.000000000000e+00 0.000000000000e+00 
2.800000000000e+01 9.806700000000e+04 1.000000000000e+00 0.000000000000e+00 
2.833333333333e+01 9.806700000000e+04 1.000000000000e+00 0.000000000000e+00 
2.866666666667e+01 9.806700000000e+04 1.000000000000e+00 0.000000000000e+00 
2.900000000000e+01 9.806700000000e+04 1.000000000000e+00 0.000000000000e+00 
2.933333333333e+01 9.806700000000e+04 1.000000000000e+00 0.000000000000e+00 
2.966666666667e+01 9.806700000000e+04 1.000000000000e+00 0.000000000000e+00 
3.000000000000e+01 9.806700000000e+04 1.000000000000e+00 0.000000000000e+00 
3.033333333333e+01 9.806700000000e+04 1.000000000000e+00 0.000000000000e+00 
3.066666666667e+01 9.806700000000e+04 1.000000000000e+00 0.000000000000e+00 
3.100000000000e+01 9.806700000000e+04 1.000000000000e+00 0.000000000000e+00 
3.133333333333e+01 9.806700000000e+04 1.000000000000e+00 0.000000000000e+00 
3.166666666667e+01 9.806700000000e+04 1.000000000000e+00 0.000000000000e+00 
3.200000000000e+01 9.806700000000e+04 1.000000000000e+00 0.000000000000e+00 
3.233333333333e+01 9.806700000000e+04 1.000000000000e+00 0.000000000000e+00 
3.266666666667e+01 9.806700000000e+04 1.000000000000e+00 0.000000000000e+00 
3.300000000000e+01 9.806700000000e+04 1.000000000000e+00 0.000000000000e+00 
3.333333333333e+01 9.806700000000e+04 1.000000000000e+00 0.000000000000e+00 
3.366666666667e+01 9.806700000000e+04 1.000000000000e+00 0.000000000000e+00 
3.400000000000e+01 9.806700000000e+04 1.000000000000e+00 0.000000000000e+00 
3.433333333333e+01 9.806700000000e+04 1.000000000000e+00 0.000000000000e+00 
3.466666666667e+01 9.806700000000e+04 1.000000000000e+00 0.000000000000e+00 
3.500000000000e+01 9.806700000000e+04 1.000000000000e+00 0.000000000000e+00 
3.533333333333e+01 9.806700000000e+04 1.000000000000e+00 0.000000000000e+00 
3.566666666667e+01 9.806700000000e+04 1.000000000000e+00 0.000000000000e+00 
3.600000000000e+01 9.806700000000e+04 1.000000000000e+00 0.000000000000e+00 
3.633333333333e+01 9.806700000000e+04 1.000000000000e+00 0.000000000000e+00 
3.666666666667e+01 9.806700000000e+04 1.000000000000e+00 0.000000000000e+00 
3.700000000000e+01 9.806700000000e+04 1.000000000000e+00 0.000000000000e+00 
3.733333333333e+01 9.806700000000e+04 1.000000000000e+00 0.000000000000e+00 
3.766666666667e+01 9.806700000000e+04 1.000000000000e+00 0.000000000000e+00 
3.800000000000e+01 9.806700000000e+04 1.000000000000e+00 0.000000000000e+00 
3.833333333333e+01 9.806700000000e+04 1.000000000000e+00 0.000000000000e+00 
3.866666666667e+01 9.806700000000e+04 1.000000000000e+00 0.000000000000e+00 
3.900000000000e+01 9.806700000000e+04 1.000000000000e+00 0.000000000000e+00 
3.933333333333e+01 9.806700000000e+04 1.000000000000e+00 0.000000000000e+00 
3.966666666667e+01 9.806700000000e+04 1.000000000000e+00 0.000000000000e+00 
4.000000000000e+01 9.806700000000e+04 1.000000000000e+00 0.000000000000e+00 
4.033333333333e+01 9.806700000000e+04 1.000000000000e+00 0.000000000000e+00 
4.066666666667e+01 9.806700000000e+04 1.000000000000e+00 0.000000000000e+00 
4.100000000000e+01 9.806700000000e+04 1.000000000000e+00 0.000000000000e+00 
4.133333333333e+01 9.806700000000e+04 1.000000000000e+00 0.000000000000e+00 
4.166666666667e+01 9.806700000000e+04 1.000000000000e+00 0.000000000000e+00 
4.200000000000e+01 9.806700000000e+04 1.000000000000e+00 0.000000000000e+00 
4.233333333333e+01 9.806700000000e+04 1.000000000000e+00 0.000000000000e+00 
4.266666666667e+01 9.806700000000e+04 1.000000000000e+00 0.000000000000e+00 
4.300000000000e+01 9.806700000000e+04 1.000000000000e+00 0.000000000000e+00 
4.333333333333e+01 9.806700000000e+04 1.000000000000e+00 0.000000000000e+00 
4.366666666667e+01 9.806700000000e+04 1.000000000000e+00 0.000000000000e+00 
4.400000000000e+01 9.806700000000e+04 1.000000000000e+00 0.000000000000e+00 
4.433333333333e+01 9.806700000000e+04 1.000000000000e+00 0.000000000000e+00 
4.466666666667e+01 9.806700000000e+04 1.000000000000e+00 0.000000000000e+00 
4.500000000000e+01 9.806700000000e+04 1.000000000000e+00 0.000000000000e+00 
4.533333333333e+01 9.806700000000e+04 1.000000000000e+00 0.000000000000e+00 
4.566666666667e+01 9.806700000000e+04 1.000000000000e+00 0.000000000000e+00 
4.600000000000e+01 9.806700000000e+04 1.000000000000e+00 0.000000000000e+00 
4.633333333333e+01 9.806700000000e+04 1.000000000000e+00 0.000000000000e+00 
4.666666666667e+01 9.806700000000e+04 1.000000000000e+00 0.000000000000e+00 
4.700000000000e+01 9.806700000000e+04 1.000000000000e+00 0.000000000000e+00 
4.733333333333e+01 9.806700000000e+04 1.000000000000e+00 0.000000000000e+00 
4.766666666667e+01 9.806700000000e+04 1.000000000000e+00 0.000000000000e+00 
4.800000000000e+01 9.806700000000e+04 1.000000000000e+00 0.000000000000e+00 
4.833333333333e+01 9.806700000000e+04 1.000000000000e+00 0.000000000000e+00 
4.866666666667e+01 9.806700000000e+04 1.000000000000e+00 0.000000000000e+00 
4.900000000000e+01 9.806700000000e+04 1.000000000000e+00 0.000000000000e+00 
4.933333333333e+01 9.806700000000e+04 1.000000000000e+00 0.000000000000e+00 
4.966666666667e+01 9.806700000000e+04 1.000000000000e+00 0.000000000000e+00 
5.000000000000e+01 9.806700000000e+04 1.000000000000e+00 0.000000000000e+00 
 TITLE = "Profiles along polylines"
 VARIABLES = "DIST" "PRESSURE1" "SATURATION1" "SATURATION2" 
 ZONE T="TIME=2.160000000000e+04"
0.000000000000e+00 9.810000000000e+04 1.000000000000e+00 0.000000000000e+00 
3.333333333333e-01 9.806936061052e+04 1.000000000000e+00 0.000000000000e+00 
6.666666666667e-01 9.803872122105e+04 1.000000000000e+00 0.000000000000e+00 
1.000000000000e+00 9.800808183157e+04 1.000000000000e+00 0.000000000000e+00 
1.333333333333e+00 9.797744244210e+04 1.000000000000e+00 0.000000000000e+00 
1.666666666667e+00 9.794680305262e+04 1.000000000000e+00 0.000000000000e+00 
2.000000000000e+00 9.791616366315e+04 1.000000000000e+00 0.000000000000e+00 
2.333333333333e+00 9.788552427367e+04 1.000000000000e+00 0.000000000000e+00 
2.666666666667e+00 9.785488488419e+04 1.000000000000e+00 0.000000000000e+00 
3.000000000000e+00 9.782424549472e+04 1.000000000000e+00 0.000000000000e+00 
3.333333333333e+00 9.779360610524e+04 1.000000000000e+00 0.000000000000e+00 
3.666666666667e+00 9.776296671577e+04 1.000000000000e+00 0.000000000000e+00 
4.000000000000e+00 9.773232732629e+04 1.000000000000e+00 0.000000000000e+00 
4.333333333333e+00 9.770168793682e+04 1.000000000000e+00 0.000000000000e+00 
4.666666666667e+00 9.767104854734e+04 1.000000000000e+00 0.000000000000e+00 
5.000000000000e+00 9.763284972929e+04 8.999977480000e-01 1.000022520000e-01 
5.333333333333e+00 9.758383704316e+04 8.999977480000e-01 1.000022520000e-01 
5.666666666667e+00 9.753482435703e+04 8.999977480000e-01 1.000022520000e-01 
6.000000000000e+00 9.748581167090e+04 8.999977480000e-01 1.000022520000e-01 
6.333333333333e+00 9.743679898477e+04 8.999977480000e-01 1.000022520000e-01 
6.666666666667e+00 9.738778629864e+04 8.999977480000e-01 1.000022520000e-01 
7.000000000000e+00 9.733877361251e+04 8.999977480000e-01 1.000022520000e-01 
7.333333333333e+00 9.728976092638e+04 8.999977480000e-01 1.000022520000e-01 
7.666666666667e+00 9.724074824025e+04 8.999977480000e-01 1.000022520000e-01 
8.000000000000e+00 9.719173555412e+04 8.999977480000e-01 1.000022520000e-01 
8.333333333333e+00 9.714272286799e+04 8.999977480000e-01 1.000022520000e-01 
8.666666666667e+00 9.709371018186e+04 8.999977480000e-01 1.000022520000e-01 
9.000000000000e+00 9.704469749573e+04 8.999977480000e-01 1.000022520000e-01 
9.333333333333e+00 9.699568480960e+04 8.999977480000e-01 1.000022520000e-01 
9.666666666667e+00 9.694667212348e+04 8.999977480000e-01 1.000022520000e-01 
1.000000000000e+01 9.689765943735e+04 8.999977480000e-01 1.000022520000e-01 
1.033333333333e+01 9.684864675122e+04 8.999977480000e-01 1.000022520000e-01 
1.066666666667e+01 9.681044793317e+04 1.000000000000e+00 0.000000000000e+00 
1.100000000000e+01 9.677980854370e+04 1.000000000000e+00 0.000000000000e+00 
1.133333333333e+01 9.674916915423e+04 1.000000000000e+00 0.000000000000e+00 
1.166666666667e+01 9.671852976476e+04 1.000000000000e+00 0.000000000000e+00 
1.200000000000e+01 9.668789037529e+04 1.000000000000e+00 0.000000000000e+00 
1.233333333333e+01 9.665725098582e+04 1.000000000000e+00 0.000000000000e+00 
1.266666666667e+01 9.662661159635e+04 1.000000000000e+00 0.000000000000e+00 
1.300000000000e+01 9.659597220688e+04 1.000000000000e+00 0.000000000000e+00 
1.333333333333e+01 9.656533281742e+04 1.000000000000e+00 0.000000000000e+00 
1.366666666667e+01 9.653469342795e+04 1.000000000000e+00 0.000000000000e+00 
1.400000000000e+01 9.650405403848e+04 1.000000000000e+00 0.000000000000e+00 
1.433333333333e+01 9.647341464902e+04 1.000000000000e+00 0.000000000000e+00 
1.466666666667e+01 9.644277525955e+04 1.000000000000e+00 0.000000000000e+00 
1.500000000000e+01 9.641213587009e+04 1.000000000000e+00 0.000000000000e+00 
1.533333333333e+01 9.638149648063e+04 1.000000000000e+00 0.000000000000e+00 
1.566666666667e+01 9.635085709117e+04 1.000000000000e+00 0.000000000000e+00 
1.600000000000e+01 9.632021770171e+04 1.000000000000e+00 0.000000000000e+00 
1.633333333333e+01 9.628957831226e+04 1.000000000000e+00 0.000000000000e+00 
1.666666666667e+01 9.625893892280e+04 1.000000000000e+00 0.000000000000e+00 
1.700000000000e+01 9.622829953335e+04 1.000000000000e+00 0.000000000000e+00 
1.733333333333e+01 9.619766014390e+04 1.000000000000e+00 0.000000000000e+00 
1.766666666667e+01 9.616702075445e+04 1.000000000000e+00 0.000000000000e+00 
1.800000000000e+01 9.613638136500e+04 1.000000000000e+00 0.000000000000e+00 
1.833333333333e+01 9.610574197555e+04 1.000000000000e+00 0.000000000000e+00 
1.866666666667e+01 9.607510258611e+04 1.000000000000e+00 0.000000000000e+00 
1.900000000000e+01 9.604446319667e+04 1.000000000000e+00 0.000000000000e+00 
1.933333333333e+01 9.601382380723e+04 1.000000000000e+00 0.000000000000e+00 
1.966666666667e+01 9.598318441779e+04 1.000000000000e+00 0.000000000000e+00 
2.000000000000e+01 9.595254502835e+04 1.000000000000e+00 0.000000000000e+00 
2.033333333333e+01 9.592190563892e+04 1.000000000000e+00 0.000000000000e+00 
2.066666666667e+01 9.589126624949e+04 1.000000000000e+00 0.000000000000e+00 
2.100000000000e+01 9.586062686007e+04 1.000000000000e+00 0.000000000000e+00 
2.133333333333e+01 9.582998747064e+04 1.000000000000e+00 0.000000000000e+00 
2.166666666667e+01 9.579934808122e+04 1.000000000000e+00 0.000000000000e+00 
2.200000000000e+01 9.576870869181e+04 1.000000000000e+00 0.000000000000e+00 
2.233333333333e+01 9.573806930239e+04 1.000000000000e+00 0.000000000000e+00 
2.266666666667e+01 9.570742991298e+04 1.000000000000e+00 0.000000000000e+00 
2.300000000000e+01 9.567679052358e+04 1.000000000000e+00 0.000000000000e+00 
2.333333333333e+01 9.564615113417e+04 1.000000000000e+00 0.000000000000e+00 
2.366666666667e+01 9.561551174477e+04 1.000000000000e+00 0.000000000000e+00 
2.400000000000e+01 9.558487235538e+04 1.000000000000e+00 0.000000000000e+00 
2.433333333333e+01 9.555423296599e+04 1.000000000000e+00 0.000000000000e+00 
2.466666666667e+01 9.552359357660e+04 1.000000000000e+00 0.000000000000e+00 
2.500000000000e+01 9.549295418722e+04 1.000000000000e+00 0.000000000000e+00 
2.533333333333e+01 9.546231479784e+04 1.000000000000e+00 0.000000000000e+00 
2.566666666667e+01 9.543167540847e+04 1.000000000000e+00 0.000000000000e+00 
2.600000000000e+01 9.540103601910e+04 1.000000000000e+00 0.000000000000e+00 
2.633333333333e+01 9.537039662974e+04 1.000000000000e+00 0.000000000000e+00 
2.666666666667e+01 9.533975724038e+04 1.000000000000e+00 0.000000000000e+00 
2.700000000000e+01 9.530911785103e+04 1.000000000000e+00 0.000000000000e+00 
2.733333333333e+01 9.527847846168e+04 1.000000000000e+00 0.000000000000e+00 
2.766666666667e+01 9.524783907234e+04 1.000000000000e+00 0.000000000000e+00 
2.800000000000e+01 9.521719968300e+04 1.000000000000e+00 0.000000000000e+00 
2.833333333333e+01 9.518656029367e+04 1.000000000000e+00 0.000000000000e+00 
2.866666666667e+01 9.515592090434e+04 1.000000000000e+00 0.000000000000e+00 
2.900000000000e+01 9.512528151502e+04 1.000000000000e+00 0.000000000000e+00 
2.933333333333e+01 9.509464212571e+04 1.000000000000e+00 0.000000000000e+00 
2.966666666667e+01 9.506400273640e+04 1.000000000000e+00 0.000000000000e+00 
3.000000000000e+01 9.503336334710e+04 1.000000000000e+00 0.000000000000e+00 
3.033333333333e+01 9.500272395780e+04 1.000000000000e+00 0.000000000000e+00 
3.066666666667e+01 9.497208456851e+04 1.000000000000e+00 0.000000000000e+00 
3.100000000000e+01 9.494144517923e+04 1.000000000000e+00 0.000000000000e+00 
3.133333333333e+01 9.491080578995e+04 1.000000000000e+00 0.000000000000e+00 
3.166666666667e+01 9.488016640068e+04 1.000000000000e+00 0.000000000000e+00 
3.200000000000e+01 9.484952701142e+04 1.000000000000e+00 0.000000000000e+00 
3.233333333333e+01 9.481888762216e+04 1.000000000000e+00 0.000000000000e+00 
3.266666666667e+01 9.478824823291e+04 1.000000000000e+00 0.000000000000e+00 
3.300000000000e+01 9.475760884367e+04 1.000000000000e+00 0.000000000000e+00 
3.333333333333e+01 9.472696945443e+04 1.000000000000e+00 0.000000000000e+00 
3.366666666667e+01 9.469633006520e+04 1.000000000000e+00 0.000000000000e+00 
3.400000000000e+01 9.466569067597e+04 1.000000000000e+00 0.000000000000e+00 
3.433333333333e+01 9.463505128676e+04 1.000000000000e+00 0.000000000000e+00 
3.466666666667e+01 9.460441189755e+04 1.000000000000e+00 0.000000000000e+00 
3.500000000000e+01 9.457377250834e+04 1.000000000000e+00 0.000000000000e+00 
3.533333333333e+01 9.454313311915e+04 1.000000000000e+00 0.000000000000e+00 
3.566666666667e+01 9.451249372996e+04 1.000000000000e+00 0.000000000000e+00 
3.600000000000e+01 9.448185434077e+04 1.000000000000e+00 0.000000000000e+00 
3.633333333333e+01 9.445121495160e+04 1.000000000000e+00 0.000000000000e+00 
3.666666666667e+01 9.442057556243e+04 1.000000000000e+00 0.000000000000e+00 
3.700000000000e+01 9.438993617327e+04 1.000000000000e+00 0.000000000000e+00 
3.733333333333e+01 9.435929678411e+04 1.000000000000e+00 0.000000000000e+00 
3.766666666667e+01 9.432865739496e+04 1.000000000000e+00 0.000000000000e+00 
3.800000000000e+01 9.429801800582e+04 1.000000000000e+00 0.000000000000e+00 
3.833333333333e+01 9.426737861668e+04 1.000000000000e+00 0.000000000000e+00 
3.866666666667e+01 9.423673922755e+04 1.000000000000e+00 0.000000000000e+00 
3.900000000000e+01 9.420609983843e+04 1.000000000000e+00 0.000000000000e+00 
3.933333333333e+01 9.417546044931e+04 1.000000000000e+00 0.000000000000e+00 
3.966666666667e+01 9.414482106020e+04 1.000000000000e+00 0.000000000000e+00 
4.000000000000e+01 9.411418167110e+04 1.000000000000e+00 0.000000000000e+00 
4.033333333333e+01 9.408354228200e+04 1.000000000000e+00 0.000000000000e+00 
4.066666666667e+01 9.405290289290e+04 1.000000000000e+00 0.000000000000e+00 
4.100000000000e+01 9.402226350382e+04 1.000000000000e+00 0.000000000000e+00 
4.133333333333e+01 9.399162411473e+04 1.000000000000e+00 0.000000000000e+00 
4.166666666667e+01 9.396098472566e+04 1.000000000000e+00 0.000000000000e+00 
4.200000000000e+01 9.393034533659e+04 1.000000000000e+00 0.000000000000e+00 
4.233333333333e+01 9.389970594752e+04 1.000000000000e+00 0.000000000000e+00 
4.266666666667e+01 9.386906655846e+04 1.000000000000e+00 0.000000000000e+00 
4.300000000000e+01 9.383842716940e+04 1.000000000000e+00 0.000000000000e+00 
4.333333333333e+01 9.380778778035e+04 1.000000000000e+00 0.000000000000e+00 
4.366666666667e+01 9.377714839131e+04 1.000000000000e+00 0.000000000000e+00 
4.400000000000e+01 9.374650900227e+04 1.000000000000e+00 0.000000000000e+00 
4.433333333333e+01 9.371586961323e+04 1.000000000000e+00 0.000000000000e+00 
4.466666666667e+01 9.368523022419e+04 1.000000000000e+00 0.000000000000e+00 
4.500000000000e+01 9.365459083516e+04 1.000000000000e+00 0.000000000000e+00 
4.533333333333e+01 9.362395144613e+04 1.000000000000e+00 0.000000000000e+00 
4.566666666667e+01 9.359331205711e+04 1.000000000000e+00 0.000000000000e+00 
4.600000000000e+01 9.356267266809e+04 1.000000000000e+00 0.000000000000e+00 
4.633333333333e+01 9.353203327907e+04 1.000000000000e+00 0.000000000000e+00 
4.666666666667e+01 9.350139389006e+04 1.000000000000e+00 0.000000000000e+00 
4.700000000000e+01 9.347075450104e+04 1.000000000000e+00 0.000000000000e+00 
4.733333333333e+01 9.344011511203e+04 1.000000000000e+00 0.000000000000e+00 
4.766666666667e+01 9.340947572303e+04 1.000000000000e+00 0.000000000000e+00 
4.800000000000e+01 9.337883633402e+04 1.000000000000e+00 0.000000000000e+00 
4.833333333333e+01 9.334819694501e+04 1.000000000000e+00 0.000000000000e+00 
4.866666666667e+01 9.331755755601e+04 1.000000000000e+00 0.000000000000e+00 
4.900000000000e+01 9.328691816700e+04 1.000000000000e+00 0.000000000000e+00 
4.933333333333e+01 9.325627877800e+04 1.000000000000e+00 0.000000000000e+00 
4.966666666667e+01 9.322563938900e+04 1.000000000000e+00 0.000000000000e+00 
5.000000000000e+01 9.319500000000e+04 1.000000000000e+00 0.000000000000e+00 
 TITLE = "Profiles along polylines"
 VARIABLES = "DIST" "PRESSURE1" "SATURATION1" "SATURATION2" 
 ZONE T="TIME=4.320000000000e+04"
0.000000000000e+00 9.810000000000e+04 1.000000000000e+00 0.000000000000e+00 
3.333333333333e-01 9.806936061052e+04 1.000000000000e+00 0.000000000000e+00 
6.666666666667e-01 9.803872122105e+04 1.000000000000e+00 0.000000000000e+00 
1.000000000000e+00 9.800808183157e+04 1.000000000000e+00 0.000000000000e+00 
1.333333333333e+00 9.797744244210e+04 1.000000000000e+00 0.000000000000e+00 
1.666666666667e+00 9.794680305262e+04 1.000000000000e+00 0.000000000000e+00 
2.000000000000e+00 9.791616366315e+04 1.000000000000e+00 0.000000000000e+00 
2.333333333333e+00 9.788552427367e+04 1.000000000000e+00 0.000000000000e+00 
2.666666666667e+00 9.785488488419e+04 1.000000000000e+00 0.000000000000e+00 
3.000000000000e+00 9.782424549472e+04 1.000000000000e+00 0.000000000000e+00 
3.333333333333e+00 9.779360610524e+04 1.000000000000e+00 0.000000000000e+00 
3.666666666667e+00 9.776296671577e+04 1.000000000000e+00 0.000000000000e+00 
4.000000000000e+00 9.773232732629e+04 1.000000000000e+00 0.000000000000e+00 
4.333333333333e+00 9.770168793682e+04 1.000000000000e+00 0.000000000000e+00 
4.666666666667e+00 9.767104854734e+04 1.000000000000e+00 0.000000000000e+00 
5.000000000000e+00 9.763284972929e+04 8.999977480000e-01 1.000022520000e-01 
5.333333333333e+00 9.758383704316e+04 8.999977480000e-01 1.000022520000e-01 
5.666666666667e+00 9.753482435703e+04 8.999977480000e-01 1.000022520000e-01 
6.000000000000e+00 9.748581167090e+04 8.999977480000e-01 1.000022520000e-01 
6.333333333333e+00 9.743679898477e+04 8.999977480000e-01 1.000022520000e-01 
6.666666666667e+00 9.738778629864e+04 8.999977480000e-01 1.000022520000e-01 
7.000000000000e+00 9.733877361251e+04 8.999977480000e-01 1.000022520000e-01 
7.333333333333e+00 9.728976092638e+04 8.999977480000e-01 1.000022520000e-01 
7.666666666667e+00 9.724074824025e+04 8.999977480000e-01 1.000022520000e-01 
8.000000000000e+00 9.719173555412e+04 8.999977480000e-01 1.000022520000e-01 
8.333333333333e+00 9.714272286799e+04 8.999977480000e-01 1.000022520000e-01 
8.666666666667e+00 9.709371018186e+04 8.999977480000e-01 1.000022520000e-01 
9.000000000000e+00 9.704469749573e+04 8.999977480000e-01 1.000022520000e-01 
9.333333333333e+00 9.699568480960e+04 8.999977480000e-01 1.000022520000e-01 
9.666666666667e+00 9.694667212348e+04 8.999977480000e-01 1.000022520000e-01 
1.000000000000e+01 9.689765943735e+04 8.999977480000e-01 1.000022520000e-01 
1.033333333333e+01 9.684864675122e+04 8.999977480000e-01 1.000022520000e-01 
1.066666666667e+01 9.681044793317e+04 1.000000000000e+00 0.000000000000e+00 
1.100000000000e+01 9.677980854370e+04 1.000000000000e+00 0.000000000000e+00 
1.133333333333e+01 9.674916915423e+04 1.000000000000e+00 0.000000000000e+00 
1.166666666667e+01 9.671852976476e+04 1.000000000000e+00 0.000000000000e+00 
1.200000000000e+01 9.668789037529e+04 1.000000000000e+00 0.000000000000e+00 
1.233333333333e+01 9.665725098582e+04 1.000000000000e+00 0.000000000000e+00 
1.266666666667e+01 9.662661159635e+04 1.000000000000e+00 0.000000000000e+00 
1.300000000000e+01 9.659597220688e+04 1.000000000000e+00 0.000000000000e+00 
1.333333333333e+01 9.656533281742e+04 1.000000000000e+00 0.000000000000e+00 
1.366666666667e+01 9.653469342795e+04 1.000000000000e+00 0.000000000000e+00 
1.400000000000e+01 9.650405403848e+04 1.000000000000e+00 0.000000000000e+00 
1.433333333333e+01 9.647341464902e+04 1.000000000000e+00 0.000000000000e+00 
1.466666666667e+01 9.644277525955e+04 1.000000000000e+00 0.000000000000e+00 
1.500000000000e+01 9.641213587009e+04 1.000000000000e+00 0.000000000000e+00 
1.533333333333e+01 9.638149648063e+04 1.000000000000e+00 0.000000000000e+00 
1.566666666667e+01 9.635085709117e+04 1.000000000000e+00 0.000000000000e+00 
1.600000000000e+01 9.632021770171e+04 1.000000000000e+00 0.000000000000e+00 
1.633333333333e+01 9.628957831226e+04 1.000000000000e+00 0.000000000000e+00 
1.666666666667e+01 9.625893892280e+04 1.000000000000e+00 0.000000000000e+00 
1.700000000000e+01 9.622829953335e+04 1.000000000000e+00 0.000000000000e+00 
1.733333333333e+01 9.619766014390e+04 1.000000000000e+00 0.000000000000e+00 
1.766666666667e+01 9.616702075445e+04 1.000000000000e+00 0.000000000000e+00 
1.800000000000e+01 9.613638136500e+04 1.000000000000e+00 0.000000000000e+00 
1.833333333333e+01 9.610574197555e+04 1.000000000000e+00 0.000000000000e+00 
1.866666666667e+01 9.607510258611e+04 1.000000000000e+00 0.000000000000e+00 
1.900000000000e+01 9.604446319667e+04 1.000000000000e+00 0.000000000000e+00 
1.933333333333e+01 9.601382380723e+04 1.000000000000e+00 0.000000000000e+00 
1.966666666667e+01 9.598318441779e+04 1.000000000000e+00 0.000000000000e+00 
2.000000000000e+01 9.595254502835e+04 1.000000000000e+00 0.000000000000e+00 
2.033333333333e+01 9.592190563892e+04 1.000000000000e+00 0.000000000000e+00 
2.066666666667e+01 9.589126624949e+04 1.000000000000e+00 0.000000000000e+00 
2.100000000000e+01 9.586062686007e+04 1.000000000000e+00 0.000000000000e+00 
2.133333333333e+01 9.582998747064e+04 1.000000000000e+00 0.000000000000e+00 
2.166666666667e+01 9.579934808122e+04 1.000000000000e+00 0.000000000000e+00 
2.200000000000e+01 9.576870869181e+04 1.000000000000e+00 0.000000000000e+00 
2.233333333333e+01 9.573806930239e+04 1.000000000000e+00 0.000000000000e+00 
2.266666666667e+01 9.570742991298e+04 1.000000000000e+00 0.000000000000e+00 
2.300000000000e+01 9.567679052358e+04 1.000000000000e+00 0.000000000000e+00 
2.333333333333e+01 9.564615113417e+04 1.000000000000e+00 0.000000000000e+00 
2.366666666667e+01 9.561551174477e+04 1.000000000000e+00 0.000000000000e+00 
2.400000000000e+01 9.558487235538e+04 1.000000000000e+00 0.000000000000e+00 
2.433333333333e+01 9.555423296599e+04 1.000000000000e+00 0.000000000000e+00 
2.466666666667e+01 9.552359357660e+04 1.000000000000e+00 0.000000000000e+00 
2.500000000000e+01 9.549295418722e+04 1.000000000000e+00 0.000000000000e+00 
2.533333333333e+01 9.546231479784e+04 1.000000000000e+00 0.000000000000e+00 
2.566666666667e+01 9.543167540847e+04 1.000000000000e+00 0.000000000000e+00 
2.600000000000e+01 9.540103601910e+04 1.000000000000e+00 0.000000000000e+00 
2.633333333333e+01 9.537039662974e+04 1.000000000000e+00 0.000000000000e+00 
2.666666666667e+01 9.533975724038e+04 1.000000000000e+00 0.000000000000e+00 
2.700000000000e+01 9.530911785103e+04 1.000000000000e+00 0.000000000000e+00 