 TITLE = "Time curves in points"
 VARIABLES = "TIME"  "Tracer" 
 ZONE T="POINT=POINT8"
0.000000000000e+00 0.000000000000e+00 
2.160000000000e+04 0.000000000000e+00 
4.320000000000e+04 8.313959496153e-25 
6.480000000000e+04 4.375837124070e-23 
8.640000000000e+04 8.917747051739e-22 
1.080000000000e+05 1.120219154481e-20 
1.296000000000e+05 1.032214106950e-19 
1.512000000000e+05 7.596001498616e-19 
1.728000000000e+05 4.703742394912e-18 
1.944000000000e+05 2.534685605724e-17 
2.160000000000e+05 1.213862881379e-16 
2.376000000000e+05 5.255029788791e-16 
2.592000000000e+05 2.081029540257e-15 
2.808000000000e+05 7.609241503941e-15 
3.024000000000e+05 2.588777467814e-14 
3.240000000000e+05 8.247547291942e-14 
3.456000000000e+05 2.474105933149e-13 
3.672000000000e+05 7.021405790993e-13 
3.888000000000e+05 1.893032503018e-12 
4.104000000000e+05 4.866573328335e-12 
4.320000000000e+05 1.196877695798e-11 
4.536000000000e+05 2.824372203529e-11 
4.752000000000e+05 6.412121084122e-11 
4.968000000000e+05 1.403921077833e-10 
5.184000000000e+05 2.971019245090e-10 
5.400000000000e+05 6.089323674890e-10 
5.616000000000e+05 1.210989854382e-09 
5.832000000000e+05 2.340792652701e-09 
6.048000000000e+05 4.404761030462e-09 
6.264000000000e+05 8.080787702809e-09 
6.480000000000e+05 1.447257543767e-08 
6.696000000000e+05 2.533646296442e-08 
6.912000000000e+05 4.340739606625e-08 
7.128000000000e+05 7.285749839783e-08 
7.344000000000e+05 1.199282260224e-07 
7.560000000000e+05 1.937851036701e-07 
7.776000000000e+05 3.076522490086e-07 
7.992000000000e+05 4.802918850649e-07 
8.208000000000e+05 7.379013567568e-07 
8.424000000000e+05 1.116506285403e-06 
8.640000000000e+05 1.664932871303e-06 
8.856000000000e+05 2.448444454129e-06 
9.072000000000e+05 3.553126761294e-06 
9.288000000000e+05 5.091102403031e-06 
9.504000000000e+05 7.206647777397e-06 
9.720000000000e+05 1.008327445237e-05 
9.936000000000e+05 1.395182225298e-05 
1.015200000000e+06 1.909959282775e-05 
1.036800000000e+06 2.588053068956e-05 
1.058400000000e+06 3.472643407478e-05 
1.080000000000e+06 4.615915103183e-05 
1.101600000000e+06 6.080368765691e-05 
1.123200000000e+06 7.940212614680e-05 
1.144800000000e+06 1.028282212071e-04 
1.166400000000e+06 1.321025152350e-04 
1.188000000000e+06 1.684077864737e-04 
1.209600000000e+06 2.131046208439e-04 
1.231200000000e+06 2.677468781724e-04 
1.252800000000e+06 3.340968076982e-04 
1.274400000000e+06 4.141395565949e-04 
1.296000000000e+06 5.100968091814e-04 
1.317600000000e+06 6.244392937513e-04 
1.339200000000e+06 7.598978986102e-04 
1.360800000000e+06 9.194731489133e-04 
1.382400000000e+06 1.106442811027e-03 
1.404000000000e+06 1.324367411049e-03 
1.425600000000e+06 1.577093478367e-03 
1.447200000000e+06 1.868754353140e-03 
1.468800000000e+06 2.203768427757e-03 
1.490400000000e+06 2.586834725886e-03 
1.512000000000e+06 3.022925758107e-03 
1.533600000000e+06 3.517277629429e-03 
1.555200000000e+06 4.075377410588e-03 
1.576800000000e+06 4.702947821243e-03 
1.598400000000e+06 5.405929308261e-03 
1.620000000000e+06 6.190459635721e-03 
1.641600000000e+06 7.062851134505e-03 
1.663200000000e+06 8.029565787826e-03 
1.684800000000e+06 9.097188354530e-03 
1.706400000000e+06 1.027239775412e-02 
1.728000000000e+06 1.156193695592e-02 
1.749600000000e+06 1.297258162960e-02 
1.771200000000e+06 1.451110782517e-02 
1.792800000000e+06 1.618425895787e-02 
1.814400000000e+06 1.799871237661e-02 
1.836000000000e+06 1.996104579476e-02 
1.857600000000e+06 2.207770385816e-02 
1.879200000000e+06 2.435496511900e-02 
1.900800000000e+06 2.679890967397e-02 
1.922400000000e+06 2.941538771336e-02 
1.944000000000e+06 3.220998921286e-02 
1.965600000000e+06 3.518801498334e-02 
1.987200000000e+06 3.835444927568e-02 
2.008800000000e+06 4.171393411814e-02 
2.030400000000e+06 4.527074554316e-02 
2.052000000000e+06 4.902877183919e-02 
2.073600000000e+06 5.299149394174e-02 
2.095200000000e+06 5.716196805562e-02 
2.116800000000e+06 6.154281057933e-02 
2.138400000000e+06 6.613618538082e-02 
2.160000000000e+06 7.094379345358e-02 
2.181600000000e+06 7.596686496208e-02 
2.203200000000e+06 8.120615366678e-02 
2.224800000000e+06 8.666193370119e-02 
2.246400000000e+06 9.233399865691e-02 
2.268000000000e+06 9.822166291741e-02 
2.289600000000e+06 1.043237651673e-01 
2.311200000000e+06 1.106386739918e-01 
2.332800000000e+06 1.171642954693e-01 
2.354400000000e+06 1.238980826517e-01 
2.376000000000e+06 1.308370468176e-01 
2.397600000000e+06 1.379777703775e-01 
2.419200000000e+06 1.453164213046e-01 
2.440800000000e+06 1.528487689618e-01 
2.462400000000e+06 1.605702011906e-01 
2.484000000000e+06 1.684757425271e-01 
2.505600000000e+06 1.765600734121e-01 
2.527200000000e+06 1.848175502574e-01 
2.548800000000e+06 1.932422262385e-01 
2.570400000000e+06 2.018278726812e-01 
2.592000000000e+06 2.105680009148e-01 
2.613600000000e+06 2.194558844694e-01 
2.635200000000e+06 2.284845814971e-01 
2.656800000000e+06 2.376469573036e-01 
2.678400000000e+06 2.469357068821e-01 
2.700000000000e+06 2.563433773457e-01 
2.721600000000e+06 2.658623901631e-01 
2.743200000000e+06 2.754850631060e-01 
2.764800000000e+06 2.852036318259e-01 
2.786400000000e+06 2.950102709827e-01 
2.808000000000e+06 3.048971148542e-01 
2.829600000000e+06 3.148562773640e-01 
2.851200000000e+06 3.248798714698e-01 
2.872800000000e+06 3.349600278618e-01 
2.894400000000e+06 3.450889129275e-01 
2.916000000000e+06 3.552587459437e-01 
2.937600000000e+06 3.654618154652e-01 
2.959200000000e+06 3.756904948828e-01 
2.980800000000e+06 3.859372571300e-01 
3.002400000000e+06 3.961946885240e-01 
3.024000000000e+06 4.064555017292e-01 
3.045600000000e+06 4.167125478377e-01 
3.067200000000e+06 4.269588275664e-01 
3.088800000000e+06 4.371875015719e-01 
3.110400000000e+06 4.473918998912e-01 
3.132000000000e+06 4.575655305166e-01 
3.153600000000e+06 4.677020871200e-01 
3.175200000000e+06 4.777954559404e-01 
3.196800000000e+06 4.878397218551e-01 
3.218400000000e+06 4.978291736555e-01 
3.240000000000e+06 5.077583085491e-01 
3.261600000000e+06 5.176218359148e-01 
3.283200000000e+06 5.274146803361e-01 
3.304800000000e+06 5.371319839413e-01 
3.326400000000e+06 5.467691080790e-01 
3.348000000000e+06 5.563216343584e-01 
3.369600000000e+06 5.657853650856e-01 
3.391200000000e+06 5.751563231261e-01 
3.412800000000e+06 5.844307512250e-01 
3.434400000000e+06 5.936051108162e-01 
3.456000000000e+06 6.026760803519e-01 
3.477600000000e+06 6.116405531834e-01 
3.499200000000e+06 6.204956350244e-01 
3.520800000000e+06 6.292386410272e-01 
3.542400000000e+06 6.378670925010e-01 
3.564000000000e+06 6.463787133033e-01 
3.585600000000e+06 6.547714259309e-01 
3.607200000000e+06 6.630433473410e-01 
3.628800000000e+06 6.711927845268e-01 
3.650400000000e+06 6.792182298759e-01 
3.672000000000e+06 6.871183563359e-01 
3.693600000000e+06 6.948920124115e-01 
3.715200000000e+06 7.025382170175e-01 
3.736800000000e+06 7.100561542077e-01 
3.758400000000e+06 7.174451678043e-01 
3.780000000000e+06 7.247047559454e-01 
3.801600000000e+06 7.318345655710e-01 
3.823200000000e+06 7.388343868657e-01 
3.844800000000e+06 7.457041476754e-01 
3.866400000000e+06 7.524439079131e-01 
3.888000000000e+06 7.590538539709e-01 
3.909600000000e+06 7.655342931505e-01 
3.931200000000e+06 7.718856481260e-01 
3.952800000000e+06 7.781084514520e-01 
3.974400000000e+06 7.842033401270e-01 
3.996000000000e+06 7.901710502233e-01 
4.017600000000e+06 7.960124115927e-01 
4.039200000000e+06 8.017283426568e-01 
4.060800000000e+06 8.073198452895e-01 
4.082400000000e+06 8.127879997988e-01 
4.104000000000e+06 8.181339600145e-01 
4.125600000000e+06 8.233589484871e-01 
4.147200000000e+06 8.284642518030e-01 
4.168800000000e+06 8.334512160198e-01 
4.190400000000e+06 8.383212422263e-01 
4.212000000000e+06 8.430757822289e-01 
4.233600000000e+06 8.477163343682e-01 
4.255200000000e+06 8.522444394672e-01 
4.276800000000e+06 8.566616769120e-01 
4.298400000000e+06 8.609696608671e-01 
4.320000000000e+06 8.651700366254e-01 
4.341600000000e+06 8.692644770923e-01 
4.363200000000e+06 8.732546794056e-01 
4.384800000000e+06 8.771423616886e-01 
4.406400000000e+06 8.809292599370e-01 
4.428000000000e+06 8.846171250374e-01 
4.449600000000e+06 8.882077199168e-01 
4.471200000000e+06 8.917028168216e-01 
4.492800000000e+06 8.951041947225e-01 
4.514400000000e+06 8.984136368459e-01 
4.536000000000e+06 9.016329283272e-01 
4.557600000000e+06 9.047638539845e-01 
4.579200000000e+06 9.078081962106e-01 
4.600800000000e+06 9.107677329797e-01 
4.622400000000e+06 9.136442359667e-01 
4.644000000000e+06 9.164394687756e-01 
4.665600000000e+06 9.191551852749e-01 
4.687200000000e+06 9.217931280357e-01 
4.708800000000e+06 9.243550268713e-01 
4.730400000000e+06 9.268425974727e-01 
4.752000000000e+06 9.292575401396e-01 
4.773600000000e+06 9.316015386013e-01 
4.795200000000e+06 9.338762589259e-01 
4.816800000000e+06 9.360833485146e-01 
4.838400000000e+06 9.382244351765e-01 
4.860000000000e+06 9.403011262829e-01 
4.881600000000e+06 9.423150079961e-01 
4.903200000000e+06 9.442676445711e-01 
4.924800000000e+06 9.461605777259e-01 
4.946400000000e+06 9.479953260790e-01 
4.968000000000e+06 9.497733846490e-01 
4.989600000000e+06 9.514962244158e-01 
5.011200000000e+06 9.531652919388e-01 
5.032800000000e+06 9.547820090301e-01 
5.054400000000e+06 9.563477724799e-01 
5.076000000000e+06 9.578639538319e-01 
5.097600000000e+06 9.593318992045e-01 
5.119200000000e+06 9.607529291582e-01 
5.140800000000e+06 9.621283386033e-01 
5.162400000000e+06 9.634593967484e-01 
5.184000000000e+06 9.647473470865e-01 
5.205600000000e+06 9.659934074149e-01 
5.227200000000e+06 9.671987698902e-01 
5.248800000000e+06 9.683646011123e-01 
5.270400000000e+06 9.694920422389e-01 
5.292000000000e+06 9.705822091262e-01 
5.313600000000e+06 9.716361924954e-01 
5.335200000000e+06 9.726550581218e-01 
5.356800000000e+06 9.736398470470e-01 
5.378400000000e+06 9.745915758098e-01 
5.400000000000e+06 9.755112366963e-01 
5.421600000000e+06 9.763997980072e-01 
5.443200000000e+06 9.772582043399e-01 
5.464800000000e+06 9.780873768857e-01 
5.486400000000e+06 9.788882137393e-01 
5.508000000000e+06 9.796615902199e-01 
5.529600000000e+06 9.804083592030e-01 
5.551200000000e+06 9.811293514611e-01 
5.572800000000e+06 9.818253760134e-01 
5.594400000000e+06 9.824972204814e-01 
5.616000000000e+06 9.831456514520e-01 
5.637600000000e+06 9.837714148450e-01 
5.659200000000e+06 9.843752362855e-01 
5.680800000000e+06 9.849578214794e-01 
5.702400000000e+06 9.855198565924e-01 
5.724000000000e+06 9.860620086306e-01 
5.745600000000e+06 9.865849258224e-01 
5.767200000000e+06 9.870892380016e-01 
5.788800000000e+06 9.875755569906e-01 
5.810400000000e+06 9.880444769824e-01 
5.832000000000e+06 9.884965749231e-01 
5.853600000000e+06 9.889324108914e-01 
5.875200000000e+06 9.893525284775e-01 
5.896800000000e+06 9.897574551590e-01 
5.918400000000e+06 9.901477026742e-01 
5.940000000000e+06 9.905237673921e-01 
5.961600000000e+06 9.908861306800e-01 
5.983200000000e+06 9.912352592661e-01 
6.004800000000e+06 9.915716055989e-01 
6.026400000000e+06 9.918956082021e-01 
6.048000000000e+06 9.922076920251e-01 
6.069600000000e+06 9.925082687886e-01 
6.091200000000e+06 9.927977373259e-01 
6.112800000000e+06 9.930764839184e-01 
6.134400000000e+06 9.933448826265e-01 
6.156000000000e+06 9.936032956146e-01 
6.177600000000e+06 9.938520734716e-01 
6.199200000000e+06 9.940915555247e-01 
6.220800000000e+06 9.943220701483e-01 
6.242400000000e+06 9.945439350671e-01 
6.264000000000e+06 9.947574576535e-01 
6.285600000000e+06 9.949629352190e-01 
6.307200000000e+06 9.951606552999e-01 
6.328800000000e+06 9.953508959370e-01 
6.350400000000e+06 9.955339259501e-01 
6.372000000000e+06 9.957100052057e-01 
6.393600000000e+06 9.958793848792e-01 
6.415200000000e+06 9.960423077122e-01 
6.436800000000e+06 9.961990082622e-01 
6.458400000000e+06 9.963497131482e-01 
6.480000000000e+06 9.964946412896e-01 
6.501600000000e+06 9.966340041399e-01 
6.523200000000e+06 9.967680059146e-01 
6.544800000000e+06 9.968968438133e-01 
6.566400000000e+06 9.970207082368e-01 
6.588000000000e+06 9.971397829983e-01 
6.609600000000e+06 9.972542455294e-01 
6.631200000000e+06 9.973642670807e-01 
6.652800000000e+06 9.974700129175e-01 
6.674400000000e+06 9.975716425098e-01 
6.696000000000e+06 9.976693097177e-01 
6.717600000000e+06 9.977631629715e-01 
6.739200000000e+06 9.978533454471e-01 
6.760800000000e+06 9.979399952365e-01 
6.782400000000e+06 9.980232455135e-01 
6.804000000000e+06 9.981032246947e-01 
6.825600000000e+06 9.981800565964e-01 
6.847200000000e+06 9.982538605864e-01 
6.868800000000e+06 9.983247517319e-01 
6.890400000000e+06 9.983928409429e-01 
6.912000000000e+06 9.984582351112e-01 
6.933600000000e+06 9.985210372458e-01 
6.955200000000e+06 9.985813466043e-01 
6.976800000000e+06 9.986392588195e-01 
6.998400000000e+06 9.986948660230e-01 
7.020000000000e+06 9.987482569654e-01 
7.041600000000e+06 9.987995171313e-01 
7.063200000000e+06 9.988487288527e-01 
7.084800000000e+06 9.988959714173e-01 
7.106400000000e+06 9.989413211743e-01 
7.128000000000e+06 9.989848516368e-01 
7.149600000000e+06 9.990266335806e-01 
7.171200000000e+06 9.990667351403e-01 
7.192800000000e+06 9.991052219021e-01 
7.214400000000e+06 9.991421569935e-01 
7.236000000000e+06 9.991776011709e-01 
7.257600000000e+06 9.992116129028e-01 
7.279200000000e+06 9.992442484523e-01 
7.300800000000e+06 9.992755619552e-01 
7.322400000000e+06 9.993056054964e-01 
7.344000000000e+06 9.993344291835e-01 
7.365600000000e+06 9.993620812183e-01 
7.387200000000e+06 9.993886079655e-01 
7.408800000000e+06 9.994140540191e-01 
7.430400000000e+06 9.994384622671e-01 
7.452000000000e+06 9.994618739533e-01 
7.473600000000e+06 9.994843287378e-01 
7.495200000000e+06 9.995058647544e-01 
7.516800000000e+06 9.995265186674e-01 
7.538400000000e+06 9.995463257250e-01 
7.560000000000e+06 9.995653198120e-01 
7.581600000000e+06 9.995835335001e-01 
7.603200000000e+06 9.996009980965e-01 
7.624800000000e+06 9.996177436913e-01 
7.646400000000e+06 9.996337992024e-01 
7.668000000000e+06 9.996491924194e-01 
7.689600000000e+06 9.996639500461e-01 
7.711200000000e+06 9.996780977410e-01 
7.732800000000e+06 9.996916601565e-01 
7.754400000000e+06 9.997046609771e-01 
7.776000000000e+06 9.997171229559e-01 
7.797600000000e+06 9.997290679497e-01 
7.819200000000e+06 9.997405169531e-01 
7.840800000000e+06 9.997514901311e-01 
7.862400000000e+06 9.997620068511e-01 
7.884000000000e+06 9.997720857128e-01 
7.905600000000e+06 9.997817445781e-01 
7.927200000000e+06 9.997910005988e-01 
7.948800000000e+06 9.997998702444e-01 
7.970400000000e+06 9.998083693278e-01 
7.992000000000e+06 9.998165130311e-01 
8.013600000000e+06 9.998243159296e-01 
8.035200000000e+06 9.998317920155e-01 
8.056800000000e+06 9.998389547201e-01 
8.078400000000e+06 9.998458169363e-01 
8.100000000000e+06 9.998523910385e-01 
8.121600000000e+06 9.998586889037e-01 
8.143200000000e+06 9.998647219305e-01 
8.164800000000e+06 9.998705010578e-01 
8.186400000000e+06 9.998760367829e-01 
8.208000000000e+06 9.998813391785e-01 
8.229600000000e+06 9.998864179100e-01 
8.251200000000e+06 9.998912822507e-01 
8.272800000000e+06 9.998959410981e-01 
8.294400000000e+06 9.999004029879e-01 
8.316000000000e+06 9.999046761089e-01 
8.337600000000e+06 9.999087683165e-01 
8.359200000000e+06 9.999126871459e-01 
8.380800000000e+06 9.999164398247e-01 
8.402400000000e+06 9.999200332855e-01 
8.424000000000e+06 9.999234741772e-01 
8.445600000000e+06 9.999267688765e-01 
8.467200000000e+06 9.999299234990e-01 
8.488800000000e+06 9.999329439090e-01 
8.510400000000e+06 9.999358357303e-01 
8.532000000000e+06 9.999386043554e-01 
8.553600000000e+06 9.999412549547e-01 
8.575200000000e+06 9.999437924858e-01 
8.596800000000e+06 9.999462217017e-01 
8.618400000000e+06 9.999485471595e-01 
8.640000000000e+06 9.999507732275e-01 
8.661600000000e+06 9.999529040939e-01 
8.683200000000e+06 9.999549437730e-01 
8.704800000000e+06 9.999568961131e-01 
8.726400000000e+06 9.999587648027e-01 
8.748000000000e+06 9.999605533773e-01 
8.769600000000e+06 9.999622652252e-01 
8.791200000000e+06 9.999639035942e-01 
8.812800000000e+06 9.999654715965e-01 
8.834400000000e+06 9.999669722148e-01 
8.856000000000e+06 9.999684083073e-01 
8.877600000000e+06 9.999697826131e-01 
8.899200000000e+06 9.999710977567e-01 
8.920800000000e+06 9.999723562529e-01 
8.942400000000e+06 9.999735605111e-01 
8.964000000000e+06 9.999747128401e-01 
8.985600000000e+06 9.999758154517e-01 
9.007200000000e+06 9.999768704648e-01 
9.028800000000e+06 9.999778799097e-01 
9.050400000000e+06 9.999788457310e-01 
9.072000000000e+06 9.999797697917e-01 
9.093600000000e+06 9.999806538763e-01 
9.115200000000e+06 9.999814996943e-01 
9.136800000000e+06 9.999823088829e-01 
9.158400000000e+06 9.999830830104e-01 
9.180000000000e+06 9.999838235789e-01 
9.201600000000e+06 9.999845320268e-01 
9.223200000000e+06 9.999852097320e-01 
9.244800000000e+06 9.999858580138e-01 
9.266400000000e+06 9.999864781359e-01 
9.288000000000e+06 9.999870713082e-01 
9.309600000000e+06 9.999876386894e-01 
9.331200000000e+06 9.999881813892e-01 
9.352800000000e+06 9.999887004698e-01 
9.374400000000e+06 9.999891969485e-01 
9.396000000000e+06 9.999896717994e-01 
9.417600000000e+06 9.999901259549e-01 
9.439200000000e+06 9.999905603080e-01 
9.460800000000e+06 9.999909757133e-01 
9.482400000000e+06 9.999913729893e-01 
9.504000000000e+06 9.999917529193e-01 
9.525600000000e+06 9.999921162533e-01 
9.547200000000e+06 9.999924637093e-01 
9.568800000000e+06 9.999927959744e-01 
9.590400000000e+06 9.999931137065e-01 
9.612000000000e+06 9.999934175353e-01 
9.633600000000e+06 9.999937080634e-01 
9.655200000000e+06 9.999939858677e-01 
9.676800000000e+06 9.999942515003e-01 
9.698400000000e+06 9.999945054897e-01 
9.720000000000e+06 9.999947483416e-01 
9.741600000000e+06 9.999949805400e-01 
9.763200000000e+06 9.999952025481e-01 
9.784800000000e+06 9.999954148092e-01 
9.806400000000e+06 9.999956177475e-01 
9.828000000000e+06 9.999958117689e-01 
9.849600000000e+06 9.999959972618e-01 
9.871200000000e+06 9.999961745979e-01 
9.892800000000e+06 9.999963441329e-01 
9.914400000000e+06 9.999965062072e-01 
9.936000000000e+06 9.999966611462e-01 
9.957600000000e+06 9.999968092615e-01 
9.979200000000e+06 9.999969508513e-01 
1.000080000000e+07 9.999970862007e-01 
1.002240000000e+07 9.999972155824e-01 
1.004400000000e+07 9.999973392576e-01 
1.006560000000e+07 9.999974574759e-01 
1.008720000000e+07 9.999975704763e-01 
1.010880000000e+07 9.999976784872e-01 
1.013040000000e+07 9.999977817273e-01 
1.015200000000e+07 9.999978804057e-01 
1.017360000000e+07 9.999979747224e-01 
1.019520000000e+07 9.999980648688e-01 
1.021680000000e+07 9.999981510279e-01 
1.023840000000e+07 9.999982333747e-01 
1.026000000000e+07 9.999983120767e-01 
1.028160000000e+07 9.999983872940e-01 
1.030320000000e+07 9.999984591799e-01 
1.032480000000e+07 9.999985278808e-01 
1.034640000000e+07 9.999985935369e-01 
1.036800000000e+07 9.999986562821e-01 
1.038960000000e+07 9.999987162446e-01 
1.041120000000e+07 9.999987735469e-01 
1.043280000000e+07 9.999988283063e-01 
1.045440000000e+07 9.999988806348e-01 
1.047600000000e+07 9.999989306397e-01 
1.049760000000e+07 9.999989784233e-01 
1.051920000000e+07 9.999990240838e-01 
1.054080000000e+07 9.999990677148e-01 
1.056240000000e+07 9.999991094060e-01 
1.058400000000e+07 9.999991492430e-01 
1.060560000000e+07 9.999991873078e-01 
1.062720000000e+07 9.999992236787e-01 
1.064880000000e+07 9.999992584306e-01 
1.067040000000e+07 9.999992916351e-01 
1.069200000000e+07 9.999993233607e-01 
1.071360000000e+07 9.999993536729e-01 
1.073520000000e+07 9.999993826342e-01 
1.075680000000e+07 9.999994103045e-01 
1.077840000000e+07 9.999994367409e-01 
1.080000000000e+07 9.999994619982e-01 
