 TITLE = "Time curves in points"
 VARIABLES = "TIME"  "PRESSURE1"  "PRESSURE2"  "SATURATION1"  "SATURATION2"  "PRESSURE_CAP" 
 ZONE T="POINT=POINT4"
0.000000000000e+00 0.000000000000e+00 4.242870002808e+02 6.200000000000e-01 3.800000000000e-01 4.242870002808e+02 
1.000000000000e+00 6.333548270292e+01 4.876224829837e+02 6.200000000000e-01 3.800000000000e-01 4.242870002808e+02 
2.000000000000e+00 6.595228394135e+01 4.902392842221e+02 6.200000000000e-01 3.800000000000e-01 4.242870002808e+02 
3.000000000000e+00 6.907463170419e+01 4.933616319850e+02 6.199999999995e-01 3.800000000005e-01 4.242870002809e+02 
4.000000000000e+00 7.280079266288e+01 4.970877929436e+02 6.200000000000e-01 3.800000000000e-01 4.242870002808e+02 
5.000000000000e+00 7.721401171488e+01 5.015010119956e+02 6.200000000000e-01 3.800000000000e-01 4.242870002808e+02 
