 TITLE = "Time curves in points"
 VARIABLES = "TIME"  "PRESSURE1"  "PRESSURE2"  "SATURATION1"  "SATURATION2"  "PRESSURE_CAP" 
 ZONE T="POINT=POINT4"
0.000000000000e+00 0.000000000000e+00 4.242870002808e+02 6.200000000000e-01 3.800000000000e-01 4.242870002808e+02 
1.000000000000e+00 6.333524826788e+01 4.876222485486e+02 6.200000000000e-01 3.800000000000e-01 4.242870002808e+02 
2.000000000000e+00 6.595278928360e+01 4.902397895644e+02 6.200000000000e-01 3.800000000000e-01 4.242870002808e+02 
3.000000000000e+00 6.907459493810e+01 4.933615952170e+02 6.200000000092e-01 3.799999999908e-01 4.242870002789e+02 
4.000000000000e+00 7.280073230910e+01 4.970877325899e+02 6.200000000000e-01 3.800000000000e-01 4.242870002808e+02 
5.000000000000e+00 7.721394318929e+01 5.015009434701e+02 6.199999999999e-01 3.800000000001e-01 4.242870002808e+02 
