<!--Time step: 3 -->
<VTKFile type="PolyData" version="1.0" byte_order="LittleEndian" header_type="UInt64">
 <PolyData>
  <Piece NumberOfPoints="1000" NumberOfVerts="1000" NumberOfLines="0" NumberOfStrips="0" NumberOfPolys="0">
   <PointData Scalars ="identity" Vectors ="velocity">
    <DataArray type = "Int32" Name = "identity" format = "ascii " RangeMin = "0" RangeMax = "0"> 
0 0 0 0 0 0 
0 0 0 0 0 0 
0 0 0 0 0 0 
0 0 0 0 0 0 
0 0 0 0 0 0 
0 0 0 0 0 0 
0 0 0 0 0 0 
0 0 0 0 0 0 
0 0 0 0 0 0 
0 0 0 0 0 0 
0 0 0 0 0 0 
0 0 0 0 0 0 
0 0 0 0 0 0 
0 0 0 0 0 0 
0 0 0 0 0 0 
0 0 0 0 0 0 
0 0 0 0 0 0 
0 0 0 0 0 0 
0 0 0 0 0 0 
0 0 0 0 0 0 
0 0 0 0 0 0 
0 0 0 0 0 0 
0 0 0 0 0 0 
0 0 0 0 0 0 
0 0 0 0 0 0 
0 0 0 0 0 0 
0 0 0 0 0 0 
0 0 0 0 0 0 
0 0 0 0 0 0 
0 0 0 0 0 0 
0 0 0 0 0 0 
0 0 0 0 0 0 
0 0 0 0 0 0 
0 0 0 0 0 0 
0 0 0 0 0 0 
0 0 0 0 0 0 
0 0 0 0 0 0 
0 0 0 0 0 0 
0 0 0 0 0 0 
0 0 0 0 0 0 
0 0 0 0 0 0 
0 0 0 0 0 0 
0 0 0 0 0 0 
0 0 0 0 0 0 
0 0 0 0 0 0 
0 0 0 0 0 0 
0 0 0 0 0 0 
0 0 0 0 0 0 
0 0 0 0 0 0 
0 0 0 0 0 0 
0 0 0 0 0 0 
0 0 0 0 0 0 
0 0 0 0 0 0 
0 0 0 0 0 0 
0 0 0 0 0 0 
0 0 0 0 0 0 
0 0 0 0 0 0 
0 0 0 0 0 0 
0 0 0 0 0 0 
0 0 0 0 0 0 
0 0 0 0 0 0 
0 0 0 0 0 0 
0 0 0 0 0 0 
0 0 0 0 0 0 
0 0 0 0 0 0 
0 0 0 0 0 0 
0 0 0 0 0 0 
0 0 0 0 0 0 
0 0 0 0 0 0 
0 0 0 0 0 0 
0 0 0 0 0 0 
0 0 0 0 0 0 
0 0 0 0 0 0 
0 0 0 0 0 0 
0 0 0 0 0 0 
0 0 0 0 0 0 
0 0 0 0 0 0 
0 0 0 0 0 0 
0 0 0 0 0 0 
0 0 0 0 0 0 
0 0 0 0 0 0 
0 0 0 0 0 0 
0 0 0 0 0 0 
0 0 0 0 0 0 
0 0 0 0 0 0 
0 0 0 0 0 0 
0 0 0 0 0 0 
0 0 0 0 0 0 
0 0 0 0 0 0 
0 0 0 0 0 0 
0 0 0 0 0 0 
0 0 0 0 0 0 
0 0 0 0 0 0 
0 0 0 0 0 0 
0 0 0 0 0 0 
0 0 0 0 0 0 
0 0 0 0 0 0 
0 0 0 0 0 0 
0 0 0 0 0 0 
0 0 0 0 0 0 
0 0 0 0 0 0 
0 0 0 0 0 0 
0 0 0 0 0 0 
0 0 0 0 0 0 
0 0 0 0 0 0 
0 0 0 0 0 0 
0 0 0 0 0 0 
0 0 0 0 0 0 
0 0 0 0 0 0 
0 0 0 0 0 0 
0 0 0 0 0 0 
0 0 0 0 0 0 
0 0 0 0 0 0 
0 0 0 0 0 0 
0 0 0 0 0 0 
0 0 0 0 0 0 
0 0 0 0 0 0 
0 0 0 0 0 0 
0 0 0 0 0 0 
0 0 0 0 0 0 
0 0 0 0 0 0 
0 0 0 0 0 0 
0 0 0 0 0 0 
0 0 0 0 0 0 
0 0 0 0 0 0 
0 0 0 0 0 0 
0 0 0 0 0 0 
0 0 0 0 0 0 
0 0 0 0 0 0 
0 0 0 0 0 0 
0 0 0 0 0 0 
0 0 0 0 0 0 
0 0 0 0 0 0 
0 0 0 0 0 0 
0 0 0 0 0 0 
0 0 0 0 0 0 
0 0 0 0 0 0 
0 0 0 0 0 0 
0 0 0 0 0 0 
0 0 0 0 0 0 
0 0 0 0 0 0 
0 0 0 0 0 0 
0 0 0 0 0 0 
0 0 0 0 0 0 
0 0 0 0 0 0 
0 0 0 0 0 0 
0 0 0 0 0 0 
0 0 0 0 0 0 
0 0 0 0 0 0 
0 0 0 0 0 0 
0 0 0 0 0 0 
0 0 0 0 0 0 
0 0 0 0 0 0 
0 0 0 0 0 0 
0 0 0 0 0 0 
0 0 0 0 0 0 
0 0 0 0 0 0 
0 0 0 0 0 0 
0 0 0 0 0 0 
0 0 0 0 0 0 
0 0 0 0 0 0 
0 0 0 0 0 0 
0 0 0 0 0 0 
0 0 0 0 0 0 
0 0 0 0 0 0 
0 0 0 0 0 0 
0 0 0 0 
    </DataArray>
    <DataArray type = "Int32" Name = "on_boundary" format = "ascii " RangeMin = "0.000000000000e+00" RangeMax = "1.039005166319e+02"> 
0 0 0 0 0 0 
0 0 0 0 0 0 
0 0 0 0 0 0 
0 0 0 0 0 0 
0 0 0 0 0 0 
0 0 0 0 0 0 
0 0 0 0 0 0 
0 0 0 0 0 0 
0 0 0 0 0 0 
0 0 0 0 0 0 
0 0 0 0 0 0 
0 0 0 0 0 0 
0 0 0 0 0 0 
0 0 0 0 0 0 
0 0 0 0 0 0 
0 0 0 0 0 0 
0 0 0 0 0 0 
0 0 0 0 0 0 
0 0 0 0 0 0 
0 0 0 0 0 0 
0 0 0 0 0 0 
0 0 0 0 0 0 
0 0 0 0 0 0 
0 0 0 0 0 0 
0 0 0 0 0 0 
0 0 0 0 0 0 
0 0 0 0 0 0 
0 0 0 0 0 0 
0 0 0 0 0 0 
0 0 0 0 0 0 
0 0 0 0 0 0 
0 0 0 0 0 0 
0 0 0 0 0 0 
0 0 0 0 0 0 
0 0 0 0 0 0 
0 0 0 0 0 0 
0 0 0 0 0 0 
0 0 0 0 0 0 
0 0 0 0 0 0 
0 0 0 0 0 0 
0 0 0 0 0 0 
0 0 0 0 0 0 
0 0 0 0 0 0 
0 0 0 0 0 0 
0 0 0 0 0 0 
0 0 0 0 0 0 
0 0 0 0 0 0 
0 0 0 0 0 0 
0 0 0 0 0 0 
0 0 0 0 0 0 
0 0 0 0 0 0 
0 0 0 0 0 0 
0 0 0 0 0 0 
0 0 0 0 0 0 
0 0 0 0 0 0 
0 0 0 0 0 0 
0 0 0 0 0 0 
0 0 0 0 0 0 
0 0 0 0 0 0 
0 0 0 0 0 0 
0 0 0 0 0 0 
0 0 0 0 0 0 
0 0 0 0 0 0 
0 0 0 0 0 0 
0 0 0 0 0 0 
0 0 0 0 0 0 
0 0 0 0 0 0 
0 0 0 0 0 0 
0 0 0 0 0 0 
0 0 0 0 0 0 
0 0 0 0 0 0 
0 0 0 0 0 0 
0 0 0 0 0 0 
0 0 0 0 0 0 
0 0 0 0 0 0 
0 0 0 0 0 0 
0 0 0 0 0 0 
0 0 0 0 0 0 
0 0 0 0 0 0 
0 0 0 0 0 0 
0 0 0 0 0 0 
0 0 0 0 0 0 
0 0 0 0 0 0 
0 0 0 0 0 0 
0 0 0 0 0 0 
0 0 0 0 0 0 
0 0 0 0 0 0 
0 0 0 0 0 0 
0 0 0 0 0 0 
0 0 0 0 0 0 
0 0 0 0 0 0 
0 0 0 0 0 0 
0 0 0 0 0 0 
0 0 0 0 0 0 
0 0 0 0 0 0 
0 0 0 0 0 0 
0 0 0 0 0 0 
0 0 0 0 0 0 
0 0 0 0 0 0 
0 0 0 0 0 0 
0 0 0 0 0 0 
0 0 0 0 0 0 
0 0 0 0 0 0 
0 0 0 0 0 0 
0 0 0 0 0 0 
0 0 0 0 0 0 
0 0 0 0 0 0 
0 0 0 0 0 0 
0 0 0 0 0 0 
0 0 0 0 0 0 
0 0 0 0 0 0 
0 0 0 0 0 0 
0 0 0 0 0 0 
0 0 0 0 0 0 
0 0 0 0 0 0 
0 0 0 0 0 0 
0 0 0 0 0 0 
0 0 0 0 0 0 
0 0 0 0 0 0 
0 0 0 0 0 0 
0 0 0 0 0 0 
0 0 0 0 0 0 
0 0 0 0 0 0 
0 0 0 0 0 0 
0 0 0 0 0 0 
0 0 0 0 0 0 
0 0 0 0 0 0 
0 0 0 0 0 0 
0 0 0 0 0 0 
0 0 0 0 0 0 
0 0 0 0 0 0 
0 0 0 0 0 0 
0 0 0 0 0 0 
0 0 0 0 0 0 
0 0 0 0 0 0 
0 0 0 0 0 0 
0 0 0 0 0 0 
0 0 0 0 0 0 
0 0 0 0 0 0 
0 0 0 0 0 0 
0 0 0 0 0 0 
0 0 0 0 0 0 
0 0 0 0 0 0 
0 0 0 0 0 0 
0 0 0 0 0 0 
0 0 0 0 0 0 
0 0 0 0 0 0 
0 0 0 0 0 0 
0 0 0 0 0 0 
0 0 0 0 0 0 
0 0 0 0 0 0 
0 0 0 0 0 0 
0 0 0 0 0 0 
0 0 0 0 0 0 
0 0 0 0 0 0 
0 0 0 0 0 0 
0 0 0 0 0 0 
0 0 0 0 0 0 
0 0 0 0 0 0 
0 0 0 0 0 0 
0 0 0 0 0 0 
0 0 0 0 0 0 
0 0 0 0 0 0 
0 0 0 0 0 0 
0 0 0 0 0 0 
0 0 0 0 0 0 
0 0 0 0 
    </DataArray>
    <DataArray type = "Float64" Name = "velocity" NumberOfComponents="3" format = "ascii " RangeMin = "-9.839245318144e-18" RangeMax = "1.736111332330e-05"> 
1.736111332318e-05 -7.296602712491e-19 0.000000000000e+00 1.736111332319e-05 -2.297706646511e-18 0.000000000000e+00 
1.736111332317e-05 2.225302499591e-18 0.000000000000e+00 1.736111332317e-05 1.006364261349e-18 0.000000000000e+00 
1.736111332317e-05 -2.763901049912e-18 0.000000000000e+00 1.736111332319e-05 4.077605250102e-19 0.000000000000e+00 
1.736111332318e-05 5.818846153181e-18 0.000000000000e+00 1.736111332317e-05 -1.223963282495e-19 0.000000000000e+00 
1.736111332318e-05 -5.054666157024e-18 0.000000000000e+00 1.736111332318e-05 3.959073044194e-18 0.000000000000e+00 
1.736111332319e-05 -3.855552876795e-18 0.000000000000e+00 1.736111332317e-05 1.233836186107e-18 0.000000000000e+00 
1.736111332318e-05 1.191007466713e-18 0.000000000000e+00 1.736111332316e-05 2.731815547959e-18 0.000000000000e+00 
1.736111332318e-05 -1.435256479174e-18 0.000000000000e+00 1.736111332322e-05 -2.016004245056e-18 0.000000000000e+00 
1.736111332317e-05 3.667480236267e-18 0.000000000000e+00 1.736111332319e-05 -1.368340739099e-19 0.000000000000e+00 
1.736111332322e-05 1.919610218020e-18 0.000000000000e+00 1.736111332316e-05 3.111515596142e-18 0.000000000000e+00 
1.736111332316e-05 1.054468617729e-18 0.000000000000e+00 1.736111332316e-05 3.859184307249e-18 0.000000000000e+00 
1.736111332319e-05 4.064631910966e-18 0.000000000000e+00 1.736111332318e-05 -3.261756714164e-18 0.000000000000e+00 
1.736111332320e-05 2.278753925633e-18 0.000000000000e+00 1.736111332323e-05 3.920164856706e-18 0.000000000000e+00 
1.736111332317e-05 2.249071518894e-18 0.000000000000e+00 1.736111332323e-05 -2.403277610877e-18 0.000000000000e+00 
1.736111332317e-05 4.782664199152e-18 0.000000000000e+00 1.736111332318e-05 6.442882096391e-18 0.000000000000e+00 
1.736111332318e-05 2.050179696656e-18 0.000000000000e+00 1.736111332323e-05 -2.197848105380e-19 0.000000000000e+00 
1.736111332319e-05 1.098188464257e-18 0.000000000000e+00 1.736111332319e-05 2.051756738036e-19 0.000000000000e+00 
1.736111332321e-05 1.953185376278e-18 0.000000000000e+00 1.736111332316e-05 -1.129392327933e-19 0.000000000000e+00 
1.736111332318e-05 7.479488780810e-19 0.000000000000e+00 1.736111332317e-05 -2.233324751656e-18 0.000000000000e+00 
1.736111332317e-05 -4.572200673068e-18 0.000000000000e+00 1.736111332317e-05 2.482149578660e-18 0.000000000000e+00 
1.736111332316e-05 2.851660755172e-18 0.000000000000e+00 1.736111332316e-05 8.144253850315e-18 0.000000000000e+00 
1.736111332321e-05 1.575571566128e-19 0.000000000000e+00 1.736111332319e-05 -8.171085683773e-19 0.000000000000e+00 
1.736111332315e-05 1.142594450180e-18 0.000000000000e+00 1.736111332320e-05 4.296901940560e-18 0.000000000000e+00 
1.736111332317e-05 1.669272111053e-19 0.000000000000e+00 1.736111332317e-05 -8.180182142661e-18 0.000000000000e+00 
1.736111332317e-05 -1.033843024233e-18 0.000000000000e+00 1.736111332317e-05 4.106021530987e-18 0.000000000000e+00 
1.736111332320e-05 -2.808419523791e-18 0.000000000000e+00 1.736111332317e-05 2.988998697689e-19 0.000000000000e+00 
1.736111332321e-05 -2.911653350447e-18 0.000000000000e+00 1.736111332318e-05 -6.068113956947e-18 0.000000000000e+00 
1.736111332321e-05 -4.874249661489e-18 0.000000000000e+00 1.736111332319e-05 1.990983963520e-18 0.000000000000e+00 
1.736111332319e-05 -1.558082346935e-18 0.000000000000e+00 1.736111332318e-05 -2.613581079546e-21 0.000000000000e+00 
1.736111332318e-05 5.782020190259e-18 0.000000000000e+00 1.736111332316e-05 4.647231352606e-18 0.000000000000e+00 
1.736111332320e-05 -1.601426751220e-18 0.000000000000e+00 1.736111332317e-05 -2.763757387172e-19 0.000000000000e+00 
1.736111332320e-05 2.236967598054e-18 0.000000000000e+00 1.736111332319e-05 6.387213473362e-19 0.000000000000e+00 
1.736111332319e-05 -1.739744397485e-18 0.000000000000e+00 1.736111332319e-05 5.360301846667e-18 0.000000000000e+00 
1.736111332319e-05 -9.585349863708e-19 0.000000000000e+00 1.736111332321e-05 2.634051650472e-18 0.000000000000e+00 
1.736111332319e-05 3.496382208774e-18 0.000000000000e+00 1.736111332320e-05 3.040086245861e-18 0.000000000000e+00 
1.736111332317e-05 1.355905967544e-18 0.000000000000e+00 1.736111332320e-05 2.132576734371e-18 0.000000000000e+00 
1.736111332319e-05 -2.212169803782e-19 0.000000000000e+00 1.736111332319e-05 -3.974177678577e-18 0.000000000000e+00 
1.736111332318e-05 3.439979515458e-18 0.000000000000e+00 1.736111332317e-05 3.611806739204e-18 0.000000000000e+00 
1.736111332320e-05 3.028824234576e-18 0.000000000000e+00 1.736111332319e-05 7.631238952662e-19 0.000000000000e+00 
1.736111332321e-05 -4.664525414005e-18 0.000000000000e+00 1.736111332319e-05 -1.496409415203e-18 0.000000000000e+00 
1.736111332319e-05 -3.122370004360e-19 0.000000000000e+00 1.736111332318e-05 2.392345196125e-18 0.000000000000e+00 
1.736111332318e-05 1.832785529384e-18 0.000000000000e+00 1.736111332319e-05 -3.003390208477e-18 0.000000000000e+00 
1.736111332316e-05 2.454411062525e-18 0.000000000000e+00 1.736111332319e-05 -2.323407702128e-18 0.000000000000e+00 
1.736111332317e-05 -1.539515440396e-19 0.000000000000e+00 1.736111332316e-05 4.256418980670e-18 0.000000000000e+00 
1.736111332317e-05 -1.187824404901e-18 0.000000000000e+00 1.736111332317e-05 -2.606537835745e-18 0.000000000000e+00 
1.736111332319e-05 -2.332643896101e-18 0.000000000000e+00 1.736111332321e-05 -1.629782883139e-18 0.000000000000e+00 
1.736111332316e-05 1.005152618405e-19 0.000000000000e+00 1.736111332319e-05 2.666055385264e-18 0.000000000000e+00 
1.736111332317e-05 -1.672251533568e-18 0.000000000000e+00 1.736111332321e-05 8.525435544419e-19 0.000000000000e+00 
1.736111332319e-05 1.254372282278e-18 0.000000000000e+00 1.736111332321e-05 -2.213462439976e-18 0.000000000000e+00 
1.736111332318e-05 2.020234442404e-20 0.000000000000e+00 1.736111332316e-05 5.630206969363e-18 0.000000000000e+00 
1.736111332318e-05 1.511225444527e-18 0.000000000000e+00 1.736111332316e-05 3.241318473475e-18 0.000000000000e+00 
1.736111332321e-05 3.195094744119e-18 0.000000000000e+00 1.736111332318e-05 -1.544278066981e-18 0.000000000000e+00 
1.736111332317e-05 2.675268291873e-18 0.000000000000e+00 1.736111332318e-05 -8.456163876458e-19 0.000000000000e+00 
1.736111332317e-05 -1.999735903914e-18 0.000000000000e+00 1.736111332317e-05 -1.501352658314e-18 0.000000000000e+00 
1.736111332322e-05 -4.550828579979e-19 0.000000000000e+00 1.736111332320e-05 -6.209401541989e-19 0.000000000000e+00 
1.736111332317e-05 2.428101266011e-18 0.000000000000e+00 1.736111332316e-05 -1.220394769002e-18 0.000000000000e+00 
1.736111332320e-05 7.610201921792e-18 0.000000000000e+00 1.736111332317e-05 -3.158525271784e-18 0.000000000000e+00 
1.736111332320e-05 3.684074264048e-19 0.000000000000e+00 1.736111332317e-05 2.534119219961e-20 0.000000000000e+00 
1.736111332317e-05 -2.386238247420e-18 0.000000000000e+00 1.736111332319e-05 -4.083860944277e-18 0.000000000000e+00 
1.736111332316e-05 4.189512497021e-18 0.000000000000e+00 1.736111332317e-05 -1.953657033508e-18 0.000000000000e+00 
1.736111332317e-05 -5.474918834118e-18 0.000000000000e+00 1.736111332318e-05 7.103836517130e-19 0.000000000000e+00 
1.736111332319e-05 1.664627863026e-18 0.000000000000e+00 1.736111332317e-05 4.296616236818e-18 0.000000000000e+00 
1.736111332317e-05 3.536291584799e-18 0.000000000000e+00 1.736111332317e-05 4.463414705715e-18 0.000000000000e+00 
1.736111332318e-05 4.442839643994e-18 0.000000000000e+00 1.736111332320e-05 3.077462755179e-18 0.000000000000e+00 
1.736111332316e-05 4.061975468639e-18 0.000000000000e+00 1.736111332316e-05 1.707188419742e-18 0.000000000000e+00 
1.736111332317e-05 -8.401713506908e-19 0.000000000000e+00 1.736111332323e-05 -4.530707524936e-19 0.000000000000e+00 
1.736111332318e-05 -2.921330041219e-18 0.000000000000e+00 1.736111332321e-05 2.543774916809e-20 0.000000000000e+00 
1.736111332317e-05 -5.718179598466e-20 0.000000000000e+00 1.736111332318e-05 8.461542967768e-20 0.000000000000e+00 
1.736111332318e-05 2.836653684454e-18 0.000000000000e+00 1.736111332320e-05 -2.340620670597e-18 0.000000000000e+00 
1.736111332319e-05 -5.859660326437e-18 0.000000000000e+00 1.736111332318e-05 -2.597821865175e-18 0.000000000000e+00 
1.736111332320e-05 3.207349757179e-18 0.000000000000e+00 1.736111332316e-05 -3.562029053968e-18 0.000000000000e+00 
1.736111332321e-05 3.422785321509e-18 0.000000000000e+00 1.736111332321e-05 -2.381570748623e-19 0.000000000000e+00 
1.736111332316e-05 2.246224000804e-18 0.000000000000e+00 1.736111332318e-05 3.272309939967e-18 0.000000000000e+00 
1.736111332319e-05 -2.098743031735e-18 0.000000000000e+00 1.736111332317e-05 -3.680561118528e-18 0.000000000000e+00 
1.736111332316e-05 -1.126498776182e-19 0.000000000000e+00 1.736111332320e-05 1.686896548535e-18 0.000000000000e+00 
1.736111332317e-05 -2.837880191694e-18 0.000000000000e+00 1.736111332319e-05 -3.493301282299e-19 0.000000000000e+00 
1.736111332318e-05 -4.424707710656e-18 0.000000000000e+00 1.736111332317e-05 2.813063176621e-18 0.000000000000e+00 
1.736111332318e-05 3.146350112719e-18 0.000000000000e+00 1.736111332318e-05 -3.189870500410e-18 0.000000000000e+00 
1.736111332317e-05 1.106932853962e-18 0.000000000000e+00 1.736111332318e-05 -1.022028214284e-18 0.000000000000e+00 
1.736111332318e-05 2.493051883102e-18 0.000000000000e+00 1.736111332320e-05 -6.878996016816e-19 0.000000000000e+00 
1.736111332320e-05 -1.273844592020e-19 0.000000000000e+00 1.736111332320e-05 1.041341465279e-18 0.000000000000e+00 
1.736111332319e-05 3.447881296552e-18 0.000000000000e+00 1.736111332316e-05 1.123838986451e-19 0.000000000000e+00 
1.736111332319e-05 2.687732579806e-18 0.000000000000e+00 1.736111332320e-05 -1.473571565476e-18 0.000000000000e+00 
1.736111332319e-05 4.467589774783e-18 0.000000000000e+00 1.736111332317e-05 9.480829084300e-19 0.000000000000e+00 
1.736111332319e-05 9.606621291202e-18 0.000000000000e+00 1.736111332318e-05 3.625431196265e-18 0.000000000000e+00 
1.736111332319e-05 3.222325630332e-18 0.000000000000e+00 1.736111332318e-05 7.966742967940e-20 0.000000000000e+00 
1.736111332317e-05 2.694976732642e-18 0.000000000000e+00 1.736111332317e-05 8.486047501926e-19 0.000000000000e+00 
1.736111332318e-05 -2.394790337420e-18 0.000000000000e+00 1.736111332321e-05 8.598474698005e-19 0.000000000000e+00 
1.736111332317e-05 3.448133996855e-18 0.000000000000e+00 1.736111332321e-05 -1.008570660807e-18 0.000000000000e+00 
1.736111332319e-05 -1.082983894056e-19 0.000000000000e+00 1.736111332320e-05 -7.807654759757e-19 0.000000000000e+00 
1.736111332318e-05 1.183179446328e-18 0.000000000000e+00 1.736111332316e-05 2.319416966936e-18 0.000000000000e+00 
1.736111332322e-05 -3.468221117952e-19 0.000000000000e+00 1.736111332319e-05 1.640889453660e-18 0.000000000000e+00 
1.736111332317e-05 -3.571782632408e-18 0.000000000000e+00 1.736111332317e-05 1.700512915252e-18 0.000000000000e+00 
1.736111332317e-05 -1.979146204715e-18 0.000000000000e+00 1.736111332317e-05 -1.636998403996e-18 0.000000000000e+00 
1.736111332317e-05 1.345334877401e-18 0.000000000000e+00 1.736111332319e-05 -7.521270539643e-19 0.000000000000e+00 
1.736111332317e-05 8.383942366737e-19 0.000000000000e+00 1.736111332321e-05 -1.639389063497e-18 0.000000000000e+00 
1.736111332320e-05 -1.865885247346e-18 0.000000000000e+00 1.736111332317e-05 3.050120983339e-18 0.000000000000e+00 
1.736111332320e-05 -2.205777576444e-18 0.000000000000e+00 1.736111332318e-05 -1.938501394131e-18 0.000000000000e+00 
1.736111332315e-05 -2.102228018917e-19 0.000000000000e+00 1.736111332318e-05 9.067704378474e-18 0.000000000000e+00 
1.736111332316e-05 2.598994501347e-18 0.000000000000e+00 1.736111332318e-05 -6.656939938876e-20 0.000000000000e+00 
1.736111332316e-05 2.468279596188e-18 0.000000000000e+00 1.736111332318e-05 4.269736851495e-18 0.000000000000e+00 
1.736111332319e-05 4.965872033739e-18 0.000000000000e+00 1.736111332317e-05 7.299447963644e-19 0.000000000000e+00 
1.736111332317e-05 3.949773030515e-18 0.000000000000e+00 1.736111332317e-05 -5.852748601079e-18 0.000000000000e+00 
1.736111332321e-05 -3.832358510837e-18 0.000000000000e+00 1.736111332323e-05 1.475126785803e-18 0.000000000000e+00 
1.736111332317e-05 1.946236488882e-18 0.000000000000e+00 1.736111332317e-05 2.271720339665e-18 0.000000000000e+00 
1.736111332320e-05 3.157309978896e-18 0.000000000000e+00 1.736111332317e-05 2.744498312268e-18 0.000000000000e+00 
1.736111332321e-05 5.156564954823e-18 0.000000000000e+00 1.736111332316e-05 1.765613653199e-18 0.000000000000e+00 
1.736111332317e-05 4.505380538792e-18 0.000000000000e+00 1.736111332318e-05 6.392035254598e-19 0.000000000000e+00 
1.736111332317e-05 -5.286571750972e-18 0.000000000000e+00 1.736111332317e-05 2.639767754895e-18 0.000000000000e+00 
1.736111332318e-05 1.471904918392e-18 0.000000000000e+00 1.736111332320e-05 1.568740901679e-18 0.000000000000e+00 
1.736111332319e-05 2.608567297122e-18 0.000000000000e+00 1.736111332315e-05 8.918588176728e-19 0.000000000000e+00 
1.736111332318e-05 1.395448735480e-18 0.000000000000e+00 1.736111332318e-05 2.139732637544e-19 0.000000000000e+00 
1.736111332319e-05 -1.396964531968e-18 0.000000000000e+00 1.736111332319e-05 -9.839245318144e-18 0.000000000000e+00 
1.736111332322e-05 1.338661097357e-18 0.000000000000e+00 1.736111332317e-05 -3.734752847932e-18 0.000000000000e+00 
1.736111332317e-05 -1.517013942375e-18 0.000000000000e+00 1.736111332317e-05 -2.193852312323e-19 0.000000000000e+00 
1.736111332316e-05 3.306949933632e-18 0.000000000000e+00 1.736111332318e-05 1.864873116067e-18 0.000000000000e+00 
1.736111332321e-05 -3.388958420121e-18 0.000000000000e+00 1.736111332318e-05 2.549710540734e-18 0.000000000000e+00 
1.736111332321e-05 3.544938844488e-18 0.000000000000e+00 1.736111332317e-05 5.395949899626e-18 0.000000000000e+00 
1.736111332319e-05 3.533357623318e-18 0.000000000000e+00 1.736111332317e-05 5.062773705792e-19 0.000000000000e+00 
1.736111332316e-05 7.799029988234e-18 0.000000000000e+00 1.736111332319e-05 -5.500743448654e-18 0.000000000000e+00 
1.736111332320e-05 2.132771546039e-18 0.000000000000e+00 1.736111332320e-05 5.045720109390e-18 0.000000000000e+00 
1.736111332317e-05 1.973451953208e-18 0.000000000000e+00 1.736111332318e-05 -1.110068038940e-18 0.000000000000e+00 
1.736111332320e-05 -2.167555082007e-18 0.000000000000e+00 1.736111332316e-05 8.346757892853e-18 0.000000000000e+00 
1.736111332317e-05 4.457146214564e-19 0.000000000000e+00 1.736111332318e-05 9.190153077425e-18 0.000000000000e+00 
1.736111332317e-05 1.956957097515e-18 0.000000000000e+00 1.736111332319e-05 -1.050624184955e-18 0.000000000000e+00 
1.736111332319e-05 3.296214154882e-19 0.000000000000e+00 1.736111332319e-05 5.966299462313e-19 0.000000000000e+00 
1.736111332319e-05 1.670975570062e-18 0.000000000000e+00 1.736111332318e-05 7.741307695013e-19 0.000000000000e+00 
1.736111332319e-05 7.833347311440e-19 0.000000000000e+00 1.736111332317e-05 2.177210018420e-18 0.000000000000e+00 
1.736111332317e-05 8.695635821992e-19 0.000000000000e+00 1.736111332318e-05 2.519667843905e-18 0.000000000000e+00 
1.736111332318e-05 4.395061460255e-19 0.000000000000e+00 1.736111332316e-05 -2.877877578549e-18 0.000000000000e+00 
1.736111332319e-05 -3.699039882502e-18 0.000000000000e+00 1.736111332321e-05 1.557166331472e-18 0.000000000000e+00 
1.736111332317e-05 1.845896669241e-18 0.000000000000e+00 1.736111332323e-05 -1.725350599761e-18 0.000000000000e+00 
1.736111332318e-05 4.718453179682e-18 0.000000000000e+00 1.736111332316e-05 -3.260680422312e-18 0.000000000000e+00 
1.736111332317e-05 -1.775751213842e-19 0.000000000000e+00 1.736111332316e-05 -2.618662409680e-18 0.000000000000e+00 
1.736111332317e-05 -4.082182404370e-18 0.000000000000e+00 1.736111332317e-05 1.851713674224e-18 0.000000000000e+00 
1.736111332321e-05 -8.105802579108e-18 0.000000000000e+00 1.736111332317e-05 6.488086369617e-18 0.000000000000e+00 
1.736111332317e-05 1.995357465296e-19 0.000000000000e+00 1.736111332317e-05 -1.534442286952e-18 0.000000000000e+00 
1.736111332317e-05 6.117580817391e-19 0.000000000000e+00 1.736111332317e-05 -1.775837164112e-19 0.000000000000e+00 
1.736111332322e-05 4.079890755812e-18 0.000000000000e+00 1.736111332319e-05 9.446503196519e-19 0.000000000000e+00 
1.736111332318e-05 -9.248799385288e-20 0.000000000000e+00 1.736111332319e-05 2.697802686386e-18 0.000000000000e+00 
1.736111332317e-05 -1.993357716364e-18 0.000000000000e+00 1.736111332316e-05 2.524220214742e-18 0.000000000000e+00 
1.736111332317e-05 3.563544156557e-18 0.000000000000e+00 1.736111332320e-05 -3.070280169250e-19 0.000000000000e+00 
1.736111332316e-05 1.697876658335e-18 0.000000000000e+00 1.736111332318e-05 -1.340996981724e-18 0.000000000000e+00 
1.736111332317e-05 1.963321280338e-18 0.000000000000e+00 1.736111332318e-05 7.415316195083e-19 0.000000000000e+00 
1.736111332317e-05 6.271833473771e-18 0.000000000000e+00 1.736111332317e-05 9.664848896394e-19 0.000000000000e+00 
1.736111332316e-05 -9.522225111686e-19 0.000000000000e+00 1.736111332317e-05 4.772991154024e-19 0.000000000000e+00 
1.736111332316e-05 -1.274051756638e-18 0.000000000000e+00 1.736111332321e-05 -2.759583974308e-18 0.000000000000e+00 
1.736111332320e-05 3.824803335057e-20 0.000000000000e+00 1.736111332317e-05 -7.933901040671e-19 0.000000000000e+00 
1.736111332320e-05 -1.466116420799e-18 0.000000000000e+00 1.736111332320e-05 2.092129720844e-18 0.000000000000e+00 
1.736111332317e-05 -4.630490095069e-19 0.000000000000e+00 1.736111332316e-05 -1.771499017226e-18 0.000000000000e+00 
1.736111332318e-05 3.171240605256e-18 0.000000000000e+00 1.736111332319e-05 -3.277178263262e-18 0.000000000000e+00 
1.736111332319e-05 -2.287204204310e-18 0.000000000000e+00 1.736111332316e-05 3.464995704213e-18 0.000000000000e+00 
1.736111332319e-05 -2.012297836875e-18 0.000000000000e+00 1.736111332316e-05 3.307884363104e-18 0.000000000000e+00 
1.736111332321e-05 3.094488033011e-19 0.000000000000e+00 1.736111332318e-05 6.252531590370e-18 0.000000000000e+00 
1.736111332316e-05 5.532573130915e-19 0.000000000000e+00 1.736111332317e-05 5.883079379979e-19 0.000000000000e+00 
1.736111332318e-05 -4.099096497229e-19 0.000000000000e+00 1.736111332321e-05 9.863867600140e-19 0.000000000000e+00 
1.736111332317e-05 -9.171667327036e-18 0.000000000000e+00 1.736111332316e-05 2.395579129361e-18 0.000000000000e+00 
1.736111332318e-05 -1.190741239178e-18 0.000000000000e+00 1.736111332317e-05 -5.705036245912e-18 0.000000000000e+00 
1.736111332319e-05 3.384480013572e-19 0.000000000000e+00 1.736111332318e-05 6.746177287203e-18 0.000000000000e+00 
1.736111332318e-05 5.006159967100e-19 0.000000000000e+00 1.736111332318e-05 4.722670550805e-18 0.000000000000e+00 
1.736111332317e-05 1.002223313174e-18 0.000000000000e+00 1.736111332316e-05 4.061420231504e-18 0.000000000000e+00 
1.736111332320e-05 2.786990997212e-18 0.000000000000e+00 1.736111332320e-05 9.843703034386e-19 0.000000000000e+00 
1.736111332319e-05 1.074847149510e-18 0.000000000000e+00 1.736111332318e-05 3.686538018335e-18 0.000000000000e+00 
1.736111332321e-05 4.796824680780e-18 0.000000000000e+00 1.736111332315e-05 -1.097774145440e-18 0.000000000000e+00 
1.736111332316e-05 1.557054108371e-18 0.000000000000e+00 1.736111332317e-05 -3.324357925951e-18 0.000000000000e+00 
1.736111332317e-05 -8.312623581818e-19 0.000000000000e+00 1.736111332318e-05 5.611390411444e-19 0.000000000000e+00 
1.736111332318e-05 -4.466648792342e-18 0.000000000000e+00 1.736111332317e-05 2.661499702717e-19 0.000000000000e+00 
1.736111332316e-05 5.983611629487e-19 0.000000000000e+00 1.736111332320e-05 1.937486391941e-18 0.000000000000e+00 
1.736111332318e-05 2.544071203349e-18 0.000000000000e+00 1.736111332318e-05 1.677560957236e-18 0.000000000000e+00 
1.736111332319e-05 3.271263808337e-18 0.000000000000e+00 1.736111332318e-05 2.767944245783e-18 0.000000000000e+00 
1.736111332317e-05 5.589813499643e-18 0.000000000000e+00 1.736111332318e-05 7.662280380257e-19 0.000000000000e+00 
1.736111332317e-05 4.497739729055e-18 0.000000000000e+00 1.736111332317e-05 -8.222386953599e-19 0.000000000000e+00 
1.736111332317e-05 -7.549594755613e-19 0.000000000000e+00 1.736111332318e-05 2.511464749136e-18 0.000000000000e+00 
1.736111332316e-05 -1.369787975647e-18 0.000000000000e+00 1.736111332316e-05 -5.132083640354e-18 0.000000000000e+00 
1.736111332317e-05 -2.556394224032e-18 0.000000000000e+00 1.736111332318e-05 -3.678478005755e-18 0.000000000000e+00 
1.736111332318e-05 3.117730031017e-18 0.000000000000e+00 1.736111332317e-05 2.185755224169e-18 0.000000000000e+00 
1.736111332320e-05 -6.114390359610e-18 0.000000000000e+00 1.736111332318e-05 -7.781458905942e-19 0.000000000000e+00 
1.736111332318e-05 -1.445537960805e-18 0.000000000000e+00 1.736111332318e-05 3.148665436074e-18 0.000000000000e+00 
1.736111332317e-05 -6.688065342039e-19 0.000000000000e+00 1.736111332317e-05 6.460826812699e-18 0.000000000000e+00 
1.736111332318e-05 2.125451005517e-18 0.000000000000e+00 1.736111332317e-05 3.207401691049e-18 0.000000000000e+00 
1.736111332317e-05 3.229244133999e-18 0.000000000000e+00 1.736111332321e-05 2.056733080017e-18 0.000000000000e+00 
1.736111332318e-05 2.890908272517e-18 0.000000000000e+00 1.736111332318e-05 1.353931024001e-19 0.000000000000e+00 
1.736111332317e-05 4.364752228776e-18 0.000000000000e+00 1.736111332318e-05 6.869200308212e-19 0.000000000000e+00 
1.736111332316e-05 -2.783866722248e-18 0.000000000000e+00 1.736111332320e-05 4.317898300558e-18 0.000000000000e+00 
1.736111332319e-05 1.032492103345e-19 0.000000000000e+00 1.736111332317e-05 2.543553909392e-18 0.000000000000e+00 
1.736111332317e-05 -3.130189252067e-19 0.000000000000e+00 1.736111332324e-05 -5.697376871066e-20 0.000000000000e+00 
1.736111332318e-05 5.057350987848e-18 0.000000000000e+00 1.736111332317e-05 -1.451634926560e-18 0.000000000000e+00 
1.736111332322e-05 -2.552332860318e-18 0.000000000000e+00 1.736111332317e-05 -5.319801730755e-18 0.000000000000e+00 
1.736111332317e-05 -1.972226955312e-18 0.000000000000e+00 1.736111332316e-05 4.987041042318e-18 0.000000000000e+00 
1.736111332317e-05 6.584378657150e-19 0.000000000000e+00 1.736111332319e-05 1.084503095359e-18 0.000000000000e+00 
1.736111332317e-05 1.558209711085e-18 0.000000000000e+00 1.736111332316e-05 2.001447227980e-18 0.000000000000e+00 
1.736111332318e-05 -1.002780707123e-18 0.000000000000e+00 1.736111332317e-05 2.719584406116e-18 0.000000000000e+00 
1.736111332319e-05 1.237749857425e-18 0.000000000000e+00 1.736111332316e-05 5.218837991212e-18 0.000000000000e+00 
1.736111332318e-05 -2.487410223122e-19 0.000000000000e+00 1.736111332317e-05 -6.118830724708e-18 0.000000000000e+00 
1.736111332317e-05 4.651088199646e-18 0.000000000000e+00 1.736111332318e-05 3.626799896236e-18 0.000000000000e+00 
1.736111332320e-05 2.125013333501e-18 0.000000000000e+00 1.736111332320e-05 -2.338100738254e-19 0.000000000000e+00 
1.736111332318e-05 -5.978927023380e-19 0.000000000000e+00 1.736111332317e-05 5.994550871637e-18 0.000000000000e+00 
1.736111332318e-05 2.471929861953e-18 0.000000000000e+00 1.736111332319e-05 -5.765373346158e-18 0.000000000000e+00 
1.736111332316e-05 -5.568658549570e-19 0.000000000000e+00 1.736111332316e-05 5.337682947318e-18 0.000000000000e+00 
1.736111332320e-05 -2.749707063145e-18 0.000000000000e+00 1.736111332318e-05 3.478142893134e-18 0.000000000000e+00 
1.736111332319e-05 8.022213191019e-19 0.000000000000e+00 1.736111332318e-05 1.159594299608e-18 0.000000000000e+00 
1.736111332318e-05 -2.623998692582e-19 0.000000000000e+00 1.736111332319e-05 2.260856827752e-18 0.000000000000e+00 
1.736111332316e-05 -2.760011790126e-18 0.000000000000e+00 1.736111332316e-05 6.863716658037e-19 0.000000000000e+00 
1.736111332319e-05 1.823769587905e-18 0.000000000000e+00 1.736111332319e-05 6.277584402528e-18 0.000000000000e+00 
1.736111332318e-05 -6.664420767391e-19 0.000000000000e+00 1.736111332318e-05 4.921270819167e-18 0.000000000000e+00 
1.736111332320e-05 1.611491277908e-18 0.000000000000e+00 1.736111332316e-05 3.436681192557e-18 0.000000000000e+00 
1.736111332319e-05 4.965217664029e-18 0.000000000000e+00 1.736111332317e-05 6.419395006502e-18 0.000000000000e+00 
1.736111332320e-05 7.654068319232e-19 0.000000000000e+00 1.736111332318e-05 9.774198402861e-18 0.000000000000e+00 
1.736111332318e-05 1.967641649151e-18 0.000000000000e+00 1.736111332316e-05 2.528904847137e-18 0.000000000000e+00 
1.736111332317e-05 1.324189043068e-18 0.000000000000e+00 1.736111332316e-05 5.420066702330e-18 0.000000000000e+00 
1.736111332316e-05 1.743586520226e-18 0.000000000000e+00 1.736111332316e-05 1.751055865836e-18 0.000000000000e+00 
1.736111332317e-05 1.741423442707e-18 0.000000000000e+00 1.736111332320e-05 2.461738875071e-18 0.000000000000e+00 
1.736111332322e-05 5.606312895148e-18 0.000000000000e+00 1.736111332318e-05 8.099874645976e-19 0.000000000000e+00 
1.736111332316e-05 8.735225041327e-19 0.000000000000e+00 1.736111332319e-05 9.334700658988e-20 0.000000000000e+00 
1.736111332321e-05 1.476249298542e-19 0.000000000000e+00 1.736111332316e-05 2.948249772277e-18 0.000000000000e+00 