<?xml version="1.0"?>
<!-- Time step: 60 | Time: 3.060000000000e+03 -->
<VTKFile type="UnstructuredGrid" version="0.1" byte_order="LittleEndian">
  <UnstructuredGrid>
    <Piece NumberOfPoints="101" NumberOfCells="100">
      <Points>
        <DataArray type="Float64" NumberOfComponents="3" format="ascii">
          0.000000000000e+00 0.000000000000e+00 0.000000000000e+00
          1.000000000000e-03 0.000000000000e+00 0.000000000000e+00
          2.000000000000e-03 0.000000000000e+00 0.000000000000e+00
          3.000000000000e-03 0.000000000000e+00 0.000000000000e+00
          4.000000000000e-03 0.000000000000e+00 0.000000000000e+00
          5.000000000000e-03 0.000000000000e+00 0.000000000000e+00
          6.000000000000e-03 0.000000000000e+00 0.000000000000e+00
          7.000000000000e-03 0.000000000000e+00 0.000000000000e+00
          8.000000000000e-03 0.000000000000e+00 0.000000000000e+00
          9.000000000000e-03 0.000000000000e+00 0.000000000000e+00
          1.000000000000e-02 0.000000000000e+00 0.000000000000e+00
          1.100000000000e-02 0.000000000000e+00 0.000000000000e+00
          1.200000000000e-02 0.000000000000e+00 0.000000000000e+00
          1.300000000000e-02 0.000000000000e+00 0.000000000000e+00
          1.400000000000e-02 0.000000000000e+00 0.000000000000e+00
          1.500000000000e-02 0.000000000000e+00 0.000000000000e+00
          1.600000000000e-02 0.000000000000e+00 0.000000000000e+00
          1.700000000000e-02 0.000000000000e+00 0.000000000000e+00
          1.800000000000e-02 0.000000000000e+00 0.000000000000e+00
          1.900000000000e-02 0.000000000000e+00 0.000000000000e+00
          2.000000000000e-02 0.000000000000e+00 0.000000000000e+00
          2.100000000000e-02 0.000000000000e+00 0.000000000000e+00
          2.200000000000e-02 0.000000000000e+00 0.000000000000e+00
          2.300000000000e-02 0.000000000000e+00 0.000000000000e+00
          2.400000000000e-02 0.000000000000e+00 0.000000000000e+00
          2.500000000000e-02 0.000000000000e+00 0.000000000000e+00
          2.600000000000e-02 0.000000000000e+00 0.000000000000e+00
          2.700000000000e-02 0.000000000000e+00 0.000000000000e+00
          2.800000000000e-02 0.000000000000e+00 0.000000000000e+00
          2.900000000000e-02 0.000000000000e+00 0.000000000000e+00
          3.000000000000e-02 0.000000000000e+00 0.000000000000e+00
          3.100000000000e-02 0.000000000000e+00 0.000000000000e+00
          3.200000000000e-02 0.000000000000e+00 0.000000000000e+00
          3.300000000000e-02 0.000000000000e+00 0.000000000000e+00
          3.400000000000e-02 0.000000000000e+00 0.000000000000e+00
          3.500000000000e-02 0.000000000000e+00 0.000000000000e+00
          3.600000000000e-02 0.000000000000e+00 0.000000000000e+00
          3.700000000000e-02 0.000000000000e+00 0.000000000000e+00
          3.800000000000e-02 0.000000000000e+00 0.000000000000e+00
          3.900000000000e-02 0.000000000000e+00 0.000000000000e+00
          4.000000000000e-02 0.000000000000e+00 0.000000000000e+00
          4.100000000000e-02 0.000000000000e+00 0.000000000000e+00
          4.200000000000e-02 0.000000000000e+00 0.000000000000e+00
          4.300000000000e-02 0.000000000000e+00 0.000000000000e+00
          4.400000000000e-02 0.000000000000e+00 0.000000000000e+00
          4.500000000000e-02 0.000000000000e+00 0.000000000000e+00
          4.600000000000e-02 0.000000000000e+00 0.000000000000e+00
          4.700000000000e-02 0.000000000000e+00 0.000000000000e+00
          4.800000000000e-02 0.000000000000e+00 0.000000000000e+00
          4.900000000000e-02 0.000000000000e+00 0.000000000000e+00
          5.000000000000e-02 0.000000000000e+00 0.000000000000e+00
          5.100000000000e-02 0.000000000000e+00 0.000000000000e+00
          5.200000000000e-02 0.000000000000e+00 0.000000000000e+00
          5.300000000000e-02 0.000000000000e+00 0.000000000000e+00
          5.400000000000e-02 0.000000000000e+00 0.000000000000e+00
          5.500000000000e-02 0.000000000000e+00 0.000000000000e+00
          5.600000000000e-02 0.000000000000e+00 0.000000000000e+00
          5.700000000000e-02 0.000000000000e+00 0.000000000000e+00
          5.800000000000e-02 0.000000000000e+00 0.000000000000e+00
          5.900000000000e-02 0.000000000000e+00 0.000000000000e+00
          6.000000000000e-02 0.000000000000e+00 0.000000000000e+00
          6.100000000000e-02 0.000000000000e+00 0.000000000000e+00
          6.200000000000e-02 0.000000000000e+00 0.000000000000e+00
          6.300000000000e-02 0.000000000000e+00 0.000000000000e+00
          6.400000000000e-02 0.000000000000e+00 0.000000000000e+00
          6.500000000000e-02 0.000000000000e+00 0.000000000000e+00
          6.600000000000e-02 0.000000000000e+00 0.000000000000e+00
          6.700000000000e-02 0.000000000000e+00 0.000000000000e+00
          6.800000000000e-02 0.000000000000e+00 0.000000000000e+00
          6.900000000000e-02 0.000000000000e+00 0.000000000000e+00
          7.000000000000e-02 0.000000000000e+00 0.000000000000e+00
          7.100000000000e-02 0.000000000000e+00 0.000000000000e+00
          7.200000000000e-02 0.000000000000e+00 0.000000000000e+00
          7.300000000000e-02 0.000000000000e+00 0.000000000000e+00
          7.400000000000e-02 0.000000000000e+00 0.000000000000e+00
          7.500000000000e-02 0.000000000000e+00 0.000000000000e+00
          7.600000000000e-02 0.000000000000e+00 0.000000000000e+00
          7.700000000000e-02 0.000000000000e+00 0.000000000000e+00
          7.800000000000e-02 0.000000000000e+00 0.000000000000e+00
          7.900000000000e-02 0.000000000000e+00 0.000000000000e+00
          8.000000000000e-02 0.000000000000e+00 0.000000000000e+00
          8.100000000000e-02 0.000000000000e+00 0.000000000000e+00
          8.200000000000e-02 0.000000000000e+00 0.000000000000e+00
          8.300000000000e-02 0.000000000000e+00 0.000000000000e+00
          8.400000000000e-02 0.000000000000e+00 0.000000000000e+00
          8.500000000000e-02 0.000000000000e+00 0.000000000000e+00
          8.600000000000e-02 0.000000000000e+00 0.000000000000e+00
          8.700000000000e-02 0.000000000000e+00 0.000000000000e+00
          8.800000000000e-02 0.000000000000e+00 0.000000000000e+00
          8.900000000000e-02 0.000000000000e+00 0.000000000000e+00
          9.000000000000e-02 0.000000000000e+00 0.000000000000e+00
          9.100000000000e-02 0.000000000000e+00 0.000000000000e+00
          9.200000000000e-02 0.000000000000e+00 0.000000000000e+00
          9.300000000000e-02 0.000000000000e+00 0.000000000000e+00
          9.400000000000e-02 0.000000000000e+00 0.000000000000e+00
          9.500000000000e-02 0.000000000000e+00 0.000000000000e+00
          9.600000000000e-02 0.000000000000e+00 0.000000000000e+00
          9.700000000000e-02 0.000000000000e+00 0.000000000000e+00
          9.800000000000e-02 0.000000000000e+00 0.000000000000e+00
          9.900000000000e-02 0.000000000000e+00 0.000000000000e+00
          1.000000000000e-01 0.000000000000e+00 0.000000000000e+00
        </DataArray>
      </Points>
      <Cells>
        <DataArray type="Int64" Name="connectivity" format="ascii">
          0 1 
          1 2 
          2 3 
          3 4 
          4 5 
          5 6 
          6 7 
          7 8 
          8 9 
          9 10 
          10 11 
          11 12 
          12 13 
          13 14 
          14 15 
          15 16 
          16 17 
          17 18 
          18 19 
          19 20 
          20 21 
          21 22 
          22 23 
          23 24 
          24 25 
          25 26 
          26 27 
          27 28 
          28 29 
          29 30 
          30 31 
          31 32 
          32 33 
          33 34 
          34 35 
          35 36 
          36 37 
          37 38 
          38 39 
          39 40 
          40 41 
          41 42 
          42 43 
          43 44 
          44 45 
          45 46 
          46 47 
          47 48 
          48 49 
          49 50 
          50 51 
          51 52 
          52 53 
          53 54 
          54 55 
          55 56 
          56 57 
          57 58 
          58 59 
          59 60 
          60 61 
          61 62 
          62 63 
          63 64 
          64 65 
          65 66 
          66 67 
          67 68 
          68 69 
          69 70 
          70 71 
          71 72 
          72 73 
          73 74 
          74 75 
          75 76 
          76 77 
          77 78 
          78 79 
          79 80 
          80 81 
          81 82 
          82 83 
          83 84 
          84 85 
          85 86 
          86 87 
          87 88 
          88 89 
          89 90 
          90 91 
          91 92 
          92 93 
          93 94 
          94 95 
          95 96 
          96 97 
          97 98 
          98 99 
          99 100 
        </DataArray>
        <DataArray type="Int64" Name="offsets" format="ascii">
          2 4 6 8 10 12 14 16 18 20 22 24 26 28 30 32 34 36 38 40 42 44 46 48 50 52 54 56 58 60 62 64 66 68 70 72 74 76 78 80 82 84 86 88 90 92 94 96 98 100 102 104 106 108 110 112 114 116 118 120 122 124 126 128 130 132 134 136 138 140 142 144 146 148 150 152 154 156 158 160 162 164 166 168 170 172 174 176 178 180 182 184 186 188 190 192 194 196 198 200 
        </DataArray>
        <DataArray type="UInt8" Name="types" format="ascii">
          3 3 3 3 3 3 3 3 3 3 3 3 3 3 3 3 3 3 3 3 3 3 3 3 3 3 3 3 3 3 3 3 3 3 3 3 3 3 3 3 3 3 3 3 3 3 3 3 3 3 3 3 3 3 3 3 3 3 3 3 3 3 3 3 3 3 3 3 3 3 3 3 3 3 3 3 3 3 3 3 3 3 3 3 3 3 3 3 3 3 3 3 3 3 3 3 3 3 3 3 
        </DataArray>
      </Cells>
      <PointData Scalars="PRESSURE1">
        <DataArray type="Float64" Name="PRESSURE1" format="ascii">
          9.373500000000e+02 9.299765000000e+02 9.226030000000e+02 9.152295000000e+02 9.078559999999e+02 9.004824999999e+02 8.931089999999e+02 8.857354999999e+02 8.783619999999e+02 8.709884999999e+02 8.636149999999e+02 8.562414999998e+02 8.488679999998e+02 8.414944999998e+02 8.341209999998e+02 8.267474999998e+02 8.193739999998e+02 8.120004999998e+02 8.046269999997e+02 7.972534999997e+02 7.898799999997e+02 7.825064999997e+02 7.751329999997e+02 7.677594999997e+02 7.603859999997e+02 7.530124999997e+02 7.456389999996e+02 7.382654999996e+02 7.308919999996e+02 7.235184999996e+02 7.161449999996e+02 7.087714999996e+02 7.013979999996e+02 6.940244999996e+02 6.866509999995e+02 6.792774999995e+02 6.719039999995e+02 6.645304999995e+02 6.571569999995e+02 6.497834999995e+02 6.424099999995e+02 6.350364999995e+02 6.276629999995e+02 6.202894999995e+02 6.129159999994e+02 6.055424999994e+02 5.981689999994e+02 5.907954999994e+02 5.834219999994e+02 5.760484999994e+02 5.686749999994e+02 5.613014999994e+02 5.539279999994e+02 5.465544999994e+02 5.391809999994e+02 5.318074999994e+02 5.244339999994e+02 5.170604999994e+02 5.096869999994e+02 5.023134999994e+02 4.949399999994e+02 4.875664999994e+02 4.801929999994e+02 4.728194999994e+02 4.654459999994e+02 4.580724999994e+02 4.506989999994e+02 4.433254999994e+02 4.359519999994e+02 4.285784999994e+02 4.212049999994e+02 4.138314999994e+02 4.064579999995e+02 3.990844999995e+02 3.917109999995e+02 3.843374999995e+02 3.769639999995e+02 3.695904999995e+02 3.622169999995e+02 3.548434999995e+02 3.474699999996e+02 3.400964999996e+02 3.327229999996e+02 3.253494999996e+02 3.179759999996e+02 3.106024999997e+02 3.032289999997e+02 2.958554999997e+02 2.884819999997e+02 2.811084999997e+02 2.737349999998e+02 2.663614999998e+02 2.589879999998e+02 2.516144999998e+02 2.442409999999e+02 2.368674999999e+02 2.294939999999e+02 2.221204999999e+02 2.147470000000e+02 2.073735000000e+02 2.000000000000e+02 
        </DataArray>
        <DataArray type="Float64" Name="NODAL_VELOCITY1" NumberOfComponents="3" format="ascii">
          8.217588786016e-05 0.000000000000e+00 0.000000000000e+00 8.217588786016e-05 0.000000000000e+00 0.000000000000e+00 8.217588786016e-05 0.000000000000e+00 0.000000000000e+00 8.217588786016e-05 0.000000000000e+00 0.000000000000e+00 8.217588786016e-05 0.000000000000e+00 0.000000000000e+00 8.217588786016e-05 0.000000000000e+00 0.000000000000e+00 8.217588786016e-05 0.000000000000e+00 0.000000000000e+00 8.217588786016e-05 0.000000000000e+00 0.000000000000e+00 8.217588786016e-05 0.000000000000e+00 0.000000000000e+00 8.217588786017e-05 0.000000000000e+00 0.000000000000e+00 8.217588786016e-05 0.000000000000e+00 0.000000000000e+00 8.217588786016e-05 0.000000000000e+00 0.000000000000e+00 8.217588786015e-05 0.000000000000e+00 0.000000000000e+00 8.217588786015e-05 0.000000000000e+00 0.000000000000e+00 8.217588786015e-05 0.000000000000e+00 0.000000000000e+00 8.217588786015e-05 0.000000000000e+00 0.000000000000e+00 8.217588786015e-05 0.000000000000e+00 0.000000000000e+00 8.217588786015e-05 0.000000000000e+00 0.000000000000e+00 8.217588786014e-05 0.000000000000e+00 0.000000000000e+00 8.217588786014e-05 0.000000000000e+00 0.000000000000e+00 8.217588786014e-05 0.000000000000e+00 0.000000000000e+00 8.217588786014e-05 0.000000000000e+00 0.000000000000e+00 8.217588786014e-05 0.000000000000e+00 0.000000000000e+00 8.217588786014e-05 0.000000000000e+00 0.000000000000e+00 8.217588786014e-05 0.000000000000e+00 0.000000000000e+00 8.217588786014e-05 0.000000000000e+00 0.000000000000e+00 8.217588786014e-05 0.000000000000e+00 0.000000000000e+00 8.217588786014e-05 0.000000000000e+00 0.000000000000e+00 8.217588786014e-05 0.000000000000e+00 0.000000000000e+00 8.217588786014e-05 0.000000000000e+00 0.000000000000e+00 8.217588786013e-05 0.000000000000e+00 0.000000000000e+00 8.217588786013e-05 0.000000000000e+00 0.000000000000e+00 8.217588786013e-05 0.000000000000e+00 0.000000000000e+00 8.217588786013e-05 0.000000000000e+00 0.000000000000e+00 8.217588786013e-05 0.000000000000e+00 0.000000000000e+00 8.217588786013e-05 0.000000000000e+00 0.000000000000e+00 8.217588786012e-05 0.000000000000e+00 0.000000000000e+00 8.217588786011e-05 0.000000000000e+00 0.000000000000e+00 8.217588786011e-05 0.000000000000e+00 0.000000000000e+00 8.217588786012e-05 0.000000000000e+00 0.000000000000e+00 8.217588786011e-05 0.000000000000e+00 0.000000000000e+00 8.217588786010e-05 0.000000000000e+00 0.000000000000e+00 8.217588786010e-05 0.000000000000e+00 0.000000000000e+00 8.217588786009e-05 0.000000000000e+00 0.000000000000e+00 8.217588786009e-05 0.000000000000e+00 0.000000000000e+00 8.217588786009e-05 0.000000000000e+00 0.000000000000e+00 8.217588786008e-05 0.000000000000e+00 0.000000000000e+00 8.217588786008e-05 0.000000000000e+00 0.000000000000e+00 8.217588786007e-05 0.000000000000e+00 0.000000000000e+00 8.217588786007e-05 0.000000000000e+00 0.000000000000e+00 8.217588786006e-05 0.000000000000e+00 0.000000000000e+00 8.217588786005e-05 0.000000000000e+00 0.000000000000e+00 8.217588786005e-05 0.000000000000e+00 0.000000000000e+00 8.217588786004e-05 0.000000000000e+00 0.000000000000e+00 8.217588786004e-05 0.000000000000e+00 0.000000000000e+00 8.217588786003e-05 0.000000000000e+00 0.000000000000e+00 8.217588786002e-05 0.000000000000e+00 0.000000000000e+00 8.217588786001e-05 0.000000000000e+00 0.000000000000e+00 8.217588786001e-05 0.000000000000e+00 0.000000000000e+00 8.217588786000e-05 0.000000000000e+00 0.000000000000e+00 8.217588785999e-05 0.000000000000e+00 0.000000000000e+00 8.217588785998e-05 0.000000000000e+00 0.000000000000e+00 8.217588785997e-05 0.000000000000e+00 0.000000000000e+00 8.217588785997e-05 0.000000000000e+00 0.000000000000e+00 8.217588785995e-05 0.000000000000e+00 0.000000000000e+00 8.217588785994e-05 0.000000000000e+00 0.000000000000e+00 8.217588785994e-05 0.000000000000e+00 0.000000000000e+00 8.217588785993e-05 0.000000000000e+00 0.000000000000e+00 8.217588785992e-05 0.000000000000e+00 0.000000000000e+00 8.217588785991e-05 0.000000000000e+00 0.000000000000e+00 8.217588785990e-05 0.000000000000e+00 0.000000000000e+00 8.217588785989e-05 0.000000000000e+00 0.000000000000e+00 8.217588785988e-05 0.000000000000e+00 0.000000000000e+00 8.217588785987e-05 0.000000000000e+00 0.000000000000e+00 8.217588785986e-05 0.000000000000e+00 0.000000000000e+00 8.217588785985e-05 0.000000000000e+00 0.000000000000e+00 8.217588785985e-05 0.000000000000e+00 0.000000000000e+00 8.217588785984e-05 0.000000000000e+00 0.000000000000e+00 8.217588785982e-05 0.000000000000e+00 0.000000000000e+00 8.217588785982e-05 0.000000000000e+00 0.000000000000e+00 8.217588785982e-05 0.000000000000e+00 0.000000000000e+00 8.217588785981e-05 0.000000000000e+00 0.000000000000e+00 8.217588785980e-05 0.000000000000e+00 0.000000000000e+00 8.217588785979e-05 0.000000000000e+00 0.000000000000e+00 8.217588785978e-05 0.000000000000e+00 0.000000000000e+00 8.217588785978e-05 0.000000000000e+00 0.000000000000e+00 8.217588785977e-05 0.000000000000e+00 0.000000000000e+00 8.217588785976e-05 0.000000000000e+00 0.000000000000e+00 8.217588785976e-05 0.000000000000e+00 0.000000000000e+00 8.217588785976e-05 0.000000000000e+00 0.000000000000e+00 8.217588785975e-05 0.000000000000e+00 0.000000000000e+00 8.217588785974e-05 0.000000000000e+00 0.000000000000e+00 8.217588785974e-05 0.000000000000e+00 0.000000000000e+00 8.217588785974e-05 0.000000000000e+00 0.000000000000e+00 8.217588785973e-05 0.000000000000e+00 0.000000000000e+00 8.217588785973e-05 0.000000000000e+00 0.000000000000e+00 8.217588785973e-05 0.000000000000e+00 0.000000000000e+00 8.217588785973e-05 0.000000000000e+00 0.000000000000e+00 8.217588785973e-05 0.000000000000e+00 0.000000000000e+00 8.217588785972e-05 0.000000000000e+00 0.000000000000e+00 8.217588785972e-05 0.000000000000e+00 0.000000000000e+00 
        </DataArray>
      </PointData>
      <CellData>
      </CellData>
    </Piece>
  </UnstructuredGrid>
</VTKFile>
