 TITLE = "Time curves in points"
 VARIABLES = "TIME"  "PRESSURE1"  "DISPLACEMENT_X1"  "DISPLACEMENT_Y1"  "STRESS_XX"  "STRESS_XY"  "STRESS_YY"  "STRESS_ZZ"  "STRAIN_XX"  "STRAIN_XY"  "STRAIN_YY"  "STRAIN_ZZ"  "STRAIN_PLS"  p_(1st_Invariant)  q_(2nd_Invariant)   Effective_Strain
 ZONE T="POINT=POINT2"
0.000000000000e+00 0.000000000000e+00 0.000000000000e+00 0.000000000000e+00 -5.000000000000e+01 0.000000000000e+00 -5.000000000000e+01 -5.000000000000e+01 0.000000000000e+00 0.000000000000e+00 0.000000000000e+00 0.000000000000e+00 0.000000000000e+00 5.000000000000e+01 1.507288760336e-14  0.000000000000e+00
2.000000000000e+06 2.127090516214e-01 5.946471710048e-04 -1.090909090909e-02 -4.978197788224e+01 -2.417594357470e-05 -4.978101867059e+01 -7.551951248405e+01 1.188854476989e-03 -2.260544178458e-08 1.189302904193e-03 -1.084321474054e-02 7.571037639001e-03 5.836083634563e+01 2.573801422107e+01  1.203229343746e-02
4.000000000000e+06 2.024895730641e-01 1.303594961871e-03 -2.181818181818e-02 -4.979762835243e+01 3.415505060007e-05 -4.979492523130e+01 -8.324906255850e+01 2.605596247473e-03 1.773375749235e-08 2.607210718120e-03 -2.177941157670e-02 1.876912398968e-02 6.094720538074e+01 3.345278584860e+01  2.438581509960e-02
6.000000000000e+06 1.718251993457e-01 2.320233719809e-03 -3.272727272727e-02 -4.978549272866e+01 5.908834063668e-05 -4.978052316242e+01 -8.971241422748e+01 4.637064651891e-03 6.057238795822e-08 4.640505041742e-03 -3.272123919072e-02 3.080691124516e-02 6.309281003952e+01 3.992940651402e+01  3.736002415649e-02
8.000000000000e+06 1.490434371385e-01 3.564033428163e-03 -4.363636363636e-02 -4.984208397377e+01 7.259918938979e-05 -4.983451397588e+01 -9.535482854527e+01 7.122216447003e-03 1.046852669696e-07 7.128124205506e-03 -4.365718740042e-02 4.344349897046e-02 6.501047549830e+01 4.551653004274e+01  5.078235798473e-02
1.000000000000e+07 1.304753516742e-01 4.993045369118e-03 -5.454545454545e-02 -4.987309116549e+01 7.645336439232e-05 -4.986298872712e+01 -1.003469656894e+02 9.977290986901e-03 1.454500135060e-07 9.986169730163e-03 -5.458952416724e-02 5.655103152319e-02 6.669434852735e+01 5.047892650150e+01  6.457125498408e-02
1.200000000000e+07 1.151406946725e-01 6.574937018189e-03 -6.545454545455e-02 -4.989310750289e+01 6.852879718365e-05 -4.988080236549e+01 -1.048147328460e+02 1.313777817129e-02 1.769874801341e-07 1.314997605047e-02 -6.551888900321e-02 7.004398992702e-02 6.819621423813e+01 5.492777894570e+01  7.866276682399e-02
1.400000000000e+07 1.021983124145e-01 8.285850558568e-03 -7.636363636364e-02 -4.990733514198e+01 5.783022638973e-05 -4.989324432637e+01 -1.088421837308e+02 1.655608994388e-02 2.012723059947e-07 1.657182694197e-02 -7.644603087495e-02 8.386060000793e-02 6.954758773304e+01 5.894189525992e+01  9.300999031702e-02
1.600000000000e+07 9.110465494308e-02 1.010734518865e-02 -8.727272727273e-02 -4.991823499504e+01 4.856985230535e-05 -4.990277511160e+01 -1.124897497626e+02 2.019544340703e-02 2.207388895031e-07 2.021484027993e-02 -8.737144993658e-02 9.795380060005e-02 7.077025328976e+01 6.257924614160e+01  1.075765930923e-01
1.800000000000e+07 8.148590866529e-02 1.202471583991e-02 -9.818181818182e-02 -4.992703575143e+01 3.643376693740e-05 -4.991052619863e+01 -1.158033602531e+02 2.402648292971e-02 2.334749366803e-07 2.404960609990e-02 -9.829549643954e-02 1.122864463502e-01 7.188030740104e+01 6.588458082944e+01  1.223335425940e-01
2.000000000000e+07 7.307303336695e-02 1.402593167198e-02 -1.090909090909e-01 -4.993442437819e+01 2.435152897555e-05 -4.991717014862e+01 -1.188196363235e+02 2.802520285090e-02 2.406906599107e-07 2.805206245754e-02 -1.092184189846e-01 1.268283829072e-01 7.289041028345e+01 6.889384068061e+01  1.372570536105e-01
2.200000000000e+07 6.566511595089e-02 1.610095801318e-02 -1.200000000000e-01 -4.994079658819e+01 1.338851356791e-05 -4.992308406140e+01 -1.215688158922e+02 3.217158142449e-02 2.434447540886e-07 3.220213964565e-02 -1.201403699999e-01 1.415545597163e-01 7.381089884726e+01 7.163687720971e+01  1.523272328344e-01
2.400000000000e+07 5.910743389620e-02 1.824131505358e-02 -1.309090909091e-01 -4.994638374669e+01 6.849996392647e-06 -4.992842202791e+01 -1.240765560801e+02 3.644868158473e-02 2.445714931870e-07 3.648287801636e-02 -1.310614889547e-01 1.564438869646e-01 7.465045395157e+01 7.413915482466e+01  1.675272713734e-01
2.600000000000e+07 5.327784546260e-02 2.043973350498e-02 -1.418181818182e-01 -4.995134313047e+01 -7.796840558357e-06 -4.993332238344e+01 -1.263651460191e+02 4.084199009163e-02 2.378978388192e-07 4.087973897392e-02 -1.419818626188e-01 1.714783053556e-01 7.541660384433e+01 7.642281485563e+01  1.828427300746e-01
2.800000000000e+07 4.807781832980e-02 2.268992313757e-02 -1.527272727273e-01 -4.995579330941e+01 -1.836321890193e-05 -4.993788157971e+01 -1.284542525526e+02 4.533894671294e-02 2.282233138909e-07 4.538014199509e-02 -1.529015415523e-01 1.866421854385e-01 7.611597581390e+01 7.850741664050e+01  1.982610891166e-01
3.000000000000e+07 4.342646405973e-02 2.498640447251e-02 -1.636363636364e-01 -4.995979749784e+01 -2.534734410147e-05 -4.994215514074e+01 -1.303614182099e+02 4.992861262764e-02 2.168965696432e-07 4.997312771339e-02 -1.638205790685e-01 2.019219271791e-01 7.675445694949e+01 8.041044334215e+01  2.137714527154e-01
3.200000000000e+07 3.925637867028e-02 2.732436649007e-02 -1.745454545455e-01 -4.996342262032e+01 -3.189018144695e-05 -4.994617593366e+01 -1.321024397438e+02 5.460137675435e-02 2.033764592031e-07 5.464907397095e-02 -1.747389913321e-01 2.173055573350e-01 7.733734609925e+01 8.214764182464e+01  2.293642204145e-01
3.400000000000e+07 3.551066460664e-02 2.969959253056e-02 -1.854545454545e-01 -4.996669021927e+01 -4.227029691113e-05 -4.994987814987e+01 -1.336915770682e+02 5.934879543686e-02 1.852652804774e-07 5.939954815670e-02 -1.856568693037e-01 2.327826296344e-01 7.786938181243e+01 8.373329414944e+01  2.450310450428e-01
3.600000000000e+07 3.214083870347e-02 3.210829422622e-02 -1.963636363636e-01 -4.996968680915e+01 -5.218109441565e-05 -4.995345866780e+01 -1.351419459744e+02 6.416332481592e-02 1.638405518600e-07 6.421697264808e-02 -1.965741314950e-01 2.483436379177e-01 7.835503048378e+01 8.518037439536e+01  2.607642843661e-01
3.800000000000e+07 2.910508645073e-02 3.454718100073e-02 -2.072727272727e-01 -4.997236188047e+01 -5.832253482236e-05 -4.995672017704e+01 -1.364653024458e+02 6.903836082187e-02 1.412996032313e-07 6.909476677188e-02 -2.074909399116e-01 2.639804824411e-01 7.879812816776e+01 8.650076247775e+01  2.765575080228e-01
4.000000000000e+07 2.636727032772e-02 3.701324826978e-02 -2.181818181818e-01 -4.997481820281e+01 -6.563003056361e-05 -4.995985879497e+01 -1.376726240627e+02 7.396791692341e-02 1.160721499799e-07 7.402692116288e-02 -2.184072198133e-01 2.796855977577e-01 7.920243368682e+01 8.770528652070e+01  2.924046433214e-01
4.200000000000e+07 2.389576461801e-02 3.950381187764e-02 -2.290909090909e-01 -4.997708143155e+01 -6.543863308215e-05 -4.996292512132e+01 -1.387738846276e+02 7.894664352961e-02 9.288085480394e-08 7.900806683296e-02 -2.293229046092e-01 2.954522135444e-01 7.957129706016e+01 8.880388219752e+01  3.083002643796e-01
4.400000000000e+07 2.166278226192e-02 4.201655040237e-02 -2.400000000000e-01 -4.997908861296e+01 -6.710101784694e-05 -4.996566392273e+01 -1.397780380239e+02 8.396985881363e-02 6.884787299328e-08 8.403356175076e-02 -2.402381863120e-01 3.112746472619e-01 7.990759685320e+01 8.980566250869e+01  3.242399012875e-01
4.600000000000e+07 1.964398239095e-02 4.454925532161e-02 -2.509090909091e-01 -4.998097281824e+01 -7.466761922200e-05 -4.996844121496e+01 -1.406936607247e+02 8.903319670942e-02 4.095577497026e-08 8.909898808693e-02 -2.511528677955e-01 3.271472178640e-01 8.021435825264e+01 9.071895435737e+01  3.402189649647e-01
4.800000000000e+07 1.781760941305e-02 4.710006645495e-02 -2.618181818182e-01 -4.998265195286e+01 -7.824859508621e-05 -4.997092188357e+01 -1.415282032600e+02 9.413288848625e-02 1.291375935502e-08 9.420062620147e-02 -2.620671269488e-01 3.430653690973e-01 8.049392569882e+01 9.155141690550e+01  3.562338891227e-01
5.000000000000e+07 1.616453176925e-02 4.966720699315e-02 -2.727272727273e-01 -4.998421486470e+01 -7.717902974853e-05 -4.997336945688e+01 -1.422888403611e+02 9.926541152661e-02 -1.352355680878e-08 9.933492170342e-02 -2.729808294718e-01 3.590245343638e-01 8.074880822756e+01 9.231004867823e+01  3.722810009538e-01
5.200000000000e+07 1.466755903829e-02 5.224914649227e-02 -2.836363636364e-01 -4.998561541393e+01 -7.547414413266e-05 -4.997565088295e+01 -1.429819100560e+02 1.044276915564e-01 -3.909143476135e-08 1.044988137824e-01 -2.838940689457e-01 3.750209284893e-01 8.098105878428e+01 9.300127730798e+01  3.883573264995e-01
5.400000000000e+07 1.466279792192e-02 5.483102292453e-02 -2.945454545455e-01 -5.020015570263e+01 -6.464888281953e-05 -5.018961157337e+01 -1.438529834937e+02 1.095895888835e-01 -5.868093438564e-08 1.096625792063e-01 -2.948064351481e-01 3.910203465854e-01 8.141425025656e+01 9.365810030088e+01  4.044325241329e-01
5.600000000000e+07 1.146490071181e-02 5.744459774987e-02 -3.054545454545e-01 -4.998921143485e+01 -7.892867415923e-05 -4.998097050925e+01 -1.442241288696e+02 1.148156080781e-01 -8.888048370091e-08 1.148897393957e-01 -3.057188132219e-01 4.070926073893e-01 8.139810360457e+01 9.423903816790e+01  4.205714918588e-01
5.800000000000e+07 1.200579258857e-02 6.005248520918e-02 -3.163636363595e-01 -5.016414012707e+01 -6.170517474225e-05 -5.015617911753e+01 -1.449424905408e+02 1.200300744388e-01 -1.058370153704e-07 1.201055228102e-01 -3.166297247460e-01 4.231562184365e-01 8.175426992846e+01 9.478233116928e+01  4.366975282587e-01
6.000000000000e+07 9.390110123684e-03 6.268660132256e-02 -3.272727272727e-01 -4.999101265972e+01 -7.810876971842e-05 -4.998447237595e+01 -1.452473730471e+02 1.252973713344e-01 -1.360335025842e-07 1.253737641826e-01 -3.275414984920e-01 4.392811313731e-01 8.174095269425e+01 9.525963069771e+01  4.528770710829e-01
6.200000000000e+07 9.835842115631e-03 6.531662465097e-02 -3.381818181819e-01 -5.013415596452e+01 -6.348708816964e-05 -5.012593055146e+01 -1.458383483266e+02 1.305558507011e-01 -1.540705406716e-07 1.306338219307e-01 -3.384537786596e-01 4.554012987933e-01 8.203281161418e+01 9.570830533372e+01  4.690486198360e-01
6.400000000000e+07 7.694697910220e-03 6.796679557516e-02 -3.490909090909e-01 -4.999251858526e+01 -7.581872073876e-05 -4.998853327705e+01 -1.460909767511e+02 1.358560090387e-01 -1.823895441731e-07 1.359341665827e-01 -3.493629638994e-01 4.715659699071e-01 8.202400953781e+01 9.610045088203e+01  4.852580564308e-01
6.600000000000e+07 8.061190657042e-03 7.061460934167e-02 -3.599999999998e-01 -5.010976513706e+01 -5.834338134153e-05 -5.010276217173e+01 -1.465769564042e+02 1.411501274852e-01 -1.979504372857e-07 1.412298031024e-01 -3.602754676062e-01 4.877310683532e-01 8.226316123765e+01 9.647069294045e+01  5.014654376473e-01
6.800000000000e+07 7.454421225496e-03 7.326780802794e-02 -3.709090909091e-01 -5.017496000992e+01 -5.556909837935e-05 -5.016834101628e+01 -1.469923567725e+02 1.464554697138e-01 -2.158861631552e-07 1.465362074610e-01 -3.711858384103e-01 5.039074431907e-01 8.244521926625e+01 9.682070642918e+01  5.176816817198e-01
7.000000000000e+07 6.817544830462e-03 7.592780886603e-02 -3.818181818182e-01 -5.020697233663e+01 -5.420112766482e-05 -5.019915117498e+01 -1.473488097538e+02 1.517740412761e-01 -2.336451899061e-07 1.518562194585e-01 -3.820973915595e-01 5.201013340749e-01 8.258497775515e+01 9.714574823421e+01  5.339125266703e-01
7.200000000000e+07 6.183921483693e-03 7.859286643361e-02 -3.927272727261e-01 -5.021802648291e+01 -4.608989252087e-05 -5.021397812611e+01 -1.476601335405e+02 1.571039125767e-01 -2.471309683780e-07 1.571863356438e-01 -3.930054974339e-01 5.363055585931e-01 8.269737938318e+01 9.744413129911e+01  5.501506261750e-01
7.400000000000e+07 5.578824199645e-03 8.126430440152e-02 -4.036363636364e-01 -5.021638756249e+01 -4.430819933714e-05 -5.021261952542e+01 -1.479300963656e+02 1.624461980538e-01 -2.614362825479e-07 1.625292148189e-01 -4.039144097433e-01 5.525262687630e-01 8.278636781785e+01 9.771559287620e+01  5.664021207427e-01
7.600000000000e+07 5.012230415928e-03 8.394148732628e-02 -4.145454545707e-01 -5.020722515872e+01 -4.939429734583e-05 -5.020381876058e+01 -1.481665170329e+02 1.678000436831e-01 -2.789608168551e-07 1.678835840292e-01 -4.148237087998e-01 5.687618696633e-01 8.285918698406e+01 9.796099511769e+01  5.826655271478e-01
7.800000000000e+07 4.489262508339e-03 8.662356920198e-02 -4.254545454546e-01 -5.019399806573e+01 -3.462783141471e-05 -5.019168718920e+01 -1.483747326565e+02 1.731639500009e-01 -2.870765662266e-07 1.732477487079e-01 -4.257320382155e-01 5.850092227912e-01 8.292013930379e+01 9.818189004941e+01  5.989378919667e-01
8.000000000000e+07 4.012325361716e-03 8.931028170592e-02 -4.363636363628e-01 -5.017885371799e+01 -3.037113868631e-05 -5.017768255820e+01 -1.485583806430e+02 1.785373094332e-01 -2.961510590001e-07 1.786211727147e-01 -4.366400538304e-01 6.012681979820e-01 8.297163897307e+01 9.838011251015e+01  6.152192991914e-01
8.200000000000e+07 3.581446931719e-03 9.200274172259e-02 -4.472727273251e-01 -5.016322185672e+01 -3.097885072589e-05 -5.015804787265e+01 -1.487178575335e+02 1.839209311558e-01 -3.065205974829e-07 1.840061016708e-01 -4.475520199608e-01 6.175444057402e-01 8.301304242096e+01 9.855722277070e+01  6.315155406819e-01
8.400000000000e+07 3.191791749811e-03 9.469823657961e-02 -4.581818181831e-01 -5.014771187946e+01 -2.532652975085e-05 -5.014418507084e+01 -1.488614341946e+02 1.893115270178e-01 -3.135969223819e-07 1.893970930090e-01 -4.584617990022e-01 6.338270829056e-01 8.305111038163e+01 9.871548576671e+01  6.478161132540e-01
8.600000000000e+07 2.842690968557e-03 9.739768685486e-02 -4.690909090909e-01 -5.013300739094e+01 -3.600449500100e-05 -5.012776724619e+01 -1.489869239399e+02 1.947093772492e-01 -3.278790611152e-07 1.947960005674e-01 -4.693724610447e-01 6.501201798943e-01 8.308256619235e+01 9.885653672551e+01  6.641251541902e-01
8.800000000000e+07 2.529567507686e-03 1.000992642874e-01 -4.800000000013e-01 -5.011926531165e+01 -3.438184717664e-05 -5.011650617586e+01 -1.491002944533e+02 2.001123587488e-01 -3.388331235732e-07 2.001991559653e-01 -4.802803487097e-01 6.664169115811e-01 8.311202198027e+01 9.898240873841e+01  6.804361102190e-01
9.000000000000e+07 2.250945272532e-03 1.028048448666e-01 -4.909090909091e-01 -5.010665524459e+01 -7.361006827861e-05 -5.010096097598e+01 -1.491981063244e+02 2.055222608407e-01 -3.719268784920e-07 2.056103268338e-01 -4.911914997392e-01 6.827259580040e-01 8.313524084831e+01 9.909429833686e+01  6.967577977509e-01
9.200000000000e+07 2.001249835156e-03 1.055109680623e-01 -5.018181818183e-01 -5.009518594604e+01 -5.720634600341e-05 -5.009506379244e+01 -1.492894475248e+02 2.109351120167e-01 -3.870289473637e-07 2.110225686821e-01 -5.020975179409e-01 6.990332242470e-01 8.315989908777e+01 9.919432265569e+01  7.130763623130e-01
9.400000000000e+07 1.779419835830e-03 1.082190330612e-01 -5.127272727273e-01 -5.008497771267e+01 -4.450925053209e-05 -5.008837730365e+01 -1.493703657328e+02 2.163521902515e-01 -3.987853697786e-07 2.164386906627e-01 -5.130029163719e-01 7.153451304937e-01 8.318124024971e+01 9.928368826834e+01  7.293983606762e-01
9.600000000000e+07 1.582336473361e-03 1.109300877560e-01 -5.236363636362e-01 -5.007588119521e+01 -3.039142774442e-05 -5.007720359744e+01 -1.494396320586e+02 2.217742830544e-01 -4.055808401748e-07 2.218608007899e-01 -5.239109600775e-01 7.316663102960e-01 8.319757228375e+01 9.936308966890e+01  7.457285057641e-01
9.800000000000e+07 1.406644937102e-03 1.136426836206e-01 -5.345454545455e-01 -5.006760047847e+01 -2.654570643521e-05 -5.006946429846e+01 -1.495023070895e+02 2.271998385268e-01 -4.134285327683e-07 2.272859891366e-01 -5.348186314790e-01 7.479913734827e-01 8.321312395548e+01 9.943377471415e+01  7.620615489633e-01
1.000000000000e+08 1.250466755032e-03 1.163572021191e-01 -5.454545454551e-01 -5.006018848717e+01 -2.845107621508e-05 -5.006115152309e+01 -1.495572522168e+02 2.326289309472e-01 -4.231978226613e-07 2.327150251746e-01 -5.457272505519e-01 7.643219669293e-01 8.322619740901e+01 9.949658221515e+01  7.783992321840e-01
