 TITLE = "Time curves in points"
 VARIABLES = "TIME"  "PRESSURE1"  "DISPLACEMENT_X1"  "DISPLACEMENT_Y1"  "STRESS_XX"  "STRESS_XY"  "STRESS_YY"  "STRESS_ZZ"  "STRAIN_XX"  "STRAIN_XY"  "STRAIN_YY"  "STRAIN_ZZ"  "STRAIN_PLS"  p_(1st_Invariant)  q_(2nd_Invariant)   Effective_Strain
 ZONE T="POINT=POINT2"
0.000000000000e+00 0.000000000000e+00 0.000000000000e+00 0.000000000000e+00 -5.000000000000e+01 0.000000000000e+00 -5.000000000000e+01 -5.000000000000e+01 0.000000000000e+00 0.000000000000e+00 0.000000000000e+00 0.000000000000e+00 0.000000000000e+00 5.000000000000e+01 1.507288760336e-14  0.000000000000e+00
2.000000000000e+06 2.127090517665e-01 5.946471736668e-04 -1.090909090909e-02 -4.978197787660e+01 -2.416262676061e-05 -4.978101866417e+01 -7.551951250344e+01 1.188854481674e-03 -2.259299051135e-08 1.189302909247e-03 -1.084321476989e-02 7.571037668812e-03 5.836083634807e+01 2.573801424649e+01  1.203229347168e-02
4.000000000000e+06 2.024895728704e-01 1.303594946059e-03 -2.181818181818e-02 -4.979762833941e+01 3.407563864755e-05 -4.979492534816e+01 -8.324906260237e+01 2.605596275815e-03 1.766526690849e-08 2.607210683775e-03 -2.177941160985e-02 1.876912402046e-02 6.094720542998e+01 3.345278584054e+01  2.438581512974e-02
6.000000000000e+06 1.718252000161e-01 2.320234096008e-03 -3.272727272727e-02 -4.978549205899e+01 5.975357612232e-05 -4.978052088656e+01 -8.971241374626e+01 4.637064721406e-03 6.112033920669e-08 4.640505783916e-03 -3.272123989250e-02 3.080691220965e-02 6.309280889727e+01 3.992940750571e+01  3.736002526417e-02
8.000000000000e+06 1.490434379890e-01 3.564033329610e-03 -4.363636363636e-02 -4.984208835987e+01 7.144411589483e-05 -4.983452045281e+01 -9.535483310095e+01 7.122216718058e-03 1.040799093040e-07 7.128124049215e-03 -4.365719032832e-02 4.344350206101e-02 6.501048063788e+01 4.551652916664e+01  5.078236096997e-02
1.000000000000e+07 1.304753504060e-01 4.993047642241e-03 -5.454545454545e-02 -4.987308656450e+01 7.291050701187e-05 -4.986296585849e+01 -1.003469560762e+02 9.977288662173e-03 1.423489948915e-07 9.986174516138e-03 -5.458952259004e-02 5.655103064834e-02 6.669433616638e+01 5.047893062575e+01  6.457125463823e-02
1.200000000000e+07 1.151406945315e-01 6.574938072554e-03 -6.545454545455e-02 -4.989310735996e+01 6.829602724321e-05 -4.988080592022e+01 -1.048147325782e+02 1.313777721196e-02 1.746627761757e-07 1.314997833880e-02 -6.551888922948e-02 7.004399100091e-02 6.819621528613e+01 5.492777697137e+01  7.866276771512e-02
1.400000000000e+07 1.021983110338e-01 8.285851728929e-03 -7.636363636364e-02 -4.990733137751e+01 5.852994167542e-05 -4.989324451261e+01 -1.088421815676e+02 1.655609013430e-02 1.995221897427e-07 1.657182942088e-02 -7.644603230310e-02 8.386060275100e-02 6.954758581924e+01 5.894189488515e+01  9.300999308011e-02
1.600000000000e+07 9.110465623640e-02 1.010734845972e-02 -8.727272727273e-02 -4.991823183612e+01 4.870043200236e-05 -4.990276018412e+01 -1.124897420009e+02 2.019544322130e-02 2.188994370144e-07 2.021484708009e-02 -8.737145388827e-02 9.795380761176e-02 7.077024467370e+01 6.257924742521e+01  1.075766003521e-01
1.800000000000e+07 8.148590820036e-02 1.202472047947e-02 -9.818181818182e-02 -4.992703427809e+01 3.633137290982e-05 -4.991051446675e+01 -1.158033539806e+02 2.402648347488e-02 2.315311037750e-07 2.404961567029e-02 -9.829550427010e-02 1.122864590633e-01 7.188030090847e+01 6.588458116150e+01  1.223335554836e-01
2.000000000000e+07 7.307303082235e-02 1.402592850950e-02 -1.090909090909e-01 -4.993442664202e+01 2.740199370646e-05 -4.991720917556e+01 -1.188196495581e+02 2.802520116379e-02 2.408341806311e-07 2.805205606749e-02 -1.092184112131e-01 1.268283718685e-01 7.289042845855e+01 6.889383326287e+01  1.372570417997e-01
2.200000000000e+07 6.566511707654e-02 1.610095541461e-02 -1.200000000000e-01 -4.994079487174e+01 2.794028518241e-05 -4.992310369345e+01 -1.215688238001e+02 3.217158300856e-02 2.524558527719e-07 3.220213407285e-02 -1.201403679757e-01 1.415545557564e-01 7.381090745510e+01 7.163687615588e+01  1.523272288148e-01
2.400000000000e+07 5.910743513939e-02 1.824131227086e-02 -1.309090909091e-01 -4.994638312818e+01 6.218706587654e-06 -4.992842894733e+01 -1.240765598564e+02 3.644868272273e-02 2.495585127830e-07 3.648287219809e-02 -1.310614858221e-01 1.564438813778e-01 7.465045731065e+01 7.413915544916e+01  1.675272658997e-01
2.600000000000e+07 5.327784620520e-02 2.043973020110e-02 -1.418181818182e-01 -4.995134196562e+01 -6.130837920603e-06 -4.993332778014e+01 -1.263651490995e+02 4.084199138228e-02 2.441057927729e-07 4.087973213731e-02 -1.419818585645e-01 1.714782983844e-01 7.541660628175e+01 7.642281581894e+01  1.828427232461e-01
2.800000000000e+07 4.807782151762e-02 2.268991579881e-02 -1.527272727273e-01 -4.995580056211e+01 -1.685853816936e-05 -4.993789474607e+01 -1.284542612762e+02 4.533894087637e-02 2.349731631255e-07 4.538012696297e-02 -1.529015220146e-01 1.866421556295e-01 7.611598552812e+01 7.850741515357e+01  1.982610591432e-01
3.000000000000e+07 4.342646109805e-02 2.498640037865e-02 -1.636363636364e-01 -4.995979713399e+01 -2.656567409933e-05 -4.994214170915e+01 -1.303614125421e+02 4.992860862114e-02 2.225234163605e-07 4.997311929716e-02 -1.638205660629e-01 2.019219078255e-01 7.675445046173e+01 8.041044457421e+01  2.137714334978e-01
3.200000000000e+07 3.925638348563e-02 2.732435909160e-02 -1.745454545455e-01 -4.996343417262e+01 -3.449151776270e-05 -4.994617585874e+01 -1.321024436605e+02 5.460136432818e-02 2.076960308709e-07 5.464905913469e-02 -1.747389637646e-01 2.173055163499e-01 7.733735123061e+01 8.214764000449e+01  2.293641792155e-01
3.400000000000e+07 3.551065822343e-02 2.969959299634e-02 -1.854545454545e-01 -4.996668944399e+01 -4.772526549989e-05 -4.994984272160e+01 -1.336915599127e+02 5.934878978518e-02 1.868852803635e-07 5.939954926192e-02 -1.856568616528e-01 2.327826196061e-01 7.786936402610e+01 8.373329510100e+01  2.450310351197e-01
3.600000000000e+07 3.214083987756e-02 3.210829463784e-02 -1.963636363636e-01 -4.996968434003e+01 -4.785501405380e-05 -4.995345209793e+01 -1.351419403558e+02 6.416332177969e-02 1.693693404064e-07 6.421697348252e-02 -1.965741273890e-01 2.483436328114e-01 7.835502559791e+01 8.518037329681e+01  2.607642791598e-01
3.800000000000e+07 2.910508314723e-02 3.454718476714e-02 -2.072727272727e-01 -4.997235699779e+01 -5.728505437649e-05 -4.995670931712e+01 -1.364652938815e+02 6.903836327193e-02 1.464245016017e-07 6.909477439867e-02 -2.074909478370e-01 2.639804954480e-01 7.879812006548e+01 8.650076178561e+01  2.765575209873e-01
4.000000000000e+07 2.636727205176e-02 3.701325677632e-02 -2.181818181818e-01 -4.997482743467e+01 -7.064329089911e-05 -4.995982923306e+01 -1.376726124999e+02 7.396791840022e-02 1.179748578211e-07 7.402693863464e-02 -2.184072356468e-01 2.796856231781e-01 7.920242305589e+01 8.770528512795e+01  2.924046686316e-01
4.200000000000e+07 2.389576302515e-02 3.950382451309e-02 -2.290909090909e-01 -4.997708019292e+01 -7.405054357055e-05 -4.996289695594e+01 -1.387738675578e+02 7.894665002561e-02 9.088034470797e-08 7.900809271423e-02 -2.293229323095e-01 2.954522576436e-01 7.957128156888e+01 8.880387983291e+01  3.083003082714e-01
4.400000000000e+07 2.166280011066e-02 4.201654526203e-02 -2.400000000000e-01 -4.997912179595e+01 -7.498022606877e-05 -4.996570100196e+01 -1.397780682129e+02 8.396983426586e-02 6.424265369377e-08 8.403355228187e-02 -2.402381540543e-01 3.112745984850e-01 7.990763033695e+01 8.980565756619e+01  3.242398520238e-01
4.600000000000e+07 1.964396546322e-02 4.454925811815e-02 -2.509090909091e-01 -4.998096981967e+01 -7.661844939568e-05 -4.996841936290e+01 -1.406936465831e+02 8.903318202740e-02 3.705026772265e-08 8.909899443993e-02 -2.511528559499e-01 3.271472020116e-01 8.021434525522e+01 9.071895264301e+01  3.402189489576e-01
4.800000000000e+07 1.781763283116e-02 4.710003241107e-02 -2.618181818182e-01 -4.998268788347e+01 -7.971298785402e-05 -4.997101124021e+01 -1.415282622129e+02 9.413281761193e-02 8.612525832453e-09 9.420055864684e-02 -2.620669953162e-01 3.430651686212e-01 8.049398711220e+01 9.155141320965e+01  3.562336882762e-01
5.000000000000e+07 1.616452211322e-02 4.966716343746e-02 -2.727272727273e-01 -4.998422782006e+01 -7.689425848823e-05 -4.997343198467e+01 -1.422888810885e+02 9.926532954251e-02 -1.732073840499e-08 9.933483491008e-02 -2.729806690272e-01 3.590242891933e-01 8.074884696441e+01 9.231005165971e+01  3.722807561197e-01
5.200000000000e+07 1.466755517457e-02 5.224910491962e-02 -2.836363636364e-01 -4.998563024940e+01 -8.885740051952e-05 -4.997564989870e+01 -1.429819223965e+02 1.044276041596e-01 -5.065341383703e-08 1.044987318587e-01 -2.838939052463e-01 3.750206795494e-01 8.098106751486e+01 9.300128272417e+01  3.883570781406e-01
5.400000000000e+07 1.466284547735e-02 5.483104517956e-02 -2.945454545455e-01 -5.020025749714e+01 -3.398071765861e-05 -5.018921964366e+01 -1.438528300574e+02 1.095894906777e-01 -4.960073759774e-08 1.096626259708e-01 -2.948063554026e-01 3.910202421439e-01 8.141410239939e+01 9.365809197481e+01  4.044324186864e-01
5.600000000000e+07 1.146483234197e-02 5.744456266611e-02 -3.054545454545e-01 -4.998921547530e+01 -7.065172332999e-05 -4.998110857251e+01 -1.442241901183e+02 1.148154894786e-01 -8.211888349741e-08 1.148896708117e-01 -3.057186276611e-01 4.070923293055e-01 8.139817138871e+01 9.423902835603e+01  4.205712127129e-01
5.800000000000e+07 1.200672951682e-02 6.005293706972e-02 -3.163636363630e-01 -5.016417168864e+01 -6.036416870141e-05 -5.015478965116e+01 -1.449417777461e+02 1.200305139401e-01 -1.002181331372e-07 1.201064320583e-01 -3.166309508683e-01 4.231581228318e-01 8.175357969530e+01 9.478229742449e+01  4.366994288167e-01
6.000000000000e+07 9.389378502467e-03 6.268662805835e-02 -3.272727272727e-01 -4.999101190037e+01 -7.529766265525e-05 -4.998512758575e+01 -1.452476419224e+02 1.252973065791e-01 -1.291228827484e-07 1.253738202888e-01 -3.275414842470e-01 4.392811190474e-01 8.174126046951e+01 9.525957231575e+01  4.528770525287e-01
6.200000000000e+07 9.835455505950e-03 6.531658335064e-02 -3.381818181819e-01 -5.013415916978e+01 -6.460125527980e-05 -5.012567261619e+01 -1.458381412653e+02 1.305555017530e-01 -1.484334902032e-07 1.306337427918e-01 -3.384532667221e-01 4.554005816973e-01 8.203265768375e+01 9.570822565456e+01  4.690478938888e-01
6.400000000000e+07 7.694918307957e-03 6.796681328887e-02 -3.490909090909e-01 -4.999251297064e+01 -7.693086885666e-05 -4.998862329873e+01 -1.460909596250e+02 1.358558350698e-01 -1.771268245411e-07 1.359342056268e-01 -3.493627843572e-01 4.715657293818e-01 8.202403196481e+01 9.610039154949e+01  4.852578094520e-01
6.600000000000e+07 8.059473618732e-03 7.061322335274e-02 -3.600000000143e-01 -5.010973411470e+01 -5.533337895859e-05 -5.010717094944e+01 -1.465793012687e+02 1.411483782382e-01 -1.907290133342e-07 1.412270266314e-01 -3.602713490923e-01 4.877246688566e-01 8.226540211095e+01 9.647084876221e+01  5.014590561529e-01
6.800000000000e+07 7.455098363748e-03 7.326686324082e-02 -3.709090909091e-01 -5.017508147463e+01 -5.077276817976e-05 -5.016886924416e+01 -1.469929664601e+02 1.464542141729e-01 -2.066575663768e-07 1.465343162414e-01 -3.711829679446e-01 5.039029676101e-01 8.244563905964e+01 9.682099125025e+01  5.176772377997e-01
7.000000000000e+07 6.820314056550e-03 7.592888108628e-02 -3.818181818182e-01 -5.020718306284e+01 -3.531825327722e-05 -5.019471733801e+01 -1.473468068375e+02 1.517754798438e-01 -2.149266425644e-07 1.518583721178e-01 -3.821008111884e-01 5.201065378517e-01 8.258290241277e+01 9.714585723690e+01  5.339177419953e-01
7.200000000000e+07 6.185420510194e-03 7.859537843575e-02 -3.927272727271e-01 -5.021806783347e+01 -4.140530191677e-05 -5.020791133813e+01 -1.476567995051e+02 1.571070573399e-01 -2.300849118391e-07 1.571913770718e-01 -3.930130507572e-01 5.363172415682e-01 8.269425955891e+01 9.744381031635e+01  5.501622728094e-01
7.400000000000e+07 5.577588891656e-03 8.126573299479e-02 -4.036363636352e-01 -5.021620291523e+01 -4.962671056817e-05 -5.021328320389e+01 -1.479299511256e+02 1.624480990078e-01 -2.484189950695e-07 1.625320825650e-01 -4.039188895364e-01 5.525331755116e-01 8.278647908158e+01 9.771520809882e+01  5.664089849927e-01
7.600000000000e+07 5.011112574502e-03 8.394199136377e-02 -4.145454545492e-01 -5.020710297006e+01 -5.235334829178e-05 -5.020636655426e+01 -1.481675241126e+02 1.678007387189e-01 -2.663843733229e-07 1.678845969119e-01 -4.148253906182e-01 5.687644277999e-01 8.286033121231e+01 9.796078935259e+01  5.826680629596e-01
7.800000000000e+07 4.488801294012e-03 8.662371726503e-02 -4.254545454546e-01 -5.019400915340e+01 -3.498662889229e-05 -5.019357832803e+01 -1.483756532684e+02 1.731641530635e-01 -2.740285674050e-07 1.732480479398e-01 -4.257326262372e-01 5.850100648221e-01 8.292108024996e+01 9.818185952844e+01  5.989387311458e-01
8.000000000000e+07 4.013438983693e-03 8.931202071760e-02 -4.363636363636e-01 -5.017898282422e+01 -3.053191433169e-05 -5.017361273174e+01 -1.485561426317e+02 1.785393233028e-01 -2.831166777087e-07 1.786246650152e-01 -4.366451116843e-01 6.012760388892e-01 8.296957939587e+01 9.837984496361e+01  6.152271102829e-01
8.200000000000e+07 3.581034688263e-03 9.200366832919e-02 -4.472727272714e-01 -5.016318321225e+01 -2.641301532193e-05 -5.015992365552e+01 -1.487186339612e+02 1.839223197320e-01 -2.909066601383e-07 1.840079609056e-01 -4.475552556418e-01 6.175492805997e-01 8.301391360966e+01 9.855708056777e+01  6.315204003161e-01
8.400000000000e+07 3.191139749278e-03 9.469854577338e-02 -4.581818181818e-01 -5.014767780947e+01 -4.438939951405e-05 -5.014587090290e+01 -1.488622541990e+02 1.893119403019e-01 -3.096118813372e-07 1.893977152002e-01 -4.584629226894e-01 6.338287243780e-01 8.305193430378e+01 9.871547985520e+01  6.478177546996e-01
8.600000000000e+07 2.842718482643e-03 9.739798395827e-02 -4.690909090910e-01 -5.013304771277e+01 -3.814553042639e-05 -5.012901385647e+01 -1.489876830381e+02 1.947099053456e-01 -3.207742704729e-07 1.947965968174e-01 -4.693737518683e-01 6.501220193538e-01 8.308324820244e+01 9.885665231521e+01  6.641270071936e-01
8.800000000000e+07 2.528578926206e-03 1.000972344730e-01 -4.800000000006e-01 -5.011928362097e+01 -3.217439139207e-05 -5.012553445021e+01 -1.491056453425e+02 2.001105784665e-01 -3.300117000384e-07 2.001950791842e-01 -4.802756732086e-01 6.664092136887e-01 8.311682113790e+01 9.898323645497e+01  6.804285059694e-01
9.000000000000e+07 2.250414240995e-03 1.028016172216e-01 -4.909090909091e-01 -5.010694393657e+01 -3.513918251664e-05 -5.010884742431e+01 -1.492036639571e+02 2.055191649955e-01 -3.422438452755e-07 2.056038436691e-01 -4.911835758878e-01 6.827130789047e-01 8.313981843931e+01 9.909576829035e+01  6.967450840796e-01
9.200000000000e+07 2.002058403696e-03 1.055095632968e-01 -5.018181818180e-01 -5.009556225098e+01 -3.631633011166e-05 -5.009257719150e+01 -1.492896159531e+02 2.109340211508e-01 -3.544560735724e-07 2.110197429541e-01 -5.020944862686e-01 6.990280969841e-01 8.315925179853e+01 9.919554626559e+01  7.130713721856e-01
9.400000000000e+07 1.779883374823e-03 1.082189896550e-01 -5.127272727273e-01 -5.008515922667e+01 -1.532102365881e-05 -5.008261677127e+01 -1.493682176715e+02 2.163525077081e-01 -3.547497972573e-07 2.164385973816e-01 -5.130033599789e-01 7.153456145458e-01 8.317866455649e+01 9.928432969699e+01  7.293989163344e-01
9.600000000000e+07 1.582251784184e-03 1.109297515432e-01 -5.236363636347e-01 -5.007576762248e+01 -2.738276096636e-05 -5.007593300428e+01 -1.494393790694e+02 2.217743606235e-01 -3.664682240036e-07 2.218601173777e-01 -5.239106375545e-01 7.316656357774e-01 8.319702656537e+01 9.936352875610e+01  7.457278802535e-01
9.800000000000e+07 1.406427671370e-03 1.136418126767e-01 -5.345454545455e-01 -5.006747406524e+01 -2.621140681791e-05 -5.007025610111e+01 -1.495030842709e+02 2.271992282092e-01 -3.748086004241e-07 2.272842328700e-01 -5.348166637308e-01 7.479881727073e-01 8.321360481241e+01 9.943421921691e+01  7.620583978264e-01
1.000000000000e+08 1.250344774897e-03 1.163560645711e-01 -5.454545454546e-01 -5.006011851946e+01 -2.624757643224e-05 -5.006193507550e+01 -1.495580731015e+02 2.326279187147e-01 -3.834318423877e-07 2.327127342330e-01 -5.457243645706e-01 7.643173774524e-01 8.322670889880e+01 9.949704631643e+01  7.783946945104e-01
