VARIABLES  = "X","Y","Z", "PRESSURE1", "DISPLACEMENT_X1", "DISPLACEMENT_Y1", "STRESS_XX", "STRESS_XY", "STRESS_YY", "STRESS_ZZ", "STRAIN_XX", "STRAIN_XY", "STRAIN_YY", "STRAIN_ZZ", "STRAIN_PLS"
ZONE T="0.000000000000e+00s", N=69, E=110, F=FEPOINT, ET=QUADRILATERAL
STRANDID=1, SOLUTIONTIME=0.000000000000e+00
0.000000000000e+00 0.000000000000e+00 0.000000000000e+00 0.000000000000e+00 0.000000000000e+00 0.000000000000e+00 -5.000000000000e+01 0.000000000000e+00 -5.000000000000e+01 -5.000000000000e+01 0.000000000000e+00 0.000000000000e+00 0.000000000000e+00 0.000000000000e+00 0.000000000000e+00 
5.000000000000e-01 0.000000000000e+00 0.000000000000e+00 0.000000000000e+00 0.000000000000e+00 0.000000000000e+00 -5.000000000000e+01 0.000000000000e+00 -5.000000000000e+01 -5.000000000000e+01 0.000000000000e+00 0.000000000000e+00 0.000000000000e+00 0.000000000000e+00 0.000000000000e+00 
5.000000000000e-01 1.000000000000e+00 0.000000000000e+00 0.000000000000e+00 0.000000000000e+00 0.000000000000e+00 -5.000000000000e+01 0.000000000000e+00 -5.000000000000e+01 -5.000000000000e+01 0.000000000000e+00 0.000000000000e+00 0.000000000000e+00 0.000000000000e+00 0.000000000000e+00 
0.000000000000e+00 1.000000000000e+00 0.000000000000e+00 0.000000000000e+00 0.000000000000e+00 0.000000000000e+00 -5.000000000000e+01 0.000000000000e+00 -5.000000000000e+01 -5.000000000000e+01 0.000000000000e+00 0.000000000000e+00 0.000000000000e+00 0.000000000000e+00 0.000000000000e+00 
1.250000000000e-01 0.000000000000e+00 0.000000000000e+00 0.000000000000e+00 0.000000000000e+00 0.000000000000e+00 -5.000000000000e+01 0.000000000000e+00 -5.000000000000e+01 -5.000000000000e+01 0.000000000000e+00 0.000000000000e+00 0.000000000000e+00 0.000000000000e+00 0.000000000000e+00 
2.500000000000e-01 0.000000000000e+00 0.000000000000e+00 0.000000000000e+00 0.000000000000e+00 0.000000000000e+00 -5.000000000000e+01 0.000000000000e+00 -5.000000000000e+01 -5.000000000000e+01 0.000000000000e+00 0.000000000000e+00 0.000000000000e+00 0.000000000000e+00 0.000000000000e+00 
3.750000000000e-01 0.000000000000e+00 0.000000000000e+00 0.000000000000e+00 0.000000000000e+00 0.000000000000e+00 -5.000000000000e+01 0.000000000000e+00 -5.000000000000e+01 -5.000000000000e+01 0.000000000000e+00 0.000000000000e+00 0.000000000000e+00 0.000000000000e+00 0.000000000000e+00 
5.000000000000e-01 1.111111111111e-01 0.000000000000e+00 0.000000000000e+00 0.000000000000e+00 0.000000000000e+00 -5.000000000000e+01 0.000000000000e+00 -5.000000000000e+01 -5.000000000000e+01 0.000000000000e+00 0.000000000000e+00 0.000000000000e+00 0.000000000000e+00 0.000000000000e+00 
5.000000000000e-01 2.222222222222e-01 0.000000000000e+00 0.000000000000e+00 0.000000000000e+00 0.000000000000e+00 -5.000000000000e+01 0.000000000000e+00 -5.000000000000e+01 -5.000000000000e+01 0.000000000000e+00 0.000000000000e+00 0.000000000000e+00 0.000000000000e+00 0.000000000000e+00 
5.000000000000e-01 3.333333333333e-01 0.000000000000e+00 0.000000000000e+00 0.000000000000e+00 0.000000000000e+00 -5.000000000000e+01 0.000000000000e+00 -5.000000000000e+01 -5.000000000000e+01 0.000000000000e+00 0.000000000000e+00 0.000000000000e+00 0.000000000000e+00 0.000000000000e+00 
5.000000000000e-01 4.444444444444e-01 0.000000000000e+00 0.000000000000e+00 0.000000000000e+00 0.000000000000e+00 -5.000000000000e+01 0.000000000000e+00 -5.000000000000e+01 -5.000000000000e+01 0.000000000000e+00 0.000000000000e+00 0.000000000000e+00 0.000000000000e+00 0.000000000000e+00 
5.000000000000e-01 5.555555555555e-01 0.000000000000e+00 0.000000000000e+00 0.000000000000e+00 0.000000000000e+00 -5.000000000000e+01 0.000000000000e+00 -5.000000000000e+01 -5.000000000000e+01 0.000000000000e+00 0.000000000000e+00 0.000000000000e+00 0.000000000000e+00 0.000000000000e+00 
5.000000000000e-01 6.666666666667e-01 0.000000000000e+00 0.000000000000e+00 0.000000000000e+00 0.000000000000e+00 -5.000000000000e+01 0.000000000000e+00 -5.000000000000e+01 -5.000000000000e+01 0.000000000000e+00 0.000000000000e+00 0.000000000000e+00 0.000000000000e+00 0.000000000000e+00 
5.000000000000e-01 7.777777777778e-01 0.000000000000e+00 0.000000000000e+00 0.000000000000e+00 0.000000000000e+00 -5.000000000000e+01 0.000000000000e+00 -5.000000000000e+01 -5.000000000000e+01 0.000000000000e+00 0.000000000000e+00 0.000000000000e+00 0.000000000000e+00 0.000000000000e+00 
5.000000000000e-01 8.888888888889e-01 0.000000000000e+00 0.000000000000e+00 0.000000000000e+00 0.000000000000e+00 -5.000000000000e+01 0.000000000000e+00 -5.000000000000e+01 -5.000000000000e+01 0.000000000000e+00 0.000000000000e+00 0.000000000000e+00 0.000000000000e+00 0.000000000000e+00 
3.750000000000e-01 1.000000000000e+00 0.000000000000e+00 0.000000000000e+00 0.000000000000e+00 0.000000000000e+00 -5.000000000000e+01 0.000000000000e+00 -5.000000000000e+01 -5.000000000000e+01 0.000000000000e+00 0.000000000000e+00 0.000000000000e+00 0.000000000000e+00 0.000000000000e+00 
2.500000000000e-01 1.000000000000e+00 0.000000000000e+00 0.000000000000e+00 0.000000000000e+00 0.000000000000e+00 -5.000000000000e+01 0.000000000000e+00 -5.000000000000e+01 -5.000000000000e+01 0.000000000000e+00 0.000000000000e+00 0.000000000000e+00 0.000000000000e+00 0.000000000000e+00 
1.250000000000e-01 1.000000000000e+00 0.000000000000e+00 0.000000000000e+00 0.000000000000e+00 0.000000000000e+00 -5.000000000000e+01 0.000000000000e+00 -5.000000000000e+01 -5.000000000000e+01 0.000000000000e+00 0.000000000000e+00 0.000000000000e+00 0.000000000000e+00 0.000000000000e+00 
0.000000000000e+00 8.888888888889e-01 0.000000000000e+00 0.000000000000e+00 0.000000000000e+00 0.000000000000e+00 -5.000000000000e+01 0.000000000000e+00 -5.000000000000e+01 -5.000000000000e+01 0.000000000000e+00 0.000000000000e+00 0.000000000000e+00 0.000000000000e+00 0.000000000000e+00 
0.000000000000e+00 7.777777777778e-01 0.000000000000e+00 0.000000000000e+00 0.000000000000e+00 0.000000000000e+00 -5.000000000000e+01 0.000000000000e+00 -5.000000000000e+01 -5.000000000000e+01 0.000000000000e+00 0.000000000000e+00 0.000000000000e+00 0.000000000000e+00 0.000000000000e+00 
0.000000000000e+00 6.666666666667e-01 0.000000000000e+00 0.000000000000e+00 0.000000000000e+00 0.000000000000e+00 -5.000000000000e+01 0.000000000000e+00 -5.000000000000e+01 -5.000000000000e+01 0.000000000000e+00 0.000000000000e+00 0.000000000000e+00 0.000000000000e+00 0.000000000000e+00 
0.000000000000e+00 5.555555555556e-01 0.000000000000e+00 0.000000000000e+00 0.000000000000e+00 0.000000000000e+00 -5.000000000000e+01 0.000000000000e+00 -5.000000000000e+01 -5.000000000000e+01 0.000000000000e+00 0.000000000000e+00 0.000000000000e+00 0.000000000000e+00 0.000000000000e+00 
0.000000000000e+00 4.444444444445e-01 0.000000000000e+00 0.000000000000e+00 0.000000000000e+00 0.000000000000e+00 -5.000000000000e+01 0.000000000000e+00 -5.000000000000e+01 -5.000000000000e+01 0.000000000000e+00 0.000000000000e+00 0.000000000000e+00 0.000000000000e+00 0.000000000000e+00 
0.000000000000e+00 3.333333333333e-01 0.000000000000e+00 0.000000000000e+00 0.000000000000e+00 0.000000000000e+00 -5.000000000000e+01 0.000000000000e+00 -5.000000000000e+01 -5.000000000000e+01 0.000000000000e+00 0.000000000000e+00 0.000000000000e+00 0.000000000000e+00 0.000000000000e+00 
0.000000000000e+00 2.222222222222e-01 0.000000000000e+00 0.000000000000e+00 0.000000000000e+00 0.000000000000e+00 -5.000000000000e+01 0.000000000000e+00 -5.000000000000e+01 -5.000000000000e+01 0.000000000000e+00 0.000000000000e+00 0.000000000000e+00 0.000000000000e+00 0.000000000000e+00 
0.000000000000e+00 1.111111111111e-01 0.000000000000e+00 0.000000000000e+00 0.000000000000e+00 0.000000000000e+00 -5.000000000000e+01 0.000000000000e+00 -5.000000000000e+01 -5.000000000000e+01 0.000000000000e+00 0.000000000000e+00 0.000000000000e+00 0.000000000000e+00 0.000000000000e+00 
2.589514675558e-01 6.131170471200e-01 0.000000000000e+00 0.000000000000e+00 0.000000000000e+00 0.000000000000e+00 -5.000000000000e+01 0.000000000000e+00 -5.000000000000e+01 -5.000000000000e+01 0.000000000000e+00 0.000000000000e+00 0.000000000000e+00 0.000000000000e+00 0.000000000000e+00 
2.516254322439e-01 2.879687005322e-01 0.000000000000e+00 0.000000000000e+00 0.000000000000e+00 0.000000000000e+00 -5.000000000000e+01 0.000000000000e+00 -5.000000000000e+01 -5.000000000000e+01 0.000000000000e+00 0.000000000000e+00 0.000000000000e+00 0.000000000000e+00 0.000000000000e+00 
3.093333177154e-01 8.001865036853e-01 0.000000000000e+00 0.000000000000e+00 0.000000000000e+00 0.000000000000e+00 -5.000000000000e+01 0.000000000000e+00 -5.000000000000e+01 -5.000000000000e+01 0.000000000000e+00 0.000000000000e+00 0.000000000000e+00 0.000000000000e+00 0.000000000000e+00 
3.261818190709e-01 4.447451429167e-01 0.000000000000e+00 0.000000000000e+00 0.000000000000e+00 0.000000000000e+00 -5.000000000000e+01 0.000000000000e+00 -5.000000000000e+01 -5.000000000000e+01 0.000000000000e+00 0.000000000000e+00 0.000000000000e+00 0.000000000000e+00 0.000000000000e+00 
1.589842504896e-01 4.638345688453e-01 0.000000000000e+00 0.000000000000e+00 0.000000000000e+00 0.000000000000e+00 -5.000000000000e+01 0.000000000000e+00 -5.000000000000e+01 -5.000000000000e+01 0.000000000000e+00 0.000000000000e+00 0.000000000000e+00 0.000000000000e+00 0.000000000000e+00 
1.588983955413e-01 7.429917284633e-01 0.000000000000e+00 0.000000000000e+00 0.000000000000e+00 0.000000000000e+00 -5.000000000000e+01 0.000000000000e+00 -5.000000000000e+01 -5.000000000000e+01 0.000000000000e+00 0.000000000000e+00 0.000000000000e+00 0.000000000000e+00 0.000000000000e+00 
3.470792484928e-01 1.535052867898e-01 0.000000000000e+00 0.000000000000e+00 0.000000000000e+00 0.000000000000e+00 -5.000000000000e+01 0.000000000000e+00 -5.000000000000e+01 -5.000000000000e+01 0.000000000000e+00 0.000000000000e+00 0.000000000000e+00 0.000000000000e+00 0.000000000000e+00 
1.565681204010e-01 1.566396714438e-01 0.000000000000e+00 0.000000000000e+00 0.000000000000e+00 0.000000000000e+00 -5.000000000000e+01 0.000000000000e+00 -5.000000000000e+01 -5.000000000000e+01 0.000000000000e+00 0.000000000000e+00 0.000000000000e+00 0.000000000000e+00 0.000000000000e+00 
1.783719353894e-01 8.923817557881e-01 0.000000000000e+00 0.000000000000e+00 0.000000000000e+00 0.000000000000e+00 -5.000000000000e+01 0.000000000000e+00 -5.000000000000e+01 -5.000000000000e+01 0.000000000000e+00 0.000000000000e+00 0.000000000000e+00 0.000000000000e+00 0.000000000000e+00 
3.625072912338e-01 6.824903560187e-01 0.000000000000e+00 0.000000000000e+00 0.000000000000e+00 0.000000000000e+00 -5.000000000000e+01 0.000000000000e+00 -5.000000000000e+01 -5.000000000000e+01 0.000000000000e+00 0.000000000000e+00 0.000000000000e+00 0.000000000000e+00 0.000000000000e+00 
1.387636923039e-01 3.407863315826e-01 0.000000000000e+00 0.000000000000e+00 0.000000000000e+00 0.000000000000e+00 -5.000000000000e+01 0.000000000000e+00 -5.000000000000e+01 -5.000000000000e+01 0.000000000000e+00 0.000000000000e+00 0.000000000000e+00 0.000000000000e+00 0.000000000000e+00 
1.015037729946e-01 6.108346079851e-01 0.000000000000e+00 0.000000000000e+00 0.000000000000e+00 0.000000000000e+00 -5.000000000000e+01 0.000000000000e+00 -5.000000000000e+01 -5.000000000000e+01 0.000000000000e+00 0.000000000000e+00 0.000000000000e+00 0.000000000000e+00 0.000000000000e+00 
3.795262269175e-01 2.719490921430e-01 0.000000000000e+00 0.000000000000e+00 0.000000000000e+00 0.000000000000e+00 -5.000000000000e+01 0.000000000000e+00 -5.000000000000e+01 -5.000000000000e+01 0.000000000000e+00 0.000000000000e+00 0.000000000000e+00 0.000000000000e+00 0.000000000000e+00 
3.680342521626e-01 5.588926803418e-01 0.000000000000e+00 0.000000000000e+00 0.000000000000e+00 0.000000000000e+00 -5.000000000000e+01 0.000000000000e+00 -5.000000000000e+01 -5.000000000000e+01 0.000000000000e+00 0.000000000000e+00 0.000000000000e+00 0.000000000000e+00 0.000000000000e+00 
3.845787850981e-01 8.860969553038e-01 0.000000000000e+00 0.000000000000e+00 0.000000000000e+00 0.000000000000e+00 -5.000000000000e+01 0.000000000000e+00 -5.000000000000e+01 -5.000000000000e+01 0.000000000000e+00 0.000000000000e+00 0.000000000000e+00 0.000000000000e+00 0.000000000000e+00 
2.520794258593e-01 1.083160548780e-01 0.000000000000e+00 0.000000000000e+00 0.000000000000e+00 0.000000000000e+00 -5.000000000000e+01 0.000000000000e+00 -5.000000000000e+01 -5.000000000000e+01 0.000000000000e+00 0.000000000000e+00 0.000000000000e+00 0.000000000000e+00 0.000000000000e+00 
2.368267847428e-01 3.918035843481e-01 0.000000000000e+00 0.000000000000e+00 0.000000000000e+00 0.000000000000e+00 -5.000000000000e+01 0.000000000000e+00 -5.000000000000e+01 -5.000000000000e+01 0.000000000000e+00 0.000000000000e+00 0.000000000000e+00 0.000000000000e+00 0.000000000000e+00 
4.068113047681e-01 3.859031984473e-01 0.000000000000e+00 0.000000000000e+00 0.000000000000e+00 0.000000000000e+00 -5.000000000000e+01 0.000000000000e+00 -5.000000000000e+01 -5.000000000000e+01 0.000000000000e+00 0.000000000000e+00 0.000000000000e+00 0.000000000000e+00 0.000000000000e+00 
9.579358895840e-02 2.440971713883e-01 0.000000000000e+00 0.000000000000e+00 0.000000000000e+00 0.000000000000e+00 -5.000000000000e+01 0.000000000000e+00 -5.000000000000e+01 -5.000000000000e+01 0.000000000000e+00 0.000000000000e+00 0.000000000000e+00 0.000000000000e+00 0.000000000000e+00 
9.407212767522e-02 8.270271821957e-01 0.000000000000e+00 0.000000000000e+00 0.000000000000e+00 0.000000000000e+00 -5.000000000000e+01 0.000000000000e+00 -5.000000000000e+01 -5.000000000000e+01 0.000000000000e+00 0.000000000000e+00 0.000000000000e+00 0.000000000000e+00 0.000000000000e+00 
2.516227021218e-01 7.152247998494e-01 0.000000000000e+00 0.000000000000e+00 0.000000000000e+00 0.000000000000e+00 -5.000000000000e+01 0.000000000000e+00 -5.000000000000e+01 -5.000000000000e+01 0.000000000000e+00 0.000000000000e+00 0.000000000000e+00 0.000000000000e+00 0.000000000000e+00 
4.124958646476e-01 7.820047072787e-01 0.000000000000e+00 0.000000000000e+00 0.000000000000e+00 0.000000000000e+00 -5.000000000000e+01 0.000000000000e+00 -5.000000000000e+01 -5.000000000000e+01 0.000000000000e+00 0.000000000000e+00 0.000000000000e+00 0.000000000000e+00 0.000000000000e+00 
2.857446172640e-01 9.008439229498e-01 0.000000000000e+00 0.000000000000e+00 0.000000000000e+00 0.000000000000e+00 -5.000000000000e+01 0.000000000000e+00 -5.000000000000e+01 -5.000000000000e+01 0.000000000000e+00 0.000000000000e+00 0.000000000000e+00 0.000000000000e+00 0.000000000000e+00 
2.523874927360e-01 5.091066351283e-01 0.000000000000e+00 0.000000000000e+00 0.000000000000e+00 0.000000000000e+00 -5.000000000000e+01 0.000000000000e+00 -5.000000000000e+01 -5.000000000000e+01 0.000000000000e+00 0.000000000000e+00 0.000000000000e+00 0.000000000000e+00 0.000000000000e+00 
4.121435150797e-01 8.492070391443e-02 0.000000000000e+00 0.000000000000e+00 0.000000000000e+00 0.000000000000e+00 -5.000000000000e+01 0.000000000000e+00 -5.000000000000e+01 -5.000000000000e+01 0.000000000000e+00 0.000000000000e+00 0.000000000000e+00 0.000000000000e+00 0.000000000000e+00 
8.819769196411e-02 8.516946377990e-02 0.000000000000e+00 0.000000000000e+00 0.000000000000e+00 0.000000000000e+00 -5.000000000000e+01 0.000000000000e+00 -5.000000000000e+01 -5.000000000000e+01 0.000000000000e+00 0.000000000000e+00 0.000000000000e+00 0.000000000000e+00 0.000000000000e+00 
3.200817255356e-01 3.543019263054e-01 0.000000000000e+00 0.000000000000e+00 0.000000000000e+00 0.000000000000e+00 -5.000000000000e+01 0.000000000000e+00 -5.000000000000e+01 -5.000000000000e+01 0.000000000000e+00 0.000000000000e+00 0.000000000000e+00 0.000000000000e+00 0.000000000000e+00 
4.169885634503e-01 4.771072683468e-01 0.000000000000e+00 0.000000000000e+00 0.000000000000e+00 0.000000000000e+00 -5.000000000000e+01 0.000000000000e+00 -5.000000000000e+01 -5.000000000000e+01 0.000000000000e+00 0.000000000000e+00 0.000000000000e+00 0.000000000000e+00 0.000000000000e+00 
7.948018467492e-02 5.037032300856e-01 0.000000000000e+00 0.000000000000e+00 0.000000000000e+00 0.000000000000e+00 -5.000000000000e+01 0.000000000000e+00 -5.000000000000e+01 -5.000000000000e+01 0.000000000000e+00 0.000000000000e+00 0.000000000000e+00 0.000000000000e+00 0.000000000000e+00 
8.096421638074e-02 9.218906870101e-01 0.000000000000e+00 0.000000000000e+00 0.000000000000e+00 0.000000000000e+00 -5.000000000000e+01 0.000000000000e+00 -5.000000000000e+01 -5.000000000000e+01 0.000000000000e+00 0.000000000000e+00 0.000000000000e+00 0.000000000000e+00 0.000000000000e+00 
7.930525409953e-02 7.184286874229e-01 0.000000000000e+00 0.000000000000e+00 0.000000000000e+00 0.000000000000e+00 -5.000000000000e+01 0.000000000000e+00 -5.000000000000e+01 -5.000000000000e+01 0.000000000000e+00 0.000000000000e+00 0.000000000000e+00 0.000000000000e+00 0.000000000000e+00 
2.661218122358e-01 1.976628741899e-01 0.000000000000e+00 0.000000000000e+00 0.000000000000e+00 0.000000000000e+00 -5.000000000000e+01 0.000000000000e+00 -5.000000000000e+01 -5.000000000000e+01 0.000000000000e+00 0.000000000000e+00 0.000000000000e+00 0.000000000000e+00 0.000000000000e+00 
7.835622335767e-02 4.154782256902e-01 0.000000000000e+00 0.000000000000e+00 0.000000000000e+00 0.000000000000e+00 -5.000000000000e+01 0.000000000000e+00 -5.000000000000e+01 -5.000000000000e+01 0.000000000000e+00 0.000000000000e+00 0.000000000000e+00 0.000000000000e+00 0.000000000000e+00 
1.740323197534e-01 7.026941424429e-02 0.000000000000e+00 0.000000000000e+00 0.000000000000e+00 0.000000000000e+00 -5.000000000000e+01 0.000000000000e+00 -5.000000000000e+01 -5.000000000000e+01 0.000000000000e+00 0.000000000000e+00 0.000000000000e+00 0.000000000000e+00 0.000000000000e+00 
4.306180309316e-01 1.685748948279e-01 0.000000000000e+00 0.000000000000e+00 0.000000000000e+00 0.000000000000e+00 -5.000000000000e+01 0.000000000000e+00 -5.000000000000e+01 -5.000000000000e+01 0.000000000000e+00 0.000000000000e+00 0.000000000000e+00 0.000000000000e+00 0.000000000000e+00 
3.268453678584e-01 6.992358094798e-02 0.000000000000e+00 0.000000000000e+00 0.000000000000e+00 0.000000000000e+00 -5.000000000000e+01 0.000000000000e+00 -5.000000000000e+01 -5.000000000000e+01 0.000000000000e+00 0.000000000000e+00 0.000000000000e+00 0.000000000000e+00 0.000000000000e+00 
6.711119462000e-02 1.659726929805e-01 0.000000000000e+00 0.000000000000e+00 0.000000000000e+00 0.000000000000e+00 -5.000000000000e+01 0.000000000000e+00 -5.000000000000e+01 -5.000000000000e+01 0.000000000000e+00 0.000000000000e+00 0.000000000000e+00 0.000000000000e+00 0.000000000000e+00 
4.291549386527e-01 6.209332067955e-01 0.000000000000e+00 0.000000000000e+00 0.000000000000e+00 0.000000000000e+00 -5.000000000000e+01 0.000000000000e+00 -5.000000000000e+01 -5.000000000000e+01 0.000000000000e+00 0.000000000000e+00 0.000000000000e+00 0.000000000000e+00 0.000000000000e+00 
2.149486320640e-01 8.055071588067e-01 0.000000000000e+00 0.000000000000e+00 0.000000000000e+00 0.000000000000e+00 -5.000000000000e+01 0.000000000000e+00 -5.000000000000e+01 -5.000000000000e+01 0.000000000000e+00 0.000000000000e+00 0.000000000000e+00 0.000000000000e+00 0.000000000000e+00 
1.780310917010e-01 6.608091874072e-01 0.000000000000e+00 0.000000000000e+00 0.000000000000e+00 0.000000000000e+00 -5.000000000000e+01 0.000000000000e+00 -5.000000000000e+01 -5.000000000000e+01 0.000000000000e+00 0.000000000000e+00 0.000000000000e+00 0.000000000000e+00 0.000000000000e+00 
1.819089548864e-01 2.385757522978e-01 0.000000000000e+00 0.000000000000e+00 0.000000000000e+00 0.000000000000e+00 -5.000000000000e+01 0.000000000000e+00 -5.000000000000e+01 -5.000000000000e+01 0.000000000000e+00 0.000000000000e+00 0.000000000000e+00 0.000000000000e+00 0.000000000000e+00 
1.755160443574e-01 5.579723222393e-01 0.000000000000e+00 0.000000000000e+00 0.000000000000e+00 0.000000000000e+00 -5.000000000000e+01 0.000000000000e+00 -5.000000000000e+01 -5.000000000000e+01 0.000000000000e+00 0.000000000000e+00 0.000000000000e+00 0.000000000000e+00 0.000000000000e+00 
4.386893289369e-01 9.456122625178e-01 0.000000000000e+00 0.000000000000e+00 0.000000000000e+00 0.000000000000e+00 -5.000000000000e+01 0.000000000000e+00 -5.000000000000e+01 -5.000000000000e+01 0.000000000000e+00 0.000000000000e+00 0.000000000000e+00 0.000000000000e+00 0.000000000000e+00 
18  35  17  18
13  48  36  13
27  40  36  27
14  48  13  14
41  48  15  41
15  48  14  15
10  39  9  10
24  45  37  24
22  38  21  22
39  58  33  39
28  58  39  28
27  50  40  27
35  49  17  35
36  64  13  36
37  43  31  37
40  50  30  40
29  47  36  29
36  47  27  36
17  49  16  17
39  61  9  39
18  56  35  18
25  45  24  25
36  48  29  36
28  43  37  28
43  50  31  43
37  67  28  37
33  61  39  33
22  55  38  22
16  49  41  16
38  57  21  38
32  65  46  32
37  59  24  37
10  44  39  10
46  65  35  46
2  51  7  2
5  52  1  5
31  59  37  31
38  66  57  38
30  50  43  30
40  54  12  40
57  66  32  57
39  53  28  39
4  56  18  4
35  65  49  35
8  51  2  8
1  52  26  1
55  68  38  55
49  65  29  49
42  58  34  42
30  54  40  30
40  64  36  40
12  64  40  12
11  44  10  11
6  60  5  6
7  62  6  7
58  67  34  58
12  54  11  12
29  48  41  29
45  67  37  45
46  57  32  46
41  49  29  41
20  46  19  20
19  56  4  19
24  59  23  24
31  68  55  31
20  57  46  20
35  56  46  35
13  64  12  13
42  60  6  42
6  62  42  6
28  53  43  28
15  69  41  15
41  69  16  41
44  54  30  44
11  54  44  11
23  55  22  23
21  57  20  21
43  53  30  43
30  53  44  30
44  53  39  44
9  61  8  9
26  63  25  26
3  69  15  3
33  58  42  33
42  62  33  42
34  60  42  34
66  68  27  66
46  56  19  46
29  65  47  29
47  65  32  47
38  68  66  38
45  63  34  45
55  59  31  55
25  63  45  25
47  66  27  47
32  66  47  32
34  67  45  34
27  68  50  27
28  67  58  28
8  61  51  8
33  62  51  33
52  60  34  52
52  63  26  52
50  68  31  50
34  63  52  34
51  61  33  51
51  62  7  51
5  60  52  5
23  59  55  23
16  69  3  16
VARIABLES  = "X","Y","Z", "PRESSURE1", "DISPLACEMENT_X1", "DISPLACEMENT_Y1", "STRESS_XX", "STRESS_XY", "STRESS_YY", "STRESS_ZZ", "STRAIN_XX", "STRAIN_XY", "STRAIN_YY", "STRAIN_ZZ", "STRAIN_PLS"
ZONE T="2.000000000000e+06s", N=69, E=110, F=FEPOINT, ET=QUADRILATERAL
STRANDID=1, SOLUTIONTIME=2.000000000000e+06
0.000000000000e+00 0.000000000000e+00 0.000000000000e+00 0.000000000000e+00 0.000000000000e+00 0.000000000000e+00 -4.997282728662e+01 -3.098518778593e-04 -4.997301628588e+01 -7.571723144199e+01 1.172635528480e-03 -2.935313700841e-07 1.172545982922e-03 -1.102715536370e-02 7.737399112783e-03 
5.000000000000e-01 0.000000000000e+00 0.000000000000e+00 0.000000000000e+00 5.860081652233e-04 0.000000000000e+00 -4.999071690172e+01 4.712480443302e-04 -4.999054094032e+01 -7.574009940283e+01 1.171785605900e-03 4.476497699142e-07 1.171868712494e-03 -1.105038414731e-02 7.758969766809e-03 
5.000000000000e-01 1.000000000000e+00 0.000000000000e+00 2.127090516214e-01 5.946471710048e-04 -1.090909090909e-02 -4.978197788224e+01 -2.417594357470e-05 -4.978101867059e+01 -7.551951248405e+01 1.188854476989e-03 -2.260544178458e-08 1.189302904193e-03 -1.084321474054e-02 7.571037639001e-03 
0.000000000000e+00 1.000000000000e+00 0.000000000000e+00 2.123462615127e-01 0.000000000000e+00 -1.090909090909e-02 -4.978210411892e+01 8.366188078815e-05 -4.978209259329e+01 -7.552306585216e+01 1.189524073894e-03 7.825106188836e-08 1.189529464018e-03 -1.084781997425e-02 7.575579043978e-03 
1.250000000000e-01 0.000000000000e+00 0.000000000000e+00 0.000000000000e+00 1.465677529046e-04 0.000000000000e+00 -4.997471145099e+01 3.084376443938e-05 -4.997459213555e+01 -7.571948905474e+01 1.172491815296e-03 2.931947802199e-08 1.172548356751e-03 -1.102945664277e-02 7.739538269333e-03 
2.500000000000e-01 0.000000000000e+00 0.000000000000e+00 0.000000000000e+00 2.931016586341e-04 0.000000000000e+00 -4.997885403776e+01 1.052639260926e-04 -4.997795944667e+01 -7.572298365656e+01 1.171914824080e-03 1.001113283377e-07 1.172338818019e-03 -1.103252773249e-02 7.742261222350e-03 
3.750000000000e-01 0.000000000000e+00 0.000000000000e+00 0.000000000000e+00 4.395732228734e-04 0.000000000000e+00 -4.998428749246e+01 -4.935732296743e-05 -4.998294137058e+01 -7.572911643391e+01 1.171481555196e-03 -4.643300098024e-08 1.172119758977e-03 -1.103854653413e-02 7.747793510479e-03 
5.000000000000e-01 1.111111111111e-01 0.000000000000e+00 4.485397160006e-02 5.868632764739e-04 -1.225427455439e-03 -4.995050147410e+01 3.487062744824e-04 -4.995313475282e+01 -7.569388272216e+01 1.174788754772e-03 3.300251718398e-07 1.173542915070e-03 -1.100481224369e-02 7.717020242112e-03 
5.000000000000e-01 2.222222222222e-01 0.000000000000e+00 8.425791760197e-02 5.884050464347e-04 -2.445655587743e-03 -4.991254468505e+01 1.449918083663e-04 -4.991475548791e+01 -7.565189114630e+01 1.177562485733e-03 1.367969706018e-07 1.176519752627e-03 -1.096468502744e-02 7.680431048206e-03 
5.000000000000e-01 3.333333333333e-01 0.000000000000e+00 1.184358132884e-01 5.900219744557e-04 -3.661699550206e-03 -4.987769975679e+01 8.058567461630e-05 -4.987838570037e+01 -7.561456002979e+01 1.180183717650e-03 7.577218531446e-08 1.179861090219e-03 -1.092973109200e-02 7.648757164540e-03 
5.000000000000e-01 4.444444444444e-01 0.000000000000e+00 1.473036608925e-01 5.914774272549e-04 -4.874367768485e-03 -4.984890017775e+01 1.821206075449e-05 -4.984844633226e+01 -7.558507420434e+01 1.182585637650e-03 1.707965434919e-08 1.182798824081e-03 -1.090265901772e-02 7.624375084533e-03 
5.000000000000e-01 5.555555555555e-01 0.000000000000e+00 1.709036438198e-01 5.926624125278e-04 -6.084377393886e-03 -4.982461547632e+01 7.321829266442e-06 -4.982358247315e+01 -7.556097990238e+01 1.184774125113e-03 6.851867934811e-09 1.185258436525e-03 -1.088077785619e-02 7.604734780655e-03 
5.000000000000e-01 6.666666666667e-01 0.000000000000e+00 1.892480198178e-01 5.935532271356e-04 -7.292319283037e-03 -4.980561411767e+01 -1.166701328559e-06 -4.980448063250e+01 -7.554251504788e+01 1.186584066233e-03 -1.093386466816e-09 1.187114798014e-03 -1.086409574274e-02 7.589784117015e-03 
5.000000000000e-01 7.777777777778e-01 0.000000000000e+00 2.019797879709e-01 5.941611562668e-04 -8.498764480890e-03 -4.979345391090e+01 7.274811234550e-06 -4.979224218968e+01 -7.553054794779e+01 1.187713044839e-03 6.808738455567e-09 1.188279934274e-03 -1.085321092563e-02 7.580006105813e-03 
5.000000000000e-01 8.888888888889e-01 0.000000000000e+00 2.101686461948e-01 5.945268877287e-04 -9.704192734325e-03 -4.978480202948e+01 1.257032422562e-05 -4.978386155365e+01 -7.552238606778e+01 1.188608950373e-03 1.175467574579e-08 1.189048703393e-03 -1.084587339691e-02 7.573439486365e-03 
3.750000000000e-01 1.000000000000e+00 0.000000000000e+00 2.127545291717e-01 4.460202211726e-04 -1.090909090909e-02 -4.978196106512e+01 2.665556372673e-05 -4.978142599730e+01 -7.552099460015e+01 1.189154813507e-03 2.492672544298e-08 1.189404986288e-03 -1.084516050189e-02 7.572961551070e-03 
2.500000000000e-01 1.000000000000e+00 0.000000000000e+00 2.125316551372e-01 2.973635534270e-04 -1.090909090909e-02 -4.978200705012e+01 6.264710832853e-06 -4.978180574446e+01 -7.552218130715e+01 1.189379238851e-03 5.859558192991e-09 1.189473368747e-03 -1.084669286253e-02 7.574471515490e-03 
1.250000000000e-01 1.000000000000e+00 0.000000000000e+00 2.124051879885e-01 1.486871435331e-04 -1.090909090909e-02 -4.978225951921e+01 -1.323268187985e-05 -4.978218913677e+01 -7.552302812966e+01 1.189471043293e-03 -1.237677889623e-08 1.189503956387e-03 -1.084771100414e-02 7.575459178391e-03 
0.000000000000e+00 8.888888888889e-01 0.000000000000e+00 2.096819687560e-01 0.000000000000e+00 -9.703660762969e-03 -4.978434648426e+01 9.148444580188e-05 -4.978433743066e+01 -7.552530918145e+01 1.189321391693e-03 8.560142742057e-08 1.189325626508e-03 -1.084988110977e-02 7.577436966982e-03 
0.000000000000e+00 7.777777777778e-01 0.000000000000e+00 2.018527888194e-01 0.000000000000e+00 -8.497697628617e-03 -4.979201206434e+01 4.129672414797e-05 -4.979200526074e+01 -7.553304124917e+01 1.188638124570e-03 3.870653273629e-08 1.188641308973e-03 -1.085701398297e-02 7.583874718537e-03 
0.000000000000e+00 6.666666666667e-01 0.000000000000e+00 1.887573806162e-01 0.000000000000e+00 -7.290655787234e-03 -4.980444087750e+01 4.012074188756e-05 -4.980443170676e+01 -7.554556726586e+01 1.187526360404e-03 3.766012877089e-08 1.187530655668e-03 -1.086856192560e-02 7.594294398625e-03 
0.000000000000e+00 5.555555555556e-01 0.000000000000e+00 1.704075709308e-01 0.000000000000e+00 -6.081996169537e-03 -4.982353928557e+01 1.392291064811e-05 -4.982352880046e+01 -7.556414956069e+01 1.185701152721e-03 1.314714362030e-08 1.185706071408e-03 -1.088538328443e-02 7.609380207152e-03 
0.000000000000e+00 4.444444444445e-01 0.000000000000e+00 1.468969506289e-01 0.000000000000e+00 -4.871281118607e-03 -4.984801048302e+01 -4.242236711294e-05 -4.984800372802e+01 -7.558676040057e+01 1.183152167352e-03 -3.981018482442e-08 1.183155340656e-03 -1.090527447663e-02 7.627044326332e-03 
0.000000000000e+00 3.333333333333e-01 0.000000000000e+00 1.181731684433e-01 0.000000000000e+00 -3.658149318975e-03 -4.987939095994e+01 -4.127208531895e-06 -4.987939207665e+01 -7.561425095471e+01 1.179616575208e-03 -3.920276267646e-09 1.179616045422e-03 -1.092869361605e-02 7.647600956932e-03 
0.000000000000e+00 2.222222222222e-01 0.000000000000e+00 8.395999779098e-02 0.000000000000e+00 -2.442331372328e-03 -4.991207561474e+01 1.344738087343e-04 -4.991210608235e+01 -7.564365619609e+01 1.176054487939e-03 1.268244097442e-07 1.176040122536e-03 -1.095411111471e-02 7.670020426356e-03 
0.000000000000e+00 1.111111111111e-01 0.000000000000e+00 4.459264640736e-02 0.000000000000e+00 -1.223305851022e-03 -4.994270380821e+01 8.088308103669e-05 -4.994273497172e+01 -7.567616764588e+01 1.173545716784e-03 7.656356433287e-08 1.173530989100e-03 -1.098469569023e-02 7.697769678640e-03 