 TITLE = "Profiles along polylines"
 VARIABLES = "DIST" "PRESSURE1" "PRESSURE_RATE1" "DISPLACEMENT_X1" "DISPLACEMENT_Y1" "ACCELERATION_X1" "ACCELERATION_Y1" "VELOCITY_DM_X" "VELOCITY_DM_Y" "STRESS_XX" "STRESS_XY" "STRESS_YY" "STRESS_ZZ"  p_(1st_Invariant)  q_(2nd_Invariant)   Effective_Strain
 ZONE T="TIME=0.000000000000e+00"
0.000000000000e+00 0.000000000000e+00 0.000000000000e+00 0.000000000000e+00 0.000000000000e+00 0.000000000000e+00 0.000000000000e+00 0.000000000000e+00 0.000000000000e+00 0.000000000000e+00 0.000000000000e+00 0.000000000000e+00 0.000000000000e+00 -0.000000000000e+00 0.000000000000e+00  0.000000000000e+00
4.365028099238e-01 0.000000000000e+00 0.000000000000e+00 0.000000000000e+00 0.000000000000e+00 0.000000000000e+00 0.000000000000e+00 0.000000000000e+00 0.000000000000e+00 0.000000000000e+00 0.000000000000e+00 0.000000000000e+00 0.000000000000e+00 -0.000000000000e+00 0.000000000000e+00  0.000000000000e+00
1.000000000000e+00 0.000000000000e+00 0.000000000000e+00 0.000000000000e+00 0.000000000000e+00 0.000000000000e+00 0.000000000000e+00 0.000000000000e+00 0.000000000000e+00 0.000000000000e+00 0.000000000000e+00 0.000000000000e+00 0.000000000000e+00 -0.000000000000e+00 0.000000000000e+00  0.000000000000e+00
1.666666666667e+00 0.000000000000e+00 0.000000000000e+00 0.000000000000e+00 0.000000000000e+00 0.000000000000e+00 0.000000000000e+00 0.000000000000e+00 0.000000000000e+00 0.000000000000e+00 0.000000000000e+00 0.000000000000e+00 0.000000000000e+00 -0.000000000000e+00 0.000000000000e+00  0.000000000000e+00
2.333333333333e+00 0.000000000000e+00 0.000000000000e+00 0.000000000000e+00 0.000000000000e+00 0.000000000000e+00 0.000000000000e+00 0.000000000000e+00 0.000000000000e+00 0.000000000000e+00 0.000000000000e+00 0.000000000000e+00 0.000000000000e+00 -0.000000000000e+00 0.000000000000e+00  0.000000000000e+00
3.000000000000e+00 0.000000000000e+00 0.000000000000e+00 0.000000000000e+00 0.000000000000e+00 0.000000000000e+00 0.000000000000e+00 0.000000000000e+00 0.000000000000e+00 0.000000000000e+00 0.000000000000e+00 0.000000000000e+00 0.000000000000e+00 -0.000000000000e+00 0.000000000000e+00  0.000000000000e+00
3.666666666667e+00 0.000000000000e+00 0.000000000000e+00 0.000000000000e+00 0.000000000000e+00 0.000000000000e+00 0.000000000000e+00 0.000000000000e+00 0.000000000000e+00 0.000000000000e+00 0.000000000000e+00 0.000000000000e+00 0.000000000000e+00 -0.000000000000e+00 0.000000000000e+00  0.000000000000e+00
4.333333333333e+00 0.000000000000e+00 0.000000000000e+00 0.000000000000e+00 0.000000000000e+00 0.000000000000e+00 0.000000000000e+00 0.000000000000e+00 0.000000000000e+00 0.000000000000e+00 0.000000000000e+00 0.000000000000e+00 0.000000000000e+00 -0.000000000000e+00 0.000000000000e+00  0.000000000000e+00
5.000000000000e+00 0.000000000000e+00 0.000000000000e+00 0.000000000000e+00 0.000000000000e+00 0.000000000000e+00 0.000000000000e+00 0.000000000000e+00 0.000000000000e+00 0.000000000000e+00 0.000000000000e+00 0.000000000000e+00 0.000000000000e+00 -0.000000000000e+00 0.000000000000e+00  0.000000000000e+00
 TITLE = "Profiles along polylines"
 VARIABLES = "DIST" "PRESSURE1" "PRESSURE_RATE1" "DISPLACEMENT_X1" "DISPLACEMENT_Y1" "ACCELERATION_X1" "ACCELERATION_Y1" "VELOCITY_DM_X" "VELOCITY_DM_Y" "STRESS_XX" "STRESS_XY" "STRESS_YY" "STRESS_ZZ"  p_(1st_Invariant)  q_(2nd_Invariant)   Effective_Strain
 ZONE T="TIME=1.000000000000e+00"
0.000000000000e+00 0.000000000000e+00 0.000000000000e+00 0.000000000000e+00 -4.226543514052e-02 0.000000000000e+00 -1.657468044726e-01 0.000000000000e+00 -8.535960430341e-02 -2.831756011163e+02 6.617401309345e+01 -7.910270879831e+02 -2.148405378199e+02 4.296810756397e+02 5.571569591375e+02  2.365873630422e-02
4.365028099238e-01 8.181934427758e+01 1.588725131604e+02 0.000000000000e+00 -3.686156909945e-02 0.000000000000e+00 -1.445551729390e-01 0.000000000000e+00 -7.444591406359e-02 2.823753684119e+02 -5.318203318632e+01 -1.370161817380e+02 2.907183733478e+01 -5.814367466956e+01 3.772314628950e+02  1.638333467801e-02
1.000000000000e+00 -4.515646503085e+01 -8.768245637059e+01 0.000000000000e+00 -2.988757269574e-02 0.000000000000e+00 -1.172061674343e-01 0.000000000000e+00 -6.036117622864e-02 3.532784363631e+02 1.198457930101e+01 -3.617923436661e+02 -1.702781460602e+00 3.405562921204e+00 6.196225298982e+02  2.482659061012e-02
1.666666666667e+00 -1.334945305245e+01 -2.592126806300e+01 0.000000000000e+00 -2.111823517908e-02 0.000000000000e+00 -8.281660854539e-02 0.000000000000e+00 -4.265055340088e-02 2.930162621438e+02 7.415467824901e+00 -2.937761184936e+02 -1.519712699634e-01 3.039425399268e-01 5.083394465651e+02  2.035303988702e-02
2.333333333333e+00 -8.657861126347e+00 -1.681138082786e+01 0.000000000000e+00 -1.400390350824e-02 0.000000000000e+00 -5.491726865975e-02 0.000000000000e+00 -2.828239335977e-02 2.341334267118e+02 4.662131980481e+00 -2.346163873171e+02 -9.659212105740e-02 1.931842421148e-01 4.060295783935e+02  1.625081599437e-02
3.000000000000e+00 -6.491928314079e+00 -1.260568604676e+01 0.000000000000e+00 -8.397712381757e-03 0.000000000000e+00 -3.293220541866e-02 0.000000000000e+00 -1.696008579061e-02 1.860646195017e+02 -2.340934820082e-01 -1.862225858077e+02 -3.159326119026e-02 6.318652238051e-02 3.224104357382e+02  1.289644802390e-02
3.666666666667e+00 -4.645350975538e+00 -9.020098981627e+00 0.000000000000e+00 -4.108113235077e-03 0.000000000000e+00 -1.611024798069e-02 0.000000000000e+00 -8.296777710057e-03 1.375521570643e+02 1.152729963331e+00 -1.376938361865e+02 -2.833582445769e-02 5.667164891538e-02 2.383783877916e+02  9.536138828138e-03
4.333333333333e+00 -7.173154454874e+00 -1.392845525218e+01 0.000000000000e+00 -1.167148219466e-03 0.000000000000e+00 -4.577051841044e-03 0.000000000000e+00 -2.357181698138e-03 8.199536570052e+01 -1.585830082347e-01 -8.373134949647e+01 -3.471967591889e-01 6.943935183779e-01 1.435247531640e+02  5.741021666277e-03
5.000000000000e+00 1.063256157878e+01 2.064575063842e+01 0.000000000000e+00 0.000000000000e+00 0.000000000000e+00 0.000000000000e+00 0.000000000000e+00 0.000000000000e+00 9.570010829822e+00 1.013511939028e+00 -9.796352438562e+00 -4.526832174799e-02 9.053664349598e-02 1.686351830968e+01  6.854173710504e-04
 TITLE = "Profiles along polylines"
 VARIABLES = "DIST" "PRESSURE1" "PRESSURE_RATE1" "DISPLACEMENT_X1" "DISPLACEMENT_Y1" "ACCELERATION_X1" "ACCELERATION_Y1" "VELOCITY_DM_X" "VELOCITY_DM_Y" "STRESS_XX" "STRESS_XY" "STRESS_YY" "STRESS_ZZ"  p_(1st_Invariant)  q_(2nd_Invariant)   Effective_Strain
 ZONE T="TIME=5.000000000000e+00"
0.000000000000e+00 0.000000000000e+00 0.000000000000e+00 0.000000000000e+00 -4.364784026622e-02 0.000000000000e+00 2.425939915737e-01 0.000000000000e+00 9.283521766149e-02 -2.451967520313e+02 1.600013300796e+01 -8.887716400196e+02 -2.267936784102e+02 4.535873568203e+02 6.535587795914e+02  2.621276381269e-02
4.365028099238e-01 8.169679327675e+02 2.072504431839e+02 0.000000000000e+00 -3.674489587007e-02 0.000000000000e+00 2.119011292659e-01 0.000000000000e+00 8.163337672238e-02 2.965776934839e+02 -1.681359138918e+01 -8.421996234772e+01 4.247154622724e+01 -8.494309245448e+01 3.371377376073e+02  1.363560784520e-02
1.000000000000e+00 8.694718371922e+02 5.265690619330e+02 0.000000000000e+00 -3.044343449038e-02 0.000000000000e+00 1.716512302604e-01 0.000000000000e+00 6.586039328522e-02 3.478812206832e+02 1.233318857550e+01 -3.771128819809e+02 -5.846332259546e+00 1.169266451909e+01 6.282878029984e+02  2.517505213534e-02
1.666666666667e+00 8.834324799208e+02 4.597423267065e+02 0.000000000000e+00 -2.143644680851e-02 0.000000000000e+00 1.213051734000e-01 0.000000000000e+00 4.657388322507e-02 2.955207483105e+02 7.801524541567e+00 -2.995567750390e+02 -8.072053456975e-01 1.614410691395e+00 5.155307958875e+02  2.064247177350e-02
2.333333333333e+00 7.418658269053e+02 3.801639644843e+02 0.000000000000e+00 -1.423217484598e-02 0.000000000000e+00 8.043553805088e-02 0.000000000000e+00 3.087531382511e-02 2.371300971930e+02 4.551901630180e+00 -2.366527744313e+02 9.546455234175e-02 -1.909291046835e-01 4.103837679710e+02  1.642443619928e-02
3.000000000000e+00 7.037723868850e+02 3.566598767620e+02 0.000000000000e+00 -8.557140877310e-03 0.000000000000e+00 4.822920585980e-02 0.000000000000e+00 1.850359976840e-02 1.889602817128e+02 -1.938789855037e-01 -1.886754185612e+02 5.697263031267e-02 -1.139452606253e-01 3.270422933834e+02  1.308171242387e-02
3.666666666667e+00 7.203292274733e+02 3.604240633365e+02 0.000000000000e+00 -4.203319506363e-03 0.000000000000e+00 2.358923447384e-02 0.000000000000e+00 9.043164223505e-03 1.395541513427e+02 1.156745268253e+00 -1.401344800816e+02 -1.160657477624e-01 2.321314955249e-01 2.422258086996e+02  9.690026620126e-03
4.333333333333e+00 7.587677440490e+02 3.849330590743e+02 0.000000000000e+00 -1.212284347873e-03 0.000000000000e+00 6.697459284568e-03 0.000000000000e+00 2.560103856446e-03 8.366793736280e+01 3.078576797268e-01 -8.446218467966e+01 -1.588494633725e-01 3.176989267450e-01 1.456061281580e+02  5.824362288775e-03
5.000000000000e+00 7.974619255857e+02 3.625129163924e+02 0.000000000000e+00 0.000000000000e+00 0.000000000000e+00 0.000000000000e+00 0.000000000000e+00 0.000000000000e+00 8.006955356775e+00 4.811275110955e-01 -1.472225261467e+01 -1.343059451579e+00 2.686118903158e+00 1.980443616608e+01  7.942785858815e-04
 TITLE = "Profiles along polylines"
 VARIABLES = "DIST" "PRESSURE1" "PRESSURE_RATE1" "DISPLACEMENT_X1" "DISPLACEMENT_Y1" "ACCELERATION_X1" "ACCELERATION_Y1" "VELOCITY_DM_X" "VELOCITY_DM_Y" "STRESS_XX" "STRESS_XY" "STRESS_YY" "STRESS_ZZ"  p_(1st_Invariant)  q_(2nd_Invariant)   Effective_Strain
 ZONE T="TIME=1.000000000000e+01"
0.000000000000e+00 0.000000000000e+00 0.000000000000e+00 0.000000000000e+00 -4.521927471764e-02 0.000000000000e+00 -3.061389366506e-01 0.000000000000e+00 -1.071821146477e-01 -2.624660790918e+02 1.526344454201e+01 -8.999358913750e+02 -2.324803940934e+02 4.649607881867e+02 6.535141850658e+02  2.620465744056e-02
4.365028099238e-01 1.498940149160e+03 6.966597734821e+01 0.000000000000e+00 -3.763584287873e-02 0.000000000000e+00 -2.677572152743e-01 0.000000000000e+00 -9.398121413935e-02 2.366265583819e+02 -8.498115761937e+00 -1.809713887170e+02 1.113103393296e+01 -2.226206786592e+01 3.623347385945e+02  1.452922156406e-02
1.000000000000e+00 2.275205113654e+03 5.002069952395e+01 0.000000000000e+00 -3.113229331096e-02 0.000000000000e+00 -2.166830761712e-01 0.000000000000e+00 -7.584429447423e-02 3.237457816318e+02 4.829563607419e+00 -3.838164942527e+02 -1.201414252418e+01 2.402828504836e+01 6.130889159750e+02  2.453040370000e-02
1.666666666667e+00 2.728761150496e+03 2.836712731308e+02 0.000000000000e+00 -2.173966530297e-02 0.000000000000e+00 -1.531242073247e-01 0.000000000000e+00 -5.355590514097e-02 2.830825792706e+02 8.801864116405e+00 -3.246781435542e+02 -8.319112856724e+00 1.663822571345e+01 5.267048108564e+02  2.109465195111e-02
2.333333333333e+00 2.610843436897e+03 3.677980567444e+02 0.000000000000e+00 -1.435108773065e-02 0.000000000000e+00 -1.015157886387e-01 0.000000000000e+00 -3.547166214622e-02 2.341307448864e+02 4.109772756353e+00 -2.343067597614e+02 -3.520297500017e-02 7.040595000035e-02 4.057412294863e+02  1.623714050658e-02
3.000000000000e+00 2.457561884329e+03 3.451997267168e+02 0.000000000000e+00 -8.711099796925e-03 0.000000000000e+00 -6.087464214163e-02 0.000000000000e+00 -2.129277953628e-02 1.879105433022e+02 -1.651082226987e-01 -1.877550330152e+02 3.110205740296e-02 -6.220411480592e-02 3.253360614520e+02  1.301345754072e-02
3.666666666667e+00 2.469703541001e+03 3.399401786160e+02 0.000000000000e+00 -4.355409144993e-03 0.000000000000e+00 -2.978070147583e-02 0.000000000000e+00 -1.043824847770e-02 1.384764253312e+02 1.108389826614e+00 -1.418903178413e+02 -6.827785020149e-01 1.365557004030e+00 2.428144713799e+02  9.713489528572e-03
4.333333333333e+00 2.538731664005e+03 3.287383501751e+02 0.000000000000e+00 -1.318883251816e-03 0.000000000000e+00 -8.459459812416e-03 0.000000000000e+00 -2.981666395448e-03 8.254084031436e+01 3.503861601337e-01 -8.710819616825e+01 -9.134711707783e-01 1.826942341557e+00 1.469280179630e+02  5.877271121423e-03
5.000000000000e+00 2.603851781898e+03 3.601149646838e+02 0.000000000000e+00 0.000000000000e+00 0.000000000000e+00 0.000000000000e+00 0.000000000000e+00 0.000000000000e+00 5.942911634618e+00 4.516486227463e-01 -2.257624177860e+01 -3.326666028796e+00 6.653332057592e+00 2.520949490651e+01  1.009835243391e-03
 TITLE = "Profiles along polylines"
 VARIABLES = "DIST" "PRESSURE1" "PRESSURE_RATE1" "DISPLACEMENT_X1" "DISPLACEMENT_Y1" "ACCELERATION_X1" "ACCELERATION_Y1" "VELOCITY_DM_X" "VELOCITY_DM_Y" "STRESS_XX" "STRESS_XY" "STRESS_YY" "STRESS_ZZ"  p_(1st_Invariant)  q_(2nd_Invariant)   Effective_Strain
 ZONE T="TIME=2.000000000000e+01"
0.000000000000e+00 0.000000000000e+00 0.000000000000e+00 0.000000000000e+00 -4.429321579229e-02 0.000000000000e+00 3.362020060134e-01 0.000000000000e+00 1.394843735659e-01 -2.846498137294e+02 2.478096481435e+01 -8.732545389916e+02 -2.315808705442e+02 4.631617410884e+02 6.183451744024e+02  2.491192873018e-02
4.365028099238e-01 -2.027389532600e+03 -7.503319751260e+02 0.000000000000e+00 -3.767231139894e-02 0.000000000000e+00 2.941108802782e-01 0.000000000000e+00 1.220673252129e-01 2.619510067601e+02 -2.282007640979e+01 -1.061213551586e+02 3.116593032030e+01 -6.233186064060e+01 3.245853887609e+02  1.326906040883e-02
1.000000000000e+00 -2.844593897776e+03 -1.041242602742e+03 0.000000000000e+00 -3.041063507196e-02 0.000000000000e+00 2.379568615363e-01 0.000000000000e+00 9.872062300741e-02 2.907567137120e+02 1.009890497655e+01 -4.719753764800e+02 -3.624373255360e+01 7.248746510719e+01 6.630096251473e+02  2.654805918250e-02
1.666666666667e+00 -4.632658739669e+03 -1.696548653369e+03 0.000000000000e+00 -2.051129511054e-02 0.000000000000e+00 1.681698235709e-01 0.000000000000e+00 6.986628072423e-02 2.884225111368e+02 8.154693440398e+00 -2.914259352151e+02 -6.006848156671e-01 1.201369631334e+00 5.023628912229e+02  2.011832858679e-02
2.333333333333e+00 -5.487115119222e+03 -1.918792064336e+03 0.000000000000e+00 -1.387177813276e-02 0.000000000000e+00 1.114640295180e-01 0.000000000000e+00 4.621651497363e-02 2.511906142377e+02 2.921976836344e+00 -1.935122746234e+02 1.153566792287e+01 -2.307133584574e+01 3.855457424799e+02  1.542581530200e-02
3.000000000000e+00 -5.394369985353e+03 -1.849737969759e+03 0.000000000000e+00 -8.640691609151e-03 0.000000000000e+00 6.684027200081e-02 0.000000000000e+00 2.769260688096e-02 1.958057983633e+02 -1.922000321958e-04 -1.828209335149e+02 2.596972969683e+00 -5.193945939367e+00 3.279235065896e+02  1.311694026361e-02
3.666666666667e+00 -5.288806175341e+03 -1.826644579151e+03 0.000000000000e+00 -4.329987845300e-03 0.000000000000e+00 3.270725851900e-02 0.000000000000e+00 1.356773073738e-02 1.425923744868e+02 1.285328042084e+00 -1.394971555689e+02 6.190437835754e-01 -1.238087567151e+00 2.443086074293e+02  9.773561420699e-03
4.333333333333e+00 -5.263662212283e+03 -1.824616480512e+03 0.000000000000e+00 -1.293287435970e-03 0.000000000000e+00 9.298000987236e-03 0.000000000000e+00 3.874658598600e-03 8.336631217470e+01 2.024444530969e-01 -8.904533525458e+01 -1.135804615977e+00 2.271609231955e+00 1.493229978788e+02  5.972969318430e-03
5.000000000000e+00 -5.337554581622e+03 -1.881158047036e+03 0.000000000000e+00 0.000000000000e+00 0.000000000000e+00 0.000000000000e+00 0.000000000000e+00 0.000000000000e+00 7.349469291800e+00 5.535880154011e-01 -1.790051280826e+01 -2.110208703293e+00 4.220417406586e+00 2.211582652420e+01  8.871238200527e-04
