 TITLE = "Profiles along polylines"
 VARIABLES = "DIST" "PRESSURE1" "PRESSURE_RATE1" "DISPLACEMENT_X1" "DISPLACEMENT_Y1" "ACCELERATION_X1" "ACCELERATION_Y1" "VELOCITY_DM_X" "VELOCITY_DM_Y" "STRESS_XX" "STRESS_XY" "STRESS_YY" "STRESS_ZZ"  p_(1st_Invariant)  q_(2nd_Invariant)   Effective_Strain
 ZONE T="TIME=0.000000000000e+00"
0.000000000000e+00 0.000000000000e+00 0.000000000000e+00 0.000000000000e+00 0.000000000000e+00 0.000000000000e+00 0.000000000000e+00 0.000000000000e+00 0.000000000000e+00 0.000000000000e+00 0.000000000000e+00 0.000000000000e+00 0.000000000000e+00 -0.000000000000e+00 0.000000000000e+00  0.000000000000e+00
4.365028099238e-01 0.000000000000e+00 0.000000000000e+00 0.000000000000e+00 0.000000000000e+00 0.000000000000e+00 0.000000000000e+00 0.000000000000e+00 0.000000000000e+00 0.000000000000e+00 0.000000000000e+00 0.000000000000e+00 0.000000000000e+00 -0.000000000000e+00 0.000000000000e+00  0.000000000000e+00
1.000000000000e+00 0.000000000000e+00 0.000000000000e+00 0.000000000000e+00 0.000000000000e+00 0.000000000000e+00 0.000000000000e+00 0.000000000000e+00 0.000000000000e+00 0.000000000000e+00 0.000000000000e+00 0.000000000000e+00 0.000000000000e+00 -0.000000000000e+00 0.000000000000e+00  0.000000000000e+00
1.571428571429e+00 0.000000000000e+00 0.000000000000e+00 0.000000000000e+00 0.000000000000e+00 0.000000000000e+00 0.000000000000e+00 0.000000000000e+00 0.000000000000e+00 0.000000000000e+00 0.000000000000e+00 0.000000000000e+00 0.000000000000e+00 -0.000000000000e+00 0.000000000000e+00  0.000000000000e+00
2.142857142857e+00 0.000000000000e+00 0.000000000000e+00 0.000000000000e+00 0.000000000000e+00 0.000000000000e+00 0.000000000000e+00 0.000000000000e+00 0.000000000000e+00 0.000000000000e+00 0.000000000000e+00 0.000000000000e+00 0.000000000000e+00 -0.000000000000e+00 0.000000000000e+00  0.000000000000e+00
2.714285714286e+00 0.000000000000e+00 0.000000000000e+00 0.000000000000e+00 0.000000000000e+00 0.000000000000e+00 0.000000000000e+00 0.000000000000e+00 0.000000000000e+00 0.000000000000e+00 0.000000000000e+00 0.000000000000e+00 0.000000000000e+00 -0.000000000000e+00 0.000000000000e+00  0.000000000000e+00
3.285714285714e+00 0.000000000000e+00 0.000000000000e+00 0.000000000000e+00 0.000000000000e+00 0.000000000000e+00 0.000000000000e+00 0.000000000000e+00 0.000000000000e+00 0.000000000000e+00 0.000000000000e+00 0.000000000000e+00 0.000000000000e+00 -0.000000000000e+00 0.000000000000e+00  0.000000000000e+00
3.857142857143e+00 0.000000000000e+00 0.000000000000e+00 0.000000000000e+00 0.000000000000e+00 0.000000000000e+00 0.000000000000e+00 0.000000000000e+00 0.000000000000e+00 0.000000000000e+00 0.000000000000e+00 0.000000000000e+00 0.000000000000e+00 -0.000000000000e+00 0.000000000000e+00  0.000000000000e+00
4.428571428571e+00 0.000000000000e+00 0.000000000000e+00 0.000000000000e+00 0.000000000000e+00 0.000000000000e+00 0.000000000000e+00 0.000000000000e+00 0.000000000000e+00 0.000000000000e+00 0.000000000000e+00 0.000000000000e+00 0.000000000000e+00 -0.000000000000e+00 0.000000000000e+00  0.000000000000e+00
5.000000000000e+00 0.000000000000e+00 0.000000000000e+00 0.000000000000e+00 0.000000000000e+00 0.000000000000e+00 0.000000000000e+00 0.000000000000e+00 0.000000000000e+00 0.000000000000e+00 0.000000000000e+00 0.000000000000e+00 0.000000000000e+00 -0.000000000000e+00 0.000000000000e+00  0.000000000000e+00
 TITLE = "Profiles along polylines"
 VARIABLES = "DIST" "PRESSURE1" "PRESSURE_RATE1" "DISPLACEMENT_X1" "DISPLACEMENT_Y1" "ACCELERATION_X1" "ACCELERATION_Y1" "VELOCITY_DM_X" "VELOCITY_DM_Y" "STRESS_XX" "STRESS_XY" "STRESS_YY" "STRESS_ZZ"  p_(1st_Invariant)  q_(2nd_Invariant)   Effective_Strain
 ZONE T="TIME=1.000000000000e+00"
0.000000000000e+00 0.000000000000e+00 0.000000000000e+00 5.678800324819e-05 -2.419204189279e-02 2.226980519537e-04 -9.487075252075e-02 1.146894967561e-04 -4.885843754819e-02 -1.278957590465e+02 1.409204179445e+02 -4.171422053478e+02 -1.090075928789e+02 2.180151857577e+02 3.860819822799e+02  2.290105237002e-02
4.365028099238e-01 5.319125839263e+01 1.032839968789e+02 9.810472803261e-03 -2.162813973072e-02 3.847244236573e-02 -8.481623423812e-02 1.981330781835e-02 -4.368036063263e-02 1.234429161095e+02 3.350247545661e+02 -5.771844280274e+01 1.314489466136e+01 -2.628978932271e+01 6.014383680509e+02  4.685129472896e-02
1.000000000000e+00 -1.958667639030e+01 -3.803238134038e+01 1.128584559001e-02 -1.888519488606e-02 4.425821800002e-02 -7.405958778849e-02 2.279298227001e-02 -3.814068771107e-02 1.442233949198e+02 2.559942136404e+02 -1.519358141520e+02 -1.542483846443e+00 3.084967692887e+00 5.122374189940e+02  3.692553610008e-02
1.571428571429e+00 -7.217379112344e+00 -1.401432837348e+01 1.028482329814e-02 -1.527135766734e-02 4.033264038487e-02 -5.988767712682e-02 2.077130979821e-02 -3.084215372031e-02 1.728006880505e+02 1.825452245225e+02 -1.707237174953e+02 4.153941110514e-01 -8.307882221028e-01 4.341375682139e+02  2.795368338086e-02
2.142857142857e+00 -6.375353992172e+00 -1.237932814014e+01 8.830256942417e-03 -1.152806452655e-02 3.462845859771e-02 -4.520809618254e-02 1.783365617782e-02 -2.328216953401e-02 1.631960344706e+02 1.278066505021e+02 -1.634567051573e+02 -5.213413734313e-02 1.042682746863e-01 3.592076489761e+02  2.101584142673e-02
2.714285714286e+00 -5.086271809149e+00 -9.876255940095e+00 7.396184076459e-03 -8.009341312623e-03 2.900464343710e-02 -3.140918161813e-02 1.493739137010e-02 -1.617572853334e-02 1.468842876453e+02 8.716922111980e+01 -1.470895093321e+02 -4.104433734559e-02 8.208867469119e-02 2.959913311303e+02  1.579858860025e-02
3.285714285714e+00 -4.320469064420e+00 -8.389260319262e+00 5.998438333197e-03 -4.927502678601e-03 2.352328758116e-02 -1.932353991608e-02 1.211449310430e-02 -9.951623056782e-03 1.235201011721e+02 6.307910115134e+01 -1.238454276492e+02 -6.506529541369e-02 1.301305908274e-01 2.404770408341e+02  1.224025909444e-02
3.857142857143e+00 -3.615185287930e+00 -7.019777258117e+00 4.505503077226e-03 -2.423039273513e-03 1.766863951853e-02 -9.502114798091e-03 9.099349352045e-03 -4.893589121017e-03 9.823726064811e+01 5.026448944056e+01 -9.827121605773e+01 -6.791081922796e-03 1.358216384559e-02 1.911576387772e+02  9.738986637333e-03
4.428571428571e+00 -4.631557010381e+00 -8.993314583264e+00 2.652402311684e-03 -6.780957313628e-04 1.040157769288e-02 -2.659198946521e-03 5.356812511833e-03 -1.369487457458e-03 5.729941904811e+01 5.098730956684e+01 -5.773662954132e+01 -8.744209864226e-02 1.748841972845e-01 1.331319036545e+02  8.111370330833e-03
5.000000000000e+00 8.833107800980e+00 1.715166563297e+01 0.000000000000e+00 0.000000000000e+00 0.000000000000e+00 0.000000000000e+00 0.000000000000e+00 0.000000000000e+00 5.627914968562e+00 6.593667884021e+01 -5.355370712308e+00 5.450885125085e-02 -1.090177025017e-01 1.146011254654e+02  9.144373439988e-03
 TITLE = "Profiles along polylines"
 VARIABLES = "DIST" "PRESSURE1" "PRESSURE_RATE1" "DISPLACEMENT_X1" "DISPLACEMENT_Y1" "ACCELERATION_X1" "ACCELERATION_Y1" "VELOCITY_DM_X" "VELOCITY_DM_Y" "STRESS_XX" "STRESS_XY" "STRESS_YY" "STRESS_ZZ"  p_(1st_Invariant)  q_(2nd_Invariant)   Effective_Strain
 ZONE T="TIME=5.000000000000e+00"
0.000000000000e+00 0.000000000000e+00 0.000000000000e+00 -1.532982159830e-03 -2.490486745952e-02 -7.160550278826e-04 1.388760476734e-01 -9.283496398919e-04 5.317696076871e-02 -1.001655074127e+02 1.785316663382e+02 -4.701203521124e+02 -1.140571719050e+02 2.281143438100e+02 4.770125203134e+02  2.868875591601e-02
4.365028099238e-01 5.122633556819e+02 1.255830792933e+02 9.280101024755e-03 -2.151545332579e-02 -5.651852380528e-02 1.243416095953e-01 -2.197831303102e-02 4.791986071176e-02 1.288315392273e+02 2.956174493590e+02 -3.945965789155e+01 1.787437626715e+01 -3.574875253430e+01 5.330378357612e+02  4.138862494247e-02
1.000000000000e+00 6.534629271127e+02 3.625400113123e+02 1.124417575479e-02 -1.911079719272e-02 -6.487887585180e-02 1.084928266344e-01 -2.499655906466e-02 4.167893484620e-02 1.422250569841e+02 2.623061941076e+02 -1.563211209049e+02 -2.819212784154e+00 5.638425568308e+00 5.227608119994e+02  3.778930476771e-02
1.571428571429e+00 7.151813682836e+02 3.638769633206e+02 1.033186315125e-02 -1.543047513352e-02 -5.910346805108e-02 8.773754699809e-02 -2.273651204037e-02 3.371509946972e-02 1.718270640601e+02 1.850508469379e+02 -1.735645845182e+02 -3.475040916126e-01 6.950081832253e-01 4.384099254648e+02  2.829551501756e-02
2.142857142857e+00 6.671130624820e+02 3.385943267311e+02 8.913990458787e-03 -1.166588219744e-02 -5.073393355342e-02 6.622710723057e-02 -1.949903726266e-02 2.544196476683e-02 1.641008820315e+02 1.296025527380e+02 -1.637312542237e+02 7.392556156994e-02 -1.478511231399e-01 3.619335705569e+02  2.124776899655e-02
2.714285714286e+00 6.484218471216e+02 3.265378909974e+02 7.484914913071e-03 -8.128359676793e-03 -4.248996002873e-02 4.600683522359e-02 -1.632291802111e-02 1.766453968809e-02 1.482775172364e+02 8.880490008159e+01 -1.483846503634e+02 -2.142662539863e-02 4.285325079725e-02 2.994415855092e+02  1.603207064050e-02
3.285714285714e+00 6.573209584962e+02 3.290857245534e+02 6.077279851143e-03 -5.016277388315e-03 -3.445843583760e-02 2.830048872266e-02 -1.323470681370e-02 1.085971627470e-02 1.248199972153e+02 6.425989370680e+01 -1.251560968759e+02 -6.721993212075e-02 1.344398642415e-01 2.434215432067e+02  1.242050260819e-02
3.857142857143e+00 6.855363120203e+02 3.411504199946e+02 4.567508737051e-03 -2.480151630375e-03 -2.588148496593e-02 1.391312111170e-02 -9.939349011822e-03 5.333337660782e-03 9.923741517234e+01 5.115270389968e+01 -1.000371090349e+02 -1.599387725115e-01 3.198775450230e-01 1.939912547080e+02  9.893998095768e-03
4.428571428571e+00 7.191156391183e+02 3.598030225341e+02 2.689834176185e-03 -7.095016067052e-04 -1.523627518111e-02 3.889853878640e-03 -5.850853637063e-03 1.484765576290e-03 5.782331580771e+01 5.200261692957e+01 -5.816047181255e+01 -6.743120096667e-02 1.348624019334e-01 1.349148100703e+02  8.250135076133e-03
5.000000000000e+00 7.476870588802e+02 3.425144270637e+02 0.000000000000e+00 0.000000000000e+00 0.000000000000e+00 0.000000000000e+00 0.000000000000e+00 0.000000000000e+00 4.128306891623e+00 6.677317244698e+01 -9.378660744475e+00 -1.050070770570e+00 2.100141541141e+00 1.162552332859e+02  9.264399671349e-03
 TITLE = "Profiles along polylines"
 VARIABLES = "DIST" "PRESSURE1" "PRESSURE_RATE1" "DISPLACEMENT_X1" "DISPLACEMENT_Y1" "ACCELERATION_X1" "ACCELERATION_Y1" "VELOCITY_DM_X" "VELOCITY_DM_Y" "STRESS_XX" "STRESS_XY" "STRESS_YY" "STRESS_ZZ"  p_(1st_Invariant)  q_(2nd_Invariant)   Effective_Strain
 ZONE T="TIME=1.000000000000e+01"
0.000000000000e+00 0.000000000000e+00 0.000000000000e+00 -2.805418996132e-03 -2.585460028632e-02 1.216493868069e-03 -1.752863260658e-01 4.676886277696e-04 -6.141091324291e-02 -1.012905347438e+02 1.906922148200e+02 -4.730292715945e+02 -1.148639612676e+02 2.297279225353e+02 4.923603561733e+02  3.019113532063e-02
4.365028099238e-01 1.101853448981e+03 1.106994664126e+02 8.526956024314e-03 -2.214521394185e-02 7.142186328816e-02 -1.571484585014e-01 2.487556470818e-02 -5.520901666060e-02 9.658476587855e+01 2.836345356715e+02 -8.598361605385e+01 2.120229964941e+00 -4.240459929881e+00 5.160951216896e+02  3.980735857727e-02
1.000000000000e+00 1.848250572546e+03 1.225740264082e+02 1.094149381184e-02 -1.954312612177e-02 8.189227105453e-02 -1.369953829484e-01 2.854476496014e-02 -4.798907165739e-02 1.237134788738e+02 2.650755791139e+02 -1.605146111250e+02 -7.360226450250e+00 1.472045290050e+01 5.210626472759e+02  3.802929073584e-02
1.571428571429e+00 2.259465387219e+03 2.570417020903e+02 1.009138898934e-02 -1.565542781688e-02 7.458052201612e-02 -1.107753608463e-01 2.598242212729e-02 -3.876790323917e-02 1.639587047573e+02 1.844728604681e+02 -1.898138826393e+02 -5.171035576393e+00 1.034207115279e+01 4.427382472330e+02  2.834894796797e-02
2.142857142857e+00 2.309240758088e+03 3.188491080713e+02 8.781921220156e-03 -1.177505085684e-02 6.401701334735e-02 -8.360157243620e-02 2.231498323973e-02 -2.923134922226e-02 1.609276319331e+02 1.278661718311e+02 -1.651700346385e+02 -8.484805410959e-01 1.696961082192e+00 3.588950537721e+02  2.101250982480e-02
2.714285714286e+00 2.263939133267e+03 3.198690875637e+02 7.423249620850e-03 -8.247449634712e-03 5.361630274342e-02 -5.807586731652e-02 1.870090847353e-02 -2.031424323476e-02 1.469148817330e+02 8.831459402395e+01 -1.474159005457e+02 -1.002037625276e-01 2.004075250552e-01 2.972732449990e+02  1.592816824877e-02
3.285714285714e+00 2.275561753075e+03 3.185273446746e+02 6.046992320532e-03 -5.150235433783e-03 4.348253584991e-02 -3.572910319141e-02 1.517111609365e-02 -1.251403929074e-02 1.240764096148e+02 6.449605104894e+01 -1.250847407338e+02 -2.016662237947e-01 4.033324475895e-01 2.429820413958e+02  1.242435916088e-02
3.857142857143e+00 2.337309826713e+03 3.201878626042e+02 4.549031156072e-03 -2.600680124899e-03 3.265919417952e-02 -1.756942487962e-02 1.139547495807e-02 -6.168612708374e-03 9.824716502138e+01 5.148915023164e+01 -1.020066672349e+02 -7.519004427041e-01 1.503800885408e+00 1.950150451166e+02  9.951165652005e-03
4.428571428571e+00 2.406743955567e+03 3.165460142925e+02 2.679052573066e-03 -7.918186503809e-04 1.922598777513e-02 -4.914745087341e-03 6.708097569721e-03 -1.737807367910e-03 5.686589007021e+01 5.212975609284e+01 -6.076114231311e+01 -7.790504485785e-01 1.558100897157e+00 1.361285754002e+02  8.293476209472e-03
5.000000000000e+00 2.456180617442e+03 3.409305137602e+02 0.000000000000e+00 0.000000000000e+00 0.000000000000e+00 0.000000000000e+00 0.000000000000e+00 0.000000000000e+00 2.428506902709e+00 6.655933431499e+01 -1.626593891083e+01 -2.767486401625e+00 5.534972803250e+00 1.164893960358e+02  9.246931101625e-03
 TITLE = "Profiles along polylines"
 VARIABLES = "DIST" "PRESSURE1" "PRESSURE_RATE1" "DISPLACEMENT_X1" "DISPLACEMENT_Y1" "ACCELERATION_X1" "ACCELERATION_Y1" "VELOCITY_DM_X" "VELOCITY_DM_Y" "STRESS_XX" "STRESS_XY" "STRESS_YY" "STRESS_ZZ"  p_(1st_Invariant)  q_(2nd_Invariant)   Effective_Strain
 ZONE T="TIME=2.000000000000e+01"
0.000000000000e+00 0.000000000000e+00 0.000000000000e+00 -1.867026033783e-03 -2.511963347505e-02 -1.315395807178e-03 1.925238857982e-01 -4.066045190620e-04 7.994841719836e-02 -1.099670867632e+02 1.719264369980e+02 -4.607690867481e+02 -1.141472347023e+02 2.282944694045e+02 4.585730168571e+02  2.760630390151e-02
4.365028099238e-01 -1.688017326488e+03 -6.459734344796e+02 8.909335525482e-03 -2.186825869367e-02 -7.836113404473e-02 1.726472296132e-01 -3.228823867459e-02 7.175419211597e-02 1.235178708448e+02 3.129590833752e+02 -4.743243399583e+01 1.521708736979e+01 -3.043417473958e+01 5.623781450928e+02  4.377688282884e-02
1.000000000000e+00 -2.797123320140e+03 -1.017448139955e+03 1.075088794960e-02 -1.893899655361e-02 -8.988230965881e-02 1.504659501325e-01 -3.717161516826e-02 6.248296422507e-02 1.283628492360e+02 2.661697724872e+02 -2.025767149036e+02 -1.484277313353e+01 2.968554626706e+01 5.433005452782e+02  3.863247571819e-02
1.571428571429e+00 -4.061664685799e+03 -1.469472296729e+03 1.004906441907e-02 -1.479934490506e-02 -8.184664059758e-02 1.216679002368e-01 -3.381224517202e-02 5.056128287569e-02 1.740186554959e+02 1.689085082384e+02 -1.747494916399e+02 -1.461672287881e-01 2.923344575761e-01 4.204993648976e+02  2.633903485786e-02
2.142857142857e+00 -4.793227186083e+03 -1.679395362780e+03 8.958494845033e-03 -1.129721124594e-02 -7.025059159931e-02 9.180509241256e-02 -2.899304876208e-02 3.809725038688e-02 1.744710677146e+02 1.209348780046e+02 -1.354208586039e+02 7.810041822125e+00 -1.562008364425e+01 3.406431143394e+02  1.990637822644e-02
2.714285714286e+00 -4.940955591018e+03 -1.700244621159e+03 7.627941422252e-03 -8.092213181889e-03 -5.883936510383e-02 6.377083992374e-02 -2.428275350561e-02 2.643762588733e-02 1.539478723523e+02 8.951034066304e+01 -1.373591577316e+02 3.317742924139e+00 -6.635485848277e+00 2.961518348411e+02  1.599073827190e-02
3.285714285714e+00 -4.949539708293e+03 -1.702904676319e+03 6.191472319038e-03 -5.080254537890e-03 -4.772112977494e-02 3.923817262717e-02 -1.970240337519e-02 1.627639926085e-02 1.279159661307e+02 6.652179177359e+01 -1.227157765618e+02 1.040037913773e+00 -2.080075827545e+00 2.457439377758e+02  1.266279097074e-02
3.857142857143e+00 -4.973132263682e+03 -1.721039460976e+03 4.635317085803e-03 -2.562399724280e-03 -3.584387141370e-02 1.930099282490e-02 -1.480337105178e-02 8.019789673724e-03 1.011291825755e+02 5.306634798087e+01 -9.954898846589e+01 3.160388219308e-01 -6.320776438617e-01 1.966014568733e+02  1.011900931411e-02
4.428571428571e+00 -5.006983114015e+03 -1.737665094932e+03 2.717703939989e-03 -7.597674448317e-04 -2.110113822828e-02 5.404759981353e-03 -8.716723596507e-03 2.260192862455e-03 5.779595580778e+01 5.316685268524e+01 -6.152165115350e+01 -7.451390691450e-01 1.490278138290e+00 1.384157160300e+02  8.447422183288e-03
5.000000000000e+00 -5.068979665718e+03 -1.782266655320e+03 0.000000000000e+00 0.000000000000e+00 0.000000000000e+00 0.000000000000e+00 0.000000000000e+00 0.000000000000e+00 3.695235652600e+00 6.731528087190e+01 -1.164166658344e+01 -1.589286186168e+00 3.178572372337e+00 1.173718009704e+02  9.343084117169e-03
