 TITLE = "Profiles along polylines"
 VARIABLES = "DIST" "PRESSURE1" "SATURATION1" "DISPLACEMENT_X1" "DISPLACEMENT_Y1" "STRESS_XX" "STRESS_XY" "STRESS_YY" "STRESS_ZZ" "STRAIN_XX" "STRAIN_XY" "STRAIN_YY" "STRAIN_PLS"  p_(1st_Invariant)  q_(2nd_Invariant)   Effective_Strain
 ZONE T="TIME=0.000000000000e+00"
0.000000000000e+00 0.000000000000e+00 1.000000000000e+00 0.000000000000e+00 0.000000000000e+00 0.000000000000e+00 0.000000000000e+00 0.000000000000e+00 0.000000000000e+00 0.000000000000e+00 0.000000000000e+00 0.000000000000e+00 0.000000000000e+00 -0.000000000000e+00 0.000000000000e+00  0.000000000000e+00
5.000000000000e-02 0.000000000000e+00 1.000000000000e+00 0.000000000000e+00 0.000000000000e+00 0.000000000000e+00 0.000000000000e+00 0.000000000000e+00 0.000000000000e+00 0.000000000000e+00 0.000000000000e+00 0.000000000000e+00 0.000000000000e+00 -0.000000000000e+00 0.000000000000e+00  0.000000000000e+00
1.000000000000e-01 0.000000000000e+00 1.000000000000e+00 0.000000000000e+00 0.000000000000e+00 0.000000000000e+00 0.000000000000e+00 0.000000000000e+00 0.000000000000e+00 0.000000000000e+00 0.000000000000e+00 0.000000000000e+00 0.000000000000e+00 -0.000000000000e+00 0.000000000000e+00  0.000000000000e+00
1.500000000000e-01 0.000000000000e+00 1.000000000000e+00 0.000000000000e+00 0.000000000000e+00 0.000000000000e+00 0.000000000000e+00 0.000000000000e+00 0.000000000000e+00 0.000000000000e+00 0.000000000000e+00 0.000000000000e+00 0.000000000000e+00 -0.000000000000e+00 0.000000000000e+00  0.000000000000e+00
2.000000000000e-01 0.000000000000e+00 1.000000000000e+00 0.000000000000e+00 0.000000000000e+00 0.000000000000e+00 0.000000000000e+00 0.000000000000e+00 0.000000000000e+00 0.000000000000e+00 0.000000000000e+00 0.000000000000e+00 0.000000000000e+00 -0.000000000000e+00 0.000000000000e+00  0.000000000000e+00
2.500000000000e-01 0.000000000000e+00 1.000000000000e+00 0.000000000000e+00 0.000000000000e+00 0.000000000000e+00 0.000000000000e+00 0.000000000000e+00 0.000000000000e+00 0.000000000000e+00 0.000000000000e+00 0.000000000000e+00 0.000000000000e+00 -0.000000000000e+00 0.000000000000e+00  0.000000000000e+00
3.000000000000e-01 0.000000000000e+00 1.000000000000e+00 0.000000000000e+00 0.000000000000e+00 0.000000000000e+00 0.000000000000e+00 0.000000000000e+00 0.000000000000e+00 0.000000000000e+00 0.000000000000e+00 0.000000000000e+00 0.000000000000e+00 -0.000000000000e+00 0.000000000000e+00  0.000000000000e+00
3.500000000000e-01 0.000000000000e+00 1.000000000000e+00 0.000000000000e+00 0.000000000000e+00 0.000000000000e+00 0.000000000000e+00 0.000000000000e+00 0.000000000000e+00 0.000000000000e+00 0.000000000000e+00 0.000000000000e+00 0.000000000000e+00 -0.000000000000e+00 0.000000000000e+00  0.000000000000e+00
4.000000000000e-01 0.000000000000e+00 1.000000000000e+00 0.000000000000e+00 0.000000000000e+00 0.000000000000e+00 0.000000000000e+00 0.000000000000e+00 0.000000000000e+00 0.000000000000e+00 0.000000000000e+00 0.000000000000e+00 0.000000000000e+00 -0.000000000000e+00 0.000000000000e+00  0.000000000000e+00
4.500000000000e-01 0.000000000000e+00 1.000000000000e+00 0.000000000000e+00 0.000000000000e+00 0.000000000000e+00 0.000000000000e+00 0.000000000000e+00 0.000000000000e+00 0.000000000000e+00 0.000000000000e+00 0.000000000000e+00 0.000000000000e+00 -0.000000000000e+00 0.000000000000e+00  0.000000000000e+00
5.000000000000e-01 0.000000000000e+00 1.000000000000e+00 0.000000000000e+00 0.000000000000e+00 0.000000000000e+00 0.000000000000e+00 0.000000000000e+00 0.000000000000e+00 0.000000000000e+00 0.000000000000e+00 0.000000000000e+00 0.000000000000e+00 -0.000000000000e+00 0.000000000000e+00  0.000000000000e+00
5.500000000000e-01 0.000000000000e+00 1.000000000000e+00 0.000000000000e+00 0.000000000000e+00 0.000000000000e+00 0.000000000000e+00 0.000000000000e+00 0.000000000000e+00 0.000000000000e+00 0.000000000000e+00 0.000000000000e+00 0.000000000000e+00 -0.000000000000e+00 0.000000000000e+00  0.000000000000e+00
6.000000000000e-01 0.000000000000e+00 1.000000000000e+00 0.000000000000e+00 0.000000000000e+00 0.000000000000e+00 0.000000000000e+00 0.000000000000e+00 0.000000000000e+00 0.000000000000e+00 0.000000000000e+00 0.000000000000e+00 0.000000000000e+00 -0.000000000000e+00 0.000000000000e+00  0.000000000000e+00
6.500000000000e-01 0.000000000000e+00 1.000000000000e+00 0.000000000000e+00 0.000000000000e+00 0.000000000000e+00 0.000000000000e+00 0.000000000000e+00 0.000000000000e+00 0.000000000000e+00 0.000000000000e+00 0.000000000000e+00 0.000000000000e+00 -0.000000000000e+00 0.000000000000e+00  0.000000000000e+00
7.000000000000e-01 0.000000000000e+00 1.000000000000e+00 0.000000000000e+00 0.000000000000e+00 0.000000000000e+00 0.000000000000e+00 0.000000000000e+00 0.000000000000e+00 0.000000000000e+00 0.000000000000e+00 0.000000000000e+00 0.000000000000e+00 -0.000000000000e+00 0.000000000000e+00  0.000000000000e+00
7.500000000000e-01 0.000000000000e+00 1.000000000000e+00 0.000000000000e+00 0.000000000000e+00 0.000000000000e+00 0.000000000000e+00 0.000000000000e+00 0.000000000000e+00 0.000000000000e+00 0.000000000000e+00 0.000000000000e+00 0.000000000000e+00 -0.000000000000e+00 0.000000000000e+00  0.000000000000e+00
8.000000000000e-01 0.000000000000e+00 1.000000000000e+00 0.000000000000e+00 0.000000000000e+00 0.000000000000e+00 0.000000000000e+00 0.000000000000e+00 0.000000000000e+00 0.000000000000e+00 0.000000000000e+00 0.000000000000e+00 0.000000000000e+00 -0.000000000000e+00 0.000000000000e+00  0.000000000000e+00
8.500000000000e-01 0.000000000000e+00 1.000000000000e+00 0.000000000000e+00 0.000000000000e+00 0.000000000000e+00 0.000000000000e+00 0.000000000000e+00 0.000000000000e+00 0.000000000000e+00 0.000000000000e+00 0.000000000000e+00 0.000000000000e+00 -0.000000000000e+00 0.000000000000e+00  0.000000000000e+00
9.000000000000e-01 0.000000000000e+00 1.000000000000e+00 0.000000000000e+00 0.000000000000e+00 0.000000000000e+00 0.000000000000e+00 0.000000000000e+00 0.000000000000e+00 0.000000000000e+00 0.000000000000e+00 0.000000000000e+00 0.000000000000e+00 -0.000000000000e+00 0.000000000000e+00  0.000000000000e+00
9.500000000000e-01 0.000000000000e+00 1.000000000000e+00 0.000000000000e+00 0.000000000000e+00 0.000000000000e+00 0.000000000000e+00 0.000000000000e+00 0.000000000000e+00 0.000000000000e+00 0.000000000000e+00 0.000000000000e+00 0.000000000000e+00 -0.000000000000e+00 0.000000000000e+00  0.000000000000e+00
1.000000000000e+00 0.000000000000e+00 1.000000000000e+00 0.000000000000e+00 0.000000000000e+00 0.000000000000e+00 0.000000000000e+00 0.000000000000e+00 0.000000000000e+00 0.000000000000e+00 0.000000000000e+00 0.000000000000e+00 0.000000000000e+00 -0.000000000000e+00 0.000000000000e+00  0.000000000000e+00
 TITLE = "Profiles along polylines"
 VARIABLES = "DIST" "PRESSURE1" "SATURATION1" "DISPLACEMENT_X1" "DISPLACEMENT_Y1" "STRESS_XX" "STRESS_XY" "STRESS_YY" "STRESS_ZZ" "STRAIN_XX" "STRAIN_XY" "STRAIN_YY" "STRAIN_PLS"  p_(1st_Invariant)  q_(2nd_Invariant)   Effective_Strain
 ZONE T="TIME=1.000000000000e+00"
0.000000000000e+00 0.000000000000e+00 1.000000000000e+00 0.000000000000e+00 0.000000000000e+00 4.298562623104e-01 5.037536546123e-04 6.550985197002e-01 4.339819128042e-01 -4.443008224133e-09 1.085007871473e-09 2.381255766572e-07 0.000000000000e+00 -5.063122316049e-01 2.232097354034e-01  2.403852245919e-07
5.000000000000e-02 -2.117101693951e+01 9.999756648488e-01 0.000000000000e+00 -1.784465574263e-07 -1.369059873881e+01 2.458730690619e-04 -2.054036364925e+01 -1.369238495522e+01 1.923617674911e-09 5.295727641333e-10 -7.374746285873e-06 0.000000000000e+00 1.597444911443e+01 6.848871990166e+00  7.375708339878e-06
1.000000000000e-01 -4.297987881952e+01 9.999505965230e-01 0.000000000000e+00 -7.432180796990e-07 -2.825230701497e+01 -1.724573389028e-03 -4.237747134701e+01 -2.825191134480e+01 -4.261063471228e-10 -3.714465760984e-09 -1.521214154085e-05 0.000000000000e+00 3.296056323559e+01 1.412536248712e+01  1.521192985266e-05
1.500000000000e-01 -6.611582826271e+01 9.999240027685e-01 0.000000000000e+00 -1.711186288766e-06 -4.366809748065e+01 7.639425615194e-04 -6.549286941356e+01 -4.366438675768e+01 -3.996163192420e-09 1.645414747888e-09 -2.350759670633e-05 0.000000000000e+00 5.094178455063e+01 2.182662757107e+01  2.350559905227e-05
2.000000000000e-01 -9.130923276556e+01 9.998950440601e-01 0.000000000000e+00 -3.113004730762e-06 -6.052076826245e+01 5.241574369730e-03 -9.074933161088e+01 -6.050803994933e+01 -1.370741412577e-08 1.128954479634e-08 -3.256754486628e-05 0.000000000000e+00 7.059271327422e+01 3.023493087741e+01  3.256069919470e-05
2.500000000000e-01 -1.193546905940e+02 9.998628070420e-01 0.000000000000e+00 -4.992815645498e-06 -7.916517322372e+01 1.013216857699e-02 -1.187382129146e+02 -7.916135445532e+01 -4.112519809013e-09 2.182313231968e-08 -4.262123218690e-05 0.000000000000e+00 9.235491353121e+01 3.957495310438e+01  4.261919283760e-05
3.000000000000e-01 -1.511361697616e+02 9.998262756320e-01 0.000000000000e+00 -7.410849147266e-06 -1.004396992468e+02 8.286700788694e-03 -1.506779355569e+02 -1.004470539215e+02 7.920418852397e-09 1.784827862180e-08 -5.409479560734e-05 0.000000000000e+00 1.171882295751e+02 5.023456142696e+01  5.409876508438e-05
3.500000000000e-01 -1.876549852156e+02 9.997842988627e-01 0.000000000000e+00 -1.044228189603e-05 -1.247017098386e+02 5.557233410826e-03 -1.870863180410e+02 -1.247152111518e+02 1.453987577658e-08 1.196942580793e-08 -6.716888434215e-05 0.000000000000e+00 1.455010796771e+02 6.237785938424e+01  6.717615865925e-05
4.000000000000e-01 -2.300615143496e+02 9.997355544259e-01 0.000000000000e+00 -1.418257852533e-05 -1.531059599971e+02 7.013764878437e-04 -2.296600271689e+02 -1.531063948664e+02 4.683207740557e-10 1.510657050740e-09 -8.244237324885e-05 0.000000000000e+00 1.786241273442e+02 7.655384974771e+01  8.244260745176e-05
4.500000000000e-01 -2.796916767882e+02 9.996785067409e-01 0.000000000000e+00 -1.874832209711e-05 -1.860777395942e+02 2.633603205447e-03 -2.791096950021e+02 -1.860749738385e+02 -2.978506104362e-09 5.672376134809e-09 -1.001912381762e-04 0.000000000000e+00 2.170874694783e+02 9.303333842841e+01  1.001897494380e-04
5.000000000000e-01 -3.381093661419e+02 9.996113581809e-01 0.000000000000e+00 -2.428408580075e-05 -2.251625822372e+02 2.823687801613e-03 -3.377287735997e+02 -2.251565423348e+02 -6.504510333942e-09 6.081789111167e-09 -1.212316336699e-04 0.000000000000e+00 2.626826327239e+02 1.125692115415e+02  1.212283820033e-04
5.500000000000e-01 -4.071562258077e+02 9.995319918579e-01 0.000000000000e+00 -3.096392262069e-05 -2.710510614251e+02 2.425364756596e-03 -4.066057652337e+02 -2.710627306635e+02 1.256687215273e-08 5.223862552669e-09 -1.459694218448e-04 0.000000000000e+00 3.162398524407e+02 1.355488696312e+02  1.459757059670e-04
6.000000000000e-01 -4.890104166441e+02 9.994379040721e-01 0.000000000000e+00 -3.899789552504e-05 -3.257166425933e+02 -2.144242777663e-03 -4.885710553226e+02 -3.257150791664e+02 -1.683690543460e-09 -4.618369059581e-09 -1.753833589375e-04 0.000000000000e+00 3.800009256941e+02 1.628551944908e+02  1.753825172807e-04
6.500000000000e-01 -5.862563428258e+02 9.993261241647e-01 0.000000000000e+00 -4.863770974573e-05 -3.903873601782e+02 -7.801169779673e-04 -5.855896468339e+02 -3.903908028048e+02 3.707444084915e-09 -1.680251952545e-09 -2.102141397236e-04 0.000000000000e+00 4.554559366056e+02 1.952005653698e+02  2.102159934903e-04
7.000000000000e-01 -7.019676982052e+02 9.991931190600e-01 0.000000000000e+00 -6.018631950398e-05 -4.675383676879e+02 -3.650253708359e-05 -7.012717359849e+02 -4.675240414691e+02 -1.542823561510e-08 -7.862084910312e-11 -2.517282864016e-04 0.000000000000e+00 5.454447150473e+02 2.337405317357e+02  2.517205726384e-04
7.500000000000e-01 -8.398066884383e+02 9.990346792139e-01 0.000000000000e+00 -7.400723979067e-05 -5.591977471846e+02 3.433784996795e-03 -8.388017457346e+02 -5.591997971677e+02 2.207674068752e-09 7.395844608481e-09 -3.011097907644e-04 0.000000000000e+00 6.523997633623e+02 2.796029736273e+02  3.011108948799e-04
8.000000000000e-01 -1.004142899494e+03 9.988457819801e-01 0.000000000000e+00 -9.053560961476e-05 -6.686081781652e+02 2.262681055982e-03 -1.002915898235e+03 -6.686096305601e+02 1.564117648455e-09 4.873466889808e-09 -3.600221344193e-04 0.000000000000e+00 7.800445689868e+02 3.343069938978e+02  3.600229165796e-04
8.500000000000e-01 -1.200196054879e+03 9.986204275161e-01 0.000000000000e+00 -1.102915180979e-04 -7.989474414320e+02 1.855484252551e-03 -1.198441644629e+03 -7.989556344243e+02 8.823222574666e-09 3.996427620879e-09 -4.302157032972e-04 0.000000000000e+00 9.321149068284e+02 3.994901067767e+02  4.302201150321e-04
9.000000000000e-01 -1.434207877468e+03 9.983514412367e-01 0.000000000000e+00 -1.338966259644e-04 -9.545488780394e+02 -7.759944505194e-04 -1.431826074300e+03 -9.545499809357e+02 1.187734503623e-09 -1.671372662657e-09 -5.139896390076e-04 0.000000000000e+00 1.113641644425e+03 4.772766448152e+02  5.139902328840e-04
9.500000000000e-01 -1.713627826095e+03 9.980302603172e-01 0.000000000000e+00 -1.620944054291e-04 -1.140148281290e+03 -1.152810320424e-03 -1.710221012152e+03 -1.140147717377e+03 -6.072915873747e-10 -2.482976074758e-09 -6.139250866806e-04 0.000000000000e+00 1.330172336940e+03 5.700730128217e+02  6.139247830501e-04
1.000000000000e+00 -2.102594212636e+03 9.975831605939e-01 0.000000000000e+00 -1.962663795208e-04 -1.398352821813e+03 -3.148341103102e-04 -2.097521167348e+03 -1.398349595664e+03 -3.474313738637e-09 -6.781042375912e-10 -7.529540002746e-04 0.000000000000e+00 1.631407861608e+03 6.991699586151e+02  7.529522631247e-04
 TITLE = "Profiles along polylines"
 VARIABLES = "DIST" "PRESSURE1" "SATURATION1" "DISPLACEMENT_X1" "DISPLACEMENT_Y1" "STRESS_XX" "STRESS_XY" "STRESS_YY" "STRESS_ZZ" "STRAIN_XX" "STRAIN_XY" "STRAIN_YY" "STRAIN_PLS"  p_(1st_Invariant)  q_(2nd_Invariant)   Effective_Strain
 ZONE T="TIME=5.000000000000e+00"
0.000000000000e+00 0.000000000000e+00 1.000000000000e+00 0.000000000000e+00 0.000000000000e+00 7.967076751748e-02 2.710672232099e-05 1.097251987107e-01 7.575838649127e-02 4.213333412847e-09 5.838370961443e-11 3.657964392860e-08 0.000000000000e+00 -8.838478423981e-02 3.218947266295e-02  3.466569656547e-08
5.000000000000e-02 -1.467862125929e+02 9.998312757161e-01 0.000000000000e+00 -1.315053007419e-06 -9.775699305958e+01 -9.954464471335e-04 -1.466361740039e+02 -9.775726682539e+01 2.948247211749e-10 -2.144038501518e-09 -5.263882311532e-05 0.000000000000e+00 1.140501446296e+02 4.887904409240e+01  5.263897065929e-05
1.000000000000e-01 -2.942333580780e+02 9.996617917190e-01 0.000000000000e+00 -5.269749355668e-06 -1.960158862037e+02 -1.566332835146e-03 -2.940276329424e+02 -1.960174076584e+02 1.638489721641e-09 -3.373639952623e-09 -1.055494733827e-04 0.000000000000e+00 2.286869756015e+02 9.801098605773e+01  1.055502927989e-04
1.500000000000e-01 -4.431185850303e+02 9.994906547105e-01 0.000000000000e+00 -1.188193386220e-05 -2.951819990753e+02 -8.981866435875e-04 -4.427632519751e+02 -2.951781004202e+02 -4.198551715533e-09 -1.934555847727e-09 -1.589378555207e-04 0.000000000000e+00 3.443744504902e+02 1.475832022742e+02  1.589357563217e-04
2.000000000000e-01 -5.942068271926e+02 9.993169854332e-01 0.000000000000e+00 -2.118356972161e-05 -3.958039279977e+02 -1.727705852385e-04 -5.937076027099e+02 -3.958046122831e+02 7.369226837367e-10 -3.721212605136e-10 -2.131262973828e-04 0.000000000000e+00 4.617720476636e+02 1.979033325707e+02  2.131266658461e-04
2.500000000000e-01 -7.482447955294e+02 9.991399255756e-01 0.000000000000e+00 -3.321983074730e-05 -4.983292065976e+02 7.738437863745e-04 -7.474838543368e+02 -4.983252243738e+02 -4.288548741282e-09 1.666740462961e-09 -2.683246784218e-04 0.000000000000e+00 5.813794284361e+02 2.491566388786e+02  2.683225341886e-04
3.000000000000e-01 -9.059549465598e+02 9.989586447057e-01 0.000000000000e+00 -4.804924441880e-05 -6.032868861843e+02 1.264104600356e-03 -9.049354621913e+02 -6.032889393503e+02 2.211101794193e-09 2.722686831537e-09 -3.248501015212e-04 0.000000000000e+00 7.038370959086e+02 3.016475494372e+02  3.248512071119e-04
3.500000000000e-01 -1.068029439825e+03 9.987723472168e-01 0.000000000000e+00 -6.574269615896e-05 -7.110836439274e+02 1.036077534844e-03 -1.066622865497e+03 -7.110826037699e+02 -1.120169554649e-09 2.231551613510e-09 -3.828895126296e-04 0.000000000000e+00 8.295963710649e+02 3.555397416545e+02  3.828889525656e-04
4.000000000000e-01 -1.235124122916e+03 9.985802792409e-01 0.000000000000e+00 -8.638319520132e-05 -8.222001496537e+02 2.866467782336e-04 -1.233309384020e+03 -8.222038134694e+02 3.945647671591e-09 6.173930608109e-10 -4.427290759773e-04 0.000000000000e+00 9.592377823809e+02 4.111074024708e+02  4.427310488156e-04
4.500000000000e-01 -1.407852615359e+03 9.983817354493e-01 0.000000000000e+00 -1.100648599228e-04 -9.369985604461e+02 -9.596747166592e-04 -1.405500739668e+03 -9.369997200456e+02 1.248799385365e-09 -2.066991697420e-09 -5.045395595931e-04 0.000000000000e+00 1.093166340053e+03 4.685015994259e+02  5.045401840067e-04
5.000000000000e-01 -1.586780603266e+03 9.981760656109e-01 0.000000000000e+00 -1.368922633004e-04 -1.055886748636e+03 -1.455580405181e-03 -1.583831956951e+03 -1.055887482235e+03 7.900297095466e-10 -3.135096257313e-09 -5.685555881562e-04 0.000000000000e+00 1.231868729274e+03 5.279448415224e+02  5.685559831974e-04
5.500000000000e-01 -1.772420505377e+03 9.979626807228e-01 0.000000000000e+00 -1.669795185119e-04 -1.179170307103e+03 -1.297717136228e-03 -1.768752378701e+03 -1.179169074322e+03 -1.327610883606e-09 -2.795083062646e-09 -6.349358662546e-04 0.000000000000e+00 1.375697253375e+03 5.895826879938e+02  6.349352024687e-04
6.000000000000e-01 -1.965226728547e+03 9.977410584644e-01 0.000000000000e+00 -2.004492495368e-04 -1.307164843765e+03 -9.010431063286e-05 -1.960738334459e+03 -1.307161271290e+03 -3.847280906459e-09 -1.940708229015e-10 -7.038522218751e-04 0.000000000000e+00 1.525021483171e+03 6.535752769395e+02  7.038502982426e-04
6.500000000000e-01 -2.165591797288e+03 9.975216376021e-01 0.000000000000e+00 -2.374318664934e-04 -1.440126452282e+03 9.147560954282e-04 -2.160189196709e+03 -1.440126259596e+03 -2.075076925161e-10 1.970243897845e-09 -7.754523938134e-04 0.000000000000e+00 1.680147302862e+03 7.200628407714e+02  7.754522900671e-04
7.000000000000e-01 -2.381844928519e+03 9.967802244787e-01 0.000000000000e+00 -2.781245692897e-04 -1.582764041466e+03 1.359477656441e-03 -2.374142386881e+03 -1.582762571339e+03 -1.583213859664e-09 2.928105721566e-09 -8.522551859684e-04 0.000000000000e+00 1.846556333228e+03 7.913790804831e+02  8.522543943777e-04
7.500000000000e-01 -2.623554792005e+03 9.959393623206e-01 0.000000000000e+00 -3.228800306367e-04 -1.741920416192e+03 8.509038975503e-04 -2.612889886882e+03 -1.741924121230e+03 3.990040481608e-09 1.832716087031e-09 -9.379631322411e-04 0.000000000000e+00 2.032244808101e+03 8.709676181784e+02  9.379651272730e-04
8.000000000000e-01 -2.892800408884e+03 9.950032047983e-01 0.000000000000e+00 -3.721602036425e-04 -1.918884461638e+03 -2.102956314819e-05 -2.878325557958e+03 -1.918884007838e+03 -4.887072307052e-10 -4.529444370380e-11 -1.033244746283e-03 0.000000000000e+00 2.238698009145e+03 9.594413232199e+02  1.033244501929e-03
8.500000000000e-01 -3.194678437851e+03 9.935748649141e-01 0.000000000000e+00 -4.264773443102e-04 -2.116096733226e+03 -5.372749647327e-04 -3.174151170244e+03 -2.116099161388e+03 2.614943893670e-09 -1.157207616347e-09 -1.139440624922e-03 0.000000000000e+00 2.468782354952e+03 1.058053222940e+03  1.139441932398e-03
9.000000000000e-01 -3.537932381545e+03 9.918286587363e-01 0.000000000000e+00 -4.864544133894e-04 -2.339343627347e+03 -7.087259340395e-04 -3.509010381794e+03 -2.339341603656e+03 -2.179359264430e-09 -1.526486627162e-09 -1.259643299533e-03 0.000000000000e+00 2.729231870932e+03 1.169667766294e+03  1.259642209857e-03
9.500000000000e-01 -3.932130466816e+03 9.894690859526e-01 0.000000000000e+00 -5.528622980405e-04 -2.593814903341e+03 -4.418983622562e-04 -3.890724817287e+03 -2.593815888251e+03 1.060672515381e-09 -9.517810879365e-10 -1.396671154346e-03 0.000000000000e+00 3.026118536293e+03 1.296909421491e+03  1.396671684684e-03
1.000000000000e+00 -4.388410622511e+03 9.862519346014e-01 0.000000000000e+00 -6.266207537610e-04 -2.885387155230e+03 -3.400274408795e-04 -4.328076957484e+03 -2.885385645086e+03 -1.626309224650e-09 -7.323667957405e-10 -1.553667567198e-03 0.000000000000e+00 3.366283252600e+03 1.442690557327e+03  1.553666754045e-03
 TITLE = "Profiles along polylines"
 VARIABLES = "DIST" "PRESSURE1" "SATURATION1" "DISPLACEMENT_X1" "DISPLACEMENT_Y1" "STRESS_XX" "STRESS_XY" "STRESS_YY" "STRESS_ZZ" "STRAIN_XX" "STRAIN_XY" "STRAIN_YY" "STRAIN_PLS"  p_(1st_Invariant)  q_(2nd_Invariant)   Effective_Strain
 ZONE T="TIME=1.000000000000e+01"
0.000000000000e+00 0.000000000000e+00 1.000000000000e+00 0.000000000000e+00 0.000000000000e+00 2.475970690561e-02 -2.657225716735e-05 3.016911214275e-02 2.197152761934e-02 3.002654615981e-09 -5.723255389891e-11 8.828167948278e-09 0.000000000000e+00 -2.563344888923e-02 7.219426475817e-03  7.775240930094e-09
5.000000000000e-02 -2.198276059111e+02 9.997473178527e-01 0.000000000000e+00 -1.971817425905e-06 -1.464896001940e+02 -1.269093085292e-03 -2.197391026908e+02 -1.464914811539e+02 2.025649130009e-09 -2.733431260628e-09 -7.888205396277e-05 0.000000000000e+00 1.709067280129e+02 7.324856206791e+01  7.888306694892e-05
1.000000000000e-01 -4.398605071817e+02 9.994943997275e-01 0.000000000000e+00 -7.889022974544e-06 -2.930678065397e+02 -1.858445636316e-03 -4.396028943213e+02 -2.930682803444e+02 5.102512026843e-10 -4.002805985911e-09 -1.578065073597e-04 0.000000000000e+00 3.419129937351e+02 1.465348509152e+02  1.578067626382e-04
1.500000000000e-01 -6.604476577990e+02 9.992408445170e-01 0.000000000000e+00 -1.775641999499e-05 -4.399417992983e+02 -1.566968324440e-03 -6.599090060178e+02 -4.399403221264e+02 -1.590800446535e-09 -3.375008698794e-09 -2.368893518830e-04 0.000000000000e+00 5.132637091475e+02 2.199679453259e+02  2.368885565589e-04
2.000000000000e-01 -8.819363401462e+02 9.989862530355e-01 0.000000000000e+00 -3.158505425176e-05 -5.873411317962e+02 -3.628336990180e-04 -8.810038925900e+02 -5.873380097545e+02 -3.362198789065e-09 -7.814879671158e-10 -3.162555661305e-04 0.000000000000e+00 6.852276780469e+02 2.936643218278e+02  3.162538850474e-04
2.500000000000e-01 -1.104671288208e+03 9.987302290266e-01 0.000000000000e+00 -4.939220383534e-05 -7.354934052638e+02 1.277074142088e-03 -1.103232009153e+03 -7.354901657669e+02 -3.488688966715e-09 2.750621229112e-09 -3.960296774932e-04 0.000000000000e+00 8.580718600614e+02 3.677402236555e+02  3.960279331889e-04
3.000000000000e-01 -1.328993931428e+03 9.984723800319e-01 0.000000000000e+00 -7.120130445266e-05 -8.846230353579e+02 2.386357863184e-03 -1.326931770133e+03 -8.846219221965e+02 -1.198789182489e-09 5.139847705320e-09 -4.763336823935e-04 0.000000000000e+00 1.032058909229e+03 4.423092913765e+02  4.763330830833e-04
3.500000000000e-01 -1.555241806904e+03 9.982123180677e-01 0.000000000000e+00 -9.704179523869e-05 -1.034952634808e+03 2.076104748660e-03 -1.552434549159e+03 -1.034954873587e+03 2.410992681775e-09 4.471610227884e-09 -5.572858044625e-04 0.000000000000e+00 1.207447352518e+03 5.174807949779e+02  5.572870100166e-04
4.000000000000e-01 -1.783748195385e+03 9.979496600422e-01 0.000000000000e+00 -1.269489579431e-04 -1.186703535285e+03 3.493935756298e-04 -1.780066261146e+03 -1.186707918573e+03 4.720463048668e-09 7.525400090488e-10 -6.390012920021e-04 0.000000000000e+00 1.384492571668e+03 5.933605342294e+02  6.390036522480e-04
4.500000000000e-01 -2.014842047376e+03 9.976920801970e-01 0.000000000000e+00 -1.609639503129e-04 -1.340102778871e+03 -1.668829001921e-03 -2.010162930727e+03 -1.340106283839e+03 3.774581133972e-09 -3.594400927213e-09 -7.215994658791e-04 0.000000000000e+00 1.563457331146e+03 6.700583993849e+02  7.216013532039e-04
5.000000000000e-01 -2.248831551634e+03 9.972656137729e-01 0.000000000000e+00 -1.991302308154e-04 -1.495097709432e+03 -2.564137815289e-03 -2.242646456503e+03 -1.495097666374e+03 -4.637028660878e-11 -5.522758371392e-09 -8.050525432157e-04 0.000000000000e+00 1.744280610770e+03 7.475487686130e+02  8.050525200874e-04
5.500000000000e-01 -2.489256034888e+03 9.964065618842e-01 0.000000000000e+00 -2.415152972460e-04 -1.653517418938e+03 -1.703145992737e-03 -2.480267738649e+03 -1.653514063035e+03 -3.614049838708e-09 -3.668314445895e-09 -8.903501121997e-04 0.000000000000e+00 1.929099740207e+03 8.267519976727e+02  8.903483052029e-04
6.000000000000e-01 -2.740431297084e+03 9.955401967337e-01 0.000000000000e+00 -2.882575445580e-04 -1.818784393449e+03 1.607909968529e-04 -2.728166456194e+03 -1.818780339857e+03 -4.365406081527e-09 3.463190701447e-10 -9.793388945170e-04 0.000000000000e+00 2.121910396500e+03 9.093840895484e+02  9.793367118215e-04
6.500000000000e-01 -3.003275067142e+03 9.944900151255e-01 0.000000000000e+00 -3.395446315838e-04 -1.991128741141e+03 1.662240228573e-03 -2.986688847998e+03 -1.991127035656e+03 -1.836676431447e-09 3.580209723080e-09 -1.072143490215e-03 0.000000000000e+00 2.322981541598e+03 9.955609596052e+02  1.072142571896e-03
7.000000000000e-01 -3.280462111144e+03 9.931704653677e-01 0.000000000000e+00 -3.955869877436e-04 -2.172017736798e+03 1.824498506089e-03 -3.258029777140e+03 -2.172019005575e+03 1.366375355850e-09 3.929689090037e-09 -1.169550061685e-03 0.000000000000e+00 2.534022173171e+03 1.086011405958e+03  1.169550744893e-03
7.500000000000e-01 -3.576405981611e+03 9.915969294602e-01 0.000000000000e+00 -4.566518441275e-04 -2.364216968085e+03 8.619536728938e-04 -3.546332276395e+03 -2.364219697792e+03 2.939684568992e-09 1.856515603156e-09 -1.273044315419e-03 0.000000000000e+00 2.758256314090e+03 1.182113943460e+03  1.273045785267e-03
8.000000000000e-01 -3.895162737367e+03 9.897092194648e-01 0.000000000000e+00 -5.230746972567e-04 -2.570039366739e+03 -3.252956607002e-04 -3.855063723526e+03 -2.570041236106e+03 2.013164402092e-09 -7.006368076620e-10 -1.383870371068e-03 0.000000000000e+00 2.998381442124e+03 1.285023422105e+03  1.383871377651e-03
8.500000000000e-01 -4.241256474829e+03 9.873509714897e-01 0.000000000000e+00 -5.952524479240e-04 -2.791731203964e+03 -9.018898116428e-04 -4.187597304301e+03 -2.791731403306e+03 2.146758503546e-10 -1.942531902000e-09 -1.503240201071e-03 0.000000000000e+00 3.257019970524e+03 1.395866000667e+03  1.503240308413e-03
9.000000000000e-01 -4.619910733896e+03 9.844315055534e-01 0.000000000000e+00 -6.736486270163e-04 -3.031987126365e+03 -7.976819818971e-04 -4.547978649196e+03 -3.031986310225e+03 -8.789205679724e-10 -1.718084268701e-09 -1.632607134277e-03 0.000000000000e+00 3.537317361929e+03 1.515991930902e+03  1.632606694820e-03
9.500000000000e-01 -5.037053941689e+03 9.808200427335e-01 0.000000000000e+00 -7.588010858897e-04 -3.293628292498e+03 -4.553067338744e-04 -4.940440975169e+03 -3.293627707067e+03 -6.304645588447e-10 -9.806606575756e-10 -1.773491211802e-03 0.000000000000e+00 3.842565658245e+03 1.646812975387e+03  1.773490896571e-03
1.000000000000e+00 -5.501186184649e+03 9.759306639983e-01 0.000000000000e+00 -8.513196881740e-04 -3.579185590019e+03 -1.118631856472e-04 -5.368777006041e+03 -3.579185038424e+03 -5.940255262739e-10 -2.409360921632e-10 -1.927252888203e-03 0.000000000000e+00 4.175715878161e+03 1.789591691819e+03  1.927252591190e-03
 TITLE = "Profiles along polylines"
 VARIABLES = "DIST" "PRESSURE1" "SATURATION1" "DISPLACEMENT_X1" "DISPLACEMENT_Y1" "STRESS_XX" "STRESS_XY" "STRESS_YY" "STRESS_ZZ" "STRAIN_XX" "STRAIN_XY" "STRAIN_YY" "STRAIN_PLS"  p_(1st_Invariant)  q_(2nd_Invariant)   Effective_Strain
 ZONE T="TIME=2.000000000000e+01"
0.000000000000e+00 0.000000000000e+00 1.000000000000e+00 0.000000000000e+00 0.000000000000e+00 5.630672205559e-03 1.361252147673e-05 1.122584108748e-02 6.742605317218e-03 -1.197466427938e-09 2.931927702679e-11 4.828100060284e-09 0.000000000000e+00 -7.866372870085e-03 5.130439788079e-03  5.525264032703e-09
5.000000000000e-02 -2.917662307980e+02 9.996646275731e-01 0.000000000000e+00 -2.617293432858e-06 -1.944378431794e+02 4.079991549755e-04 -2.916557102559e+02 -1.944374213741e+02 -4.542518487048e-10 8.787674107164e-10 -1.046966187958e-04 0.000000000000e+00 2.268436582698e+02 9.721807798239e+01  1.046963916816e-04
1.000000000000e-01 -5.835556897015e+02 9.993292284464e-01 0.000000000000e+00 -1.046810100580e-05 -3.887649138679e+02 3.844290757397e-04 -5.831486373811e+02 -3.887654204996e+02 5.456033718567e-10 8.280010862086e-10 -2.093357720262e-04 0.000000000000e+00 4.535596572496e+02 1.943834701990e+02  2.093360448334e-04
1.500000000000e-01 -8.755318201619e+02 9.989936147491e-01 0.000000000000e+00 -2.355075992220e-05 -5.830852867730e+02 -3.363618049906e-05 -8.746306460815e+02 -5.830863731418e+02 1.169935622701e-09 -7.244715799798e-11 -3.139707554735e-04 0.000000000000e+00 6.802674353321e+02 2.915448161256e+02  3.139713404430e-04
2.000000000000e-01 -1.167856837442e+03 9.986576000217e-01 0.000000000000e+00 -4.186652469657e-05 -7.775083152716e+02 -5.880572702786e-04 -1.166265008936e+03 -7.775093296831e+02 1.092443125583e-09 -1.266584889831e-09 -4.186599622725e-04 0.000000000000e+00 9.070942179636e+02 3.887561864611e+02  4.186605085009e-04
2.500000000000e-01 -1.460690920290e+03 9.983210001459e-01 0.000000000000e+00 -6.541955339868e-05 -9.721408628105e+02 -9.840466639235e-04 -1.458212389788e+03 -9.721413010395e+02 4.719388995453e-10 -2.119485122297e-09 -5.234611724986e-04 0.000000000000e+00 1.134164851213e+03 4.860713078663e+02  5.234614084811e-04
3.000000000000e-01 -1.754191352348e+03 9.979836343310e-01 0.000000000000e+00 -9.421686183055e-05 -1.167086699252e+03 -1.067169179869e-03 -1.750629583358e+03 -1.167086513044e+03 -2.005318216598e-10 -2.298518233564e-09 -6.284309987994e-04 0.000000000000e+00 1.361600931884e+03 5.835429772126e+02  6.284308985462e-04