 TITLE = "Profiles along polylines"
 VARIABLES = "DIST" "PRESSURE1" "SATURATION1" "DISPLACEMENT_X1" "DISPLACEMENT_Y1" "STRESS_XX" "STRESS_XY" "STRESS_YY" "STRESS_ZZ" "STRAIN_XX" "STRAIN_XY" "STRAIN_YY" "STRAIN_PLS"  p_(1st_Invariant)  q_(2nd_Invariant)   Effective_Strain
 ZONE T="TIME=0.000000000000e+00"
0.000000000000e+00 0.000000000000e+00 1.000000000000e+00 0.000000000000e+00 0.000000000000e+00 0.000000000000e+00 0.000000000000e+00 0.000000000000e+00 0.000000000000e+00 0.000000000000e+00 0.000000000000e+00 0.000000000000e+00 0.000000000000e+00 -0.000000000000e+00 0.000000000000e+00  0.000000000000e+00
5.000000000000e-02 0.000000000000e+00 1.000000000000e+00 0.000000000000e+00 0.000000000000e+00 0.000000000000e+00 0.000000000000e+00 0.000000000000e+00 0.000000000000e+00 0.000000000000e+00 0.000000000000e+00 0.000000000000e+00 0.000000000000e+00 -0.000000000000e+00 0.000000000000e+00  0.000000000000e+00
1.000000000000e-01 0.000000000000e+00 1.000000000000e+00 0.000000000000e+00 0.000000000000e+00 0.000000000000e+00 0.000000000000e+00 0.000000000000e+00 0.000000000000e+00 0.000000000000e+00 0.000000000000e+00 0.000000000000e+00 0.000000000000e+00 -0.000000000000e+00 0.000000000000e+00  0.000000000000e+00
1.500000000000e-01 0.000000000000e+00 1.000000000000e+00 0.000000000000e+00 0.000000000000e+00 0.000000000000e+00 0.000000000000e+00 0.000000000000e+00 0.000000000000e+00 0.000000000000e+00 0.000000000000e+00 0.000000000000e+00 0.000000000000e+00 -0.000000000000e+00 0.000000000000e+00  0.000000000000e+00
2.000000000000e-01 0.000000000000e+00 1.000000000000e+00 0.000000000000e+00 0.000000000000e+00 0.000000000000e+00 0.000000000000e+00 0.000000000000e+00 0.000000000000e+00 0.000000000000e+00 0.000000000000e+00 0.000000000000e+00 0.000000000000e+00 -0.000000000000e+00 0.000000000000e+00  0.000000000000e+00
2.500000000000e-01 0.000000000000e+00 1.000000000000e+00 0.000000000000e+00 0.000000000000e+00 0.000000000000e+00 0.000000000000e+00 0.000000000000e+00 0.000000000000e+00 0.000000000000e+00 0.000000000000e+00 0.000000000000e+00 0.000000000000e+00 -0.000000000000e+00 0.000000000000e+00  0.000000000000e+00
3.000000000000e-01 0.000000000000e+00 1.000000000000e+00 0.000000000000e+00 0.000000000000e+00 0.000000000000e+00 0.000000000000e+00 0.000000000000e+00 0.000000000000e+00 0.000000000000e+00 0.000000000000e+00 0.000000000000e+00 0.000000000000e+00 -0.000000000000e+00 0.000000000000e+00  0.000000000000e+00
3.500000000000e-01 0.000000000000e+00 1.000000000000e+00 0.000000000000e+00 0.000000000000e+00 0.000000000000e+00 0.000000000000e+00 0.000000000000e+00 0.000000000000e+00 0.000000000000e+00 0.000000000000e+00 0.000000000000e+00 0.000000000000e+00 -0.000000000000e+00 0.000000000000e+00  0.000000000000e+00
4.000000000000e-01 0.000000000000e+00 1.000000000000e+00 0.000000000000e+00 0.000000000000e+00 0.000000000000e+00 0.000000000000e+00 0.000000000000e+00 0.000000000000e+00 0.000000000000e+00 0.000000000000e+00 0.000000000000e+00 0.000000000000e+00 -0.000000000000e+00 0.000000000000e+00  0.000000000000e+00
4.500000000000e-01 0.000000000000e+00 1.000000000000e+00 0.000000000000e+00 0.000000000000e+00 0.000000000000e+00 0.000000000000e+00 0.000000000000e+00 0.000000000000e+00 0.000000000000e+00 0.000000000000e+00 0.000000000000e+00 0.000000000000e+00 -0.000000000000e+00 0.000000000000e+00  0.000000000000e+00
5.000000000000e-01 0.000000000000e+00 1.000000000000e+00 0.000000000000e+00 0.000000000000e+00 0.000000000000e+00 0.000000000000e+00 0.000000000000e+00 0.000000000000e+00 0.000000000000e+00 0.000000000000e+00 0.000000000000e+00 0.000000000000e+00 -0.000000000000e+00 0.000000000000e+00  0.000000000000e+00
5.500000000000e-01 0.000000000000e+00 1.000000000000e+00 0.000000000000e+00 0.000000000000e+00 0.000000000000e+00 0.000000000000e+00 0.000000000000e+00 0.000000000000e+00 0.000000000000e+00 0.000000000000e+00 0.000000000000e+00 0.000000000000e+00 -0.000000000000e+00 0.000000000000e+00  0.000000000000e+00
6.000000000000e-01 0.000000000000e+00 1.000000000000e+00 0.000000000000e+00 0.000000000000e+00 0.000000000000e+00 0.000000000000e+00 0.000000000000e+00 0.000000000000e+00 0.000000000000e+00 0.000000000000e+00 0.000000000000e+00 0.000000000000e+00 -0.000000000000e+00 0.000000000000e+00  0.000000000000e+00
6.500000000000e-01 0.000000000000e+00 1.000000000000e+00 0.000000000000e+00 0.000000000000e+00 0.000000000000e+00 0.000000000000e+00 0.000000000000e+00 0.000000000000e+00 0.000000000000e+00 0.000000000000e+00 0.000000000000e+00 0.000000000000e+00 -0.000000000000e+00 0.000000000000e+00  0.000000000000e+00
7.000000000000e-01 0.000000000000e+00 1.000000000000e+00 0.000000000000e+00 0.000000000000e+00 0.000000000000e+00 0.000000000000e+00 0.000000000000e+00 0.000000000000e+00 0.000000000000e+00 0.000000000000e+00 0.000000000000e+00 0.000000000000e+00 -0.000000000000e+00 0.000000000000e+00  0.000000000000e+00
7.500000000000e-01 0.000000000000e+00 1.000000000000e+00 0.000000000000e+00 0.000000000000e+00 0.000000000000e+00 0.000000000000e+00 0.000000000000e+00 0.000000000000e+00 0.000000000000e+00 0.000000000000e+00 0.000000000000e+00 0.000000000000e+00 -0.000000000000e+00 0.000000000000e+00  0.000000000000e+00
8.000000000000e-01 0.000000000000e+00 1.000000000000e+00 0.000000000000e+00 0.000000000000e+00 0.000000000000e+00 0.000000000000e+00 0.000000000000e+00 0.000000000000e+00 0.000000000000e+00 0.000000000000e+00 0.000000000000e+00 0.000000000000e+00 -0.000000000000e+00 0.000000000000e+00  0.000000000000e+00
8.500000000000e-01 0.000000000000e+00 1.000000000000e+00 0.000000000000e+00 0.000000000000e+00 0.000000000000e+00 0.000000000000e+00 0.000000000000e+00 0.000000000000e+00 0.000000000000e+00 0.000000000000e+00 0.000000000000e+00 0.000000000000e+00 -0.000000000000e+00 0.000000000000e+00  0.000000000000e+00
9.000000000000e-01 0.000000000000e+00 1.000000000000e+00 0.000000000000e+00 0.000000000000e+00 0.000000000000e+00 0.000000000000e+00 0.000000000000e+00 0.000000000000e+00 0.000000000000e+00 0.000000000000e+00 0.000000000000e+00 0.000000000000e+00 -0.000000000000e+00 0.000000000000e+00  0.000000000000e+00
9.500000000000e-01 0.000000000000e+00 1.000000000000e+00 0.000000000000e+00 0.000000000000e+00 0.000000000000e+00 0.000000000000e+00 0.000000000000e+00 0.000000000000e+00 0.000000000000e+00 0.000000000000e+00 0.000000000000e+00 0.000000000000e+00 -0.000000000000e+00 0.000000000000e+00  0.000000000000e+00
1.000000000000e+00 0.000000000000e+00 1.000000000000e+00 0.000000000000e+00 0.000000000000e+00 0.000000000000e+00 0.000000000000e+00 0.000000000000e+00 0.000000000000e+00 0.000000000000e+00 0.000000000000e+00 0.000000000000e+00 0.000000000000e+00 -0.000000000000e+00 0.000000000000e+00  0.000000000000e+00
 TITLE = "Profiles along polylines"
 VARIABLES = "DIST" "PRESSURE1" "SATURATION1" "DISPLACEMENT_X1" "DISPLACEMENT_Y1" "STRESS_XX" "STRESS_XY" "STRESS_YY" "STRESS_ZZ" "STRAIN_XX" "STRAIN_XY" "STRAIN_YY" "STRAIN_PLS"  p_(1st_Invariant)  q_(2nd_Invariant)   Effective_Strain
 ZONE T="TIME=1.000000000000e+00"
0.000000000000e+00 0.000000000000e+00 1.000000000000e+00 0.000000000000e+00 0.000000000000e+00 4.498749035641e-01 2.476384104988e-03 6.632294910266e-01 4.452417578363e-01 4.989541553008e-09 5.333750379974e-09 2.347560203588e-07 0.000000000000e+00 -5.194487174757e-01 2.157511213430e-01  2.324850670055e-07
5.000000000000e-02 -2.117101693951e+01 9.999756648488e-01 0.000000000000e+00 -1.786815357593e-07 -1.371790406236e+01 3.201940467543e-03 -2.056748463070e+01 -1.371415547722e+01 -4.036937840461e-09 6.896487160863e-09 -7.380508319127e-06 0.000000000000e+00 1.599984805676e+01 6.851457874585e+00  7.378500347418e-06
1.000000000000e-01 -4.297987881952e+01 9.999505965230e-01 0.000000000000e+00 -7.434526216506e-07 -2.823107851029e+01 -1.767918217990e-03 -4.234829681423e+01 -2.823175012981e+01 7.232825548836e-10 -3.807823854133e-09 -1.520243489091e-05 0.000000000000e+00 3.293704181811e+01 1.411688283826e+01  1.520279797570e-05
1.500000000000e-01 -6.611582826271e+01 9.999240027685e-01 0.000000000000e+00 -1.711482822203e-06 -4.370479721858e+01 2.166553257201e-04 -6.554330565313e+01 -4.369924114868e+01 -5.983459890368e-09 4.666422400124e-10 -2.352437715863e-05 0.000000000000e+00 5.098244800680e+01 2.184128700273e+01  2.352138601336e-05
2.000000000000e-01 -9.130923276556e+01 9.998950440601e-01 0.000000000000e+00 -3.113518281258e-06 -6.045993973416e+01 4.518471035527e-03 -9.070610061302e+01 -6.046641613887e+01 6.974589693421e-09 9.732091461135e-09 -3.256581404909e-05 0.000000000000e+00 7.054415216202e+01 3.024292420922e+01  3.256930626612e-05
2.500000000000e-01 -1.193546905940e+02 9.998628070420e-01 0.000000000000e+00 -4.994184801418e-06 -7.921136350560e+01 1.537332576633e-03 -1.188153809981e+02 -7.921069780149e+01 -7.169121197542e-10 3.311177857362e-09 -4.265119728868e-05 0.000000000000e+00 9.241248076841e+01 3.960435043829e+01  4.265083922274e-05
3.000000000000e-01 -1.511361697616e+02 9.998262756320e-01 0.000000000000e+00 -7.412323767513e-06 -1.003943749881e+02 -1.973051318811e-03 -1.506057278617e+02 -1.004000411399e+02 6.102009702066e-09 -4.249648994361e-09 -5.406766262350e-05 0.000000000000e+00 1.171333813299e+02 5.020852015385e+01  5.407071438759e-05
3.500000000000e-01 -1.876549852156e+02 9.997842988627e-01 0.000000000000e+00 -1.044320855629e-05 -1.247622852874e+02 -3.113649770660e-03 -1.871387989181e+02 -1.247604336822e+02 -1.994036358386e-09 -6.706322582959e-09 -6.717670102330e-05 0.000000000000e+00 1.455538392959e+02 6.237743968707e+01  6.717570503158e-05
4.000000000000e-01 -2.300615143496e+02 9.997355544259e-01 0.000000000000e+00 -1.418284850768e-05 -1.530651513745e+02 -4.404816977989e-04 -2.295858200933e+02 -1.530603885871e+02 -5.129155654730e-09 -9.487298106439e-10 -8.241200316048e-05 0.000000000000e+00 1.785704533516e+02 7.652305022743e+01  8.240943871875e-05
4.500000000000e-01 -2.796916767882e+02 9.996785067409e-01 0.000000000000e+00 -1.874849628582e-05 -1.861077219217e+02 4.035841768421e-03 -2.791496260754e+02 -1.861029391988e+02 -5.150624646448e-09 8.692582270446e-09 -1.002041243286e-04 0.000000000000e+00 2.171200957320e+02 9.304429586986e+01  1.002015502467e-04
5.000000000000e-01 -3.381093661419e+02 9.996113581809e-01 0.000000000000e+00 -2.428455406231e-05 -2.251478609668e+02 4.706614270811e-03 -3.377185810367e+02 -2.251465768014e+02 -1.382947311293e-09 1.013732304482e-08 -1.212313891765e-04 0.000000000000e+00 2.626710062683e+02 1.125713624533e+02  1.212306989803e-04
5.500000000000e-01 -4.071562258077e+02 9.995319918579e-01 0.000000000000e+00 -3.096454868284e-05 -2.710716230166e+02 8.822067109722e-04 -4.066332393907e+02 -2.710819449629e+02 1.111594216102e-08 1.900137531325e-09 -1.459783170760e-04 0.000000000000e+00 3.162622691234e+02 1.355564557042e+02  1.459838754016e-04
6.000000000000e-01 -4.890104166441e+02 9.994379040721e-01 0.000000000000e+00 -3.899882173146e-05 -3.257127837134e+02 -4.314385135252e-03 -4.885709193112e+02 -3.257134812099e+02 7.511500169030e-10 -9.292521829773e-09 -1.753849333399e-04 0.000000000000e+00 3.799990614115e+02 1.628577870222e+02  1.753853096547e-04
6.500000000000e-01 -5.862563428258e+02 9.993261241647e-01 0.000000000000e+00 -4.863919192820e-05 -3.903992536110e+02 -1.363062218915e-03 -5.856195402570e+02 -3.904075175472e+02 8.899623614316e-09 -2.935826317663e-09 -2.102283321490e-04 0.000000000000e+00 4.554754371384e+02 1.952161548234e+02  2.102327821636e-04
7.000000000000e-01 -7.019676982052e+02 9.991931190600e-01 0.000000000000e+00 -6.018889024896e-05 -4.675783835286e+02 -1.235096185723e-03 -7.013390939010e+02 -4.675669909718e+02 -1.226890726002e-08 -2.660207169249e-09 -2.517545723853e-04 0.000000000000e+00 5.454948228005e+02 2.337664068688e+02  2.517484381980e-04
7.500000000000e-01 -8.398066884383e+02 9.990346792139e-01 0.000000000000e+00 -7.401105193334e-05 -5.592495737220e+02 1.249823441458e-03 -8.388651253927e+02 -5.592458796459e+02 -3.978235828391e-09 2.691927412372e-09 -3.011284184966e-04 0.000000000000e+00 6.524535262535e+02 2.796173987354e+02  3.011264294345e-04
8.000000000000e-01 -1.004142899494e+03 9.988457819801e-01 0.000000000000e+00 -9.054090230294e-05 -6.686844816373e+02 2.214481599509e-03 -1.003010289323e+03 -6.686779083842e+02 -7.078888044064e-09 4.769652675865e-09 -3.600502563957e-04 0.000000000000e+00 7.801242264482e+02 3.343290943828e+02  3.600467170987e-04
8.500000000000e-01 -1.200196054879e+03 9.986204275161e-01 0.000000000000e+00 -1.102992789234e-04 -7.990439836931e+02 3.101331792339e-03 -1.198591296548e+03 -7.990541120963e+02 1.090751118648e-08 6.679791552730e-09 -4.302708140246e-04 0.000000000000e+00 9.322297974457e+02 3.995422487854e+02  4.302762680394e-04
9.000000000000e-01 -1.434207877468e+03 9.983514412367e-01 0.000000000000e+00 -1.339081448850e-04 -9.546758386557e+02 -8.186376457194e-04 -1.432023203341e+03 -9.546796167985e+02 4.068769232071e-09 -1.763219544626e-09 -5.140623239684e-04 0.000000000000e+00 1.113792886265e+03 4.773454756269e+02  5.140643583742e-04
9.500000000000e-01 -1.713627826095e+03 9.980302603172e-01 0.000000000000e+00 -1.621111348919e-04 -1.140331987770e+03 -4.148782392224e-03 -1.710510046978e+03 -1.140336813899e+03 5.197370311736e-09 -8.935838998636e-09 -6.140327125468e-04 0.000000000000e+00 1.330392949549e+03 5.701756462045e+02  6.140353114435e-04
1.000000000000e+00 -2.102594212636e+03 9.975831605939e-01 0.000000000000e+00 -1.962915448982e-04 -1.398984127942e+03 -3.098662348914e-03 -2.098450121432e+03 -1.398973699749e+03 -1.123036077058e-08 -6.674041982276e-09 -7.532823002736e-04 0.000000000000e+00 1.632135983041e+03 6.994712076654e+02  7.532766852447e-04
 TITLE = "Profiles along polylines"
 VARIABLES = "DIST" "PRESSURE1" "SATURATION1" "DISPLACEMENT_X1" "DISPLACEMENT_Y1" "STRESS_XX" "STRESS_XY" "STRESS_YY" "STRESS_ZZ" "STRAIN_XX" "STRAIN_XY" "STRAIN_YY" "STRAIN_PLS"  p_(1st_Invariant)  q_(2nd_Invariant)   Effective_Strain
 ZONE T="TIME=5.000000000000e+00"
0.000000000000e+00 0.000000000000e+00 1.000000000000e+00 0.000000000000e+00 0.000000000000e+00 6.348317767925e-02 -6.612793985830e-05 6.978379812291e-02 5.330679032087e-02 1.095918638596e-08 -1.424294089256e-10 1.774446994066e-08 0.000000000000e+00 -6.219125537434e-02 1.440094964192e-02  1.551018648267e-08
5.000000000000e-02 -1.467862125929e+02 9.998312757161e-01 0.000000000000e+00 -1.316162915179e-06 -9.778371291066e+01 -4.170027778034e-03 -1.466894519037e+02 -9.778926592574e+01 5.980170089062e-09 -8.981598291150e-09 -5.266173874549e-05 0.000000000000e+00 1.140874769134e+02 4.890296325533e+01  5.266473138280e-05
1.000000000000e-01 -2.942333580780e+02 9.996617917190e-01 0.000000000000e+00 -5.271807500574e-06 -1.960433198001e+02 -5.473747038935e-03 -2.940631449604e+02 -1.960425859042e+02 -7.903494378317e-10 -1.178960900694e-08 -1.055606020605e-04 0.000000000000e+00 2.287163502216e+02 9.802019256882e+01  1.055602088631e-04
1.500000000000e-01 -4.431185850303e+02 9.994906547105e-01 0.000000000000e+00 -1.188490651253e-05 -2.952258808036e+02 -3.811064491123e-03 -4.428243244729e+02 -2.952200821106e+02 -6.244746299095e-09 -8.208446596266e-09 -1.589584148517e-04 0.000000000000e+00 3.444234291290e+02 1.476013432488e+02  1.589552932064e-04
2.000000000000e-01 -5.942068271926e+02 9.993169854332e-01 0.000000000000e+00 -2.118737763070e-05 -3.958431312639e+02 -3.332083108285e-04 -5.937453947110e+02 -3.958354103900e+02 -8.314787277291e-09 -7.176794387074e-10 -2.131338292689e-04 0.000000000000e+00 4.618079787883e+02 1.979061239979e+02  2.131296720005e-04
2.500000000000e-01 -7.482447955294e+02 9.991399255756e-01 0.000000000000e+00 -3.322471074031e-05 -4.983861111908e+02 3.279166881963e-03 -7.475643482360e+02 -4.983801837707e+02 -6.383375465573e-09 7.062820976537e-09 -2.683521771165e-04 0.000000000000e+00 5.814435477325e+02 2.491812008729e+02  2.683489857645e-04
3.000000000000e-01 -9.059549465598e+02 9.989586447057e-01 0.000000000000e+00 -4.805550650634e-05 -6.033382237982e+02 5.177310266507e-03 -9.050042050724e+02 -6.033369715482e+02 -1.348576905986e-09 1.115112980478e-08 -3.248724053337e-04 0.000000000000e+00 7.038931334729e+02 3.016666075344e+02  3.248717316215e-04
3.500000000000e-01 -1.068029439825e+03 9.987723472168e-01 0.000000000000e+00 -6.575085987607e-05 -7.111519968449e+02 4.328376207560e-03 -1.066739271752e+03 -7.111565074387e+02 4.857562570188e-09 9.322656447052e-09 -3.829352846449e-04 0.000000000000e+00 8.296825920118e+02 3.555850197106e+02  3.829377137898e-04
4.000000000000e-01 -1.235124122916e+03 9.985802792409e-01 0.000000000000e+00 -8.639372117122e-05 -8.222682644008e+02 9.100550117540e-04 -1.233423256499e+03 -8.222766083600e+02 8.985802149691e-09 1.960118486855e-09 -4.427733133806e-04 0.000000000000e+00 9.593227097533e+02 4.111508201852e+02  4.427778063631e-04
4.500000000000e-01 -1.407852615359e+03 9.983817354493e-01 0.000000000000e+00 -1.100781253157e-04 -9.370871764693e+02 -3.137906177971e-03 -1.405648947924e+03 -9.370944497571e+02 7.832771523448e-09 -6.758567152552e-09 -5.045971518715e-04 0.000000000000e+00 1.093276858050e+03 4.685581348842e+02  5.046010684386e-04
5.000000000000e-01 -1.586780603266e+03 9.981760656109e-01 0.000000000000e+00 -1.369084957229e-04 -1.055987274128e+03 -5.367533631081e-03 -1.583984293461e+03 -1.055988627036e+03 1.456977296476e-09 -1.156084166694e-08 -5.686107176888e-04 0.000000000000e+00 1.231986731542e+03 5.279963429622e+02  5.686114465315e-04
5.500000000000e-01 -1.772420505377e+03 9.979626807228e-01 0.000000000000e+00 -1.669988738734e-04 -1.179294738197e+03 -4.191689272902e-03 -1.768927513009e+03 -1.179288900482e+03 -6.286769666110e-09 -9.028253818558e-09 -6.349954288747e-04 0.000000000000e+00 1.375837050563e+03 5.896356937355e+02  6.349922857057e-04
6.000000000000e-01 -1.965226728547e+03 9.977410584644e-01 0.000000000000e+00 -2.004720707744e-04 -1.307308058955e+03 -4.456429288144e-04 -1.960939997511e+03 -1.307299222586e+03 -9.516089671502e-09 -9.598463082155e-10 -7.039208345338e-04 0.000000000000e+00 1.525182426351e+03 6.536363567850e+02  7.039160765391e-04
6.500000000000e-01 -2.165591797288e+03 9.975216376021e-01 0.000000000000e+00 -2.374584815614e-04 -1.440273538651e+03 3.402825280439e-03 -2.160395481904e+03 -1.440267608222e+03 -6.386615656296e-09 7.329162142485e-09 -7.755223255038e-04 0.000000000000e+00 1.680312209592e+03 7.201249085102e+02  7.755191323196e-04
7.000000000000e-01 -2.381844928519e+03 9.967802244787e-01 0.000000000000e+00 -2.781663588142e-04 -1.583339544959e+03 4.860959864348e-03 -2.375010867438e+03 -1.583340164959e+03 6.676917524065e-10 1.046975970783e-08 -8.525684488234e-04 0.000000000000e+00 1.847230192452e+03 7.916710125236e+02  8.525687828623e-04
7.500000000000e-01 -2.623554792005e+03 9.959393623206e-01 0.000000000000e+00 -3.229415717461e-04 -1.742645995583e+03 3.431785158598e-03 -2.613982377072e+03 -1.742651349062e+03 5.765284920081e-09 7.391537264673e-09 -9.383564917029e-04 0.000000000000e+00 2.033093240572e+03 8.713337047819e+02  9.383593744460e-04
8.000000000000e-01 -2.892800408884e+03 9.950032047983e-01 0.000000000000e+00 -3.722461626369e-04 -1.919781186272e+03 5.103849021472e-04 -2.879686639458e+03 -1.919787130292e+03 6.401252222074e-09 1.099290558471e-09 -1.033737932948e-03 0.000000000000e+00 2.239751652008e+03 9.599024811902e+02  1.033741133591e-03
8.500000000000e-01 -3.194678437851e+03 9.935748649141e-01 0.000000000000e+00 -4.266042834044e-04 -2.117602933348e+03 -1.891298024355e-03 -3.176411828576e+03 -2.117605904770e+03 3.199992098017e-09 -4.073564975533e-09 -1.140252533330e-03 0.000000000000e+00 2.470540222231e+03 1.058807409525e+03  1.140254133351e-03
9.000000000000e-01 -3.537932381545e+03 9.918286587363e-01 0.000000000000e+00 -4.866364270126e-04 -2.341375061337e+03 -2.805279494291e-03 -3.512062842139e+03 -2.341375161390e+03 1.077497002710e-10 -6.042140449243e-09 -1.260740579268e-03 0.000000000000e+00 2.731604354955e+03 1.170687730785e+03  1.260740633186e-03
9.500000000000e-01 -3.932130466816e+03 9.894690859526e-01 0.000000000000e+00 -5.531263773237e-04 -2.596850674964e+03 -2.605717548225e-03 -3.895272883119e+03 -2.596849423233e+03 -1.348017404575e-09 -5.612314719253e-09 -1.398302187570e-03 0.000000000000e+00 3.029657660439e+03 1.298422834029e+03  1.398301513595e-03
1.000000000000e+00 -4.388410622511e+03 9.862519346014e-01 0.000000000000e+00 -6.270095297325e-04 -2.894729793741e+03 -1.072396638856e-03 -4.342084661878e+03 -2.894725782248e+03 -4.320070067296e-09 -2.309777375997e-09 -1.558694178063e-03 0.000000000000e+00 3.377180079289e+03 1.447356873889e+03  1.558692018038e-03
 TITLE = "Profiles along polylines"
 VARIABLES = "DIST" "PRESSURE1" "SATURATION1" "DISPLACEMENT_X1" "DISPLACEMENT_Y1" "STRESS_XX" "STRESS_XY" "STRESS_YY" "STRESS_ZZ" "STRAIN_XX" "STRAIN_XY" "STRAIN_YY" "STRAIN_PLS"  p_(1st_Invariant)  q_(2nd_Invariant)   Effective_Strain
 ZONE T="TIME=1.000000000000e+01"
0.000000000000e+00 0.000000000000e+00 1.000000000000e+00 0.000000000000e+00 0.000000000000e+00 3.840838977159e-02 -4.620159046637e-05 5.116954667463e-02 3.583117457849e-02 2.775462515654e-09 -9.951111792758e-11 1.651824687276e-08 0.000000000000e+00 -4.180303700824e-02 1.422616655563e-02  1.532121419123e-08
5.000000000000e-02 -2.198276059111e+02 9.997473178527e-01 0.000000000000e+00 -1.971945949564e-06 -1.464939268110e+02 -1.347345501066e-03 -2.197465816255e+02 -1.464962033746e+02 2.451683880065e-09 -2.901974925372e-09 -7.888502273174e-05 0.000000000000e+00 1.709122372704e+02 7.325151659641e+01  7.888624876238e-05
1.000000000000e-01 -4.398605071817e+02 9.994943997275e-01 0.000000000000e+00 -7.889777609900e-06 -2.930917737866e+02 -1.874699474624e-03 -4.396374317069e+02 -2.930916821974e+02 -9.863450011480e-11 -4.037814253035e-09 -1.578184994718e-04 0.000000000000e+00 3.419402958970e+02 1.465457037509e+02  1.578184503095e-04
1.500000000000e-01 -6.604476577990e+02 9.992408445170e-01 0.000000000000e+00 -1.775830749410e-05 -4.399833919770e+02 -1.519307257186e-03 -6.599725142606e+02 -4.399823624950e+02 -1.108672866213e-09 -3.272354092400e-09 -2.369124711322e-04 0.000000000000e+00 5.133127562442e+02 2.199896370421e+02  2.369119168655e-04
2.000000000000e-01 -8.819363401462e+02 9.989862530355e-01 0.000000000000e+00 -3.158860077407e-05 -5.874045986909e+02 -3.259201883831e-04 -8.810973217707e+02 -5.874007681847e+02 -4.125160596161e-09 -7.019819442098e-10 -3.162885961696e-04 0.000000000000e+00 6.853008962154e+02 2.936946383522e+02  3.162865336118e-04
2.500000000000e-01 -1.104671288208e+03 9.987302290266e-01 0.000000000000e+00 -4.939795013459e-05 -7.355745661729e+02 1.462307712335e-03 -1.103354574651e+03 -7.355716563296e+02 -3.133677408675e-09 3.149585841953e-09 -3.960739120385e-04 0.000000000000e+00 8.581669323845e+02 3.677814634172e+02  3.960723452467e-04
3.000000000000e-01 -1.328993931428e+03 9.984723800319e-01 0.000000000000e+00 -7.120984299342e-05 -8.847291332742e+02 2.499494210838e-03 -1.327090480637e+03 -8.847278455643e+02 -1.386764469394e-09 5.383525992575e-09 -4.763905300779e-04 0.000000000000e+00 1.032182486492e+03 4.423619912400e+02  4.763898367884e-04
3.500000000000e-01 -1.555241806904e+03 9.982123180677e-01 0.000000000000e+00 -9.705373158449e-05 -1.035078227148e+03 2.311105940843e-03 -1.552622845990e+03 -1.035080429255e+03 2.371500367640e-09 4.977766641816e-09 -5.573533718685e-04 0.000000000000e+00 1.207593834131e+03 5.175435178078e+02  5.573545576891e-04
4.000000000000e-01 -1.783748195385e+03 9.979496600422e-01 0.000000000000e+00 -1.269649807254e-04 -1.186858706859e+03 3.616001277248e-04 -1.780300526142e+03 -1.186863693201e+03 5.369906028393e-09 7.788310443304e-10 -6.390858200910e-04 0.000000000000e+00 1.384674308734e+03 5.934393261284e+02  6.390885050624e-04
4.500000000000e-01 -2.014842047376e+03 9.976920801970e-01 0.000000000000e+00 -1.609845787147e-04 -1.340267906669e+03 -1.545472666714e-03 -2.010408500527e+03 -1.340270562878e+03 2.860533337968e-09 -3.328710359077e-09 -7.216870097754e-04 0.000000000000e+00 1.563648990024e+03 6.701392657626e+02  7.216884400693e-04
5.000000000000e-01 -2.248831551634e+03 9.972656137729e-01 0.000000000000e+00 -1.991592624208e-04 -1.495403037679e+03 -2.625555399574e-03 -2.243107927036e+03 -1.495404385886e+03 1.451915272031e-09 -5.655042399083e-09 -8.052191981617e-04 0.000000000000e+00 1.744638450201e+03 7.477042152684e+02  8.052199241799e-04
5.500000000000e-01 -2.489256034888e+03 9.964065618842e-01 0.000000000000e+00 -2.415627140454e-04 -1.654215806183e+03 -1.610288517214e-03 -2.481311096965e+03 -1.654210761259e+03 -5.432995255715e-09 -3.468313729383e-09 -8.907234384521e-04 0.000000000000e+00 1.929912554803e+03 8.270978132596e+02  8.907207219871e-04
6.000000000000e-01 -2.740431297084e+03 9.955401967337e-01 0.000000000000e+00 -2.883265673822e-04 -1.819585219416e+03 8.876937028612e-05 -2.729372981851e+03 -1.819583280507e+03 -2.088056168129e-09 1.911955667701e-10 -9.797735245244e-04 0.000000000000e+00 2.122847160591e+03 9.097887318910e+02  9.797724804981e-04
6.500000000000e-01 -3.003275067142e+03 9.944900151255e-01 0.000000000000e+00 -3.396418557433e-04 -1.992168225707e+03 1.719775011831e-03 -2.988241952626e+03 -1.992164071333e+03 -4.473940923482e-09 3.704130794713e-09 -1.072699256777e-03 0.000000000000e+00 2.324191416555e+03 9.960758041169e+02  1.072697019833e-03
7.000000000000e-01 -3.280462111144e+03 9.931704653677e-01 0.000000000000e+00 -3.957227495277e-04 -2.173454582158e+03 1.857024411788e-03 -3.260191041701e+03 -2.173458249544e+03 3.949492414998e-09 3.999744886928e-09 -1.170327622324e-03 0.000000000000e+00 2.535701291134e+03 1.086734625860e+03  1.170329597095e-03
7.500000000000e-01 -3.576405981611e+03 9.915969294602e-01 0.000000000000e+00 -4.568377717326e-04 -2.366075504287e+03 9.892073387806e-04 -3.549113390614e+03 -2.366075557961e+03 5.780186945879e-11 2.130600421989e-09 -1.274040742858e-03 0.000000000000e+00 2.760421484287e+03 1.183037859491e+03  1.274040771764e-03
8.000000000000e-01 -3.895162737367e+03 9.897092194648e-01 0.000000000000e+00 -5.233262620780e-04 -2.572469214283e+03 -2.104820718974e-04 -3.858715130543e+03 -2.572473737930e+03 4.871620477967e-09 -4.533460010097e-10 -1.385183038198e-03 0.000000000000e+00 3.001219360919e+03 1.286243654443e+03  1.385185474015e-03
8.500000000000e-01 -4.241256474829e+03 9.873509714897e-01 0.000000000000e+00 -5.955927406668e-04 -2.795027590314e+03 -9.778849510899e-04 -4.192536834693e+03 -2.795025770003e+03 -1.960335588932e-09 -2.106213740809e-09 -1.505011915820e-03 0.000000000000e+00 3.260863398337e+03 1.397510154536e+03  1.505010935657e-03
9.000000000000e-01 -4.619910733896e+03 9.844315055534e-01 0.000000000000e+00 -6.741092368095e-04 -3.036436507733e+03 -9.034937423942e-04 -4.554658349900e+03 -3.036437943053e+03 1.545729344793e-09 -1.945986522080e-09 -1.635006591989e-03 0.000000000000e+00 3.542510933562e+03 1.518221124508e+03  1.635007364857e-03
9.500000000000e-01 -5.037053941689e+03 9.808200427335e-01 0.000000000000e+00 -7.594230094415e-04 -3.299571155633e+03 -7.240279325038e-04 -4.949351313727e+03 -3.299568987744e+03 -2.334649421303e-09 -1.559444777700e-09 -1.776688658751e-03 0.000000000000e+00 3.849497152368e+03 1.649781242040e+03  1.776687491430e-03
1.000000000000e+00 -5.501186184649e+03 9.759306639983e-01 0.000000000000e+00 -8.521783988188e-04 -3.596940383585e+03 -1.121348292489e-05 -5.395410562733e+03 -3.596940378527e+03 -5.446530575597e-12 -2.415211706900e-11 -1.936814044530e-03 0.000000000000e+00 4.196430441615e+03 1.798470181677e+03  1.936814041806e-03
 TITLE = "Profiles along polylines"
 VARIABLES = "DIST" "PRESSURE1" "SATURATION1" "DISPLACEMENT_X1" "DISPLACEMENT_Y1" "STRESS_XX" "STRESS_XY" "STRESS_YY" "STRESS_ZZ" "STRAIN_XX" "STRAIN_XY" "STRAIN_YY" "STRAIN_PLS"  p_(1st_Invariant)  q_(2nd_Invariant)   Effective_Strain
 ZONE T="TIME=2.000000000000e+01"
0.000000000000e+00 0.000000000000e+00 1.000000000000e+00 0.000000000000e+00 0.000000000000e+00 9.867336955619e-03 2.611651683924e-06 1.489027778320e-02 9.903045895522e-03 -3.845578143634e-11 5.625095934606e-12 5.370865109796e-09 0.000000000000e+00 -1.155355354478e-02 5.005183938254e-03  5.390204691350e-09
5.000000000000e-02 -2.917662307980e+02 9.996646275731e-01 0.000000000000e+00 -2.618132020634e-06 -1.944674130988e+02 1.769104772255e-05 -2.917010750324e+02 -1.944673952525e+02 -1.921907633839e-11 3.810379509472e-11 -1.047131936092e-04 0.000000000000e+00 2.268786277945e+02 9.723367085681e+01  1.047131839997e-04
1.000000000000e-01 -5.835556897015e+02 9.993292284464e-01 0.000000000000e+00 -1.047063798076e-05 -3.888291996011e+02 2.474387737907e-05 -5.832437907432e+02 -3.888291961377e+02 -3.729790333657e-12 5.329450512414e-11 -2.093695634213e-04 0.000000000000e+00 4.536340621607e+02 1.944145928738e+02  2.093695615564e-04
1.500000000000e-01 -8.755318201619e+02 9.989936147491e-01 0.000000000000e+00 -2.355587220829e-05 -5.831841764468e+02 2.144251533351e-05 -8.747762835846e+02 -5.831841840126e+02 8.147760695120e-12 4.618387917986e-11 -3.140222610776e-04 0.000000000000e+00 6.803815480146e+02 2.915921033549e+02  3.140222651515e-04
2.000000000000e-01 -1.167856837442e+03 9.986576000217e-01 0.000000000000e+00 -4.187511044990e-05 -7.776405900959e+02 1.021001779774e-05 -1.166460931522e+03 -7.776406086472e+02 1.997832724749e-11 2.199080756436e-11 -4.187295784807e-04 0.000000000000e+00 9.072473767551e+02 3.888203321506e+02  4.187295884698e-04
2.500000000000e-01 -1.460690920290e+03 9.983210001459e-01 0.000000000000e+00 -6.543251776316e-05 -9.723049224032e+02 -4.341996258328e-06 -1.458457438886e+03 -9.723049445157e+02 2.381335969597e-11 -9.351991941012e-12 -5.235488400910e-04 0.000000000000e+00 1.134355768602e+03 4.861525054264e+02  5.235488519977e-04
3.000000000000e-01 -1.754191352348e+03 9.979836343310e-01 0.000000000000e+00 -9.423509586235e-05 -1.167281446153e+03 -1.948933155884e-05 -1.750922228873e+03 -1.167281470011e+03 2.569234775271e-11 -4.197702181903e-11 -6.285362018519e-04 0.000000000000e+00 1.361828381679e+03 5.836407707911e+02  6.285362146981e-04