VARIABLES  = "X","Y","Z", "PRESSURE1", "SATURATION1", "DISPLACEMENT_X1", "DISPLACEMENT_Y1", "STRESS_XX", "STRESS_XY", "STRESS_YY", "STRESS_ZZ", "STRAIN_XX", "STRAIN_XY", "STRAIN_YY", "STRAIN_PLS"
ZONE T="0.000000000000e+00s", N=42, E=20, F=FEPOINT, ET=QUADRILATERAL
STRANDID=1, SOLUTIONTIME=0.000000000000e+00
0.000000000000e+00 0.000000000000e+00 0.000000000000e+00 0.000000000000e+00 1.000000000000e+00 0.000000000000e+00 0.000000000000e+00 0.000000000000e+00 0.000000000000e+00 0.000000000000e+00 0.000000000000e+00 0.000000000000e+00 0.000000000000e+00 0.000000000000e+00 0.000000000000e+00 
0.000000000000e+00 0.000000000000e+00 5.000000000000e-02 0.000000000000e+00 1.000000000000e+00 0.000000000000e+00 0.000000000000e+00 0.000000000000e+00 0.000000000000e+00 0.000000000000e+00 0.000000000000e+00 0.000000000000e+00 0.000000000000e+00 0.000000000000e+00 0.000000000000e+00 
0.000000000000e+00 0.000000000000e+00 1.000000000000e-01 0.000000000000e+00 1.000000000000e+00 0.000000000000e+00 0.000000000000e+00 0.000000000000e+00 0.000000000000e+00 0.000000000000e+00 0.000000000000e+00 0.000000000000e+00 0.000000000000e+00 0.000000000000e+00 0.000000000000e+00 
0.000000000000e+00 0.000000000000e+00 1.500000000000e-01 0.000000000000e+00 1.000000000000e+00 0.000000000000e+00 0.000000000000e+00 0.000000000000e+00 0.000000000000e+00 0.000000000000e+00 0.000000000000e+00 0.000000000000e+00 0.000000000000e+00 0.000000000000e+00 0.000000000000e+00 
0.000000000000e+00 0.000000000000e+00 2.000000000000e-01 0.000000000000e+00 1.000000000000e+00 0.000000000000e+00 0.000000000000e+00 0.000000000000e+00 0.000000000000e+00 0.000000000000e+00 0.000000000000e+00 0.000000000000e+00 0.000000000000e+00 0.000000000000e+00 0.000000000000e+00 
0.000000000000e+00 0.000000000000e+00 2.500000000000e-01 0.000000000000e+00 1.000000000000e+00 0.000000000000e+00 0.000000000000e+00 0.000000000000e+00 0.000000000000e+00 0.000000000000e+00 0.000000000000e+00 0.000000000000e+00 0.000000000000e+00 0.000000000000e+00 0.000000000000e+00 
0.000000000000e+00 0.000000000000e+00 3.000000000000e-01 0.000000000000e+00 1.000000000000e+00 0.000000000000e+00 0.000000000000e+00 0.000000000000e+00 0.000000000000e+00 0.000000000000e+00 0.000000000000e+00 0.000000000000e+00 0.000000000000e+00 0.000000000000e+00 0.000000000000e+00 
0.000000000000e+00 0.000000000000e+00 3.500000000000e-01 0.000000000000e+00 1.000000000000e+00 0.000000000000e+00 0.000000000000e+00 0.000000000000e+00 0.000000000000e+00 0.000000000000e+00 0.000000000000e+00 0.000000000000e+00 0.000000000000e+00 0.000000000000e+00 0.000000000000e+00 
0.000000000000e+00 0.000000000000e+00 4.000000000000e-01 0.000000000000e+00 1.000000000000e+00 0.000000000000e+00 0.000000000000e+00 0.000000000000e+00 0.000000000000e+00 0.000000000000e+00 0.000000000000e+00 0.000000000000e+00 0.000000000000e+00 0.000000000000e+00 0.000000000000e+00 
0.000000000000e+00 0.000000000000e+00 4.500000000000e-01 0.000000000000e+00 1.000000000000e+00 0.000000000000e+00 0.000000000000e+00 0.000000000000e+00 0.000000000000e+00 0.000000000000e+00 0.000000000000e+00 0.000000000000e+00 0.000000000000e+00 0.000000000000e+00 0.000000000000e+00 
0.000000000000e+00 0.000000000000e+00 5.000000000000e-01 0.000000000000e+00 1.000000000000e+00 0.000000000000e+00 0.000000000000e+00 0.000000000000e+00 0.000000000000e+00 0.000000000000e+00 0.000000000000e+00 0.000000000000e+00 0.000000000000e+00 0.000000000000e+00 0.000000000000e+00 
0.000000000000e+00 0.000000000000e+00 5.500000000000e-01 0.000000000000e+00 1.000000000000e+00 0.000000000000e+00 0.000000000000e+00 0.000000000000e+00 0.000000000000e+00 0.000000000000e+00 0.000000000000e+00 0.000000000000e+00 0.000000000000e+00 0.000000000000e+00 0.000000000000e+00 
0.000000000000e+00 0.000000000000e+00 6.000000000000e-01 0.000000000000e+00 1.000000000000e+00 0.000000000000e+00 0.000000000000e+00 0.000000000000e+00 0.000000000000e+00 0.000000000000e+00 0.000000000000e+00 0.000000000000e+00 0.000000000000e+00 0.000000000000e+00 0.000000000000e+00 
0.000000000000e+00 0.000000000000e+00 6.500000000000e-01 0.000000000000e+00 1.000000000000e+00 0.000000000000e+00 0.000000000000e+00 0.000000000000e+00 0.000000000000e+00 0.000000000000e+00 0.000000000000e+00 0.000000000000e+00 0.000000000000e+00 0.000000000000e+00 0.000000000000e+00 
0.000000000000e+00 0.000000000000e+00 7.000000000000e-01 0.000000000000e+00 1.000000000000e+00 0.000000000000e+00 0.000000000000e+00 0.000000000000e+00 0.000000000000e+00 0.000000000000e+00 0.000000000000e+00 0.000000000000e+00 0.000000000000e+00 0.000000000000e+00 0.000000000000e+00 
0.000000000000e+00 0.000000000000e+00 7.500000000000e-01 0.000000000000e+00 1.000000000000e+00 0.000000000000e+00 0.000000000000e+00 0.000000000000e+00 0.000000000000e+00 0.000000000000e+00 0.000000000000e+00 0.000000000000e+00 0.000000000000e+00 0.000000000000e+00 0.000000000000e+00 
0.000000000000e+00 0.000000000000e+00 8.000000000000e-01 0.000000000000e+00 1.000000000000e+00 0.000000000000e+00 0.000000000000e+00 0.000000000000e+00 0.000000000000e+00 0.000000000000e+00 0.000000000000e+00 0.000000000000e+00 0.000000000000e+00 0.000000000000e+00 0.000000000000e+00 
0.000000000000e+00 0.000000000000e+00 8.500000000000e-01 0.000000000000e+00 1.000000000000e+00 0.000000000000e+00 0.000000000000e+00 0.000000000000e+00 0.000000000000e+00 0.000000000000e+00 0.000000000000e+00 0.000000000000e+00 0.000000000000e+00 0.000000000000e+00 0.000000000000e+00 
0.000000000000e+00 0.000000000000e+00 9.000000000000e-01 0.000000000000e+00 1.000000000000e+00 0.000000000000e+00 0.000000000000e+00 0.000000000000e+00 0.000000000000e+00 0.000000000000e+00 0.000000000000e+00 0.000000000000e+00 0.000000000000e+00 0.000000000000e+00 0.000000000000e+00 
0.000000000000e+00 0.000000000000e+00 9.500000000000e-01 0.000000000000e+00 1.000000000000e+00 0.000000000000e+00 0.000000000000e+00 0.000000000000e+00 0.000000000000e+00 0.000000000000e+00 0.000000000000e+00 0.000000000000e+00 0.000000000000e+00 0.000000000000e+00 0.000000000000e+00 
0.000000000000e+00 0.000000000000e+00 1.000000000000e+00 0.000000000000e+00 1.000000000000e+00 0.000000000000e+00 0.000000000000e+00 0.000000000000e+00 0.000000000000e+00 0.000000000000e+00 0.000000000000e+00 0.000000000000e+00 0.000000000000e+00 0.000000000000e+00 0.000000000000e+00 
1.000000000000e-01 0.000000000000e+00 0.000000000000e+00 0.000000000000e+00 1.000000000000e+00 0.000000000000e+00 0.000000000000e+00 0.000000000000e+00 0.000000000000e+00 0.000000000000e+00 0.000000000000e+00 0.000000000000e+00 0.000000000000e+00 0.000000000000e+00 0.000000000000e+00 
1.000000000000e-01 0.000000000000e+00 5.000000000000e-02 0.000000000000e+00 1.000000000000e+00 0.000000000000e+00 0.000000000000e+00 0.000000000000e+00 0.000000000000e+00 0.000000000000e+00 0.000000000000e+00 0.000000000000e+00 0.000000000000e+00 0.000000000000e+00 0.000000000000e+00 
1.000000000000e-01 0.000000000000e+00 1.000000000000e-01 0.000000000000e+00 1.000000000000e+00 0.000000000000e+00 0.000000000000e+00 0.000000000000e+00 0.000000000000e+00 0.000000000000e+00 0.000000000000e+00 0.000000000000e+00 0.000000000000e+00 0.000000000000e+00 0.000000000000e+00 
1.000000000000e-01 0.000000000000e+00 1.500000000000e-01 0.000000000000e+00 1.000000000000e+00 0.000000000000e+00 0.000000000000e+00 0.000000000000e+00 0.000000000000e+00 0.000000000000e+00 0.000000000000e+00 0.000000000000e+00 0.000000000000e+00 0.000000000000e+00 0.000000000000e+00 
1.000000000000e-01 0.000000000000e+00 2.000000000000e-01 0.000000000000e+00 1.000000000000e+00 0.000000000000e+00 0.000000000000e+00 0.000000000000e+00 0.000000000000e+00 0.000000000000e+00 0.000000000000e+00 0.000000000000e+00 0.000000000000e+00 0.000000000000e+00 0.000000000000e+00 
1.000000000000e-01 0.000000000000e+00 2.500000000000e-01 0.000000000000e+00 1.000000000000e+00 0.000000000000e+00 0.000000000000e+00 0.000000000000e+00 0.000000000000e+00 0.000000000000e+00 0.000000000000e+00 0.000000000000e+00 0.000000000000e+00 0.000000000000e+00 0.000000000000e+00 
1.000000000000e-01 0.000000000000e+00 3.000000000000e-01 0.000000000000e+00 1.000000000000e+00 0.000000000000e+00 0.000000000000e+00 0.000000000000e+00 0.000000000000e+00 0.000000000000e+00 0.000000000000e+00 0.000000000000e+00 0.000000000000e+00 0.000000000000e+00 0.000000000000e+00 
1.000000000000e-01 0.000000000000e+00 3.500000000000e-01 0.000000000000e+00 1.000000000000e+00 0.000000000000e+00 0.000000000000e+00 0.000000000000e+00 0.000000000000e+00 0.000000000000e+00 0.000000000000e+00 0.000000000000e+00 0.000000000000e+00 0.000000000000e+00 0.000000000000e+00 
1.000000000000e-01 0.000000000000e+00 4.000000000000e-01 0.000000000000e+00 1.000000000000e+00 0.000000000000e+00 0.000000000000e+00 0.000000000000e+00 0.000000000000e+00 0.000000000000e+00 0.000000000000e+00 0.000000000000e+00 0.000000000000e+00 0.000000000000e+00 0.000000000000e+00 
1.000000000000e-01 0.000000000000e+00 4.500000000000e-01 0.000000000000e+00 1.000000000000e+00 0.000000000000e+00 0.000000000000e+00 0.000000000000e+00 0.000000000000e+00 0.000000000000e+00 0.000000000000e+00 0.000000000000e+00 0.000000000000e+00 0.000000000000e+00 0.000000000000e+00 
1.000000000000e-01 0.000000000000e+00 5.000000000000e-01 0.000000000000e+00 1.000000000000e+00 0.000000000000e+00 0.000000000000e+00 0.000000000000e+00 0.000000000000e+00 0.000000000000e+00 0.000000000000e+00 0.000000000000e+00 0.000000000000e+00 0.000000000000e+00 0.000000000000e+00 
1.000000000000e-01 0.000000000000e+00 5.500000000000e-01 0.000000000000e+00 1.000000000000e+00 0.000000000000e+00 0.000000000000e+00 0.000000000000e+00 0.000000000000e+00 0.000000000000e+00 0.000000000000e+00 0.000000000000e+00 0.000000000000e+00 0.000000000000e+00 0.000000000000e+00 
1.000000000000e-01 0.000000000000e+00 6.000000000000e-01 0.000000000000e+00 1.000000000000e+00 0.000000000000e+00 0.000000000000e+00 0.000000000000e+00 0.000000000000e+00 0.000000000000e+00 0.000000000000e+00 0.000000000000e+00 0.000000000000e+00 0.000000000000e+00 0.000000000000e+00 
1.000000000000e-01 0.000000000000e+00 6.500000000000e-01 0.000000000000e+00 1.000000000000e+00 0.000000000000e+00 0.000000000000e+00 0.000000000000e+00 0.000000000000e+00 0.000000000000e+00 0.000000000000e+00 0.000000000000e+00 0.000000000000e+00 0.000000000000e+00 0.000000000000e+00 
1.000000000000e-01 0.000000000000e+00 7.000000000000e-01 0.000000000000e+00 1.000000000000e+00 0.000000000000e+00 0.000000000000e+00 0.000000000000e+00 0.000000000000e+00 0.000000000000e+00 0.000000000000e+00 0.000000000000e+00 0.000000000000e+00 0.000000000000e+00 0.000000000000e+00 
1.000000000000e-01 0.000000000000e+00 7.500000000000e-01 0.000000000000e+00 1.000000000000e+00 0.000000000000e+00 0.000000000000e+00 0.000000000000e+00 0.000000000000e+00 0.000000000000e+00 0.000000000000e+00 0.000000000000e+00 0.000000000000e+00 0.000000000000e+00 0.000000000000e+00 
1.000000000000e-01 0.000000000000e+00 8.000000000000e-01 0.000000000000e+00 1.000000000000e+00 0.000000000000e+00 0.000000000000e+00 0.000000000000e+00 0.000000000000e+00 0.000000000000e+00 0.000000000000e+00 0.000000000000e+00 0.000000000000e+00 0.000000000000e+00 0.000000000000e+00 
1.000000000000e-01 0.000000000000e+00 8.500000000000e-01 0.000000000000e+00 1.000000000000e+00 0.000000000000e+00 0.000000000000e+00 0.000000000000e+00 0.000000000000e+00 0.000000000000e+00 0.000000000000e+00 0.000000000000e+00 0.000000000000e+00 0.000000000000e+00 0.000000000000e+00 
1.000000000000e-01 0.000000000000e+00 9.000000000000e-01 0.000000000000e+00 1.000000000000e+00 0.000000000000e+00 0.000000000000e+00 0.000000000000e+00 0.000000000000e+00 0.000000000000e+00 0.000000000000e+00 0.000000000000e+00 0.000000000000e+00 0.000000000000e+00 0.000000000000e+00 
1.000000000000e-01 0.000000000000e+00 9.500000000000e-01 0.000000000000e+00 1.000000000000e+00 0.000000000000e+00 0.000000000000e+00 0.000000000000e+00 0.000000000000e+00 0.000000000000e+00 0.000000000000e+00 0.000000000000e+00 0.000000000000e+00 0.000000000000e+00 0.000000000000e+00 
1.000000000000e-01 0.000000000000e+00 1.000000000000e+00 0.000000000000e+00 1.000000000000e+00 0.000000000000e+00 0.000000000000e+00 0.000000000000e+00 0.000000000000e+00 0.000000000000e+00 0.000000000000e+00 0.000000000000e+00 0.000000000000e+00 0.000000000000e+00 0.000000000000e+00 
1  22  23  2  
2  23  24  3  
3  24  25  4  
4  25  26  5  
5  26  27  6  
6  27  28  7  
7  28  29  8  
8  29  30  9  
9  30  31  10  
10  31  32  11  
11  32  33  12  
12  33  34  13  
13  34  35  14  
14  35  36  15  
15  36  37  16  
16  37  38  17  
17  38  39  18  
18  39  40  19  
19  40  41  20  
20  41  42  21  
VARIABLES  = "X","Y","Z", "PRESSURE1", "SATURATION1", "DISPLACEMENT_X1", "DISPLACEMENT_Y1", "STRESS_XX", "STRESS_XY", "STRESS_YY", "STRESS_ZZ", "STRAIN_XX", "STRAIN_XY", "STRAIN_YY", "STRAIN_PLS"
ZONE T="1.000000000000e+00s", N=42, E=20, F=FEPOINT, ET=QUADRILATERAL
STRANDID=1, SOLUTIONTIME=1.000000000000e+00
0.000000000000e+00 0.000000000000e+00 0.000000000000e+00 0.000000000000e+00 1.000000000000e+00 0.000000000000e+00 0.000000000000e+00 4.287702273344e-01 -4.601952387840e-04 6.328412147670e-01 4.246445768406e-01 4.443008224133e-09 -9.911897450733e-10 2.242117639208e-07 0.000000000000e+00 
0.000000000000e+00 0.000000000000e+00 5.000000000000e-02 -2.117101693951e+01 9.999756648488e-01 0.000000000000e+00 -1.786465863955e-07 -1.368962621478e+01 1.627050617332e-04 -2.052997378114e+01 -1.368783999837e+01 -1.923617674911e-09 3.504416714253e-10 -7.368451766061e-06 0.000000000000e+00 
0.000000000000e+00 0.000000000000e+00 1.000000000000e-01 -4.297987881952e+01 9.999505965230e-01 0.000000000000e+00 -7.432895019067e-07 -2.825911295706e+01 3.765830065412e-03 -4.238965861104e+01 -2.825950862724e+01 4.261063471228e-10 8.111018602426e-09 -1.521708459794e-05 0.000000000000e+00 
0.000000000000e+00 0.000000000000e+00 1.500000000000e-01 -6.611582826271e+01 9.999240027685e-01 0.000000000000e+00 -1.711534009149e-06 -4.365068842215e+01 4.381996729531e-03 -6.548530944064e+01 -4.365439914512e+01 3.996163192420e-09 9.438146802068e-09 -2.351021108749e-05 0.000000000000e+00 
0.000000000000e+00 0.000000000000e+00 2.000000000000e-01 -9.130923276556e+01 9.998950440601e-01 0.000000000000e+00 -3.114374643178e-06 -6.051097605512e+01 6.668823879994e-03 -9.079828486548e+01 -6.052370436824e+01 1.370741412577e-08 1.436362066460e-08 -3.260339438164e-05 0.000000000000e+00 
0.000000000000e+00 0.000000000000e+00 2.500000000000e-01 -1.193546905940e+02 9.998628070420e-01 0.000000000000e+00 -4.995174588441e-06 -7.916486764006e+01 9.845207476738e-03 -1.187568483811e+02 -7.916868640845e+01 4.112519809013e-09 2.120506225759e-08 -4.263340520128e-05 0.000000000000e+00 
0.000000000000e+00 0.000000000000e+00 3.000000000000e-01 -1.511361697616e+02 9.998262756320e-01 0.000000000000e+00 -7.412958740988e-06 -1.004521011755e+02 1.066274983586e-02 -1.506597650766e+02 -1.004447465009e+02 -7.920418852397e-09 2.296592272340e-08 -5.407771231238e-05 0.000000000000e+00 
0.000000000000e+00 0.000000000000e+00 3.500000000000e-01 -1.876549852156e+02 9.997842988627e-01 0.000000000000e+00 -1.044310665961e-05 -1.247052102646e+02 2.998330980038e-03 -1.870240621138e+02 -1.246917089514e+02 -1.453987577658e-08 6.457943649314e-09 -6.712714955957e-05 0.000000000000e+00 
0.000000000000e+00 0.000000000000e+00 4.000000000000e-01 -2.300615143496e+02 9.997355544259e-01 0.000000000000e+00 -1.418257510505e-05 -1.531154208417e+02 7.836665195787e-04 -2.296720440893e+02 -1.531149859724e+02 -4.683207740557e-10 1.687897119093e-09 -8.244606258744e-05 0.000000000000e+00 
0.000000000000e+00 0.000000000000e+00 4.500000000000e-01 -2.796916767882e+02 9.996785067409e-01 0.000000000000e+00 -1.874851392225e-05 -1.860684360899e+02 -3.128414456221e-04 -2.791095685240e+02 -1.860712018455e+02 2.978506104362e-09 -6.738123444167e-10 -1.001951641152e-04 0.000000000000e+00 
0.000000000000e+00 0.000000000000e+00 5.000000000000e-01 -3.381093661419e+02 9.996113581809e-01 0.000000000000e+00 -2.428494124264e-05 -2.251710174834e+02 3.721308615615e-03 -3.377716259812e+02 -2.251770573858e+02 6.504510333942e-09 8.015126249017e-09 -1.212556892566e-04 0.000000000000e+00 
0.000000000000e+00 0.000000000000e+00 5.500000000000e-01 -4.071562258077e+02 9.995319918579e-01 0.000000000000e+00 -3.096427649002e-05 -2.710403035200e+02 -4.073337572410e-05 -4.065312821840e+02 -2.710286342816e+02 -1.256687215273e-08 -8.773342463652e-11 -1.459259285103e-04 0.000000000000e+00 
0.000000000000e+00 0.000000000000e+00 6.000000000000e-01 -4.890104166441e+02 9.994379040721e-01 0.000000000000e+00 -3.899768369185e-05 -3.257410067384e+02 7.675789359393e-04 -4.886154186749e+02 -3.257425701653e+02 1.683690543460e-09 1.653246938946e-09 -1.754015291642e-04 0.000000000000e+00 
0.000000000000e+00 0.000000000000e+00 6.500000000000e-01 -5.862563428258e+02 9.993261241647e-01 0.000000000000e+00 -4.863729705667e-05 -3.903664774036e+02 -6.346715026750e-04 -5.855411095387e+02 -3.903630347769e+02 -3.707444084915e-09 -1.366984774992e-09 -2.101917728204e-04 0.000000000000e+00 
0.000000000000e+00 0.000000000000e+00 7.000000000000e-01 -7.019676982052e+02 9.991931190600e-01 0.000000000000e+00 -6.018679393742e-05 -4.675434777108e+02 3.276761275528e-03 -7.013510321132e+02 -4.675578039296e+02 1.542823561510e-08 7.057639670368e-09 -2.517773226592e-04 0.000000000000e+00 
0.000000000000e+00 0.000000000000e+00 7.500000000000e-01 -8.398066884383e+02 9.990346792139e-01 0.000000000000e+00 -7.400828954807e-05 -5.591834339418e+02 5.511718138088e-03 -8.387700259550e+02 -5.591813839587e+02 -2.207674068752e-09 1.187139291281e-08 -3.010954606114e-04 0.000000000000e+00 
0.000000000000e+00 0.000000000000e+00 8.000000000000e-01 -1.004142899494e+03 9.988457819801e-01 0.000000000000e+00 -9.053648962054e-05 -6.686224693406e+02 4.484881705859e-03 -1.002930073024e+03 -6.686210169457e+02 -1.564117648455e-09 9.659745212619e-09 -3.600251373146e-04 0.000000000000e+00 
0.000000000000e+00 0.000000000000e+00 8.500000000000e-01 -1.200196054879e+03 9.986204275161e-01 0.000000000000e+00 -1.102917163682e-04 -7.989506527422e+02 1.335781848494e-03 -1.198405496632e+03 -7.989424597499e+02 -8.823222574666e-09 2.877068596756e-09 -4.301909627966e-04 0.000000000000e+00 
0.000000000000e+00 0.000000000000e+00 9.000000000000e-01 -1.434207877468e+03 9.983514412367e-01 0.000000000000e+00 -1.338963610714e-04 -9.545511725044e+02 -1.193409899726e-03 -1.431824001516e+03 -9.545500696081e+02 -1.187734503623e-09 -2.570421322487e-09 -5.139873112853e-04 0.000000000000e+00 
0.000000000000e+00 0.000000000000e+00 9.500000000000e-01 -1.713627826095e+03 9.980302603172e-01 0.000000000000e+00 -1.620940826786e-04 -1.140145646336e+03 -1.988158360885e-03 -1.710219879287e+03 -1.140146210249e+03 6.072915873747e-10 -4.282187238828e-09 -6.139254897335e-04 0.000000000000e+00 
0.000000000000e+00 0.000000000000e+00 1.000000000000e+00 -2.102594212636e+03 9.975831605939e-01 0.000000000000e+00 -1.962661816400e-04 -1.398346811925e+03 -8.474185202158e-04 -2.097528283258e+03 -1.398350038073e+03 3.474313738637e-09 -1.825209120465e-09 -7.529611871223e-04 0.000000000000e+00 
1.000000000000e-01 0.000000000000e+00 0.000000000000e+00 0.000000000000e+00 1.000000000000e+00 0.000000000000e+00 0.000000000000e+00 4.298562623104e-01 5.037536546123e-04 6.550985197002e-01 4.339819128042e-01 -4.443008224133e-09 1.085007871473e-09 2.381255766572e-07 0.000000000000e+00 
1.000000000000e-01 0.000000000000e+00 5.000000000000e-02 -2.117101693951e+01 9.999756648488e-01 0.000000000000e+00 -1.784465574263e-07 -1.369059873881e+01 2.458730690619e-04 -2.054036364925e+01 -1.369238495522e+01 1.923617674911e-09 5.295727641333e-10 -7.374746285873e-06 0.000000000000e+00 
1.000000000000e-01 0.000000000000e+00 1.000000000000e-01 -4.297987881952e+01 9.999505965230e-01 0.000000000000e+00 -7.432180796990e-07 -2.825230701497e+01 -1.724573389028e-03 -4.237747134701e+01 -2.825191134480e+01 -4.261063471228e-10 -3.714465760984e-09 -1.521214154085e-05 0.000000000000e+00 
1.000000000000e-01 0.000000000000e+00 1.500000000000e-01 -6.611582826271e+01 9.999240027685e-01 0.000000000000e+00 -1.711186288766e-06 -4.366809748065e+01 7.639425615194e-04 -6.549286941356e+01 -4.366438675768e+01 -3.996163192420e-09 1.645414747888e-09 -2.350759670633e-05 0.000000000000e+00 
1.000000000000e-01 0.000000000000e+00 2.000000000000e-01 -9.130923276556e+01 9.998950440601e-01 0.000000000000e+00 -3.113004730762e-06 -6.052076826245e+01 5.241574369730e-03 -9.074933161088e+01 -6.050803994933e+01 -1.370741412577e-08 1.128954479634e-08 -3.256754486628e-05 0.000000000000e+00 
1.000000000000e-01 0.000000000000e+00 2.500000000000e-01 -1.193546905940e+02 9.998628070420e-01 0.000000000000e+00 -4.992815645498e-06 -7.916517322372e+01 1.013216857699e-02 -1.187382129146e+02 -7.916135445532e+01 -4.112519809013e-09 2.182313231968e-08 -4.262123218690e-05 0.000000000000e+00 
1.000000000000e-01 0.000000000000e+00 3.000000000000e-01 -1.511361697616e+02 9.998262756320e-01 0.000000000000e+00 -7.410849147266e-06 -1.004396992468e+02 8.286700788694e-03 -1.506779355569e+02 -1.004470539215e+02 7.920418852397e-09 1.784827862180e-08 -5.409479560734e-05 0.000000000000e+00 
1.000000000000e-01 0.000000000000e+00 3.500000000000e-01 -1.876549852156e+02 9.997842988627e-01 0.000000000000e+00 -1.044228189603e-05 -1.247017098386e+02 5.557233410826e-03 -1.870863180410e+02 -1.247152111518e+02 1.453987577658e-08 1.196942580793e-08 -6.716888434215e-05 0.000000000000e+00 
1.000000000000e-01 0.000000000000e+00 4.000000000000e-01 -2.300615143496e+02 9.997355544259e-01 0.000000000000e+00 -1.418257852533e-05 -1.531059599971e+02 7.013764878437e-04 -2.296600271689e+02 -1.531063948664e+02 4.683207740557e-10 1.510657050740e-09 -8.244237324885e-05 0.000000000000e+00 
1.000000000000e-01 0.000000000000e+00 4.500000000000e-01 -2.796916767882e+02 9.996785067409e-01 0.000000000000e+00 -1.874832209711e-05 -1.860777395942e+02 2.633603205447e-03 -2.791096950021e+02 -1.860749738385e+02 -2.978506104362e-09 5.672376134809e-09 -1.001912381762e-04 0.000000000000e+00 
1.000000000000e-01 0.000000000000e+00 5.000000000000e-01 -3.381093661419e+02 9.996113581809e-01 0.000000000000e+00 -2.428408580075e-05 -2.251625822372e+02 2.823687801613e-03 -3.377287735997e+02 -2.251565423348e+02 -6.504510333942e-09 6.081789111167e-09 -1.212316336699e-04 0.000000000000e+00 
1.000000000000e-01 0.000000000000e+00 5.500000000000e-01 -4.071562258077e+02 9.995319918579e-01 0.000000000000e+00 -3.096392262069e-05 -2.710510614251e+02 2.425364756596e-03 -4.066057652337e+02 -2.710627306635e+02 1.256687215273e-08 5.223862552669e-09 -1.459694218448e-04 0.000000000000e+00 
1.000000000000e-01 0.000000000000e+00 6.000000000000e-01 -4.890104166441e+02 9.994379040721e-01 0.000000000000e+00 -3.899789552504e-05 -3.257166425933e+02 -2.144242777663e-03 -4.885710553226e+02 -3.257150791664e+02 -1.683690543460e-09 -4.618369059581e-09 -1.753833589375e-04 0.000000000000e+00 
1.000000000000e-01 0.000000000000e+00 6.500000000000e-01 -5.862563428258e+02 9.993261241647e-01 0.000000000000e+00 -4.863770974573e-05 -3.903873601782e+02 -7.801169779673e-04 -5.855896468339e+02 -3.903908028048e+02 3.707444084915e-09 -1.680251952545e-09 -2.102141397236e-04 0.000000000000e+00 
1.000000000000e-01 0.000000000000e+00 7.000000000000e-01 -7.019676982052e+02 9.991931190600e-01 0.000000000000e+00 -6.018631950398e-05 -4.675383676879e+02 -3.650253708359e-05 -7.012717359849e+02 -4.675240414691e+02 -1.542823561510e-08 -7.862084910312e-11 -2.517282864016e-04 0.000000000000e+00 
1.000000000000e-01 0.000000000000e+00 7.500000000000e-01 -8.398066884383e+02 9.990346792139e-01 0.000000000000e+00 -7.400723979067e-05 -5.591977471846e+02 3.433784996795e-03 -8.388017457346e+02 -5.591997971677e+02 2.207674068752e-09 7.395844608481e-09 -3.011097907644e-04 0.000000000000e+00 
1.000000000000e-01 0.000000000000e+00 8.000000000000e-01 -1.004142899494e+03 9.988457819801e-01 0.000000000000e+00 -9.053560961476e-05 -6.686081781652e+02 2.262681055982e-03 -1.002915898235e+03 -6.686096305601e+02 1.564117648455e-09 4.873466889808e-09 -3.600221344193e-04 0.000000000000e+00 
1.000000000000e-01 0.000000000000e+00 8.500000000000e-01 -1.200196054879e+03 9.986204275161e-01 0.000000000000e+00 -1.102915180979e-04 -7.989474414320e+02 1.855484252551e-03 -1.198441644629e+03 -7.989556344243e+02 8.823222574666e-09 3.996427620879e-09 -4.302157032972e-04 0.000000000000e+00 
1.000000000000e-01 0.000000000000e+00 9.000000000000e-01 -1.434207877468e+03 9.983514412367e-01 0.000000000000e+00 -1.338966259644e-04 -9.545488780394e+02 -7.759944505194e-04 -1.431826074300e+03 -9.545499809357e+02 1.187734503623e-09 -1.671372662657e-09 -5.139896390076e-04 0.000000000000e+00 
1.000000000000e-01 0.000000000000e+00 9.500000000000e-01 -1.713627826095e+03 9.980302603172e-01 0.000000000000e+00 -1.620944054291e-04 -1.140148281290e+03 -1.152810320424e-03 -1.710221012152e+03 -1.140147717377e+03 -6.072915873747e-10 -2.482976074758e-09 -6.139250866806e-04 0.000000000000e+00 
1.000000000000e-01 0.000000000000e+00 1.000000000000e+00 -2.102594212636e+03 9.975831605939e-01 0.000000000000e+00 -1.962663795208e-04 -1.398352821813e+03 -3.148341103102e-04 -2.097521167348e+03 -1.398349595664e+03 -3.474313738637e-09 -6.781042375912e-10 -7.529540002746e-04 0.000000000000e+00 
1  22  23  2  
2  23  24  3  
3  24  25  4  
4  25  26  5  
5  26  27  6  
6  27  28  7  
7  28  29  8  
8  29  30  9  
9  30  31  10  
10  31  32  11  
11  32  33  12  
12  33  34  13  
13  34  35  14  
14  35  36  15  
15  36  37  16  
16  37  38  17  
17  38  39  18  
18  39  40  19  
19  40  41  20  
20  41  42  21  
VARIABLES  = "X","Y","Z", "PRESSURE1", "SATURATION1", "DISPLACEMENT_X1", "DISPLACEMENT_Y1", "STRESS_XX", "STRESS_XY", "STRESS_YY", "STRESS_ZZ", "STRAIN_XX", "STRAIN_XY", "STRAIN_YY", "STRAIN_PLS"
ZONE T="2.000000000000e+00s", N=42, E=20, F=FEPOINT, ET=QUADRILATERAL
STRANDID=1, SOLUTIONTIME=2.000000000000e+00
0.000000000000e+00 0.000000000000e+00 0.000000000000e+00 0.000000000000e+00 1.000000000000e+00 0.000000000000e+00 0.000000000000e+00 1.863037529687e-01 -7.935587513522e-05 3.260390801192e-01 2.049371332352e-01 -2.006671721002e-08 -1.709203464451e-10 1.304174812597e-07 0.000000000000e+00 
0.000000000000e+00 0.000000000000e+00 5.000000000000e-02 -5.534205529972e+01 9.999363867458e-01 0.000000000000e+00 -4.906696143411e-07 -3.670788323468e+01 -6.722044714282e-03 -5.504491722830e+01 -3.670112018519e+01 -7.283284063246e-09 -1.447825015384e-08 -1.975485835412e-05 0.000000000000e+00 
0.000000000000e+00 0.000000000000e+00 1.000000000000e-01 -1.117044313422e+02 9.998716006779e-01 0.000000000000e+00 -1.984589379673e-06 -7.426443323447e+01 -6.616266251721e-03 -1.114144417428e+02 -7.427154999091e+01 7.664199245353e-09 -1.425041961909e-08 -4.000003727128e-05 0.000000000000e+00 
0.000000000000e+00 0.000000000000e+00 1.500000000000e-01 -1.701801010951e+02 9.998043854720e-01 0.000000000000e+00 -4.509427027983e-06 -1.132406093993e+02 -1.946130245405e-03 -1.698900809067e+02 -1.132522761224e+02 1.256416331467e-08 -4.191665143950e-09 -6.099455899845e-05 0.000000000000e+00 
0.000000000000e+00 0.000000000000e+00 2.000000000000e-01 -2.318862049300e+02 9.997334570245e-01 0.000000000000e+00 -8.112319432964e-06 -1.543608169515e+02 1.605112087019e-03 -2.315511971593e+02 -1.543648056443e+02 4.295515354409e-09 3.457164495117e-09 -8.312380624691e-05 0.000000000000e+00 
0.000000000000e+00 0.000000000000e+00 2.500000000000e-01 -2.979763595039e+02 9.996574893037e-01 0.000000000000e+00 -1.286125208024e-05 -1.984139735018e+02 2.254401726911e-03 -2.976144805146e+02 -1.984113816066e+02 -2.791271785101e-09 4.855634488730e-09 -1.068341065164e-04 0.000000000000e+00 
0.000000000000e+00 0.000000000000e+00 3.000000000000e-01 -3.696521200665e+02 9.995751011750e-01 0.000000000000e+00 -1.884563782109e-05 -2.461649776634e+02 1.021292148797e-04 -3.692324160436e+02 -2.461589574828e+02 -6.483271452282e-09 2.199706166641e-10 -1.325406476808e-04 0.000000000000e+00 
0.000000000000e+00 0.000000000000e+00 3.500000000000e-01 -4.481731699771e+02 9.994848446878e-01 0.000000000000e+00 -2.617729669094e-05 -2.984784719392e+02 -5.625850393561e-04 -4.477239361462e+02 -2.984809632341e+02 2.682933035629e-09 -1.211721623229e-09 -1.607232015976e-04 0.000000000000e+00 
0.000000000000e+00 0.000000000000e+00 4.000000000000e-01 -5.348656826769e+02 9.993851954642e-01 0.000000000000e+00 -3.499054353353e-05 -3.562167576287e+02 -6.902033308594e-04 -5.343229750104e+02 -3.562158930557e+02 -9.310787054340e-10 -1.486591789543e-09 -1.918076267205e-04 0.000000000000e+00 
0.000000000000e+00 0.000000000000e+00 4.500000000000e-01 -6.311281262273e+02 9.992745460267e-01 0.000000000000e+00 -4.544400654368e-05 -4.203204272993e+02 -4.226942788450e-04 -6.304864764810e+02 -4.203227615121e+02 2.513767666027e-09 -9.104184467430e-10 -2.263301545819e-04 0.000000000000e+00 
0.000000000000e+00 0.000000000000e+00 5.000000000000e-01 -7.384335488535e+02 9.991512031713e-01 0.000000000000e+00 -5.772175555159e-05 -4.917650074027e+02 -2.145741485864e-03 -7.376232646766e+02 -4.917553088317e+02 -1.044461487309e-08 -4.621597046477e-09 -2.647808755253e-04 0.000000000000e+00 
0.000000000000e+00 0.000000000000e+00 5.500000000000e-01 -8.583270825981e+02 9.990133908369e-01 0.000000000000e+00 -7.203547495969e-05 -5.715539626333e+02 -3.326560660885e-03 -8.573390340072e+02 -5.715571986562e+02 3.484947776202e-09 -7.164899884982e-09 -3.077650534550e-04 0.000000000000e+00 
0.000000000000e+00 0.000000000000e+00 6.000000000000e-01 -9.924170141845e+02 9.988592603686e-01 0.000000000000e+00 -8.862467655806e-05 -6.607804725620e+02 -2.484522251736e-03 -9.911684539606e+02 -6.607795706090e+02 -9.713339496693e-10 -5.351278696048e-09 -3.558034128401e-04 0.000000000000e+00 
0.000000000000e+00 0.000000000000e+00 6.500000000000e-01 -1.142357275674e+03 9.986869106444e-01 0.000000000000e+00 -1.077578946021e-04 -7.604998155608e+02 8.371240668989e-04 -1.140788410618e+03 -7.605152904715e+02 1.666528841239e-08 1.803036451782e-09 -4.095248986192e-04 0.000000000000e+00 