VARIABLES  = "X","Y","Z", "PRESSURE1", "SATURATION1", "DISPLACEMENT_X1", "DISPLACEMENT_Y1", "STRESS_XX", "STRESS_XY", "STRESS_YY", "STRESS_ZZ", "STRAIN_XX", "STRAIN_XY", "STRAIN_YY", "STRAIN_PLS"
ZONE T="0.000000000000e+00s", N=42, E=20, F=FEPOINT, ET=QUADRILATERAL
STRANDID=1, SOLUTIONTIME=0.000000000000e+00
0.000000000000e+00 0.000000000000e+00 0.000000000000e+00 0.000000000000e+00 1.000000000000e+00 0.000000000000e+00 0.000000000000e+00 0.000000000000e+00 0.000000000000e+00 0.000000000000e+00 0.000000000000e+00 0.000000000000e+00 0.000000000000e+00 0.000000000000e+00 0.000000000000e+00 
0.000000000000e+00 0.000000000000e+00 5.000000000000e-02 0.000000000000e+00 1.000000000000e+00 0.000000000000e+00 0.000000000000e+00 0.000000000000e+00 0.000000000000e+00 0.000000000000e+00 0.000000000000e+00 0.000000000000e+00 0.000000000000e+00 0.000000000000e+00 0.000000000000e+00 
0.000000000000e+00 0.000000000000e+00 1.000000000000e-01 0.000000000000e+00 1.000000000000e+00 0.000000000000e+00 0.000000000000e+00 0.000000000000e+00 0.000000000000e+00 0.000000000000e+00 0.000000000000e+00 0.000000000000e+00 0.000000000000e+00 0.000000000000e+00 0.000000000000e+00 
0.000000000000e+00 0.000000000000e+00 1.500000000000e-01 0.000000000000e+00 1.000000000000e+00 0.000000000000e+00 0.000000000000e+00 0.000000000000e+00 0.000000000000e+00 0.000000000000e+00 0.000000000000e+00 0.000000000000e+00 0.000000000000e+00 0.000000000000e+00 0.000000000000e+00 
0.000000000000e+00 0.000000000000e+00 2.000000000000e-01 0.000000000000e+00 1.000000000000e+00 0.000000000000e+00 0.000000000000e+00 0.000000000000e+00 0.000000000000e+00 0.000000000000e+00 0.000000000000e+00 0.000000000000e+00 0.000000000000e+00 0.000000000000e+00 0.000000000000e+00 
0.000000000000e+00 0.000000000000e+00 2.500000000000e-01 0.000000000000e+00 1.000000000000e+00 0.000000000000e+00 0.000000000000e+00 0.000000000000e+00 0.000000000000e+00 0.000000000000e+00 0.000000000000e+00 0.000000000000e+00 0.000000000000e+00 0.000000000000e+00 0.000000000000e+00 
0.000000000000e+00 0.000000000000e+00 3.000000000000e-01 0.000000000000e+00 1.000000000000e+00 0.000000000000e+00 0.000000000000e+00 0.000000000000e+00 0.000000000000e+00 0.000000000000e+00 0.000000000000e+00 0.000000000000e+00 0.000000000000e+00 0.000000000000e+00 0.000000000000e+00 
0.000000000000e+00 0.000000000000e+00 3.500000000000e-01 0.000000000000e+00 1.000000000000e+00 0.000000000000e+00 0.000000000000e+00 0.000000000000e+00 0.000000000000e+00 0.000000000000e+00 0.000000000000e+00 0.000000000000e+00 0.000000000000e+00 0.000000000000e+00 0.000000000000e+00 
0.000000000000e+00 0.000000000000e+00 4.000000000000e-01 0.000000000000e+00 1.000000000000e+00 0.000000000000e+00 0.000000000000e+00 0.000000000000e+00 0.000000000000e+00 0.000000000000e+00 0.000000000000e+00 0.000000000000e+00 0.000000000000e+00 0.000000000000e+00 0.000000000000e+00 
0.000000000000e+00 0.000000000000e+00 4.500000000000e-01 0.000000000000e+00 1.000000000000e+00 0.000000000000e+00 0.000000000000e+00 0.000000000000e+00 0.000000000000e+00 0.000000000000e+00 0.000000000000e+00 0.000000000000e+00 0.000000000000e+00 0.000000000000e+00 0.000000000000e+00 
0.000000000000e+00 0.000000000000e+00 5.000000000000e-01 0.000000000000e+00 1.000000000000e+00 0.000000000000e+00 0.000000000000e+00 0.000000000000e+00 0.000000000000e+00 0.000000000000e+00 0.000000000000e+00 0.000000000000e+00 0.000000000000e+00 0.000000000000e+00 0.000000000000e+00 
0.000000000000e+00 0.000000000000e+00 5.500000000000e-01 0.000000000000e+00 1.000000000000e+00 0.000000000000e+00 0.000000000000e+00 0.000000000000e+00 0.000000000000e+00 0.000000000000e+00 0.000000000000e+00 0.000000000000e+00 0.000000000000e+00 0.000000000000e+00 0.000000000000e+00 
0.000000000000e+00 0.000000000000e+00 6.000000000000e-01 0.000000000000e+00 1.000000000000e+00 0.000000000000e+00 0.000000000000e+00 0.000000000000e+00 0.000000000000e+00 0.000000000000e+00 0.000000000000e+00 0.000000000000e+00 0.000000000000e+00 0.000000000000e+00 0.000000000000e+00 
0.000000000000e+00 0.000000000000e+00 6.500000000000e-01 0.000000000000e+00 1.000000000000e+00 0.000000000000e+00 0.000000000000e+00 0.000000000000e+00 0.000000000000e+00 0.000000000000e+00 0.000000000000e+00 0.000000000000e+00 0.000000000000e+00 0.000000000000e+00 0.000000000000e+00 
0.000000000000e+00 0.000000000000e+00 7.000000000000e-01 0.000000000000e+00 1.000000000000e+00 0.000000000000e+00 0.000000000000e+00 0.000000000000e+00 0.000000000000e+00 0.000000000000e+00 0.000000000000e+00 0.000000000000e+00 0.000000000000e+00 0.000000000000e+00 0.000000000000e+00 
0.000000000000e+00 0.000000000000e+00 7.500000000000e-01 0.000000000000e+00 1.000000000000e+00 0.000000000000e+00 0.000000000000e+00 0.000000000000e+00 0.000000000000e+00 0.000000000000e+00 0.000000000000e+00 0.000000000000e+00 0.000000000000e+00 0.000000000000e+00 0.000000000000e+00 
0.000000000000e+00 0.000000000000e+00 8.000000000000e-01 0.000000000000e+00 1.000000000000e+00 0.000000000000e+00 0.000000000000e+00 0.000000000000e+00 0.000000000000e+00 0.000000000000e+00 0.000000000000e+00 0.000000000000e+00 0.000000000000e+00 0.000000000000e+00 0.000000000000e+00 
0.000000000000e+00 0.000000000000e+00 8.500000000000e-01 0.000000000000e+00 1.000000000000e+00 0.000000000000e+00 0.000000000000e+00 0.000000000000e+00 0.000000000000e+00 0.000000000000e+00 0.000000000000e+00 0.000000000000e+00 0.000000000000e+00 0.000000000000e+00 0.000000000000e+00 
0.000000000000e+00 0.000000000000e+00 9.000000000000e-01 0.000000000000e+00 1.000000000000e+00 0.000000000000e+00 0.000000000000e+00 0.000000000000e+00 0.000000000000e+00 0.000000000000e+00 0.000000000000e+00 0.000000000000e+00 0.000000000000e+00 0.000000000000e+00 0.000000000000e+00 
0.000000000000e+00 0.000000000000e+00 9.500000000000e-01 0.000000000000e+00 1.000000000000e+00 0.000000000000e+00 0.000000000000e+00 0.000000000000e+00 0.000000000000e+00 0.000000000000e+00 0.000000000000e+00 0.000000000000e+00 0.000000000000e+00 0.000000000000e+00 0.000000000000e+00 
0.000000000000e+00 0.000000000000e+00 1.000000000000e+00 0.000000000000e+00 1.000000000000e+00 0.000000000000e+00 0.000000000000e+00 0.000000000000e+00 0.000000000000e+00 0.000000000000e+00 0.000000000000e+00 0.000000000000e+00 0.000000000000e+00 0.000000000000e+00 0.000000000000e+00 
1.000000000000e-01 0.000000000000e+00 0.000000000000e+00 0.000000000000e+00 1.000000000000e+00 0.000000000000e+00 0.000000000000e+00 0.000000000000e+00 0.000000000000e+00 0.000000000000e+00 0.000000000000e+00 0.000000000000e+00 0.000000000000e+00 0.000000000000e+00 0.000000000000e+00 
1.000000000000e-01 0.000000000000e+00 5.000000000000e-02 0.000000000000e+00 1.000000000000e+00 0.000000000000e+00 0.000000000000e+00 0.000000000000e+00 0.000000000000e+00 0.000000000000e+00 0.000000000000e+00 0.000000000000e+00 0.000000000000e+00 0.000000000000e+00 0.000000000000e+00 
1.000000000000e-01 0.000000000000e+00 1.000000000000e-01 0.000000000000e+00 1.000000000000e+00 0.000000000000e+00 0.000000000000e+00 0.000000000000e+00 0.000000000000e+00 0.000000000000e+00 0.000000000000e+00 0.000000000000e+00 0.000000000000e+00 0.000000000000e+00 0.000000000000e+00 
1.000000000000e-01 0.000000000000e+00 1.500000000000e-01 0.000000000000e+00 1.000000000000e+00 0.000000000000e+00 0.000000000000e+00 0.000000000000e+00 0.000000000000e+00 0.000000000000e+00 0.000000000000e+00 0.000000000000e+00 0.000000000000e+00 0.000000000000e+00 0.000000000000e+00 
1.000000000000e-01 0.000000000000e+00 2.000000000000e-01 0.000000000000e+00 1.000000000000e+00 0.000000000000e+00 0.000000000000e+00 0.000000000000e+00 0.000000000000e+00 0.000000000000e+00 0.000000000000e+00 0.000000000000e+00 0.000000000000e+00 0.000000000000e+00 0.000000000000e+00 
1.000000000000e-01 0.000000000000e+00 2.500000000000e-01 0.000000000000e+00 1.000000000000e+00 0.000000000000e+00 0.000000000000e+00 0.000000000000e+00 0.000000000000e+00 0.000000000000e+00 0.000000000000e+00 0.000000000000e+00 0.000000000000e+00 0.000000000000e+00 0.000000000000e+00 
1.000000000000e-01 0.000000000000e+00 3.000000000000e-01 0.000000000000e+00 1.000000000000e+00 0.000000000000e+00 0.000000000000e+00 0.000000000000e+00 0.000000000000e+00 0.000000000000e+00 0.000000000000e+00 0.000000000000e+00 0.000000000000e+00 0.000000000000e+00 0.000000000000e+00 
1.000000000000e-01 0.000000000000e+00 3.500000000000e-01 0.000000000000e+00 1.000000000000e+00 0.000000000000e+00 0.000000000000e+00 0.000000000000e+00 0.000000000000e+00 0.000000000000e+00 0.000000000000e+00 0.000000000000e+00 0.000000000000e+00 0.000000000000e+00 0.000000000000e+00 
1.000000000000e-01 0.000000000000e+00 4.000000000000e-01 0.000000000000e+00 1.000000000000e+00 0.000000000000e+00 0.000000000000e+00 0.000000000000e+00 0.000000000000e+00 0.000000000000e+00 0.000000000000e+00 0.000000000000e+00 0.000000000000e+00 0.000000000000e+00 0.000000000000e+00 
1.000000000000e-01 0.000000000000e+00 4.500000000000e-01 0.000000000000e+00 1.000000000000e+00 0.000000000000e+00 0.000000000000e+00 0.000000000000e+00 0.000000000000e+00 0.000000000000e+00 0.000000000000e+00 0.000000000000e+00 0.000000000000e+00 0.000000000000e+00 0.000000000000e+00 
1.000000000000e-01 0.000000000000e+00 5.000000000000e-01 0.000000000000e+00 1.000000000000e+00 0.000000000000e+00 0.000000000000e+00 0.000000000000e+00 0.000000000000e+00 0.000000000000e+00 0.000000000000e+00 0.000000000000e+00 0.000000000000e+00 0.000000000000e+00 0.000000000000e+00 
1.000000000000e-01 0.000000000000e+00 5.500000000000e-01 0.000000000000e+00 1.000000000000e+00 0.000000000000e+00 0.000000000000e+00 0.000000000000e+00 0.000000000000e+00 0.000000000000e+00 0.000000000000e+00 0.000000000000e+00 0.000000000000e+00 0.000000000000e+00 0.000000000000e+00 
1.000000000000e-01 0.000000000000e+00 6.000000000000e-01 0.000000000000e+00 1.000000000000e+00 0.000000000000e+00 0.000000000000e+00 0.000000000000e+00 0.000000000000e+00 0.000000000000e+00 0.000000000000e+00 0.000000000000e+00 0.000000000000e+00 0.000000000000e+00 0.000000000000e+00 
1.000000000000e-01 0.000000000000e+00 6.500000000000e-01 0.000000000000e+00 1.000000000000e+00 0.000000000000e+00 0.000000000000e+00 0.000000000000e+00 0.000000000000e+00 0.000000000000e+00 0.000000000000e+00 0.000000000000e+00 0.000000000000e+00 0.000000000000e+00 0.000000000000e+00 
1.000000000000e-01 0.000000000000e+00 7.000000000000e-01 0.000000000000e+00 1.000000000000e+00 0.000000000000e+00 0.000000000000e+00 0.000000000000e+00 0.000000000000e+00 0.000000000000e+00 0.000000000000e+00 0.000000000000e+00 0.000000000000e+00 0.000000000000e+00 0.000000000000e+00 
1.000000000000e-01 0.000000000000e+00 7.500000000000e-01 0.000000000000e+00 1.000000000000e+00 0.000000000000e+00 0.000000000000e+00 0.000000000000e+00 0.000000000000e+00 0.000000000000e+00 0.000000000000e+00 0.000000000000e+00 0.000000000000e+00 0.000000000000e+00 0.000000000000e+00 
1.000000000000e-01 0.000000000000e+00 8.000000000000e-01 0.000000000000e+00 1.000000000000e+00 0.000000000000e+00 0.000000000000e+00 0.000000000000e+00 0.000000000000e+00 0.000000000000e+00 0.000000000000e+00 0.000000000000e+00 0.000000000000e+00 0.000000000000e+00 0.000000000000e+00 
1.000000000000e-01 0.000000000000e+00 8.500000000000e-01 0.000000000000e+00 1.000000000000e+00 0.000000000000e+00 0.000000000000e+00 0.000000000000e+00 0.000000000000e+00 0.000000000000e+00 0.000000000000e+00 0.000000000000e+00 0.000000000000e+00 0.000000000000e+00 0.000000000000e+00 
1.000000000000e-01 0.000000000000e+00 9.000000000000e-01 0.000000000000e+00 1.000000000000e+00 0.000000000000e+00 0.000000000000e+00 0.000000000000e+00 0.000000000000e+00 0.000000000000e+00 0.000000000000e+00 0.000000000000e+00 0.000000000000e+00 0.000000000000e+00 0.000000000000e+00 
1.000000000000e-01 0.000000000000e+00 9.500000000000e-01 0.000000000000e+00 1.000000000000e+00 0.000000000000e+00 0.000000000000e+00 0.000000000000e+00 0.000000000000e+00 0.000000000000e+00 0.000000000000e+00 0.000000000000e+00 0.000000000000e+00 0.000000000000e+00 0.000000000000e+00 
1.000000000000e-01 0.000000000000e+00 1.000000000000e+00 0.000000000000e+00 1.000000000000e+00 0.000000000000e+00 0.000000000000e+00 0.000000000000e+00 0.000000000000e+00 0.000000000000e+00 0.000000000000e+00 0.000000000000e+00 0.000000000000e+00 0.000000000000e+00 0.000000000000e+00 
1  22  23  2  
2  23  24  3  
3  24  25  4  
4  25  26  5  
5  26  27  6  
6  27  28  7  
7  28  29  8  
8  29  30  9  
9  30  31  10  
10  31  32  11  
11  32  33  12  
12  33  34  13  
13  34  35  14  
14  35  36  15  
15  36  37  16  
16  37  38  17  
17  38  39  18  
18  39  40  19  
19  40  41  20  
20  41  42  21  
VARIABLES  = "X","Y","Z", "PRESSURE1", "SATURATION1", "DISPLACEMENT_X1", "DISPLACEMENT_Y1", "STRESS_XX", "STRESS_XY", "STRESS_YY", "STRESS_ZZ", "STRAIN_XX", "STRAIN_XY", "STRAIN_YY", "STRAIN_PLS"
ZONE T="1.000000000000e+00s", N=42, E=20, F=FEPOINT, ET=QUADRILATERAL
STRANDID=1, SOLUTIONTIME=1.000000000000e+00
0.000000000000e+00 0.000000000000e+00 0.000000000000e+00 0.000000000000e+00 1.000000000000e+00 0.000000000000e+00 0.000000000000e+00 4.935060932508e-01 -3.751825292284e-03 7.704343473241e-01 5.055761762300e-01 -1.299855090062e-08 -8.080854475689e-09 2.852318765629e-07 0.000000000000e+00 
0.000000000000e+00 0.000000000000e+00 5.000000000000e-02 -2.117101693951e+01 9.999756648488e-01 0.000000000000e+00 -1.774366959807e-07 -1.368814150762e+01 -1.015346479948e-02 -2.054772640206e+01 -1.369434716387e+01 6.683014425292e-09 -2.186900110657e-08 -7.380562256509e-06 0.000000000000e+00 
0.000000000000e+00 0.000000000000e+00 1.000000000000e-01 -4.297987881952e+01 9.999505965230e-01 0.000000000000e+00 -7.425105621287e-07 -2.825292628866e+01 1.008699839241e-02 -4.239015439015e+01 -2.825723227152e+01 4.637212313430e-09 2.172584269135e-08 -1.522006997390e-05 0.000000000000e+00 
0.000000000000e+00 0.000000000000e+00 1.500000000000e-01 -6.611582826271e+01 9.999240027685e-01 0.000000000000e+00 -1.710233783784e-06 -4.360505755397e+01 7.294047384706e-03 -6.541914046055e+01 -4.360967920581e+01 4.977163521839e-09 1.571025590552e-08 -2.348711212050e-05 0.000000000000e+00 
0.000000000000e+00 0.000000000000e+00 2.000000000000e-01 -9.130923276556e+01 9.998950440601e-01 0.000000000000e+00 -3.110587458050e-06 -6.049493738182e+01 -1.090432669888e-02 -9.068297423338e+01 -6.047116464608e+01 -2.560140772504e-08 -2.348624212067e-08 -3.253579494016e-05 0.000000000000e+00 
0.000000000000e+00 0.000000000000e+00 2.500000000000e-01 -1.193546905940e+02 9.998628070420e-01 0.000000000000e+00 -4.989759541416e-06 -7.917859163032e+01 -1.340489933788e-02 -1.187599702431e+02 -7.917542474937e+01 -3.410487175746e-09 -2.887209088159e-08 -4.262951053172e-05 0.000000000000e+00 
0.000000000000e+00 0.000000000000e+00 3.000000000000e-01 -1.511361697616e+02 9.998262756320e-01 0.000000000000e+00 -7.407769194923e-06 -1.004368156975e+02 -1.653321074426e-03 -1.506453124287e+02 -1.004328512505e+02 -4.269404449227e-09 -3.560999237225e-09 -5.407495819196e-05 0.000000000000e+00 
0.000000000000e+00 0.000000000000e+00 3.500000000000e-01 -1.876549852156e+02 9.997842988627e-01 0.000000000000e+00 -1.043921329477e-05 -1.247009372112e+02 -2.182051749845e-03 -1.870993928470e+02 -1.247201320233e+02 2.067133609127e-08 -4.699803768897e-09 -6.717766550248e-05 0.000000000000e+00 
0.000000000000e+00 0.000000000000e+00 4.000000000000e-01 -2.300615143496e+02 9.997355544259e-01 0.000000000000e+00 -1.417943326695e-05 -1.530901960284e+02 -9.831296252438e-04 -2.296537238503e+02 -1.530975679515e+02 7.938994112970e-09 -2.117509962064e-09 -8.244509096799e-05 0.000000000000e+00 
0.000000000000e+00 0.000000000000e+00 4.500000000000e-01 -2.796916767882e+02 9.996785067409e-01 0.000000000000e+00 -1.874601923481e-05 -1.861231782107e+02 1.693737913820e-03 -2.791931682186e+02 -1.861265385717e+02 3.618850350304e-09 3.648050891304e-09 -1.002256011582e-04 0.000000000000e+00 
0.000000000000e+00 0.000000000000e+00 5.000000000000e-01 -3.381093661419e+02 9.996113581809e-01 0.000000000000e+00 -2.428295702443e-05 -2.251562839532e+02 7.056078867294e-03 -3.377340232018e+02 -2.251561228620e+02 -1.734828425011e-10 1.519770832956e-08 -1.212377388275e-04 0.000000000000e+00 
0.000000000000e+00 0.000000000000e+00 5.500000000000e-01 -4.071562258077e+02 9.995319918579e-01 0.000000000000e+00 -3.096261433636e-05 -2.710853840688e+02 1.463939046774e-03 -4.065924496691e+02 -2.710711334952e+02 -1.534677162343e-08 3.153099485358e-09 -1.459460328027e-04 0.000000000000e+00 
0.000000000000e+00 0.000000000000e+00 6.000000000000e-01 -4.890104166441e+02 9.994379040721e-01 0.000000000000e+00 -3.899656273976e-05 -3.257414711669e+02 2.871143726077e-03 -4.886359333846e+02 -3.257509618206e+02 1.022070399637e-08 6.184001871550e-09 -1.754145847612e-04 0.000000000000e+00 
0.000000000000e+00 0.000000000000e+00 6.500000000000e-01 -5.862563428258e+02 9.993261241647e-01 0.000000000000e+00 -4.863629011702e-05 -3.904116165995e+02 -7.768767060395e-03 -5.855515406492e+02 -3.903852628995e+02 -2.838090768805e-08 -1.673272905316e-08 -2.101790683459e-04 0.000000000000e+00 
0.000000000000e+00 0.000000000000e+00 7.000000000000e-01 -7.019676982052e+02 9.991931190600e-01 0.000000000000e+00 -6.018665556237e-05 -4.675894903635e+02 -9.236089826501e-03 -7.014367692435e+02 -4.676105038428e+02 2.262990076152e-08 -1.989311654939e-08 -2.518129012007e-04 0.000000000000e+00 
0.000000000000e+00 0.000000000000e+00 7.500000000000e-01 -8.398066884383e+02 9.990346792139e-01 0.000000000000e+00 -7.400980114962e-05 -5.592361938340e+02 -2.980379553860e-03 -8.388406522522e+02 -5.592307384345e+02 -5.875045635241e-09 -6.419279039082e-09 -3.011183687268e-04 0.000000000000e+00 
0.000000000000e+00 0.000000000000e+00 8.000000000000e-01 -1.004142899494e+03 9.988457819801e-01 0.000000000000e+00 -9.054120121687e-05 -6.687090888267e+02 3.191160317494e-03 -1.003133735041e+03 -6.687371295471e+02 3.019769894853e-08 6.873268376141e-09 -3.601194213012e-04 0.000000000000e+00 
0.000000000000e+00 0.000000000000e+00 8.500000000000e-01 -1.200196054879e+03 9.986204275161e-01 0.000000000000e+00 -1.102996216378e-04 -7.990427037691e+02 4.302617102070e-03 -1.198508550383e+03 -7.990205016610e+02 -2.390996256228e-08 9.267175296766e-09 -4.302178986242e-04 0.000000000000e+00 
0.000000000000e+00 0.000000000000e+00 9.000000000000e-01 -1.434207877468e+03 9.983514412367e-01 0.000000000000e+00 -1.339076962966e-04 -9.547031443820e+02 1.061080468525e-03 -1.432057978067e+03 -9.547044489795e+02 1.404951131663e-09 2.285404086053e-09 -5.140730313247e-04 0.000000000000e+00 
0.000000000000e+00 0.000000000000e+00 9.500000000000e-01 -1.713627826095e+03 9.980302603172e-01 0.000000000000e+00 -1.621097727757e-04 -1.140308420489e+03 -2.857180231736e-03 -1.710422288296e+03 -1.140292283514e+03 -1.737828115486e-08 -6.153926652970e-09 -6.139861589956e-04 0.000000000000e+00 
0.000000000000e+00 0.000000000000e+00 1.000000000000e+00 -2.102594212636e+03 9.975831605939e-01 0.000000000000e+00 -1.962899290516e-04 -1.398956495656e+03 -2.977309925842e-03 -2.098486899628e+03 -1.398977358114e+03 2.246726200460e-08 -6.412667532583e-09 -7.533179677847e-04 0.000000000000e+00 
1.000000000000e-01 0.000000000000e+00 0.000000000000e+00 0.000000000000e+00 1.000000000000e+00 0.000000000000e+00 0.000000000000e+00 4.768310852594e-01 4.838935468788e-03 6.850714204413e-01 4.647610022803e-01 1.299855090062e-08 1.042232254816e-08 2.372573734042e-07 0.000000000000e+00 
1.000000000000e-01 0.000000000000e+00 5.000000000000e-02 -2.117101693951e+01 9.999756648488e-01 0.000000000000e+00 -1.777800676742e-07 -1.366401012284e+01 7.059885983739e-03 -2.048050104362e+01 -1.365780446658e+01 -6.683014425292e-09 1.520590827267e-08 -7.347519390658e-06 0.000000000000e+00 
1.000000000000e-01 0.000000000000e+00 1.000000000000e-01 -4.297987881952e+01 9.999505965230e-01 0.000000000000e+00 -7.421124098274e-07 -2.826278111248e+01 -3.031780007368e-03 -4.238340671157e+01 -2.825847512962e+01 -4.637212313430e-09 -6.529987708176e-09 -1.521146478056e-05 0.000000000000e+00 
1.000000000000e-01 0.000000000000e+00 1.500000000000e-01 -6.611582826271e+01 9.999240027685e-01 0.000000000000e+00 -1.708918753681e-06 -4.360855553651e+01 2.154026092895e-03 -6.540127917515e+01 -4.360393388466e+01 -4.977163521839e-09 4.639440815466e-09 -2.347406415899e-05 0.000000000000e+00 
1.000000000000e-01 0.000000000000e+00 2.000000000000e-01 -9.130923276556e+01 9.998950440601e-01 0.000000000000e+00 -3.110931828867e-06 -6.050368735937e+01 3.519855289625e-03 -9.081496287841e+01 -6.052746009511e+01 2.560140772504e-08 7.581226777655e-09 -3.261731068971e-05 0.000000000000e+00 
1.000000000000e-01 0.000000000000e+00 2.500000000000e-01 -1.193546905940e+02 9.998628070420e-01 0.000000000000e+00 -4.991809479592e-06 -7.912040304439e+01 -3.699324600234e-03 -1.186885217690e+02 -7.912356992534e+01 3.410487175746e-09 -7.967776062042e-09 -4.260840967774e-05 0.000000000000e+00 
1.000000000000e-01 0.000000000000e+00 3.000000000000e-01 -1.511361697616e+02 9.998262756320e-01 0.000000000000e+00 -7.410035722788e-06 -1.004637488442e+02 -1.287012308870e-02 -1.507055343838e+02 -1.004677132912e+02 4.269404449227e-09 -2.772026511413e-08 -5.410226886894e-05 0.000000000000e+00 
1.000000000000e-01 0.000000000000e+00 3.500000000000e-01 -1.876549852156e+02 9.997842988627e-01 0.000000000000e+00 -1.044021976854e-05 -1.247273776299e+02 -9.669677965779e-03 -1.870430794146e+02 -1.247081828178e+02 -2.067133609127e-08 -2.082699869552e-08 -6.712988864271e-05 0.000000000000e+00 
1.000000000000e-01 0.000000000000e+00 4.000000000000e-01 -2.300615143496e+02 9.997355544259e-01 0.000000000000e+00 -1.417923342383e-05 -1.530993220708e+02 -1.173056463584e-03 -2.296305532985e+02 -1.530919501477e+02 -7.938994112970e-09 -2.526583152335e-09 -8.242618800851e-05 0.000000000000e+00 
1.000000000000e-01 0.000000000000e+00 4.500000000000e-01 -2.796916767882e+02 9.996785067409e-01 0.000000000000e+00 -1.874530448033e-05 -1.861056159283e+02 5.685896881357e-03 -2.791500229898e+02 -1.861022555672e+02 -3.618850350304e-09 1.224654712908e-08 -1.002052879935e-04 0.000000000000e+00 
1.000000000000e-01 0.000000000000e+00 5.000000000000e-01 -3.381093661419e+02 9.996113581809e-01 0.000000000000e+00 -2.428173436055e-05 -2.251553404960e+02 6.608529533140e-03 -3.377334134720e+02 -2.251555015872e+02 1.734828425011e-10 1.423375591753e-08 -1.212377512605e-04 0.000000000000e+00 
1.000000000000e-01 0.000000000000e+00 5.500000000000e-01 -4.071562258077e+02 9.995319918579e-01 0.000000000000e+00 -3.096238475444e-05 -2.711193162053e+02 -2.017310469985e-03 -4.067146007421e+02 -2.711335667790e+02 1.534677162343e-08 -4.344976396890e-09 -1.460103442680e-04 0.000000000000e+00 
1.000000000000e-01 0.000000000000e+00 6.000000000000e-01 -4.890104166441e+02 9.994379040721e-01 0.000000000000e+00 -3.899661735979e-05 -3.256776745684e+02 -5.288463565635e-03 -4.884927852184e+02 -3.256681839147e+02 -1.022070399637e-08 -1.139053691060e-08 -1.753495706347e-04 0.000000000000e+00 
1.000000000000e-01 0.000000000000e+00 6.500000000000e-01 -5.862563428258e+02 9.993261241647e-01 0.000000000000e+00 -4.863761260055e-05 -3.904477999682e+02 -1.224676372821e-03 -5.857375842023e+02 -3.904741536682e+02 2.838090768805e-08 -2.637764495307e-09 -2.102836944213e-04 0.000000000000e+00 
1.000000000000e-01 0.000000000000e+00 7.000000000000e-01 -7.019676982052e+02 9.991931190600e-01 0.000000000000e+00 -6.018778848898e-05 -4.675532831493e+02 -7.588925298656e-04 -7.012773910257e+02 -4.675322696700e+02 -2.262990076152e-08 -1.634537756634e-09 -2.517255153062e-04 0.000000000000e+00 
1.000000000000e-01 0.000000000000e+00 7.500000000000e-01 -8.398066884383e+02 9.990346792139e-01 0.000000000000e+00 -7.401042109233e-05 -5.593020779811e+02 -6.292862249156e-04 -8.389667554705e+02 -5.593075333806e+02 5.875045635241e-09 -1.355385715203e-09 -3.011714699429e-04 0.000000000000e+00 
1.000000000000e-01 0.000000000000e+00 8.000000000000e-01 -1.004142899494e+03 9.988457819801e-01 0.000000000000e+00 -9.054013656676e-05 -6.686719442975e+02 1.807383697171e-03 -1.002937814645e+03 -6.686439035771e+02 -3.019769894853e-08 3.892826424675e-09 -3.600088273041e-04 0.000000000000e+00 
1.000000000000e-01 0.000000000000e+00 8.500000000000e-01 -1.200196054879e+03 9.986204275161e-01 0.000000000000e+00 -1.102985879167e-04 -7.990700843234e+02 5.020718677455e-03 -1.198660631755e+03 -7.990922864314e+02 2.390996256228e-08 1.081385561298e-08 -4.303043718872e-04 0.000000000000e+00 
1.000000000000e-01 0.000000000000e+00 9.000000000000e-01 -1.434207877468e+03 9.983514412367e-01 0.000000000000e+00 -1.339077706926e-04 -9.546633294877e+02 -1.232856623933e-03 -1.431991732738e+03 -9.546620248903e+02 -1.404951131663e-09 -2.655383497702e-09 -5.140473776821e-04 0.000000000000e+00 
1.000000000000e-01 0.000000000000e+00 9.500000000000e-01 -1.713627826095e+03 9.980302603172e-01 0.000000000000e+00 -1.621110262552e-04 -1.140336420000e+03 -7.016471518676e-03 -1.710544972439e+03 -1.140352556976e+03 1.737828115486e-08 -1.511240019407e-08 -6.140533704989e-04 0.000000000000e+00 
1.000000000000e-01 0.000000000000e+00 1.000000000000e+00 -2.102594212636e+03 9.975831605939e-01 0.000000000000e+00 -1.962915348969e-04 -1.398988831057e+03 -6.830524029050e-03 -2.098431090442e+03 -1.398967968599e+03 -2.246726200460e-08 -1.471189790872e-08 -7.532679773685e-04 0.000000000000e+00 
1  22  23  2  
2  23  24  3  
3  24  25  4  
4  25  26  5  
5  26  27  6  
6  27  28  7  
7  28  29  8  
8  29  30  9  
9  30  31  10  
10  31  32  11  
11  32  33  12  
12  33  34  13  
13  34  35  14  
14  35  36  15  
15  36  37  16  
16  37  38  17  
17  38  39  18  
18  39  40  19  
19  40  41  20  
20  41  42  21  
VARIABLES  = "X","Y","Z", "PRESSURE1", "SATURATION1", "DISPLACEMENT_X1", "DISPLACEMENT_Y1", "STRESS_XX", "STRESS_XY", "STRESS_YY", "STRESS_ZZ", "STRAIN_XX", "STRAIN_XY", "STRAIN_YY", "STRAIN_PLS"
ZONE T="2.000000000000e+00s", N=42, E=20, F=FEPOINT, ET=QUADRILATERAL
STRANDID=1, SOLUTIONTIME=2.000000000000e+00
0.000000000000e+00 0.000000000000e+00 0.000000000000e+00 0.000000000000e+00 1.000000000000e+00 0.000000000000e+00 0.000000000000e+00 2.077286008325e-01 1.176039439785e-05 3.173928197249e-01 2.100485682230e-01 -2.498426420503e-09 2.533008024153e-11 1.156015016175e-07 0.000000000000e+00 
0.000000000000e+00 0.000000000000e+00 5.000000000000e-02 -5.534205529972e+01 9.999363867458e-01 0.000000000000e+00 -4.910786344020e-07 -3.669300737553e+01 -4.824869502643e-04 -5.503881129362e+01 -3.669272746766e+01 -3.014392453212e-10 -1.039202662108e-09 -1.975732104334e-05 0.000000000000e+00 
0.000000000000e+00 0.000000000000e+00 1.000000000000e-01 -1.117044313422e+02 9.998716006779e-01 0.000000000000e+00 -1.984858730136e-06 -7.425572392568e+01 8.117321337211e-04 -1.113971421054e+02 -7.426114641244e+01 5.839601123710e-09 1.748346134169e-09 -3.999261074628e-05 0.000000000000e+00 
0.000000000000e+00 0.000000000000e+00 1.500000000000e-01 -1.701801010951e+02 9.998043854720e-01 0.000000000000e+00 -4.509213041739e-06 -1.132440399810e+02 2.483032106900e-03 -1.698713081103e+02 -1.132461392365e+02 2.260736704172e-09 5.348069153323e-09 -6.098095109483e-05 0.000000000000e+00 
0.000000000000e+00 0.000000000000e+00 2.000000000000e-01 -2.318862049300e+02 9.997334570245e-01 0.000000000000e+00 -8.111906322950e-06 -1.543713538730e+02 3.847942907631e-03 -2.315637871361e+02 -1.543740564037e+02 2.910417598073e-09 8.287877031820e-09 -8.312740232726e-05 0.000000000000e+00 
0.000000000000e+00 0.000000000000e+00 2.500000000000e-01 -2.979763595039e+02 9.996574893037e-01 0.000000000000e+00 -1.286076851147e-05 -1.984096011531e+02 2.459664199591e-03 -2.975972726250e+02 -1.984027495112e+02 -7.378691236938e-09 5.297738276043e-09 -1.068248710456e-04 0.000000000000e+00 
0.000000000000e+00 0.000000000000e+00 3.000000000000e-01 -3.696521200665e+02 9.995751011750e-01 0.000000000000e+00 -1.884566895397e-05 -2.461948777767e+02 1.835647720329e-03 -3.692966595516e+02 -2.461966149313e+02 1.870781920232e-09 3.953702782248e-09 -1.325692788219e-04 0.000000000000e+00 
0.000000000000e+00 0.000000000000e+00 3.500000000000e-01 -4.481731699771e+02 9.994848446878e-01 0.000000000000e+00 -2.617759539145e-05 -2.984677450781e+02 3.250070003620e-04 -4.476889379588e+02 -2.984626732148e+02 -5.462006647761e-09 7.000150777028e-10 -1.607052081859e-04 0.000000000000e+00 
0.000000000000e+00 0.000000000000e+00 4.000000000000e-01 -5.348656826769e+02 9.993851954642e-01 0.000000000000e+00 -3.499167493909e-05 -3.562757693766e+02 1.867529993117e-03 -5.344335208407e+02 -3.562837160869e+02 8.557995735390e-09 4.022372292867e-09 -1.918536358887e-04 0.000000000000e+00 
0.000000000000e+00 0.000000000000e+00 4.500000000000e-01 -6.311281262273e+02 9.992745460267e-01 0.000000000000e+00 -4.544581106152e-05 -4.203138612829e+02 1.072377355173e-03 -6.304544974886e+02 -4.203073435086e+02 -7.019141555213e-09 2.309735841912e-09 -2.263123196708e-04 0.000000000000e+00 
0.000000000000e+00 0.000000000000e+00 5.000000000000e-01 -7.384335488535e+02 9.991512031713e-01 0.000000000000e+00 -5.772500177304e-05 -4.918463539475e+02 1.435070296053e-03 -7.377804804310e+02 -4.918507337514e+02 4.716711863298e-09 3.090920637652e-09 -2.648474195011e-04 0.000000000000e+00 
0.000000000000e+00 0.000000000000e+00 5.500000000000e-01 -8.583270825981e+02 9.990133908369e-01 0.000000000000e+00 -7.203994476665e-05 -5.715660009057e+02 -7.170935302209e-04 -8.573253110386e+02 -5.715565247777e+02 -1.020506092656e-08 -1.544509142014e-09 -3.077510005886e-04 0.000000000000e+00 
0.000000000000e+00 0.000000000000e+00 6.000000000000e-01 -9.924170141845e+02 9.988592603686e-01 0.000000000000e+00 -8.863074448557e-05 -6.608777000707e+02 -4.887900867951e-04 -9.913325212137e+02 -6.608840885137e+02 6.879861773637e-09 -1.052778648482e-09 -3.558675429076e-04 0.000000000000e+00 