 TITLE = "Profiles along polylines"
 VARIABLES = "DIST" "PRESSURE1" "SATURATION1" "DISPLACEMENT_X1" "DISPLACEMENT_Y1" "STRESS_XX" "STRESS_XY" "STRESS_YY" "STRESS_ZZ" "STRAIN_XX" "STRAIN_XY" "STRAIN_YY" "STRAIN_PLS"  p_(1st_Invariant)  q_(2nd_Invariant)   Effective_Strain
 ZONE T="TIME=0.000000000000e+00"
0.000000000000e+00 0.000000000000e+00 1.000000000000e+00 0.000000000000e+00 0.000000000000e+00 0.000000000000e+00 0.000000000000e+00 0.000000000000e+00 0.000000000000e+00 0.000000000000e+00 0.000000000000e+00 0.000000000000e+00 0.000000000000e+00 -0.000000000000e+00 0.000000000000e+00  0.000000000000e+00
5.000000000000e-02 0.000000000000e+00 1.000000000000e+00 0.000000000000e+00 0.000000000000e+00 0.000000000000e+00 0.000000000000e+00 0.000000000000e+00 0.000000000000e+00 0.000000000000e+00 0.000000000000e+00 0.000000000000e+00 0.000000000000e+00 -0.000000000000e+00 0.000000000000e+00  0.000000000000e+00
1.000000000000e-01 0.000000000000e+00 1.000000000000e+00 0.000000000000e+00 0.000000000000e+00 0.000000000000e+00 0.000000000000e+00 0.000000000000e+00 0.000000000000e+00 0.000000000000e+00 0.000000000000e+00 0.000000000000e+00 0.000000000000e+00 -0.000000000000e+00 0.000000000000e+00  0.000000000000e+00
1.500000000000e-01 0.000000000000e+00 1.000000000000e+00 0.000000000000e+00 0.000000000000e+00 0.000000000000e+00 0.000000000000e+00 0.000000000000e+00 0.000000000000e+00 0.000000000000e+00 0.000000000000e+00 0.000000000000e+00 0.000000000000e+00 -0.000000000000e+00 0.000000000000e+00  0.000000000000e+00
2.000000000000e-01 0.000000000000e+00 1.000000000000e+00 0.000000000000e+00 0.000000000000e+00 0.000000000000e+00 0.000000000000e+00 0.000000000000e+00 0.000000000000e+00 0.000000000000e+00 0.000000000000e+00 0.000000000000e+00 0.000000000000e+00 -0.000000000000e+00 0.000000000000e+00  0.000000000000e+00
2.500000000000e-01 0.000000000000e+00 1.000000000000e+00 0.000000000000e+00 0.000000000000e+00 0.000000000000e+00 0.000000000000e+00 0.000000000000e+00 0.000000000000e+00 0.000000000000e+00 0.000000000000e+00 0.000000000000e+00 0.000000000000e+00 -0.000000000000e+00 0.000000000000e+00  0.000000000000e+00
3.000000000000e-01 0.000000000000e+00 1.000000000000e+00 0.000000000000e+00 0.000000000000e+00 0.000000000000e+00 0.000000000000e+00 0.000000000000e+00 0.000000000000e+00 0.000000000000e+00 0.000000000000e+00 0.000000000000e+00 0.000000000000e+00 -0.000000000000e+00 0.000000000000e+00  0.000000000000e+00
3.500000000000e-01 0.000000000000e+00 1.000000000000e+00 0.000000000000e+00 0.000000000000e+00 0.000000000000e+00 0.000000000000e+00 0.000000000000e+00 0.000000000000e+00 0.000000000000e+00 0.000000000000e+00 0.000000000000e+00 0.000000000000e+00 -0.000000000000e+00 0.000000000000e+00  0.000000000000e+00
4.000000000000e-01 0.000000000000e+00 1.000000000000e+00 0.000000000000e+00 0.000000000000e+00 0.000000000000e+00 0.000000000000e+00 0.000000000000e+00 0.000000000000e+00 0.000000000000e+00 0.000000000000e+00 0.000000000000e+00 0.000000000000e+00 -0.000000000000e+00 0.000000000000e+00  0.000000000000e+00
4.500000000000e-01 0.000000000000e+00 1.000000000000e+00 0.000000000000e+00 0.000000000000e+00 0.000000000000e+00 0.000000000000e+00 0.000000000000e+00 0.000000000000e+00 0.000000000000e+00 0.000000000000e+00 0.000000000000e+00 0.000000000000e+00 -0.000000000000e+00 0.000000000000e+00  0.000000000000e+00
5.000000000000e-01 0.000000000000e+00 1.000000000000e+00 0.000000000000e+00 0.000000000000e+00 0.000000000000e+00 0.000000000000e+00 0.000000000000e+00 0.000000000000e+00 0.000000000000e+00 0.000000000000e+00 0.000000000000e+00 0.000000000000e+00 -0.000000000000e+00 0.000000000000e+00  0.000000000000e+00
5.500000000000e-01 0.000000000000e+00 1.000000000000e+00 0.000000000000e+00 0.000000000000e+00 0.000000000000e+00 0.000000000000e+00 0.000000000000e+00 0.000000000000e+00 0.000000000000e+00 0.000000000000e+00 0.000000000000e+00 0.000000000000e+00 -0.000000000000e+00 0.000000000000e+00  0.000000000000e+00
6.000000000000e-01 0.000000000000e+00 1.000000000000e+00 0.000000000000e+00 0.000000000000e+00 0.000000000000e+00 0.000000000000e+00 0.000000000000e+00 0.000000000000e+00 0.000000000000e+00 0.000000000000e+00 0.000000000000e+00 0.000000000000e+00 -0.000000000000e+00 0.000000000000e+00  0.000000000000e+00
6.500000000000e-01 0.000000000000e+00 1.000000000000e+00 0.000000000000e+00 0.000000000000e+00 0.000000000000e+00 0.000000000000e+00 0.000000000000e+00 0.000000000000e+00 0.000000000000e+00 0.000000000000e+00 0.000000000000e+00 0.000000000000e+00 -0.000000000000e+00 0.000000000000e+00  0.000000000000e+00
7.000000000000e-01 0.000000000000e+00 1.000000000000e+00 0.000000000000e+00 0.000000000000e+00 0.000000000000e+00 0.000000000000e+00 0.000000000000e+00 0.000000000000e+00 0.000000000000e+00 0.000000000000e+00 0.000000000000e+00 0.000000000000e+00 -0.000000000000e+00 0.000000000000e+00  0.000000000000e+00
7.500000000000e-01 0.000000000000e+00 1.000000000000e+00 0.000000000000e+00 0.000000000000e+00 0.000000000000e+00 0.000000000000e+00 0.000000000000e+00 0.000000000000e+00 0.000000000000e+00 0.000000000000e+00 0.000000000000e+00 0.000000000000e+00 -0.000000000000e+00 0.000000000000e+00  0.000000000000e+00
8.000000000000e-01 0.000000000000e+00 1.000000000000e+00 0.000000000000e+00 0.000000000000e+00 0.000000000000e+00 0.000000000000e+00 0.000000000000e+00 0.000000000000e+00 0.000000000000e+00 0.000000000000e+00 0.000000000000e+00 0.000000000000e+00 -0.000000000000e+00 0.000000000000e+00  0.000000000000e+00
8.500000000000e-01 0.000000000000e+00 1.000000000000e+00 0.000000000000e+00 0.000000000000e+00 0.000000000000e+00 0.000000000000e+00 0.000000000000e+00 0.000000000000e+00 0.000000000000e+00 0.000000000000e+00 0.000000000000e+00 0.000000000000e+00 -0.000000000000e+00 0.000000000000e+00  0.000000000000e+00
9.000000000000e-01 0.000000000000e+00 1.000000000000e+00 0.000000000000e+00 0.000000000000e+00 0.000000000000e+00 0.000000000000e+00 0.000000000000e+00 0.000000000000e+00 0.000000000000e+00 0.000000000000e+00 0.000000000000e+00 0.000000000000e+00 -0.000000000000e+00 0.000000000000e+00  0.000000000000e+00
9.500000000000e-01 0.000000000000e+00 1.000000000000e+00 0.000000000000e+00 0.000000000000e+00 0.000000000000e+00 0.000000000000e+00 0.000000000000e+00 0.000000000000e+00 0.000000000000e+00 0.000000000000e+00 0.000000000000e+00 0.000000000000e+00 -0.000000000000e+00 0.000000000000e+00  0.000000000000e+00
1.000000000000e+00 0.000000000000e+00 1.000000000000e+00 0.000000000000e+00 0.000000000000e+00 0.000000000000e+00 0.000000000000e+00 0.000000000000e+00 0.000000000000e+00 0.000000000000e+00 0.000000000000e+00 0.000000000000e+00 0.000000000000e+00 -0.000000000000e+00 0.000000000000e+00  0.000000000000e+00
 TITLE = "Profiles along polylines"
 VARIABLES = "DIST" "PRESSURE1" "SATURATION1" "DISPLACEMENT_X1" "DISPLACEMENT_Y1" "STRESS_XX" "STRESS_XY" "STRESS_YY" "STRESS_ZZ" "STRAIN_XX" "STRAIN_XY" "STRAIN_YY" "STRAIN_PLS"  p_(1st_Invariant)  q_(2nd_Invariant)   Effective_Strain
 ZONE T="TIME=1.000000000000e+00"
0.000000000000e+00 0.000000000000e+00 1.000000000000e+00 0.000000000000e+00 0.000000000000e+00 4.768310852594e-01 4.838935468788e-03 6.850714204413e-01 4.647610022803e-01 1.299855090062e-08 1.042232254816e-08 2.372573734042e-07 0.000000000000e+00 -5.422211693270e-01 2.146938474070e-01  2.317366952757e-07
5.000000000000e-02 -2.117101693951e+01 9.999756648488e-01 0.000000000000e+00 -1.777800676742e-07 -1.366401012284e+01 7.059885983739e-03 -2.048050104362e+01 -1.365780446658e+01 -6.683014425292e-09 1.520590827267e-08 -7.347519390658e-06 0.000000000000e+00 1.593410521101e+01 6.819606829489e+00  7.344227388884e-06
1.000000000000e-01 -4.297987881952e+01 9.999505965230e-01 0.000000000000e+00 -7.421124098274e-07 -2.826278111248e+01 -3.031780007368e-03 -4.238340671157e+01 -2.825847512962e+01 -4.637212313430e-09 -6.529987708176e-09 -1.521146478056e-05 0.000000000000e+00 3.296822098456e+01 1.412278005911e+01  1.520915091004e-05
1.500000000000e-01 -6.611582826271e+01 9.999240027685e-01 0.000000000000e+00 -1.708918753681e-06 -4.360855553651e+01 2.154026092895e-03 -6.540127917515e+01 -4.360393388466e+01 -4.977163521839e-09 4.639440815466e-09 -2.347406415899e-05 0.000000000000e+00 5.087125619877e+01 2.179503515141e+01  2.347157734857e-05
2.000000000000e-01 -9.130923276556e+01 9.998950440601e-01 0.000000000000e+00 -3.110931828867e-06 -6.050368735937e+01 3.519855289625e-03 -9.081496287841e+01 -6.052746009511e+01 2.560140772504e-08 7.581226777655e-09 -3.261731068971e-05 0.000000000000e+00 7.061537011096e+01 3.029939675900e+01  3.263012156821e-05
2.500000000000e-01 -1.193546905940e+02 9.998628070420e-01 0.000000000000e+00 -4.991809479592e-06 -7.912040304439e+01 -3.699324600234e-03 -1.186885217690e+02 -7.912356992534e+01 3.410487175746e-09 -7.967776062042e-09 -4.260840967774e-05 0.000000000000e+00 9.231083157957e+01 3.956653589796e+01  4.261011725857e-05
3.000000000000e-01 -1.511361697616e+02 9.998262756320e-01 0.000000000000e+00 -7.410035722788e-06 -1.004637488442e+02 -1.287012308870e-02 -1.507055343838e+02 -1.004677132912e+02 4.269404449227e-09 -2.772026511413e-08 -5.410226886894e-05 0.000000000000e+00 1.172123321731e+02 5.023980837887e+01  5.410442500111e-05
3.500000000000e-01 -1.876549852156e+02 9.997842988627e-01 0.000000000000e+00 -1.044021976854e-05 -1.247273776299e+02 -9.669677965779e-03 -1.870430794146e+02 -1.247081828178e+02 -2.067133609127e-08 -2.082699869552e-08 -6.712988864271e-05 0.000000000000e+00 1.454928799541e+02 6.232530365795e+01  6.711956505586e-05
4.000000000000e-01 -2.300615143496e+02 9.997355544259e-01 0.000000000000e+00 -1.417923342383e-05 -1.530993220708e+02 -1.173056463584e-03 -2.296305532985e+02 -1.530919501477e+02 -7.938994112970e-09 -2.526583152335e-09 -8.242618800851e-05 0.000000000000e+00 1.786072751724e+02 7.653491748245e+01  8.242221891439e-05
4.500000000000e-01 -2.796916767882e+02 9.996785067409e-01 0.000000000000e+00 -1.874530448033e-05 -1.861056159283e+02 5.685896881357e-03 -2.791500229898e+02 -1.861022555672e+02 -3.618850350304e-09 1.224654712908e-08 -1.002052879935e-04 0.000000000000e+00 2.171192981618e+02 9.304608780875e+01  1.002034808625e-04
5.000000000000e-01 -3.381093661419e+02 9.996113581809e-01 0.000000000000e+00 -2.428173436055e-05 -2.251553404960e+02 6.608529533140e-03 -3.377334134720e+02 -2.251555015872e+02 1.734828425011e-10 1.423375591753e-08 -1.212377512605e-04 0.000000000000e+00 2.626814185184e+02 1.125779930124e+02  1.212378405087e-04
5.500000000000e-01 -4.071562258077e+02 9.995319918579e-01 0.000000000000e+00 -3.096238475444e-05 -2.711193162053e+02 -2.017310469985e-03 -4.067146007421e+02 -2.711335667790e+02 1.534677162343e-08 -4.344976396890e-09 -1.460103442680e-04 0.000000000000e+00 3.163224945755e+02 1.355881598566e+02  1.460180184526e-04
6.000000000000e-01 -4.890104166441e+02 9.994379040721e-01 0.000000000000e+00 -3.899661735979e-05 -3.256776745684e+02 -5.288463565635e-03 -4.884927852184e+02 -3.256681839147e+02 -1.022070399637e-08 -1.139053691060e-08 -1.753495706347e-04 0.000000000000e+00 3.799462145672e+02 1.628198564419e+02  1.753444616160e-04
6.500000000000e-01 -5.862563428258e+02 9.993261241647e-01 0.000000000000e+00 -4.863761260055e-05 -3.904477999682e+02 -1.224676372821e-03 -5.857375842023e+02 -3.904741536682e+02 2.838090768805e-08 -2.637764495307e-09 -2.102836944213e-04 0.000000000000e+00 4.555531792796e+02 1.952766087293e+02  2.102978863611e-04
7.000000000000e-01 -7.019676982052e+02 9.991931190600e-01 0.000000000000e+00 -6.018778848898e-05 -4.675532831493e+02 -7.588925298656e-04 -7.012773910257e+02 -4.675322696700e+02 -2.262990076152e-08 -1.634537756634e-09 -2.517255153062e-04 0.000000000000e+00 5.454543146150e+02 2.337346153282e+02  2.517142011346e-04
7.500000000000e-01 -8.398066884383e+02 9.990346792139e-01 0.000000000000e+00 -7.401042109233e-05 -5.593020779811e+02 -6.292862249156e-04 -8.389667554705e+02 -5.593075333806e+02 5.875045635241e-09 -1.355385715203e-09 -3.011714699429e-04 0.000000000000e+00 6.525254556107e+02 2.796619498316e+02  3.011744075178e-04
8.000000000000e-01 -1.004142899494e+03 9.988457819801e-01 0.000000000000e+00 -9.054013656676e-05 -6.686719442975e+02 1.807383697171e-03 -1.002937814645e+03 -6.686439035771e+02 -3.019769894853e-08 3.892826424675e-09 -3.600088273041e-04 0.000000000000e+00 7.800845541732e+02 3.342798916046e+02  3.599937294677e-04
8.500000000000e-01 -1.200196054879e+03 9.986204275161e-01 0.000000000000e+00 -1.102985879167e-04 -7.990700843234e+02 5.020718677455e-03 -1.198660631755e+03 -7.990922864314e+02 2.390996256228e-08 1.081385561298e-08 -4.303043718872e-04 0.000000000000e+00 9.322743341700e+02 3.995794469351e+02  4.303163277743e-04
9.000000000000e-01 -1.434207877468e+03 9.983514412367e-01 0.000000000000e+00 -1.339077706926e-04 -9.546633294877e+02 -1.232856623933e-03 -1.431991732738e+03 -9.546620248903e+02 -1.404951131663e-09 -2.655383497702e-09 -5.140473776821e-04 0.000000000000e+00 1.113772362372e+03 4.773290555550e+02  5.140466752285e-04
9.500000000000e-01 -1.713627826095e+03 9.980302603172e-01 0.000000000000e+00 -1.621110262552e-04 -1.140336420000e+03 -7.016471518676e-03 -1.710544972439e+03 -1.140352556976e+03 1.737828115486e-08 -1.511240019407e-08 -6.140533704989e-04 0.000000000000e+00 1.330411316472e+03 5.702004842517e+02  6.140620603818e-04
1.000000000000e+00 -2.102594212636e+03 9.975831605939e-01 0.000000000000e+00 -1.962915348969e-04 -1.398988831057e+03 -6.830524029050e-03 -2.098431090442e+03 -1.398967968599e+03 -2.246726200460e-08 -1.471189790872e-08 -7.532679773685e-04 0.000000000000e+00 1.632129296699e+03 6.994526909468e+02  7.532567444198e-04
 TITLE = "Profiles along polylines"
 VARIABLES = "DIST" "PRESSURE1" "SATURATION1" "DISPLACEMENT_X1" "DISPLACEMENT_Y1" "STRESS_XX" "STRESS_XY" "STRESS_YY" "STRESS_ZZ" "STRAIN_XX" "STRAIN_XY" "STRAIN_YY" "STRAIN_PLS"  p_(1st_Invariant)  q_(2nd_Invariant)   Effective_Strain
 ZONE T="TIME=5.000000000000e+00"
0.000000000000e+00 0.000000000000e+00 1.000000000000e+00 0.000000000000e+00 0.000000000000e+00 8.288196882861e-02 -3.279417973622e-05 1.211014694907e-01 8.159337532773e-02 1.387716077879e-09 -7.063361789340e-11 4.254717832936e-08 0.000000000000e+00 -9.519227121568e-02 3.887985764641e-02  4.187074997646e-08
5.000000000000e-02 -1.467862125929e+02 9.998312757161e-01 0.000000000000e+00 -1.315204367783e-06 -9.776854182811e+01 -6.972625372759e-04 -1.466559394752e+02 -9.776979252132e+01 1.346900378645e-09 -1.501796234133e-09 -5.264661979647e-05 0.000000000000e+00 1.140647579415e+02 4.888677232739e+01  5.264729332384e-05
1.000000000000e-01 -2.942333580780e+02 9.996617917190e-01 0.000000000000e+00 -5.270233644441e-06 -1.960241562951e+02 -7.360731201763e-04 -2.940339947316e+02 -1.960232604107e+02 -9.647986152432e-10 -1.585388258841e-09 -1.055500215764e-04 0.000000000000e+00 2.286938038125e+02 9.801028639007e+01  1.055495392161e-04
1.500000000000e-01 -4.431185850303e+02 9.994906547105e-01 0.000000000000e+00 -1.188311000276e-05 -2.952117490645e+02 -5.381256290268e-04 -4.428173585436e+02 -2.952116430432e+02 -1.141767404666e-10 -1.159039816365e-09 -1.589600013081e-04 0.000000000000e+00 3.444135835504e+02 1.476056624927e+02  1.589599442324e-04
2.000000000000e-01 -5.942068271926e+02 9.993169854332e-01 0.000000000000e+00 -2.118559201230e-05 -3.958263665094e+02 -4.292704354642e-05 -5.937348339436e+02 -3.958244801812e+02 -2.031430320880e-09 -9.245824763845e-11 -2.131342271288e-04 0.000000000000e+00 4.617952268781e+02 1.979094106051e+02  2.131332114209e-04
2.500000000000e-01 -7.482447955294e+02 9.991399255756e-01 0.000000000000e+00 -3.322302900359e-05 -4.983775901594e+02 4.588406090680e-04 -7.475663275817e+02 -4.983775670964e+02 -2.483704893929e-11 9.882720810695e-10 -2.683571266764e-04 0.000000000000e+00 5.814404949459e+02 2.491887489550e+02  2.683571142634e-04
3.000000000000e-01 -9.059549465598e+02 9.989586447057e-01 0.000000000000e+00 -4.805383130433e-05 -6.033318761917e+02 7.357584374368e-04 -9.049955045306e+02 -6.033309522889e+02 -9.949722129021e-10 1.584710480633e-09 -3.248695177987e-04 0.000000000000e+00 7.038861110037e+02 3.016640902940e+02  3.248690203254e-04
3.500000000000e-01 -1.068029439825e+03 9.987723472168e-01 0.000000000000e+00 -6.574901023894e-05 -7.111540969283e+02 7.579930581390e-04 -1.066733574892e+03 -7.111550687281e+02 1.046553621608e-09 1.632600432915e-09 -3.829306989457e-04 0.000000000000e+00 8.296809135161e+02 3.555789920672e+02  3.829312222340e-04
4.000000000000e-01 -1.235124122916e+03 9.985802792409e-01 0.000000000000e+00 -8.639159357550e-05 -8.222763733602e+02 4.940804239152e-05 -1.233418021628e+03 -8.222777579953e+02 1.491145567820e-09 1.064173220740e-10 -4.427664377584e-04 0.000000000000e+00 9.593240509946e+02 4.111409559522e+02  4.427671833331e-04
4.500000000000e-01 -1.407852615359e+03 9.983817354493e-01 0.000000000000e+00 -1.100757303817e-04 -9.370948833076e+02 -5.347907029765e-04 -1.405645097751e+03 -9.370959924234e+02 1.194432358070e-09 -1.151856898719e-09 -5.045913441988e-04 0.000000000000e+00 1.093278657827e+03 4.685496598872e+02  5.045919414200e-04
5.000000000000e-01 -1.586780603266e+03 9.981760656109e-01 0.000000000000e+00 -1.369061248622e-04 -1.055999048233e+03 -1.177020256377e-03 -1.584001291721e+03 -1.056000135981e+03 1.171421645412e-09 -2.535120552198e-09 -5.686166292577e-04 0.000000000000e+00 1.232000158645e+03 5.280016996184e+02  5.686172149864e-04
5.500000000000e-01 -1.772420505377e+03 9.979626807228e-01 0.000000000000e+00 -1.669968105976e-04 -1.179295883749e+03 -7.230980078528e-04 -1.768937823534e+03 -1.179293482913e+03 -2.585515538107e-09 -1.557441863068e-09 -6.350015975917e-04 0.000000000000e+00 1.375842396732e+03 5.896431402079e+02  6.350003048436e-04
6.000000000000e-01 -1.965226728547e+03 9.977410584644e-01 0.000000000000e+00 -2.004706016015e-04 -1.307316636912e+03 -1.696978500533e-04 -1.960974426952e+03 -1.307316425545e+03 -2.276256723595e-10 -3.655030616534e-10 -7.039393861296e-04 0.000000000000e+00 1.525202496470e+03 6.536578957228e+02  7.039392723171e-04
6.500000000000e-01 -2.165591797288e+03 9.975216376021e-01 0.000000000000e+00 -2.374575299079e-04 -1.440272359767e+03 7.358096372854e-04 -2.160401239336e+03 -1.440269439641e+03 -3.144750955693e-09 1.584820757230e-09 -7.755265535174e-04 0.000000000000e+00 1.680314346248e+03 7.201303396373e+02  7.755249811515e-04
7.000000000000e-01 -2.381844928519e+03 9.967802244787e-01 0.000000000000e+00 -2.781657472618e-04 -1.583351891514e+03 7.631768477468e-04 -2.375034457607e+03 -1.583354539649e+03 2.851837004641e-09 1.643765518224e-09 -8.525783731862e-04 0.000000000000e+00 1.847246962923e+03 7.916812420302e+02  8.525797991130e-04
7.500000000000e-01 -2.623554792005e+03 9.959393623206e-01 0.000000000000e+00 -3.229409768719e-04 -1.742649659111e+03 4.312052691409e-04 -2.613972008468e+03 -1.742648667032e+03 -1.068393101683e-09 9.287498104573e-10 -9.383482138547e-04 0.000000000000e+00 2.033090111537e+03 8.713228453976e+02  9.383476796600e-04
8.000000000000e-01 -2.892800408884e+03 9.950032047983e-01 0.000000000000e+00 -3.722454750284e-04 -1.919794245273e+03 -1.789850139413e-04 -2.879699399725e+03 -1.919797457999e+03 3.459858766704e-09 -3.855061838735e-10 -1.033740552628e-03 0.000000000000e+00 2.239763700999e+03 9.599035480928e+02  1.033742282562e-03
8.500000000000e-01 -3.194678437851e+03 9.935748649141e-01 0.000000000000e+00 -4.266034850263e-04 -2.117605227018e+03 -4.812223516375e-04 -3.176402450659e+03 -2.117603071071e+03 -2.321789155807e-09 -1.036478911219e-09 -1.140245485710e-03 0.000000000000e+00 2.470536916249e+03 1.058798301617e+03  1.140244324819e-03
9.000000000000e-01 -3.537932381545e+03 9.918286587363e-01 0.000000000000e+00 -4.866356294107e-04 -2.341380932342e+03 -2.618466953158e-04 -3.512074591908e+03 -2.341382209700e+03 1.375616319391e-09 -5.639774976034e-10 -1.260745642378e-03 0.000000000000e+00 2.731612577983e+03 1.170693020888e+03  1.260746330187e-03
9.500000000000e-01 -3.932130466816e+03 9.894690859526e-01 0.000000000000e+00 -5.531256357195e-04 -2.596849054189e+03 -1.018459248349e-04 -3.895268926925e+03 -2.596847192446e+03 -2.004954350216e-09 -2.193604534906e-10 -1.398300329440e-03 0.000000000000e+00 3.029655057854e+03 1.298420803609e+03  1.398299326964e-03
1.000000000000e+00 -4.388410622511e+03 9.862519346014e-01 0.000000000000e+00 -6.270088496541e-04 -2.894724145577e+03 2.591642290438e-04 -4.342088408259e+03 -2.894725021534e+03 9.433387878976e-10 5.581998779405e-10 -1.558699031857e-03 0.000000000000e+00 3.377179191790e+03 1.447363824704e+03  1.558699503527e-03
 TITLE = "Profiles along polylines"
 VARIABLES = "DIST" "PRESSURE1" "SATURATION1" "DISPLACEMENT_X1" "DISPLACEMENT_Y1" "STRESS_XX" "STRESS_XY" "STRESS_YY" "STRESS_ZZ" "STRAIN_XX" "STRAIN_XY" "STRAIN_YY" "STRAIN_PLS"  p_(1st_Invariant)  q_(2nd_Invariant)   Effective_Strain
 ZONE T="TIME=1.000000000000e+01"
0.000000000000e+00 0.000000000000e+00 1.000000000000e+00 0.000000000000e+00 0.000000000000e+00 3.747088912307e-02 1.855186483715e-05 5.494103804859e-02 3.696477086866e-02 5.450504278204e-10 3.995786272617e-11 1.935905696299e-08 0.000000000000e+00 -4.312556601344e-02 1.772865626496e-02  1.909249313416e-08
5.000000000000e-02 -2.198276059111e+02 9.997473178527e-01 0.000000000000e+00 -1.971782249796e-06 -1.464939052593e+02 3.936811936233e-05 -2.197395748513e+02 -1.464933920442e+02 -5.526930999934e-10 8.479287247271e-11 -7.888050456149e-05 0.000000000000e+00 1.709089573849e+02 7.324592620096e+01  7.888022821652e-05
1.000000000000e-01 -4.398605071817e+02 9.994943997275e-01 0.000000000000e+00 -7.889580393314e-06 -2.930938662947e+02 -1.332047221650e-04 -4.396435329233e+02 -2.930949596872e+02 1.177499623852e-09 -2.869024785092e-10 -1.578215404081e-04 0.000000000000e+00 3.419441196351e+02 1.465491199356e+02  1.578221291620e-04
1.500000000000e-01 -6.604476577990e+02 9.992408445170e-01 0.000000000000e+00 -1.775815958791e-05 -4.399818573609e+02 -1.009581550021e-04 -6.599700986549e+02 -4.399807824063e+02 -1.157643437461e-09 -2.174483338506e-10 -2.369115713446e-04 0.000000000000e+00 5.133109128074e+02 2.199887787733e+02  2.369109925253e-04
2.000000000000e-01 -8.819363401462e+02 9.989862530355e-01 0.000000000000e+00 -3.158863570187e-05 -5.874051897556e+02 -1.375557902911e-04 -8.811104899685e+02 -5.874062718896e+02 1.165375127865e-09 -2.962740098577e-10 -3.162968502388e-04 0.000000000000e+00 6.853073172046e+02 2.937047591475e+02  3.162974329284e-04
2.500000000000e-01 -1.104671288208e+03 9.987302290266e-01 0.000000000000e+00 -4.939817856222e-05 -7.355726047397e+02 2.975414163313e-05 -1.103354688093e+03 -7.355709171331e+02 -1.817422393735e-09 6.408584351751e-11 -3.960748302647e-04 0.000000000000e+00 8.581660699887e+02 3.677829271597e+02  3.960739215566e-04
3.000000000000e-01 -1.328993931428e+03 9.984723800319e-01 0.000000000000e+00 -7.121020290153e-05 -8.847300592958e+02 2.120524187275e-04 -1.327097474916e+03 -8.847310136846e+02 1.027803405630e-09 4.567282864899e-10 -4.763946505567e-04 0.000000000000e+00 1.032186182632e+03 4.423669384266e+02  4.763951644599e-04
3.500000000000e-01 -1.555241806904e+03 9.982123180677e-01 0.000000000000e+00 -9.705406601388e-05 -1.035080025015e+03 1.802290740153e-04 -1.552617956661e+03 -1.035079192670e+03 -8.963707432917e-10 3.881856978791e-10 -5.573494381441e-04 0.000000000000e+00 1.207592391449e+03 5.175383478194e+02  5.573489899597e-04
4.000000000000e-01 -1.783748195385e+03 9.979496600422e-01 0.000000000000e+00 -1.269651333739e-04 -1.186860737460e+03 3.791757016714e-05 -1.780294485846e+03 -1.186862089322e+03 1.455851558083e-09 8.166861266768e-11 -6.390810424097e-04 0.000000000000e+00 1.384672437543e+03 5.934330724555e+02  6.390817703368e-04
4.500000000000e-01 -2.014842047376e+03 9.976920801970e-01 0.000000000000e+00 -1.609845562484e-04 -1.340271730526e+03 -3.064937808557e-04 -2.010407560445e+03 -1.340271716389e+03 -1.522518432045e-11 -6.601404510738e-10 -7.216847551379e-04 0.000000000000e+00 1.563650335787e+03 6.701358369880e+02  7.216847475262e-04
5.000000000000e-01 -2.248831551634e+03 9.972656137729e-01 0.000000000000e+00 -1.991591253661e-04 -1.495399944601e+03 -3.200504985489e-04 -2.243100166250e+03 -1.495400044340e+03 1.074120013309e-10 -6.893395353360e-10 -8.052155159030e-04 0.000000000000e+00 1.744633385064e+03 7.477001717800e+02  8.052155696099e-04
5.500000000000e-01 -2.489256034888e+03 9.964065618842e-01 0.000000000000e+00 -2.415626791807e-04 -1.654216912326e+03 -2.327937726272e-04 -2.481324309362e+03 -1.654216488675e+03 -4.562392865108e-10 -5.014019718125e-10 -8.907314992013e-04 0.000000000000e+00 1.929919236788e+03 8.271076088617e+02  8.907312710821e-04
6.000000000000e-01 -2.740431297084e+03 9.955401967337e-01 0.000000000000e+00 -2.883266475084e-04 -1.819576832223e+03 9.853323880572e-05 -2.729362927090e+03 -1.819575903725e+03 -9.999204345098e-10 2.122254374277e-10 -9.797706405469e-04 0.000000000000e+00 2.122838554346e+03 9.097865591166e+02  9.797701405872e-04
6.500000000000e-01 -3.003275067142e+03 9.944900151255e-01 0.000000000000e+00 -3.396420857982e-04 -1.992171256019e+03 2.012156946272e-04 -2.988258272759e+03 -1.992171811511e+03 5.982224305748e-10 4.333876499662e-10 -1.072708496729e-03 0.000000000000e+00 2.324200446763e+03 9.960867389942e+02  1.072708795840e-03
7.000000000000e-01 -3.280462111144e+03 9.931704653677e-01 0.000000000000e+00 -3.957229316137e-04 -2.173448228771e+03 1.540910680322e-04 -3.260171439144e+03 -2.173447867166e+03 -3.894205882477e-10 3.318884542233e-10 -1.170317692899e-03 0.000000000000e+00 2.535689178360e+03 1.086723391176e+03  1.170317498189e-03
7.500000000000e-01 -3.576405981611e+03 9.915969294602e-01 0.000000000000e+00 -4.568378795396e-04 -2.366082378434e+03 -5.223045307499e-05 -3.549126744835e+03 -2.366083649307e+03 1.368632987445e-09 -1.124963604692e-10 -1.274046410568e-03 0.000000000000e+00 2.760430924192e+03 1.183043730964e+03  1.274047094885e-03
8.000000000000e-01 -3.895162737367e+03 9.897092194648e-01 0.000000000000e+00 -5.233262193134e-04 -2.572465106052e+03 -1.911945138114e-04 -3.858695711920e+03 -2.572464327189e+03 -8.387754750810e-10 -4.118035682091e-10 -1.385172260480e-03 0.000000000000e+00 3.001208381720e+03 1.286230995300e+03  1.385171841093e-03
8.500000000000e-01 -4.241256474829e+03 9.873509714897e-01 0.000000000000e+00 -5.955926515139e-04 -2.795033290752e+03 -1.157750904752e-04 -4.192551189112e+03 -2.795033791945e+03 5.397469258365e-10 -2.493617333312e-10 -1.505018735410e-03 0.000000000000e+00 3.260872757270e+03 1.397517647763e+03  1.505019005283e-03
9.000000000000e-01 -4.619910733896e+03 9.844315055534e-01 0.000000000000e+00 -6.741091301682e-04 -3.036432887492e+03 2.621478004545e-06 -4.554646729030e+03 -3.036431846609e+03 -1.120950880086e-09 5.646260317482e-12 -1.635000642608e-03 0.000000000000e+00 3.542503821043e+03 1.518214361980e+03  1.635000082132e-03
9.500000000000e-01 -5.037053941689e+03 9.808200427335e-01 0.000000000000e+00 -7.594229348334e-04 -3.299573394086e+03 1.628648971509e-04 -4.949361272321e+03 -3.299573866563e+03 5.088209395324e-10 3.507859323250e-10 -1.776694129278e-03 0.000000000000e+00 3.849502844323e+03 1.649787641996e+03  1.776694383688e-03
1.000000000000e+00 -5.501186184649e+03 9.759306639983e-01 0.000000000000e+00 -8.521784015284e-04 -3.596938582181e+03 2.209812267832e-05 -5.395407758821e+03 -3.596938536401e+03 -4.930147103885e-11 4.759595653792e-11 -1.936813008760e-03 0.000000000000e+00 4.196428292467e+03 1.798469199530e+03  1.936812984110e-03
 TITLE = "Profiles along polylines"
 VARIABLES = "DIST" "PRESSURE1" "SATURATION1" "DISPLACEMENT_X1" "DISPLACEMENT_Y1" "STRESS_XX" "STRESS_XY" "STRESS_YY" "STRESS_ZZ" "STRAIN_XX" "STRAIN_XY" "STRAIN_YY" "STRAIN_PLS"  p_(1st_Invariant)  q_(2nd_Invariant)   Effective_Strain
 ZONE T="TIME=2.000000000000e+01"
0.000000000000e+00 0.000000000000e+00 1.000000000000e+00 0.000000000000e+00 0.000000000000e+00 1.672003937445e-02 9.622477071632e-06 2.814173569667e-02 1.794471002845e-02 -1.318876088915e-09 2.072533523121e-11 1.098141225807e-08 0.000000000000e+00 -2.093549503319e-02 1.086128107357e-02  1.169680554630e-08
5.000000000000e-02 -2.917662307980e+02 9.996646275731e-01 0.000000000000e+00 -2.617879753888e-06 -1.944603929982e+02 5.029638332625e-04 -2.916890253846e+02 -1.944597673531e+02 -6.737716465002e-10 1.083306717796e-09 -1.047084317262e-04 0.000000000000e+00 2.268697285787e+02 9.722894521433e+01  1.047080948588e-04
1.000000000000e-01 -5.835556897015e+02 9.993292284464e-01 0.000000000000e+00 -1.047020920581e-05 -3.888244723940e+02 6.354667156562e-04 -5.832367223143e+02 -3.888244778833e+02 5.911549148128e-12 1.368697541413e-09 -2.093670324641e-04 0.000000000000e+00 4.536285575306e+02 1.944122471787e+02  2.093670354333e-04
1.500000000000e-01 -8.755318201619e+02 9.989936147491e-01 0.000000000000e+00 -2.355534573465e-05 -5.831784363851e+02 3.779751026017e-04 -8.747703235067e+02 -5.831795039567e+02 1.149692545955e-09 8.141002209883e-10 -3.140208825923e-04 0.000000000000e+00 6.803760879495e+02 2.915913533380e+02  3.140214574433e-04
2.000000000000e-01 -1.167856837442e+03 9.986576000217e-01 0.000000000000e+00 -4.187459194821e-05 -7.776399224459e+02 -3.110245229743e-04 -1.166463265818e+03 -7.776412753055e+02 1.456925667066e-09 -6.698989725599e-10 -4.187313743978e-04 0.000000000000e+00 9.072481545231e+02 3.888226669442e+02  4.187321028642e-04
2.500000000000e-01 -1.460690920290e+03 9.983210001459e-01 0.000000000000e+00 -6.543206636598e-05 -9.723032610459e+02 -9.732985162178e-04 -1.458458376040e+03 -9.723046548342e+02 1.501002807286e-09 -2.096335265700e-09 -5.235501612982e-04 0.000000000000e+00 1.134355430640e+03 4.861544181040e+02  5.235509118138e-04
3.000000000000e-01 -1.754191352348e+03 9.979836343310e-01 0.000000000000e+00 -9.423474428451e-05 -1.167286571135e+03 -1.406762115271e-03 -1.750930077082e+03 -1.167286659287e+03 9.493298472107e-11 -3.029949171352e-09 -6.285390653182e-04 0.000000000000e+00 1.361834435835e+03 5.836434618766e+02  6.285391128066e-04