 TITLE = "Time curves in points"
 VARIABLES = "TIME"  "PRESSURE1"  "SATURATION1"  "DISPLACEMENT_X1"  "DISPLACEMENT_Y1"  "STRESS_XX"  "STRESS_XY"  "STRESS_YY"  "STRESS_ZZ"  "STRAIN_XX"  "STRAIN_XY"  "STRAIN_YY"  "STRAIN_PLS"  p_(1st_Invariant)  q_(2nd_Invariant)   Effective_Strain
 ZONE T="POINT=POINT0"
0.000000000000e+00 0.000000000000e+00 1.000000000000e+00 0.000000000000e+00 0.000000000000e+00 0.000000000000e+00 0.000000000000e+00 0.000000000000e+00 0.000000000000e+00 0.000000000000e+00 0.000000000000e+00 0.000000000000e+00 0.000000000000e+00 -0.000000000000e+00 0.000000000000e+00  0.000000000000e+00
1.000000000000e+00 -2.102594212636e+03 9.975831605939e-01 0.000000000000e+00 -1.962907542931e-04 -1.398965606339e+03 -1.723214984348e-03 -2.098474479988e+03 -1.398976034531e+03 1.123036077058e-08 -3.711539966288e-09 -7.533060181850e-04 0.000000000000e+00 1.632138706953e+03 6.995036596182e+02  7.533116334556e-04
2.000000000000e+00 -2.999353595962e+03 9.945498895068e-01 0.000000000000e+00 -3.456154900650e-04 -1.991893034125e+03 -1.987545268589e-04 -2.987843240060e+03 -1.991894509674e+03 1.589052791449e-09 -4.280866732346e-10 -1.072560171185e-03 0.000000000000e+00 2.323876927953e+03 9.959494681615e+02  1.072560965713e-03
3.000000000000e+00 -3.604603137824e+03 9.914568603293e-01 0.000000000000e+00 -4.665944097942e-04 -2.388040776224e+03 -6.214904391304e-05 -3.582062525200e+03 -2.388041320570e+03 5.862178242584e-10 -1.338594791973e-10 -1.285868989601e-03 0.000000000000e+00 2.786048207331e+03 1.194021476803e+03  1.285869282710e-03
4.000000000000e+00 -4.041701610015e+03 9.887330194036e-01 0.000000000000e+00 -5.555907708525e-04 -2.671606362790e+03 2.644722322606e-04 -4.007406514472e+03 -2.671605150905e+03 -1.305106926690e-09 5.696325002536e-10 -1.438555314611e-03 0.000000000000e+00 3.116872676056e+03 1.335800757625e+03  1.438554662058e-03
5.000000000000e+00 -4.388410622511e+03 9.862519346014e-01 0.000000000000e+00 -6.270091653907e-04 -2.894718598427e+03 -1.140648290255e-03 -4.342087926374e+03 -2.894722609920e+03 4.320070067296e-09 -2.456780932857e-09 -1.558701110027e-03 0.000000000000e+00 3.377176378240e+03 1.447367322206e+03  1.558703270072e-03
6.000000000000e+00 -4.677125350176e+03 9.839610183803e-01 0.000000000000e+00 -6.855087276595e-04 -3.079152233763e+03 1.494553574672e-04 -4.618727092634e+03 -3.079151730559e+03 -5.419122626928e-10 3.219038468525e-10 -1.658004236081e-03 0.000000000000e+00 3.592343685652e+03 1.539575110473e+03  1.658003965125e-03
7.000000000000e+00 -4.924452240886e+03 9.818384431864e-01 0.000000000000e+00 -7.345415606979e-04 -3.235874488612e+03 8.234760357558e-04 -4.853804707477e+03 -3.235871678435e+03 -3.026343499688e-09 1.773640692397e-09 -1.742389415891e-03 0.000000000000e+00 3.775183624841e+03 1.617931623956e+03  1.742387902724e-03
8.000000000000e+00 -5.140410523082e+03 9.798416189461e-01 0.000000000000e+00 -7.790385921272e-04 -3.371844747455e+03 1.995772763556e-04 -5.057765628013e+03 -3.371844150187e+03 -6.432116705732e-10 4.298587490735e-10 -1.815607745351e-03 0.000000000000e+00 3.933818175219e+03 1.685921179192e+03  1.815607423745e-03
9.000000000000e+00 -5.328462460637e+03 9.778265946546e-01 0.000000000000e+00 -8.170190569408e-04 -3.489561188834e+03 -7.545307150748e-06 -5.234341887822e+03 -3.489561230662e+03 4.504595026668e-11 -1.625143078622e-11 -1.878994553864e-03 0.000000000000e+00 4.071154769106e+03 1.744780678074e+03  1.878994576387e-03
1.000000000000e+01 -5.501186184649e+03 9.759306639983e-01 0.000000000000e+00 -8.521783840343e-04 -3.596938048660e+03 -9.012020819371e-05 -5.395407085634e+03 -3.596938053718e+03 5.446530575598e-12 -1.941050638018e-10 -1.936812803602e-03 0.000000000000e+00 4.196427729337e+03 1.798469034445e+03  1.936812806325e-03
1.100000000000e+01 -5.658996498446e+03 9.742278002399e-01 0.000000000000e+00 -8.830221678417e-04 -3.694312641750e+03 4.464361039548e-05 -5.541468938259e+03 -3.694312632004e+03 -1.049639767553e-11 9.615546854412e-11 -1.989245252890e-03 0.000000000000e+00 4.310031404004e+03 1.847156301382e+03  1.989245247642e-03
1.200000000000e+01 -5.803295410818e+03 9.726776974643e-01 0.000000000000e+00 -9.118913359951e-04 -3.782582802170e+03 7.043829810144e-05 -5.673873747235e+03 -3.782582619762e+03 -1.964395408788e-10 1.517132574493e-10 -2.036775060355e-03 0.000000000000e+00 4.413013056389e+03 1.891291036269e+03  2.036774962136e-03
1.300000000000e+01 -5.938090257574e+03 9.712296902502e-01 0.000000000000e+00 -9.388071280155e-04 -3.864756400813e+03 5.837332561846e-04 -5.797129831088e+03 -3.864754492761e+03 -2.054825732031e-09 1.257271628705e-09 -2.081019595122e-03 0.000000000000e+00 4.508880241554e+03 1.932374384303e+03  2.081018567711e-03
1.400000000000e+01 -6.063879632567e+03 9.698784225510e-01 0.000000000000e+00 -9.631836274614e-04 -3.941204386086e+03 -4.541847062393e-05 -5.911807024661e+03 -3.941204564299e+03 1.919212001461e-10 -9.782439826693e-11 -2.122187265005e-03 0.000000000000e+00 4.598071991682e+03 1.970602549468e+03  2.122187360966e-03
1.500000000000e+01 -6.181379260781e+03 9.684085510137e-01 0.000000000000e+00 -9.863275330721e-04 -4.012415339513e+03 3.498034070368e-06 -6.018622986874e+03 -4.012415330555e+03 -9.647367094243e-12 7.534227228485e-12 -2.160531322190e-03 0.000000000000e+00 4.681151218981e+03 2.006207651840e+03  2.160531317366e-03
1.600000000000e+01 -6.291829678325e+03 9.669197245292e-01 0.000000000000e+00 -1.008305701190e-03 -4.079170801476e+03 -6.416773535174e-05 -6.118756881938e+03 -4.079171073366e+03 2.928044908356e-10 -1.382074299884e-10 -2.196477024617e-03 0.000000000000e+00 4.759032918926e+03 2.039585944518e+03  2.196477171019e-03
1.700000000000e+01 -6.395909937575e+03 9.655167213879e-01 0.000000000000e+00 -1.028999095009e-03 -4.141911547954e+03 7.565695716983e-05 -6.212866673775e+03 -4.141911288691e+03 -2.792055585794e-10 1.629534462119e-10 -2.230259645474e-03 0.000000000000e+00 4.832229836807e+03 2.070955255452e+03  2.230259505872e-03
1.800000000000e+01 -6.494268142428e+03 9.641986568911e-01 0.000000000000e+00 -1.048636548020e-03 -4.201059240457e+03 -7.092322379914e-05 -6.301589584362e+03 -4.201059529928e+03 3.117379556225e-10 -1.527577127981e-10 -2.262109289391e-03 0.000000000000e+00 4.901236118249e+03 2.100530199170e+03  2.262109445260e-03
1.900000000000e+01 -6.587392041409e+03 9.629755729497e-01 0.000000000000e+00 -1.067265885203e-03 -4.256283601070e+03 -5.586029609486e-05 -6.384425751600e+03 -4.256283741068e+03 1.507671281830e-10 -1.203144838966e-10 -2.291845242112e-03 0.000000000000e+00 4.965664364580e+03 2.128142080531e+03  2.291845317495e-03
2.000000000000e+01 -6.675772953908e+03 9.618147831204e-01 0.000000000000e+00 -1.084465496080e-03 -4.308252413322e+03 -3.815507122044e-07 -6.462378634767e+03 -4.308252419235e+03 6.368217470237e-12 -8.218015339779e-13 -2.319828232110e-03 0.000000000000e+00 5.026294489108e+03 2.154126218488e+03  2.319828235294e-03
2.100000000000e+01 -6.759941005158e+03 9.607093247688e-01 0.000000000000e+00 -1.101056161623e-03 -4.357615529958e+03 5.966553825361e-05 -6.536422793400e+03 -4.357615329343e+03 -2.160466791086e-10 1.285103900847e-10 -2.346408038215e-03 0.000000000000e+00 5.083884550901e+03 2.178807363750e+03  2.346407930192e-03
2.200000000000e+01 -6.840157925681e+03 9.596557603413e-01 0.000000000000e+00 -1.116985257503e-03 -4.404546535177e+03 1.095221533522e-05 -6.606819792830e+03 -4.404546531203e+03 -4.279594752716e-12 2.358938687585e-11 -2.371678897137e-03 0.000000000000e+00 5.138637619737e+03 2.202273259641e+03  2.371678894998e-03
2.300000000000e+01 -6.916704891593e+03 9.585313021695e-01 0.000000000000e+00 -1.132140893184e-03 -4.449226031868e+03 7.588402477262e-05 -6.673838207895e+03 -4.449225695905e+03 -3.618063000545e-10 1.634425148949e-10 -2.395736551374e-03 0.000000000000e+00 5.190763311890e+03 2.224612344008e+03  2.395736370470e-03
2.400000000000e+01 -6.989835820229e+03 9.573940361369e-01 0.000000000000e+00 -1.146669160225e-03 -4.491815654519e+03 -1.984592389707e-05 -6.737723583138e+03 -4.491815695063e+03 4.366259732380e-11 -4.274506685522e-11 -2.418670033312e-03 0.000000000000e+00 5.240451644240e+03 2.245907908347e+03  2.418670055143e-03
2.500000000000e+01 -7.059800136258e+03 9.563060150028e-01 0.000000000000e+00 -1.160585313166e-03 -4.532474820652e+03 1.666875347404e-05 -6.798712170751e+03 -4.532474796561e+03 -2.594382255007e-11 3.590193055948e-11 -2.440563326051e-03 0.000000000000e+00 5.287887262655e+03 2.266237362145e+03  2.440563313079e-03
2.600000000000e+01 -7.126990485557e+03 9.552611348177e-01 0.000000000000e+00 -1.173966021829e-03 -4.571442938935e+03 2.058616323819e-04 -6.857162693549e+03 -4.571442252994e+03 -7.387060465743e-10 4.433942851302e-10 -2.461545089829e-03 0.000000000000e+00 5.333349295159e+03 2.285720097585e+03  2.461544720476e-03
2.700000000000e+01 -7.191599809959e+03 9.542563902998e-01 0.000000000000e+00 -1.186845519973e-03 -4.608837632859e+03 4.623071666325e-05 -6.913255920409e+03 -4.608837421307e+03 -2.278248762116e-10 9.957385127469e-11 -2.481681460571e-03 0.000000000000e+00 5.376976991525e+03 2.304418393326e+03  2.481681346659e-03
2.800000000000e+01 -7.253760208403e+03 9.532949118910e-01 0.000000000000e+00 -1.199240378066e-03 -4.644747311824e+03 -8.090822079406e-06 -6.967121106308e+03 -4.644747367253e+03 5.969275010895e-11 -1.742638601718e-11 -2.501017872829e-03 0.000000000000e+00 5.418871928462e+03 2.322373766770e+03  2.501017902675e-03
2.900000000000e+01 -7.313603805277e+03 9.523825757118e-01 0.000000000000e+00 -1.211164907278e-03 -4.679021990244e+03 3.838968589001e-05 -7.018532648112e+03 -4.679021855342e+03 -1.452782645884e-10 8.268547730157e-11 -2.519473161445e-03 0.000000000000e+00 5.458858831233e+03 2.339510725319e+03  2.519473088805e-03
3.000000000000e+01 -7.371252113177e+03 9.515037074666e-01 0.000000000000e+00 -1.222378238030e-03 -4.711607928431e+03 -3.170279652320e-05 -7.067412188862e+03 -4.711608046917e+03 1.276007842255e-10 -6.828294635766e-11 -2.537019845172e-03 0.000000000000e+00 5.496876054737e+03 2.355804201188e+03  2.537019908972e-03
3.100000000000e+01 -7.426814990064e+03 9.506566323332e-01 0.000000000000e+00 -1.233279582415e-03 -4.742952112729e+03 5.825232904777e-07 -7.114428168653e+03 -4.742952112553e+03 -1.898447095077e-13 1.254665548722e-12 -2.553897291185e-03 0.000000000000e+00 5.533444131311e+03 2.371476056012e+03  2.553897291090e-03
3.200000000000e+01 -7.480394406615e+03 9.498397957335e-01 0.000000000000e+00 -1.243761826520e-03 -4.773118624395e+03 4.140980854804e-05 -7.159677631393e+03 -4.773118502315e+03 -1.314703022114e-10 8.919035687271e-11 -2.570140600545e-03 0.000000000000e+00 5.568638252701e+03 2.386559068038e+03  2.570140534810e-03
3.300000000000e+01 -7.532106170743e+03 9.490331109232e-01 0.000000000000e+00 -1.253921118545e-03 -4.802177653121e+03 -1.486211917206e-05 -7.203266566046e+03 -4.802177687667e+03 3.720278859794e-11 -3.201071821675e-11 -2.585788022870e-03 0.000000000000e+00 5.602540635611e+03 2.401088895652e+03  2.585788041471e-03
3.400000000000e+01 -7.582089626926e+03 9.481611904125e-01 0.000000000000e+00 -1.263771384761e-03 -4.830213465869e+03 -4.830939020409e-05 -7.245320678118e+03 -4.830213657595e+03 2.064738438547e-10 -1.040509942857e-10 -2.600884483640e-03 0.000000000000e+00 5.635249267194e+03 2.415107116386e+03  2.600884586877e-03
3.500000000000e+01 -7.630448449663e+03 9.473176091145e-01 0.000000000000e+00 -1.273320199376e-03 -4.857289667195e+03 -4.317714263570e-05 -7.285934931757e+03 -4.857289839581e+03 1.856464365116e-10 -9.299692259997e-11 -2.615463945421e-03 0.000000000000e+00 5.666838146178e+03 2.428645178369e+03  2.615464038244e-03
3.600000000000e+01 -7.677262638271e+03 9.465009725765e-01 0.000000000000e+00 -1.282571578227e-03 -4.883455932562e+03 -1.391651568897e-05 -7.325183889264e+03 -4.883455928730e+03 -4.126320424069e-12 -2.997403379162e-11 -2.629553188267e-03 0.000000000000e+00 5.697365250185e+03 2.441727958618e+03  2.629553186204e-03
3.700000000000e+01 -7.722619412974e+03 9.457097604833e-01 0.000000000000e+00 -1.291534499945e-03 -4.908765572608e+03 -2.580779782746e-05 -7.363148501809e+03 -4.908765629767e+03 6.155586774889e-11 -5.558602608991e-11 -2.643181554507e-03 0.000000000000e+00 5.726893234728e+03 2.454382900622e+03  2.643181585285e-03
3.800000000000e+01 -7.766617601835e+03 9.449422502795e-01 0.000000000000e+00 -1.300215384320e-03 -4.933278462423e+03 9.944379504626e-06 -7.399917650258e+03 -4.933278445072e+03 -1.868542378457e-11 2.141866354843e-11 -2.656380682507e-03 0.000000000000e+00 5.755491519251e+03 2.466639196510e+03  2.656380673165e-03
3.900000000000e+01 -7.809303106904e+03 9.441976394746e-01 0.000000000000e+00 -1.308622411305e-03 -4.957022458760e+03 2.151530805810e-06 -7.435533628082e+03 -4.957022434737e+03 -2.587133245623e-11 4.634066350977e-12 -2.669165900525e-03 0.000000000000e+00 5.783192840526e+03 2.478511181333e+03  2.669165887590e-03
4.000000000000e+01 -7.850726630496e+03 9.434750431230e-01 0.000000000000e+00 -1.316777337143e-03 -4.980029552441e+03 2.737012405451e-06 -7.470044343110e+03 -4.980029558220e+03 6.224168365450e-12 5.895103642510e-12 -2.681554383728e-03 0.000000000000e+00 5.810034484591e+03 2.490014787780e+03  2.681554386840e-03
4.100000000000e+01 -7.890939571028e+03 9.427735643896e-01 0.000000000000e+00 -1.324685070140e-03 -5.002331020574e+03 1.467382291217e-05 -7.503496355164e+03 -5.002330950295e+03 -7.568464460665e-11 3.160515704159e-11 -2.693562743705e-03 0.000000000000e+00 5.836052775344e+03 2.501165369730e+03  2.693562705863e-03
4.200000000000e+01 -7.929991357369e+03 9.421018193006e-01 0.000000000000e+00 -1.332356465673e-03 -5.023957501258e+03 6.440047725342e-05 -7.535935694740e+03 -5.023957278399e+03 -2.400016950869e-10 1.387087202381e-10 -2.705207525290e-03 0.000000000000e+00 5.861283491466e+03 2.511978304911e+03  2.705207405289e-03
4.300000000000e+01 -7.967929438893e+03 9.414505731926e-01 0.000000000000e+00 -1.339800730432e-03 -5.044759009496e+03 1.048683670796e-04 -7.567137625273e+03 -5.044758653908e+03 -3.829415009468e-10 2.258703290944e-10 -2.716408123009e-03 0.000000000000e+00 5.885551762892e+03 2.522378793571e+03  2.716407931538e-03
4.400000000000e+01 -8.004807955087e+03 9.408175156110e-01 0.000000000000e+00 -1.347034428883e-03 -5.064747567969e+03 -3.371526065309e-06 -7.597121419717e+03 -5.064747595074e+03 2.919090760446e-11 -7.261748448358e-12 -2.727171811154e-03 0.000000000000e+00 5.908872194253e+03 2.532373838196e+03  2.727171825749e-03
4.500000000000e+01 -8.040679004071e+03 9.402017522381e-01 0.000000000000e+00 -1.354071879739e-03 -5.084161376177e+03 1.335872032923e-04 -7.626240930556e+03 -5.084160922693e+03 -4.883671259701e-10 2.877262840143e-10 -2.737624623852e-03 0.000000000000e+00 5.931521076475e+03 2.542079781121e+03  2.737624379669e-03
4.600000000000e+01 -8.075588880257e+03 9.396024883828e-01 0.000000000000e+00 -1.360920839699e-03 -5.103025101477e+03 -2.951824669183e-05 -7.654537951860e+03 -5.103025221335e+03 1.290772549498e-10 -6.357776210548e-11 -2.747782940565e-03 0.000000000000e+00 5.953529424891e+03 2.551512790454e+03  2.747783005104e-03
4.700000000000e+01 -8.109577920468e+03 9.390141703795e-01 0.000000000000e+00 -1.367587243932e-03 -5.121365450337e+03 1.239213932098e-05 -7.682047975274e+03 -5.121365370244e+03 -8.625329667723e-11 2.669076161442e-11 -2.757658190032e-03 0.000000000000e+00 5.974926265285e+03 2.560682564984e+03  2.757658146906e-03
4.800000000000e+01 -8.142681258458e+03 9.383905295355e-01 0.000000000000e+00 -1.374075892782e-03 -5.139202359803e+03 -6.022822294344e-06 -7.708803573727e+03 -5.139202373412e+03 1.465580486592e-11 -1.297223263397e-11 -2.767262831108e-03 0.000000000000e+00 5.995736102314e+03 2.569601207119e+03  2.767262838436e-03
4.900000000000e+01 -8.174930340898e+03 9.377829822414e-01 0.000000000000e+00 -1.380357288080e-03 -5.156555268096e+03 2.512171398038e-05 -7.734832706642e+03 -5.156555189895e+03 -8.421612673147e-11 5.410830703466e-11 -2.776606556497e-03 0.000000000000e+00 6.015981054878e+03 2.578277477647e+03  2.776606514389e-03
5.000000000000e+01 -8.206362464117e+03 9.371908254677e-01 0.000000000000e+00 -1.386481317706e-03 -5.173445240813e+03 1.785187268544e-06 -7.760167848078e+03 -5.173445235557e+03 -5.660916306366e-12 3.845018732250e-12 -2.785701275023e-03 0.000000000000e+00 6.035686108149e+03 2.586722609893e+03  2.785701272193e-03
5.100000000000e+01 -8.237008181829e+03 9.366134838749e-01 0.000000000000e+00 -1.392443791308e-03 -5.189891102701e+03 -6.409191600117e-06 -7.784836721931e+03 -5.189891129853e+03 2.924008363830e-11 -1.380441267717e-11 -2.794556791469e-03 0.000000000000e+00 6.054872984828e+03 2.594945605654e+03  2.794556806089e-03
5.200000000000e+01 -8.266892455761e+03 9.360504874292e-01 0.000000000000e+00 -1.398251166470e-03 -5.205907817202e+03 -1.835919346540e-07 -7.808861727825e+03 -5.205907818011e+03 8.713275773485e-13 -3.954287823309e-13 -2.803181133646e-03 0.000000000000e+00 6.073559121013e+03 2.602953910219e+03  2.803181134082e-03
5.300000000000e+01 -8.296039188826e+03 9.355013858274e-01 0.000000000000e+00 -1.403912253204e-03 -5.221510320870e+03 1.162227729283e-04 -7.832264433044e+03 -5.221509901566e+03 -4.515582207010e-10 2.503259724610e-10 -2.811581803131e-03 0.000000000000e+00 6.091761551827e+03 2.610754321827e+03  2.811581577352e-03
5.400000000000e+01 -8.324472822782e+03 9.349657186559e-01 0.000000000000e+00 -1.409335489758e-03 -5.236711451838e+03 1.077520071619e-05 -7.855067041104e+03 -5.236711397177e+03 -5.886622619807e-11 2.320812461949e-11 -2.819767616537e-03 0.000000000000e+00 6.109496630039e+03 2.618355616596e+03  2.819767587103e-03
5.500000000000e+01 -8.352214003775e+03 9.344430969420e-01 0.000000000000e+00 -1.414657335024e-03 -5.251525651182e+03 7.595082885745e-05 -7.877287845436e+03 -5.251525398647e+03 -2.719608922624e-10 1.635864006160e-10 -2.827744173465e-03 0.000000000000e+00 6.126779631755e+03 2.625762320521e+03  2.827744037484e-03
5.600000000000e+01 -8.379282833348e+03 9.339331419656e-01 0.000000000000e+00 -1.419862834072e-03 -5.265963841840e+03 1.231397604463e-04 -7.898944672315e+03 -5.265963405662e+03 -4.697304006547e-10 2.652240994228e-10 -2.835518287165e-03 0.000000000000e+00 6.143623973272e+03 2.632981048564e+03  2.835518052299e-03
5.700000000000e+01 -8.405699342639e+03 9.334354763095e-01 0.000000000000e+00 -1.424950457804e-03 -5.280037212399e+03 1.261270172532e-06 -7.920055808788e+03 -5.280037208475e+03 -4.226024671062e-12 2.716581910070e-12 -2.843096954184e-03 0.000000000000e+00 6.160043409887e+03 2.640018598351e+03  2.843096952071e-03
5.800000000000e+01 -8.431483780741e+03 9.329497184346e-01 0.000000000000e+00 -1.429917485206e-03 -5.293759335846e+03 1.827274421166e-05 -7.940638864976e+03 -5.293759280329e+03 -5.978794943438e-11 3.935667984050e-11 -2.850485706543e-03 0.000000000000e+00 6.176052493717e+03 2.646879556888e+03  2.850485676649e-03
5.900000000000e+01 -8.456656902510e+03 9.324754772569e-01 0.000000000000e+00 -1.434765477023e-03 -5.307141217637e+03 -1.392721680455e-05 -7.960711982110e+03 -5.307141279899e+03 6.705117840422e-11 -2.999708234827e-11 -2.857691525458e-03 0.000000000000e+00 6.191664826549e+03 2.653570733342e+03  2.857691558984e-03
6.000000000000e+01 -8.481239908541e+03 9.320123555006e-01 0.000000000000e+00 -1.439501993720e-03 -5.320195541370e+03 -1.652617359728e-05 -7.980293399705e+03 -5.320195576430e+03 3.775675690581e-11 -3.559483544030e-11 -2.864720732757e-03 0.000000000000e+00 6.206894839168e+03 2.660097840805e+03  2.864720751636e-03
6.100000000000e+01 -8.505253059902e+03 9.315650491134e-01 0.000000000000e+00 -1.444131496996e-03 -5.332934208561e+03 1.954762520436e-05 -7.999401161766e+03 -5.332934148131e+03 -6.507893038049e-11 4.210257736324e-11 -2.871579860838e-03 0.000000000000e+00 6.221756506153e+03 2.666466983420e+03  2.871579828298e-03
6.200000000000e+01 -8.528716332180e+03 9.311279856311e-01 0.000000000000e+00 -1.448658373984e-03 -5.345368213035e+03 4.098014455546e-05 -8.018051841640e+03 -5.345368021870e+03 -2.058698626145e-10 8.826492673483e-11 -2.878274882829e-03 0.000000000000e+00 6.236262692181e+03 2.672683724188e+03  2.878274779894e-03
6.300000000000e+01 -8.551648891759e+03 9.307008080307e-01 0.000000000000e+00 -1.453082080841e-03 -5.357378831519e+03 1.492121288917e-06 -8.036068235993e+03 -5.357378827005e+03 -4.861256653114e-12 3.213799699206e-12 -2.884742440449e-03 0.000000000000e+00 6.250275298172e+03 2.678689406731e+03  2.884742438018e-03
6.400000000000e+01 -8.574068891526e+03 9.302831781684e-01 0.000000000000e+00 -1.457406994144e-03 -5.369050205477e+03 7.938534662550e-05 -8.053574634032e+03 -5.369049935804e+03 -2.904179210159e-10 1.709838235011e-10 -2.891026598092e-03 0.000000000000e+00 6.263891591771e+03 2.684524563391e+03  2.891026452883e-03
6.500000000000e+01 -8.595993115828e+03 9.298747833926e-01 0.000000000000e+00 -1.461635837547e-03 -5.380450839825e+03 4.393682915927e-05 -8.070675894963e+03 -5.380450693915e+03 -1.571333729172e-10 9.463317049689e-11 -2.897165601129e-03 0.000000000000e+00 6.277192476234e+03 2.690225128093e+03  2.897165522562e-03
6.600000000000e+01 -8.617437085420e+03 9.294753345897e-01 0.000000000000e+00 -1.465771259656e-03 -5.391590171545e+03 5.945381026813e-06 -8.087385206384e+03 -5.391590151172e+03 -2.194020202031e-11 1.280543605775e-11 -2.903163905614e-03 0.000000000000e+00 6.290188509700e+03 2.695795045026e+03  2.903163894644e-03
6.700000000000e+01 -8.638415481312e+03 9.290845582882e-01 0.000000000000e+00 -1.469816367885e-03 -5.402476864679e+03 5.837656711159e-06 -8.103715223155e+03 -5.402476835134e+03 -3.181823418183e-11 1.257341445480e-11 -2.909025956331e-03 0.000000000000e+00 6.302889640989e+03 2.701238373249e+03  2.909025940421e-03
6.800000000000e+01 -8.658942175006e+03 9.286611053454e-01 0.000000000000e+00 -1.473773583689e-03 -5.413118580657e+03 -1.357217000836e-05 -8.119678089563e+03 -5.413118668088e+03 9.415663190236e-11 -2.923236617185e-11 -2.914756300050e-03 0.000000000000e+00 6.315305112769e+03 2.706559465191e+03  2.914756347129e-03
6.900000000000e+01 -8.679032502141e+03 9.282322361316e-01 0.000000000000e+00 -1.477645572649e-03 -5.423524029817e+03 1.846970577361e-05 -8.135285883275e+03 -5.423523965237e+03 -6.954775213667e-11 3.978090474316e-11 -2.920358988657e-03 0.000000000000e+00 6.327444626110e+03 2.711761885748e+03  2.920358953883e-03
7.000000000000e+01 -8.698699868707e+03 9.278123957891e-01 0.000000000000e+00 -1.481432027459e-03 -5.433700519379e+03 -8.807234287996e-07 -8.150550789074e+03 -5.433700523381e+03 4.310096614791e-12 -1.896942769721e-12 -2.925838747669e-03 0.000000000000e+00 6.339317277278e+03 2.716850267694e+03  2.925838749824e-03
7.100000000000e+01 -8.717956283684e+03 9.274013280486e-01 0.000000000000e+00 -1.485134380001e-03 -5.443655369905e+03 2.647899105477e-05 -8.165482828251e+03 -5.443655279262e+03 -9.761530389758e-11 5.703167304105e-11 -2.931198898911e-03 0.000000000000e+00 6.350931159139e+03 2.721827503667e+03  2.931198850103e-03
7.200000000000e+01 -8.736812874171e+03 9.269987954217e-01 0.000000000000e+00 -1.488756511242e-03 -5.453394362287e+03 5.064922333038e-07 -8.180091546153e+03 -5.453394363376e+03 1.172804513835e-12 1.090906348655e-12 -2.936443119914e-03 0.000000000000e+00 6.362293423939e+03 2.726697183322e+03  2.936443120500e-03
7.300000000000e+01 -8.755280149876e+03 9.266045735771e-01 0.000000000000e+00 -1.492301419437e-03 -5.462923965768e+03 1.023672041775e-05 -8.194385830429e+03 -5.462923918479e+03 -5.092662164207e-11 2.204832089977e-11 -2.941574366716e-03 0.000000000000e+00 6.373411238225e+03 2.731461888306e+03  2.941574341252e-03
7.400000000000e+01 -8.773368175938e+03 9.262184476593e-01 0.000000000000e+00 -1.495771299073e-03 -5.472249730309e+03 2.247560116949e-05 -8.208374341145e+03 -5.472249628582e+03 -1.095523711933e-10 4.840898713429e-11 -2.946595844299e-03 0.000000000000e+00 6.384291233345e+03 2.736124661700e+03  2.946595789523e-03
7.500000000000e+01 -8.791086924468e+03 9.258402047660e-01 0.000000000000e+00 -1.499166457120e-03 -5.481377142532e+03 -5.884147315033e-06 -8.222065792165e+03 -5.481377173879e+03 3.375778754389e-11 -1.267354806315e-11 -2.951510819693e-03 0.000000000000e+00 6.394940036192e+03 2.740688633959e+03  2.951510836571e-03
7.600000000000e+01 -8.808445866670e+03 9.254696427287e-01 0.000000000000e+00 -1.502490297476e-03 -5.490311815912e+03 1.332433636482e-06 -8.235467713353e+03 -5.490311811706e+03 -4.529709164128e-12 2.869857063194e-12 -2.956321740235e-03 0.000000000000e+00 6.405363780323e+03 2.745155899544e+03  2.956321737970e-03
7.700000000000e+01 -8.825454106797e+03 9.251065672012e-01 0.000000000000e+00 -1.505744042304e-03 -5.499058859604e+03 1.465647394330e-05 -8.248588174853e+03 -5.499058813783e+03 -4.934560163014e-11 3.156779003172e-11 -2.961031619614e-03 0.000000000000e+00 6.415568616080e+03 2.749529338160e+03  2.961031594941e-03
7.800000000000e+01 -8.842121962818e+03 9.247507580117e-01 0.000000000000e+00 -1.508929937948e-03 -5.507623862137e+03 1.212237307707e-05 -8.261435697156e+03 -5.507623823717e+03 -4.137544635055e-11 2.610972662753e-11 -2.965643556011e-03 0.000000000000e+00 6.425561127670e+03 2.753811854229e+03  2.965643535323e-03
7.900000000000e+01 -8.858458321856e+03 9.244020254470e-01 0.000000000000e+00 -1.512047083326e-03 -5.516011851569e+03 -8.495227354086e-07 -8.274017799683e+03 -5.516011860501e+03 9.618827203468e-12 -1.829741276264e-12 -2.970160242196e-03 0.000000000000e+00 6.435347170585e+03 2.758005943648e+03  2.970160247006e-03
8.000000000000e+01 -8.874470903605e+03 9.240602046510e-01 0.000000000000e+00 -1.515100647071e-03 -5.524227333209e+03 9.047484487198e-06 -8.286340900247e+03 -5.524227293382e+03 -4.289032995182e-11 1.948688966473e-11 -2.974583884315e-03 0.000000000000e+00 6.444931842279e+03 2.762113586951e+03  2.974583862870e-03
8.100000000000e+01 -8.890167438538e+03 9.237251305724e-01 0.000000000000e+00 -1.518092288965e-03 -5.532274570026e+03 1.819876532840e-05 -8.298411696109e+03 -5.532274506454e+03 -6.846214092487e-11 3.919734070732e-11 -2.978916973475e-03 0.000000000000e+00 6.454320257530e+03 2.766137157869e+03  2.978916939244e-03
8.200000000000e+01 -8.905555528012e+03 9.233966409312e-01 0.000000000000e+00 -1.521022153012e-03 -5.540157683321e+03 7.336546839131e-06 -8.310236477040e+03 -5.540157664144e+03 -2.065202302674e-11 1.580179319198e-11 -2.983161798503e-03 0.000000000000e+00 6.463517274835e+03 2.770078803307e+03  2.983161788177e-03
8.300000000000e+01 -8.920642595840e+03 9.230745772441e-01 0.000000000000e+00 -1.523890937739e-03 -5.547880976869e+03 9.823680131249e-06 -8.321821393257e+03 -5.547880948050e+03 -3.103536212599e-11 2.115869566731e-11 -2.987320479453e-03 0.000000000000e+00 6.472527772725e+03 2.773940430797e+03  2.987320463936e-03
8.400000000000e+01 -8.935435875052e+03 9.227587851016e-01 0.000000000000e+00 -1.526702471860e-03 -5.555448359652e+03 1.148784474052e-06 -8.333172535543e+03 -5.555448358078e+03 -1.695127414958e-12 2.474305021035e-12 -2.991395268039e-03 0.000000000000e+00 6.481356417758e+03 2.777724176678e+03  2.991395267192e-03
8.500000000000e+01 -8.949942615451e+03 9.224491097156e-01 0.000000000000e+00 -1.529458018063e-03 -5.562863975721e+03 4.432077072043e-06 -8.344295926196e+03 -5.562863960766e+03 -1.610439318329e-11 9.546012155170e-12 -2.995388270462e-03 0.000000000000e+00 6.490007954228e+03 2.781431957952e+03  2.995388262410e-03
8.600000000000e+01 -8.964169869607e+03 9.221454005310e-01 0.000000000000e+00 -1.532159332767e-03 -5.570131650799e+03 -2.861332119227e-06 -8.355197506468e+03 -5.570131662907e+03 1.303939862392e-11 -6.162869179873e-12 -2.999301677682e-03 0.000000000000e+00 6.498486940058e+03 2.785065849615e+03  2.999301684201e-03
8.700000000000e+01 -8.978124404233e+03 9.218475131044e-01 0.000000000000e+00 -1.534807832575e-03 -5.577255339587e+03 2.507773912910e-05 -8.365882803745e+03 -5.577255257333e+03 -8.858131307579e-11 5.401359197038e-11 -3.003137357675e-03 0.000000000000e+00 6.506797800222e+03 2.788627505285e+03  3.003137313384e-03
8.800000000000e+01 -8.991812791250e+03 9.215553071428e-01 0.000000000000e+00 -1.537404681501e-03 -5.584238378631e+03 3.570940070700e-05 -8.376357256679e+03 -5.584238254124e+03 -1.340839705207e-10 7.691255536893e-11 -3.006897387367e-03 0.000000000000e+00 6.514944629811e+03 2.792118940302e+03  3.006897320325e-03
8.900000000000e+01 -9.005241356157e+03 9.212686476195e-01 0.000000000000e+00 -1.539951233204e-03 -5.591084150259e+03 2.645856877666e-07 -8.386626224971e+03 -5.591084150092e+03 -1.794782444472e-13 5.698768659597e-13 -3.010583772947e-03 0.000000000000e+00 6.522931508441e+03 2.795542074796e+03  3.010583772857e-03
9.000000000000e+01 -9.018416198691e+03 9.209874043260e-01 0.000000000000e+00 -1.542447772749e-03 -5.597796467726e+03 5.368320124140e-06 -8.396694637642e+03 -5.597796442147e+03 -2.754638375873e-11 1.156253565199e-11 -3.014198056687e-03 0.000000000000e+00 6.530762515839e+03 2.798898182706e+03  3.014198042914e-03
9.100000000000e+01 -9.031343166624e+03 9.207151493394e-01 0.000000000000e+00 -1.544893888346e-03 -5.604378255127e+03 -9.044430992239e-06 -8.406567479546e+03 -5.604378293869e+03 4.172237527303e-11 -1.948031290636e-11 -3.017742199960e-03 0.000000000000e+00 6.538441342848e+03 2.802189205048e+03  3.017742220821e-03
9.200000000000e+01 -9.044027998213e+03 9.204487295648e-01 0.000000000000e+00 -1.547293230300e-03 -5.610832827279e+03 2.513352915634e-07 -8.416249240279e+03 -5.610832827023e+03 -2.755175478054e-13 5.413375510606e-13 -3.021217675814e-03 0.000000000000e+00 6.545971631527e+03 2.805416413128e+03  3.021217675676e-03
9.300000000000e+01 -9.056476244917e+03 9.201872787874e-01 0.000000000000e+00 -1.549646910721e-03 -5.617163188552e+03 6.702984917329e-06 -8.425744734408e+03 -5.617163169184e+03 -2.085770377672e-11 1.443719828348e-11 -3.024626301011e-03 0.000000000000e+00 6.553357030715e+03 2.808581555540e+03  3.024626290582e-03
9.400000000000e+01 -9.068693281827e+03 9.199306841140e-01 0.000000000000e+00 -1.551955929485e-03 -5.623372147708e+03 3.373307952515e-07 -8.435058219346e+03 -5.623372146822e+03 -9.548710588185e-13 7.265586359273e-13 -3.027969616565e-03 0.000000000000e+00 6.560600837959e+03 2.811686072081e+03  3.027969616087e-03