 TITLE = "Profiles along polylines"
 VARIABLES = "DIST" "PRESSURE1" "SATURATION1" "DISPLACEMENT_X1" "DISPLACEMENT_Y1" "STRESS_XX" "STRESS_XY" "STRESS_YY" "STRESS_ZZ" "STRAIN_XX" "STRAIN_XY" "STRAIN_YY" "STRAIN_PLS"  p_(1st_Invariant)  q_(2nd_Invariant)   Effective_Strain
 ZONE T="TIME=0.000000000000e+00"
0.000000000000e+00 0.000000000000e+00 1.000000000000e+00 0.000000000000e+00 0.000000000000e+00 0.000000000000e+00 0.000000000000e+00 0.000000000000e+00 0.000000000000e+00 0.000000000000e+00 0.000000000000e+00 0.000000000000e+00 0.000000000000e+00 -0.000000000000e+00 0.000000000000e+00  0.000000000000e+00
5.000000000000e-02 0.000000000000e+00 1.000000000000e+00 0.000000000000e+00 0.000000000000e+00 0.000000000000e+00 0.000000000000e+00 0.000000000000e+00 0.000000000000e+00 0.000000000000e+00 0.000000000000e+00 0.000000000000e+00 0.000000000000e+00 -0.000000000000e+00 0.000000000000e+00  0.000000000000e+00
1.000000000000e-01 0.000000000000e+00 1.000000000000e+00 0.000000000000e+00 0.000000000000e+00 0.000000000000e+00 0.000000000000e+00 0.000000000000e+00 0.000000000000e+00 0.000000000000e+00 0.000000000000e+00 0.000000000000e+00 0.000000000000e+00 -0.000000000000e+00 0.000000000000e+00  0.000000000000e+00
1.500000000000e-01 0.000000000000e+00 1.000000000000e+00 0.000000000000e+00 0.000000000000e+00 0.000000000000e+00 0.000000000000e+00 0.000000000000e+00 0.000000000000e+00 0.000000000000e+00 0.000000000000e+00 0.000000000000e+00 0.000000000000e+00 -0.000000000000e+00 0.000000000000e+00  0.000000000000e+00
2.000000000000e-01 0.000000000000e+00 1.000000000000e+00 0.000000000000e+00 0.000000000000e+00 0.000000000000e+00 0.000000000000e+00 0.000000000000e+00 0.000000000000e+00 0.000000000000e+00 0.000000000000e+00 0.000000000000e+00 0.000000000000e+00 -0.000000000000e+00 0.000000000000e+00  0.000000000000e+00
2.500000000000e-01 0.000000000000e+00 1.000000000000e+00 0.000000000000e+00 0.000000000000e+00 0.000000000000e+00 0.000000000000e+00 0.000000000000e+00 0.000000000000e+00 0.000000000000e+00 0.000000000000e+00 0.000000000000e+00 0.000000000000e+00 -0.000000000000e+00 0.000000000000e+00  0.000000000000e+00
3.000000000000e-01 0.000000000000e+00 1.000000000000e+00 0.000000000000e+00 0.000000000000e+00 0.000000000000e+00 0.000000000000e+00 0.000000000000e+00 0.000000000000e+00 0.000000000000e+00 0.000000000000e+00 0.000000000000e+00 0.000000000000e+00 -0.000000000000e+00 0.000000000000e+00  0.000000000000e+00
3.500000000000e-01 0.000000000000e+00 1.000000000000e+00 0.000000000000e+00 0.000000000000e+00 0.000000000000e+00 0.000000000000e+00 0.000000000000e+00 0.000000000000e+00 0.000000000000e+00 0.000000000000e+00 0.000000000000e+00 0.000000000000e+00 -0.000000000000e+00 0.000000000000e+00  0.000000000000e+00
4.000000000000e-01 0.000000000000e+00 1.000000000000e+00 0.000000000000e+00 0.000000000000e+00 0.000000000000e+00 0.000000000000e+00 0.000000000000e+00 0.000000000000e+00 0.000000000000e+00 0.000000000000e+00 0.000000000000e+00 0.000000000000e+00 -0.000000000000e+00 0.000000000000e+00  0.000000000000e+00
4.500000000000e-01 0.000000000000e+00 1.000000000000e+00 0.000000000000e+00 0.000000000000e+00 0.000000000000e+00 0.000000000000e+00 0.000000000000e+00 0.000000000000e+00 0.000000000000e+00 0.000000000000e+00 0.000000000000e+00 0.000000000000e+00 -0.000000000000e+00 0.000000000000e+00  0.000000000000e+00
5.000000000000e-01 0.000000000000e+00 1.000000000000e+00 0.000000000000e+00 0.000000000000e+00 0.000000000000e+00 0.000000000000e+00 0.000000000000e+00 0.000000000000e+00 0.000000000000e+00 0.000000000000e+00 0.000000000000e+00 0.000000000000e+00 -0.000000000000e+00 0.000000000000e+00  0.000000000000e+00
5.500000000000e-01 0.000000000000e+00 1.000000000000e+00 0.000000000000e+00 0.000000000000e+00 0.000000000000e+00 0.000000000000e+00 0.000000000000e+00 0.000000000000e+00 0.000000000000e+00 0.000000000000e+00 0.000000000000e+00 0.000000000000e+00 -0.000000000000e+00 0.000000000000e+00  0.000000000000e+00
6.000000000000e-01 0.000000000000e+00 1.000000000000e+00 0.000000000000e+00 0.000000000000e+00 0.000000000000e+00 0.000000000000e+00 0.000000000000e+00 0.000000000000e+00 0.000000000000e+00 0.000000000000e+00 0.000000000000e+00 0.000000000000e+00 -0.000000000000e+00 0.000000000000e+00  0.000000000000e+00
6.500000000000e-01 0.000000000000e+00 1.000000000000e+00 0.000000000000e+00 0.000000000000e+00 0.000000000000e+00 0.000000000000e+00 0.000000000000e+00 0.000000000000e+00 0.000000000000e+00 0.000000000000e+00 0.000000000000e+00 0.000000000000e+00 -0.000000000000e+00 0.000000000000e+00  0.000000000000e+00
7.000000000000e-01 0.000000000000e+00 1.000000000000e+00 0.000000000000e+00 0.000000000000e+00 0.000000000000e+00 0.000000000000e+00 0.000000000000e+00 0.000000000000e+00 0.000000000000e+00 0.000000000000e+00 0.000000000000e+00 0.000000000000e+00 -0.000000000000e+00 0.000000000000e+00  0.000000000000e+00
7.500000000000e-01 0.000000000000e+00 1.000000000000e+00 0.000000000000e+00 0.000000000000e+00 0.000000000000e+00 0.000000000000e+00 0.000000000000e+00 0.000000000000e+00 0.000000000000e+00 0.000000000000e+00 0.000000000000e+00 0.000000000000e+00 -0.000000000000e+00 0.000000000000e+00  0.000000000000e+00
8.000000000000e-01 0.000000000000e+00 1.000000000000e+00 0.000000000000e+00 0.000000000000e+00 0.000000000000e+00 0.000000000000e+00 0.000000000000e+00 0.000000000000e+00 0.000000000000e+00 0.000000000000e+00 0.000000000000e+00 0.000000000000e+00 -0.000000000000e+00 0.000000000000e+00  0.000000000000e+00
8.500000000000e-01 0.000000000000e+00 1.000000000000e+00 0.000000000000e+00 0.000000000000e+00 0.000000000000e+00 0.000000000000e+00 0.000000000000e+00 0.000000000000e+00 0.000000000000e+00 0.000000000000e+00 0.000000000000e+00 0.000000000000e+00 -0.000000000000e+00 0.000000000000e+00  0.000000000000e+00
9.000000000000e-01 0.000000000000e+00 1.000000000000e+00 0.000000000000e+00 0.000000000000e+00 0.000000000000e+00 0.000000000000e+00 0.000000000000e+00 0.000000000000e+00 0.000000000000e+00 0.000000000000e+00 0.000000000000e+00 0.000000000000e+00 -0.000000000000e+00 0.000000000000e+00  0.000000000000e+00
9.500000000000e-01 0.000000000000e+00 1.000000000000e+00 0.000000000000e+00 0.000000000000e+00 0.000000000000e+00 0.000000000000e+00 0.000000000000e+00 0.000000000000e+00 0.000000000000e+00 0.000000000000e+00 0.000000000000e+00 0.000000000000e+00 -0.000000000000e+00 0.000000000000e+00  0.000000000000e+00
1.000000000000e+00 0.000000000000e+00 1.000000000000e+00 0.000000000000e+00 0.000000000000e+00 0.000000000000e+00 0.000000000000e+00 0.000000000000e+00 0.000000000000e+00 0.000000000000e+00 0.000000000000e+00 0.000000000000e+00 0.000000000000e+00 -0.000000000000e+00 0.000000000000e+00  0.000000000000e+00
 TITLE = "Profiles along polylines"
 VARIABLES = "DIST" "PRESSURE1" "SATURATION1" "DISPLACEMENT_X1" "DISPLACEMENT_Y1" "STRESS_XX" "STRESS_XY" "STRESS_YY" "STRESS_ZZ" "STRAIN_XX" "STRAIN_XY" "STRAIN_YY" "STRAIN_PLS"  p_(1st_Invariant)  q_(2nd_Invariant)   Effective_Strain
 ZONE T="TIME=1.000000000000e+00"
0.000000000000e+00 0.000000000000e+00 1.000000000000e+00 0.000000000000e+00 0.000000000000e+00 4.337895104961e-01 8.677854228278e-04 6.576230456025e-01 4.365650224395e-01 -2.989012862051e-09 1.869076295321e-09 2.380624864833e-07 0.000000000000e+00 -5.093258595127e-01 2.224638429260e-01  2.395928501462e-07
5.000000000000e-02 -2.117101693951e+01 9.999756648488e-01 0.000000000000e+00 -1.783885149165e-07 -1.368747091372e+01 6.820119997576e-04 -2.053462492212e+01 -1.368883833434e+01 1.472606821880e-09 1.468948922555e-09 -7.372385556080e-06 0.000000000000e+00 1.597031139006e+01 6.846470502423e+00  7.373122408774e-06
1.000000000000e-01 -4.297987881952e+01 9.999505965230e-01 0.000000000000e+00 -7.431313482190e-07 -2.825427162805e+01 -1.943144212507e-03 -4.237860229217e+01 -2.825314956809e+01 -1.208372270789e-09 -4.185233688476e-09 -1.521202601055e-05 0.000000000000e+00 3.296200782944e+01 1.412489212850e+01  1.521142358768e-05
1.500000000000e-01 -6.611582826271e+01 9.999240027685e-01 0.000000000000e+00 -1.710981585198e-06 -4.366219642247e+01 1.069151682340e-03 -6.548369715084e+01 -4.365835742932e+01 -4.134300307869e-09 2.302788238886e-09 -2.350421200779e-05 0.000000000000e+00 5.093475033421e+01 2.182342055676e+01  2.350214546881e-05
2.000000000000e-01 -9.130923276556e+01 9.998950440601e-01 0.000000000000e+00 -3.112767131333e-06 -6.052319294529e+01 5.804883848763e-03 -9.075434833589e+01 -6.051101651247e+01 -1.311308149570e-08 1.250282675118e-08 -3.256974196368e-05 0.000000000000e+00 7.059618593122e+01 3.023724711740e+01  3.256319460396e-05
2.500000000000e-01 -1.193546905940e+02 9.998628070420e-01 0.000000000000e+00 -4.992610369175e-06 -7.915860656013e+01 1.023616081186e-02 -1.187314889508e+02 -7.915603820437e+01 -2.765921592817e-09 2.204711559476e-08 -4.261971618845e-05 0.000000000000e+00 9.234871123843e+01 3.957417060254e+01  4.261835040293e-05
3.000000000000e-01 -1.511361697616e+02 9.998262756320e-01 0.000000000000e+00 -7.410639699449e-06 -1.004439338985e+02 7.958055265919e-03 -1.506799818774e+02 -1.004495663104e+02 6.065674298745e-09 1.714042672659e-08 -5.409429368757e-05 0.000000000000e+00 1.171911606954e+02 5.023323390088e+01  5.409733492603e-05
3.500000000000e-01 -1.876549852156e+02 9.997842988627e-01 0.000000000000e+00 -1.044198776070e-05 -1.246970791778e+02 5.506968435757e-03 -1.870803985655e+02 -1.247109910973e+02 1.498206717921e-08 1.186116278471e-08 -6.716705419650e-05 0.000000000000e+00 1.454961562802e+02 6.237636532078e+01  6.717454962468e-05
4.000000000000e-01 -2.300615143496e+02 9.997355544259e-01 0.000000000000e+00 -1.418221534022e-05 -1.531065186655e+02 7.869774161824e-04 -2.296588006490e+02 -1.531061277258e+02 -4.210119733048e-10 1.695028281008e-09 -8.244134007113e-05 0.000000000000e+00 1.786238156801e+02 7.655247746624e+01  8.244112961823e-05
4.500000000000e-01 -2.796916767882e+02 9.996785067409e-01 0.000000000000e+00 -1.874793851720e-05 -1.860689176573e+02 2.921509059985e-03 -2.790999110747e+02 -1.860675314928e+02 -1.492792553394e-09 6.292481052276e-09 -1.001887164728e-04 0.000000000000e+00 2.170787867416e+02 9.303168664501e+01  1.001879706777e-04
5.000000000000e-01 -3.381093661419e+02 9.996113581809e-01 0.000000000000e+00 -2.428366882027e-05 -2.251617909393e+02 2.690899207380e-03 -3.377284080963e+02 -2.251560796142e+02 -6.150657756970e-09 5.795782908203e-09 -1.212317383653e-04 0.000000000000e+00 2.626820928833e+02 1.125694730247e+02  1.212286635691e-04
5.500000000000e-01 -4.071562258077e+02 9.995319918579e-01 0.000000000000e+00 -3.096334279299e-05 -2.710400547668e+02 2.167168018827e-03 -4.065868336070e+02 -2.710507553495e+02 1.152370451192e-08 4.667746502089e-09 -1.459619304312e-04 0.000000000000e+00 3.162258812411e+02 1.355414289177e+02  1.459676928485e-04
6.000000000000e-01 -4.890104166441e+02 9.994379040721e-01 0.000000000000e+00 -3.899706133423e-05 -3.257061493308e+02 -2.355649993644e-03 -4.885549184109e+02 -3.257044270967e+02 -1.854713674746e-09 -5.073707678618e-09 -1.753774521846e-04 0.000000000000e+00 3.799884982795e+02 1.628496302551e+02  1.753765250552e-04
6.500000000000e-01 -5.862563428258e+02 9.993261241647e-01 0.000000000000e+00 -4.863650539955e-05 -3.903634498682e+02 -1.777895832567e-04 -5.855528974709e+02 -3.903665389356e+02 3.326688036237e-09 -3.829314100914e-10 -2.102006938072e-04 0.000000000000e+00 4.554276287582e+02 1.951879030876e+02  2.102023571720e-04
7.000000000000e-01 -7.019676982052e+02 9.991931190600e-01 0.000000000000e+00 -6.018464861973e-05 -4.675125773893e+02 3.607167014322e-04 -7.012373424382e+02 -4.674999679310e+02 -1.357941659660e-08 7.769282800078e-10 -2.517171725463e-04 0.000000000000e+00 5.454166292528e+02 2.337310700340e+02  2.517103831163e-04
7.500000000000e-01 -8.398066884383e+02 9.990346792139e-01 0.000000000000e+00 -7.400485069862e-05 -5.591542235237e+02 3.327811447289e-03 -8.387339902730e+02 -5.591552855187e+02 1.143686926363e-09 7.167593886469e-09 -3.010847589662e-04 0.000000000000e+00 6.523478331051e+02 2.795792358128e+02  3.010853310673e-04
8.000000000000e-01 -1.004142899494e+03 9.988457819801e-01 0.000000000000e+00 -9.053212069313e-05 -6.685490699144e+02 2.274133391405e-03 -1.002827344003e+03 -6.685505655670e+02 1.610702792245e-09 4.898133458411e-09 -3.599903767773e-04 0.000000000000e+00 7.799756598282e+02 3.342775262881e+02  3.599911822314e-04
8.500000000000e-01 -1.200196054879e+03 9.986204275161e-01 0.000000000000e+00 -1.102864854952e-04 -7.988621866413e+02 1.887200068414e-03 -1.198312846226e+03 -7.988700131468e+02 8.428544374757e-09 4.064738608891e-09 -4.301692048542e-04 0.000000000000e+00 9.320150153379e+02 3.994467464025e+02  4.301734192459e-04
9.000000000000e-01 -1.434207877468e+03 9.983514412367e-01 0.000000000000e+00 -1.338894064739e-04 -9.544260816675e+02 -6.302968322009e-04 -1.431641939504e+03 -9.544272084686e+02 1.213478140103e-09 -1.357562407817e-09 -5.139235564997e-04 0.000000000000e+00 1.113498409880e+03 4.772152944383e+02  5.139241632452e-04
9.500000000000e-01 -1.713627826095e+03 9.980302603172e-01 0.000000000000e+00 -1.620840808282e-04 -1.139942689195e+03 -1.378202958312e-03 -1.709914169183e+03 -1.139942743351e+03 5.832204490783e-11 -2.968437140980e-09 -6.138153816650e-04 0.000000000000e+00 1.329933200576e+03 5.699714529149e+02  6.138154108476e-04
1.000000000000e+00 -2.102594212636e+03 9.975831605939e-01 0.000000000000e+00 -1.962509095304e-04 -1.398423525270e+03 -5.864866311963e-04 -2.097625605347e+03 -1.398419652247e+03 -4.170948104014e-09 -1.263201974884e-09 -7.529910264157e-04 0.000000000000e+00 1.631489594288e+03 6.992040165975e+02  7.529889409535e-04
 TITLE = "Profiles along polylines"
 VARIABLES = "DIST" "PRESSURE1" "SATURATION1" "DISPLACEMENT_X1" "DISPLACEMENT_Y1" "STRESS_XX" "STRESS_XY" "STRESS_YY" "STRESS_ZZ" "STRAIN_XX" "STRAIN_XY" "STRAIN_YY" "STRAIN_PLS"  p_(1st_Invariant)  q_(2nd_Invariant)   Effective_Strain
 ZONE T="TIME=5.000000000000e+00"
0.000000000000e+00 0.000000000000e+00 1.000000000000e+00 0.000000000000e+00 0.000000000000e+00 8.112146164531e-02 -1.384273083386e-04 1.077438610362e-01 7.554612907262e-02 6.004204309055e-09 -2.981511256523e-10 3.467448057620e-08 0.000000000000e+00 -8.813715058472e-02 2.980474290230e-02  3.210053098012e-08
5.000000000000e-02 -1.467862125929e+02 9.998312757161e-01 0.000000000000e+00 -1.315498753926e-06 -9.776514645982e+01 -3.124945282187e-03 -1.466617066701e+02 -9.777074125195e+01 6.025160758767e-09 -6.730651377017e-09 -5.265180891181e-05 0.000000000000e+00 1.140658647939e+02 4.889376335384e+01  5.265482304126e-05
1.000000000000e-01 -2.942333580780e+02 9.996617917190e-01 0.000000000000e+00 -5.270124526542e-06 -1.959930686770e+02 -3.373980481093e-03 -2.939804877589e+02 -1.959894225744e+02 -3.926572096983e-09 -7.267034882353e-09 -1.055288394295e-04 0.000000000000e+00 2.286543263368e+02 9.798924235832e+01  1.055268769489e-04
1.500000000000e-01 -4.431185850303e+02 9.994906547105e-01 0.000000000000e+00 -1.188215034907e-05 -2.951870892799e+02 -2.662152137040e-03 -4.427799518076e+02 -2.951868164350e+02 -2.938329431846e-10 -5.733866141317e-09 -1.589464534782e-04 0.000000000000e+00 3.443846191742e+02 1.475929990224e+02  1.589463068722e-04
2.000000000000e-01 -5.942068271926e+02 9.993169854332e-01 0.000000000000e+00 -2.118316685580e-05 -3.957648839150e+02 -8.019732532450e-05 -5.936242244125e+02 -3.957556433310e+02 -9.951398179536e-09 -1.727327006989e-10 -2.130892411647e-04 0.000000000000e+00 4.617149172195e+02 1.978639609514e+02  2.130842656401e-04
2.500000000000e-01 -7.482447955294e+02 9.991399255756e-01 0.000000000000e+00 -3.321878333714e-05 -4.983191939168e+02 2.103842090305e-03 -7.474801107817e+02 -4.983197218794e+02 5.685751137288e-10 4.531352194503e-09 -2.683265726640e-04 0.000000000000e+00 5.813730088593e+02 2.491606529107e+02  2.683268570668e-04
3.000000000000e-01 -9.059549465598e+02 9.989586447057e-01 0.000000000000e+00 -4.804732019705e-05 -6.032357344890e+02 3.479614232091e-03 -9.048403024258e+02 -6.032304147659e+02 -5.728932546153e-09 7.494553730658e-09 -3.248106482491e-04 0.000000000000e+00 7.037688172269e+02 3.016072278938e+02  3.248077840801e-04
3.500000000000e-01 -1.068029439825e+03 9.987723472168e-01 0.000000000000e+00 -6.573982253665e-05 -7.110434695757e+02 3.255229499541e-03 -1.066581599577e+03 -7.110500276610e+02 7.062553390072e-09 7.011263537472e-09 -3.828801543708e-04 0.000000000000e+00 8.295583656045e+02 3.555348510485e+02  3.828836858890e-04
4.000000000000e-01 -1.235124122916e+03 9.985802792409e-01 0.000000000000e+00 -8.637924166727e-05 -8.221350261468e+02 4.572053093679e-04 -1.233209961550e+03 -8.221379950786e+02 3.197311191403e-09 9.847498971001e-10 -4.426928869689e-04 0.000000000000e+00 9.591609942584e+02 4.110734509458e+02  4.426944856364e-04
4.500000000000e-01 -1.407852615359e+03 9.983817354493e-01 0.000000000000e+00 -1.100594579500e-04 -9.369195388497e+02 -1.939169937940e-03 -1.405397641327e+03 -9.369268720708e+02 7.897315075315e-09 -4.176673712486e-09 -5.045069822763e-04 0.000000000000e+00 1.093081350749e+03 4.684744359222e+02  5.045109310320e-04
5.000000000000e-01 -1.586780603266e+03 9.981760656109e-01 0.000000000000e+00 -1.368850751604e-04 -1.055805821555e+03 -4.353205097198e-03 -1.583710281437e+03 -1.055806441197e+03 6.673063432645e-10 -9.376134055503e-09 -5.685118279508e-04 0.000000000000e+00 1.231774181396e+03 5.279041501150e+02  5.685121618362e-04
5.500000000000e-01 -1.772420505377e+03 9.979626807228e-01 0.000000000000e+00 -1.669698043563e-04 -1.179054314851e+03 -2.709489213868e-03 -1.768568333599e+03 -1.179049059380e+03 -5.659738139440e-09 -5.835822922177e-09 -6.348669106972e-04 0.000000000000e+00 1.375557235943e+03 5.895166465195e+02  6.348640809275e-04
6.000000000000e-01 -1.965226728547e+03 9.977410584644e-01 0.000000000000e+00 -2.004366236936e-04 -1.307066987767e+03 -6.295309721995e-04 -1.960588976966e+03 -1.307062385893e+03 -4.955864255330e-09 -1.355912863199e-09 -7.037978673092e-04 0.000000000000e+00 1.524906116876e+03 6.535242901489e+02  7.037953893940e-04
6.500000000000e-01 -2.165591797288e+03 9.975216376021e-01 0.000000000000e+00 -2.374158573839e-04 -1.439647504485e+03 2.889244796817e-03 -2.159452494868e+03 -1.439639999741e+03 -8.082031497974e-09 6.222988793145e-09 -7.751826870598e-04 0.000000000000e+00 1.679579999698e+03 7.198087428019e+02  7.751786461506e-04
7.000000000000e-01 -2.381844928519e+03 9.967802244787e-01 0.000000000000e+00 -2.780974389818e-04 -1.582248745508e+03 3.246845645370e-03 -2.373386396642e+03 -1.582254056860e+03 5.719917375154e-09 6.993206005413e-09 -8.519886736112e-04 0.000000000000e+00 1.845963066337e+03 7.911349954911e+02  8.519915336704e-04
7.500000000000e-01 -2.623554792005e+03 9.959393623206e-01 0.000000000000e+00 -3.228390565345e-04 -1.741252726774e+03 2.321076747104e-03 -2.611878074807e+03 -1.741252320633e+03 -4.373835004928e-10 4.999242224532e-09 -9.375969660340e-04 0.000000000000e+00 2.031461040738e+03 8.706255511129e+02  9.375967473823e-04
8.000000000000e-01 -2.892800408884e+03 9.950032047983e-01 0.000000000000e+00 -3.721024913669e-04 -1.917773065835e+03 -9.561583483431e-05 -2.876682563569e+03 -1.917782251762e+03 9.892536767157e-09 -2.059417981047e-10 -1.032661874255e-03 0.000000000000e+00 2.237412627055e+03 9.589049048043e+02  1.032666820559e-03
8.500000000000e-01 -3.194678437851e+03 9.935748649141e-01 0.000000000000e+00 -4.263912889884e-04 -2.114602265025e+03 -1.573852057421e-03 -3.171894240685e+03 -2.114598602284e+03 -3.944490310312e-09 -3.389835200599e-09 -1.138626072124e-03 0.000000000000e+00 2.467031702665e+03 1.057293807039e+03  1.138624099899e-03
9.000000000000e-01 -3.537932381545e+03 9.918286587363e-01 0.000000000000e+00 -4.863301535449e-04 -2.337115290490e+03 -1.593391655873e-03 -3.505681528655e+03 -2.337118727658e+03 3.701565448239e-09 -3.431920489573e-09 -1.258452247228e-03 0.000000000000e+00 2.726638515601e+03 1.168564519588e+03  1.258454098028e-03
9.500000000000e-01 -3.932130466816e+03 9.894690859526e-01 0.000000000000e+00 -5.526808706922e-04 -2.590415903982e+03 -1.272277224606e-03 -3.885612085534e+03 -2.590411195807e+03 -5.070343072271e-09 -2.740289406843e-09 -1.394831727399e-03 0.000000000000e+00 3.022146395108e+03 1.295198535648e+03  1.394829192242e-03
1.000000000000e+00 -4.388410622511e+03 9.862519346014e-01 0.000000000000e+00 -6.263527273575e-04 -2.886449832588e+03 1.338376284805e-04 -4.329675861186e+03 -2.886450277509e+03 4.791463783604e-10 2.882656613426e-10 -1.554242936267e-03 0.000000000000e+00 3.367525323761e+03 1.443225806137e+03  1.554243175840e-03
 TITLE = "Profiles along polylines"
 VARIABLES = "DIST" "PRESSURE1" "SATURATION1" "DISPLACEMENT_X1" "DISPLACEMENT_Y1" "STRESS_XX" "STRESS_XY" "STRESS_YY" "STRESS_ZZ" "STRAIN_XX" "STRAIN_XY" "STRAIN_YY" "STRAIN_PLS"  p_(1st_Invariant)  q_(2nd_Invariant)   Effective_Strain
 ZONE T="TIME=1.000000000000e+01"
0.000000000000e+00 0.000000000000e+00 1.000000000000e+00 0.000000000000e+00 0.000000000000e+00 3.421325401540e-02 1.666704804348e-05 5.663307266298e-02 3.633853067135e-02 -2.288759475639e-09 3.589825732443e-11 2.185566060637e-08 0.000000000000e+00 -4.239495244991e-02 2.143636128693e-02  2.308537495562e-08
5.000000000000e-02 -2.198276059111e+02 9.997473178527e-01 0.000000000000e+00 -1.971296705184e-06 -1.464637566492e+02 8.510523449451e-04 -2.196931036877e+02 -1.464627441348e+02 -1.090400166243e-09 1.833035819882e-09 -7.886346413395e-05 0.000000000000e+00 1.708732014906e+02 7.322985331582e+01  7.886291900343e-05
1.000000000000e-01 -4.398605071817e+02 9.994943997275e-01 0.000000000000e+00 -7.887757750854e-06 -2.930284089622e+02 1.025588575750e-03 -4.395428769910e+02 -2.930285143813e+02 1.135282217606e-10 2.208960009307e-09 -1.577846981951e-04 0.000000000000e+00 3.418666001115e+02 1.465144153300e+02  1.577847550056e-04
1.500000000000e-01 -6.604476577990e+02 9.992408445170e-01 0.000000000000e+00 -1.775416453949e-05 -4.398796280314e+02 5.119453092265e-04 -6.598245635225e+02 -4.398816766216e+02 2.206174000208e-09 1.102651435257e-09 -2.368615705087e-04 0.000000000000e+00 5.131952893918e+02 2.199439112049e+02  2.368626736111e-04
2.000000000000e-01 -8.819363401462e+02 9.989862530355e-01 0.000000000000e+00 -3.158159141513e-05 -5.872683397762e+02 -7.725319309033e-04 -8.809085620239e+02 -5.872707607200e+02 2.607170260502e-09 -1.663914928099e-09 -3.162253244811e-04 0.000000000000e+00 6.851492208400e+02 2.936390117863e+02  3.162266280874e-04
2.500000000000e-01 -1.104671288208e+03 9.987302290266e-01 0.000000000000e+00 -4.938716986836e-05 -7.353985457182e+02 -1.950909191014e-03 -1.103104125517e+03 -7.354010684941e+02 2.716835608200e-09 -4.201958257568e-09 -3.959879075632e-04 0.000000000000e+00 8.579679132432e+02 3.677043184330e+02  3.959892660549e-04
3.000000000000e-01 -1.328993931428e+03 9.984723800319e-01 0.000000000000e+00 -7.119421280176e-05 -8.845254853819e+02 -2.715819833294e-03 -1.326788277652e+03 -8.845255052136e+02 2.135723292874e-11 -5.849458102480e-09 -4.762829857030e-04 0.000000000000e+00 1.031946422749e+03 4.422627823794e+02  4.762829964894e-04
3.500000000000e-01 -1.555241806904e+03 9.982123180677e-01 0.000000000000e+00 -9.703201378075e-05 -1.034838378334e+03 -2.168158821655e-03 -1.552253509725e+03 -1.034836755224e+03 -1.747965002205e-09 -4.669880538949e-09 -5.572180433093e-04 0.000000000000e+00 1.207309547761e+03 5.174159429618e+02  5.572171693876e-04
4.000000000000e-01 -1.783748195385e+03 9.979496600422e-01 0.000000000000e+00 -1.269359313205e-04 -1.186592073741e+03 -9.416853242932e-04 -1.779879303819e+03 -1.186588551024e+03 -3.793695477622e-09 -2.028245313862e-09 -6.389285030098e-04 0.000000000000e+00 1.384353309528e+03 5.932889914463e+02  6.389266061802e-04
4.500000000000e-01 -2.014842047376e+03 9.976920801970e-01 0.000000000000e+00 -1.609474166877e-04 -1.339871933206e+03 6.611538282203e-04 -2.009802279806e+03 -1.339869685205e+03 -2.420923937027e-09 1.424023630013e-09 -7.214658711094e-04 0.000000000000e+00 1.563181299406e+03 6.699314706050e+02  7.214646606547e-04
5.000000000000e-01 -2.248831551634e+03 9.972656137729e-01 0.000000000000e+00 -1.991077979930e-04 -1.494572916730e+03 1.339096339523e-03 -2.241857673506e+03 -1.494572236095e+03 -7.329922403683e-10 2.884207500510e-09 -8.047689325972e-04 0.000000000000e+00 1.743667608777e+03 7.472850970977e+02  8.047685661168e-04
5.500000000000e-01 -2.489256034888e+03 9.964065618842e-01 0.000000000000e+00 -2.414800227606e-04 -1.652964066108e+03 1.123315875187e-03 -2.479450846069e+03 -1.652965964871e+03 2.044821518985e-09 2.419449577327e-09 -8.900606412903e-04 0.000000000000e+00 1.928460292349e+03 8.264858305835e+02  8.900616637127e-04
6.000000000000e-01 -2.740431297084e+03 9.955401967337e-01 0.000000000000e+00 -2.882081045217e-04 -1.818030899124e+03 3.054462914991e-05 -2.727051712053e+03 -1.818033044470e+03 2.310373505500e-09 6.578843201519e-11 -9.789431804730e-04 0.000000000000e+00 2.121038551882e+03 9.090197402574e+02  9.789443356618e-04
6.500000000000e-01 -3.003275067142e+03 9.944900151255e-01 0.000000000000e+00 -3.394760153740e-04 -1.990082670007e+03 -8.590559977996e-04 -2.985127684005e+03 -1.990084141604e+03 1.584797716048e-09 -1.850274456799e-09 -1.071585353354e-03 0.000000000000e+00 2.321764831872e+03 9.950442782010e+02  1.071586145758e-03
7.000000000000e-01 -3.280462111144e+03 9.931704653677e-01 0.000000000000e+00 -3.954914939139e-04 -2.170665755510e+03 -1.165836754405e-03 -3.255997390108e+03 -2.170665258247e+03 -5.355134556613e-10 -2.511033009487e-09 -1.168819218927e-03 0.000000000000e+00 2.532442801288e+03 1.085331883232e+03  1.168818951179e-03
7.500000000000e-01 -3.576405981611e+03 9.915969294602e-01 0.000000000000e+00 -4.565210124972e-04 -2.362442698836e+03 -6.422037396044e-04 -3.543660314399e+03 -2.362441205294e+03 -1.608429931835e-09 -1.383208054533e-09 -1.272082117498e-03 0.000000000000e+00 2.756181406176e+03 1.181218362335e+03  1.272081313286e-03
8.000000000000e-01 -3.895162737367e+03 9.897092194648e-01 0.000000000000e+00 -5.228975332087e-04 -2.567608417274e+03 1.689881364797e-04 -3.851408429786e+03 -2.567606738824e+03 -1.807561977160e-09 3.639744478025e-10 -1.382555667189e-03 0.000000000000e+00 2.995541195295e+03 1.283800851737e+03  1.382554763409e-03
8.500000000000e-01 -4.241256474829e+03 9.873509714897e-01 0.000000000000e+00 -5.950122937186e-04 -2.788450262658e+03 8.672450717720e-04 -4.182673210548e+03 -2.788449389282e+03 -9.405582466944e-10 1.867912462278e-09 -1.501471807517e-03 0.000000000000e+00 3.253190954163e+03 1.394223384579e+03  1.501471337241e-03
9.000000000000e-01 -4.619910733896e+03 9.844315055534e-01 0.000000000000e+00 -6.733236172303e-04 -3.027561446450e+03 1.142276012136e-03 -4.541341941137e+03 -3.027561355035e+03 -9.844686205556e-11 2.460286795370e-09 -1.630225246572e-03 0.000000000000e+00 3.532154914207e+03 1.513780540396e+03  1.630225197354e-03
9.500000000000e-01 -5.037053941689e+03 9.808200427335e-01 0.000000000000e+00 -7.583617177606e-04 -3.287027607098e+03 1.092511858180e-03 -4.930542435534e+03 -3.287028017053e+03 4.414899760939e-10 2.353102463772e-09 -1.769938604518e-03 0.000000000000e+00 3.834866019895e+03 1.643514623460e+03  1.769938825268e-03
1.000000000000e+00 -5.501186184649e+03 9.759306639983e-01 0.000000000000e+00 -8.507114806574e-04 -3.581203017481e+03 4.855146956118e-04 -5.371808722499e+03 -3.581204695992e+03 1.807627154893e-09 1.045723959779e-09 -1.928342797777e-03 0.000000000000e+00 4.178072145324e+03 1.790604865763e+03  1.928343701592e-03
 TITLE = "Profiles along polylines"
 VARIABLES = "DIST" "PRESSURE1" "SATURATION1" "DISPLACEMENT_X1" "DISPLACEMENT_Y1" "STRESS_XX" "STRESS_XY" "STRESS_YY" "STRESS_ZZ" "STRAIN_XX" "STRAIN_XY" "STRAIN_YY" "STRAIN_PLS"  p_(1st_Invariant)  q_(2nd_Invariant)   Effective_Strain
 ZONE T="TIME=2.000000000000e+01"
0.000000000000e+00 0.000000000000e+00 1.000000000000e+00 0.000000000000e+00 0.000000000000e+00 1.945397510664e-02 -2.105224940326e-06 2.973975597622e-02 1.967749243315e-02 -2.407109670056e-10 -4.534330640700e-12 1.083628381562e-08 0.000000000000e+00 -2.295707450534e-02 1.017586414744e-02  1.095862503870e-08
5.000000000000e-02 -2.917662307980e+02 9.996646275731e-01 0.000000000000e+00 -2.617109461901e-06 -1.944013551102e+02 6.327250333645e-05 -2.916019710811e+02 -1.944013304765e+02 -2.652855755524e-11 1.362792379554e-10 -1.046776129588e-04 0.000000000000e+00 2.268015522226e+02 9.720062828784e+01  1.046775996948e-04
1.000000000000e-01 -5.835556897015e+02 9.993292284464e-01 0.000000000000e+00 -1.046707613772e-05 -3.887065847936e+02 9.290178609974e-05 -5.830596241631e+02 -3.887064835827e+02 -1.089963683563e-10 2.000961546764e-10 -2.093033821635e-04 0.000000000000e+00 4.534908975131e+02 1.943530899751e+02  2.093033276657e-04
1.500000000000e-01 -8.755318201619e+02 9.989936147491e-01 0.000000000000e+00 -2.354827710287e-05 -5.830061746705e+02 2.331233792927e-05 -8.745102441561e+02 -5.830065675306e+02 4.230801755464e-10 5.021118938611e-11 -3.139270363659e-04 0.000000000000e+00 6.801743287857e+02 2.915038730558e+02  3.139272479062e-04
2.000000000000e-01 -1.167856837442e+03 9.986576000217e-01 0.000000000000e+00 -4.186199009580e-05 -7.774073707514e+02 -5.074198573122e-05 -1.166110606225e+03 -7.774071907907e+02 -1.938037676691e-10 -1.092904308057e-10 -4.186036781605e-04 0.000000000000e+00 9.069750559225e+02 3.887033254544e+02  4.186035812587e-04
2.500000000000e-01 -1.460690920290e+03 9.983210001459e-01 0.000000000000e+00 -6.541236782184e-05 -9.720147017745e+02 -1.474692271506e-04 -1.458023753730e+03 -9.720153822018e+02 7.327678922207e-10 -3.176260277089e-10 -5.233936308765e-04 0.000000000000e+00 1.134017945902e+03 4.860087117423e+02  5.233939972612e-04
3.000000000000e-01 -1.754191352348e+03 9.979836343310e-01 0.000000000000e+00 -9.420638448219e-05 -1.166947821755e+03 -1.894407205357e-04 -1.750419928045e+03 -1.166947099920e+03 -7.773605136554e-10 -4.080261673077e-10 -6.283553533655e-04 0.000000000000e+00 1.361438283240e+03 5.834724672082e+02  6.283549646860e-04