 TITLE = "Time curves in points"
 VARIABLES = "TIME"  "PRESSURE1"  "SATURATION1"  "DISPLACEMENT_X1"  "DISPLACEMENT_Y1"  "STRESS_XX"  "STRESS_XY"  "STRESS_YY"  "STRESS_ZZ"  "STRAIN_XX"  "STRAIN_XY"  "STRAIN_YY"  "STRAIN_PLS"  p_(1st_Invariant)  q_(2nd_Invariant)   Effective_Strain
 ZONE T="POINT=POINT0"
0.000000000000e+00 0.000000000000e+00 1.000000000000e+00 0.000000000000e+00 0.000000000000e+00 0.000000000000e+00 0.000000000000e+00 0.000000000000e+00 0.000000000000e+00 0.000000000000e+00 0.000000000000e+00 0.000000000000e+00 0.000000000000e+00 -0.000000000000e+00 0.000000000000e+00  0.000000000000e+00
1.000000000000e+00 -2.102594212636e+03 9.975831605939e-01 0.000000000000e+00 -1.962899290516e-04 -1.398956495656e+03 -2.977309925842e-03 -2.098486899628e+03 -1.398977358114e+03 2.246726200460e-08 -6.412667532583e-09 -7.533179677847e-04 0.000000000000e+00 1.632140251132e+03 6.995199729955e+02  7.533292017488e-04
2.000000000000e+00 -2.999353595962e+03 9.945498895068e-01 0.000000000000e+00 -3.456156102173e-04 -1.991893121255e+03 -1.919367043818e-04 -2.987843362988e+03 -1.991894593697e+03 1.585707130657e-09 -4.134021325146e-10 -1.072560213083e-03 0.000000000000e+00 2.323877025980e+03 9.959495055130e+02  1.072561005937e-03
3.000000000000e+00 -3.604603137824e+03 9.914568603293e-01 0.000000000000e+00 -4.665932018412e-04 -2.388039477762e+03 -6.929433262192e-05 -3.582059252376e+03 -2.388039492055e+03 1.539292879884e-11 -1.492493318011e-10 -1.285867434192e-03 0.000000000000e+00 2.786046074064e+03 1.194019767468e+03  1.285867441888e-03
4.000000000000e+00 -4.041701610015e+03 9.887330194036e-01 0.000000000000e+00 -5.555912489012e-04 -2.671605065087e+03 -3.177214006094e-05 -4.007407996741e+03 -2.671605224731e+03 1.719246011731e-10 -6.843230166971e-11 -1.438556831395e-03 0.000000000000e+00 3.116872762187e+03 1.335802851832e+03  1.438556917358e-03
5.000000000000e+00 -4.388410622511e+03 9.862519346014e-01 0.000000000000e+00 -6.270089203573e-04 -2.894724489471e+03 1.660545599334e-04 -4.342084544313e+03 -2.894723613514e+03 -9.433387878976e-10 3.576559752412e-10 -1.558696387015e-03 0.000000000000e+00 3.377177549100e+03 1.447360492821e+03  1.558695915346e-03
6.000000000000e+00 -4.677125350176e+03 9.839610183803e-01 0.000000000000e+00 -6.855081401595e-04 -3.079151977485e+03 4.273158157406e-05 -4.618727775141e+03 -3.079151901050e+03 -8.231423840938e-11 9.203725262105e-11 -1.658004787482e-03 0.000000000000e+00 3.592343884559e+03 1.539575835873e+03  1.658004746325e-03
7.000000000000e+00 -4.924452240886e+03 9.818384431864e-01 0.000000000000e+00 -7.345413553654e-04 -3.235870787370e+03 6.796983985758e-05 -4.853805889253e+03 -3.235870670649e+03 -1.256988200784e-10 1.463965781548e-10 -1.742391773882e-03 0.000000000000e+00 3.775182449091e+03 1.617935160244e+03  1.742391711032e-03
8.000000000000e+00 -5.140410523082e+03 9.798416189461e-01 0.000000000000e+00 -7.790379396648e-04 -3.371843866053e+03 1.537250330089e-05 -5.057766297725e+03 -3.371844065511e+03 2.148012592223e-10 3.311000710962e-11 -1.815608557769e-03 0.000000000000e+00 3.933818076430e+03 1.685922331943e+03  1.815608665170e-03
9.000000000000e+00 -5.328462460637e+03 9.778265946546e-01 0.000000000000e+00 -8.170196654551e-04 -3.489565622028e+03 8.039272911739e-04 -5.234341688027e+03 -3.489562924022e+03 -2.905544889157e-09 1.731535704067e-09 -1.878992515082e-03 0.000000000000e+00 4.071156744693e+03 1.744777415004e+03  1.878991062314e-03
1.000000000000e+01 -5.501186184649e+03 9.759306639983e-01 0.000000000000e+00 -8.521784060706e-04 -3.596939232408e+03 2.373897049932e-05 -5.395408963061e+03 -3.596939278188e+03 4.930147103885e-11 5.113009030623e-11 -1.936813506787e-03 0.000000000000e+00 4.196429157885e+03 1.798469707764e+03  1.936813531438e-03
1.100000000000e+01 -5.658996498446e+03 9.742278002399e-01 0.000000000000e+00 -8.830224830650e-04 -3.694312728420e+03 6.208118819384e-05 -5.541468755674e+03 -3.694312593638e+03 -1.451506033269e-10 1.337133284175e-10 -1.989245097577e-03 0.000000000000e+00 4.310031359244e+03 1.847156094645e+03  1.989245025002e-03
1.200000000000e+01 -5.803295410818e+03 9.726776974643e-01 0.000000000000e+00 -9.118909156291e-04 -3.782582039113e+03 -2.124321573026e-05 -5.673873116107e+03 -3.782582062088e+03 2.474193333931e-11 -4.575461849594e-11 -2.036774981251e-03 0.000000000000e+00 4.413012405769e+03 1.891291065506e+03  2.036774993622e-03
1.300000000000e+01 -5.938090257574e+03 9.712296902502e-01 0.000000000000e+00 -9.388067114879e-04 -3.864753923291e+03 1.517175086036e-04 -5.797129388180e+03 -3.864753324588e+03 -6.447566023030e-10 3.267761723771e-10 -2.081020376176e-03 0.000000000000e+00 4.508878878687e+03 1.932375764240e+03  2.081020053798e-03
1.400000000000e+01 -6.063879632567e+03 9.698784225510e-01 0.000000000000e+00 -9.631835480077e-04 -3.941204302113e+03 -2.586773017042e-05 -5.911806503427e+03 -3.941204322216e+03 2.164965203862e-11 -5.571511113629e-11 -2.122186964381e-03 0.000000000000e+00 4.598071709252e+03 1.970602191263e+03  2.122186975206e-03
1.500000000000e+01 -6.181379260781e+03 9.684085510137e-01 0.000000000000e+00 -9.863275402466e-04 -4.012417635513e+03 4.539219223465e-04 -6.018622383748e+03 -4.012416007705e+03 -1.753024910268e-09 9.776779865925e-10 -2.160529943431e-03 0.000000000000e+00 4.681152008989e+03 2.006205562140e+03  2.160529066920e-03
1.600000000000e+01 -6.291829678325e+03 9.669197245292e-01 0.000000000000e+00 -1.008305625059e-03 -4.079170850093e+03 -5.472867820267e-06 -6.118756326906e+03 -4.079170870799e+03 2.229905694579e-11 -1.178771530519e-11 -2.196476645037e-03 0.000000000000e+00 4.759032682599e+03 2.039585466459e+03  2.196476656187e-03
1.700000000000e+01 -6.395909937575e+03 9.655167213879e-01 0.000000000000e+00 -1.028999179971e-03 -4.141911371985e+03 2.842067445032e-05 -6.212866870161e+03 -4.141911296858e+03 -8.090578406767e-11 6.121376035453e-11 -2.230259848172e-03 0.000000000000e+00 4.832229846335e+03 2.070955535739e+03  2.230259807719e-03
1.800000000000e+01 -6.494268142428e+03 9.641986568911e-01 0.000000000000e+00 -1.048636358852e-03 -4.201059100673e+03 -5.638824639425e-05 -6.301589004818e+03 -4.201059242196e+03 1.524098043013e-10 -1.214516076184e-10 -2.262108975131e-03 0.000000000000e+00 4.901235782562e+03 2.100529833383e+03  2.262109051336e-03
1.900000000000e+01 -6.587392041409e+03 9.629755729497e-01 0.000000000000e+00 -1.067265999465e-03 -4.256283869369e+03 -7.040379444810e-06 -6.384425891957e+03 -4.256283904530e+03 3.786605334094e-11 -1.516389418882e-11 -2.291845217228e-03 0.000000000000e+00 4.965664555285e+03 2.128142005007e+03  2.291845236162e-03
2.000000000000e+01 -6.675772953908e+03 9.618147831204e-01 0.000000000000e+00 -1.084465478686e-03 -4.308253833543e+03 2.663078239102e-04 -6.462378432758e+03 -4.308252906521e+03 -9.983322427073e-10 5.735860822681e-10 -2.319827489794e-03 0.000000000000e+00 5.026295057607e+03 2.154125062726e+03  2.319826990628e-03
2.100000000000e+01 -6.759941005158e+03 9.607093247688e-01 0.000000000000e+00 -1.101056014550e-03 -4.357615100872e+03 -3.526989893046e-05 -6.536422991430e+03 -4.357615236921e+03 1.465140270360e-10 -7.596593615791e-11 -2.346408351010e-03 0.000000000000e+00 5.083884443074e+03 2.178807822534e+03  2.346408424267e-03
2.200000000000e+01 -6.840157925681e+03 9.596557603413e-01 0.000000000000e+00 -1.116985100070e-03 -4.404546349054e+03 3.361183762606e-06 -6.606819427345e+03 -4.404546310559e+03 -4.145546854883e-11 7.239472719458e-12 -2.371678741153e-03 0.000000000000e+00 5.138637362319e+03 2.202273097538e+03  2.371678720426e-03
2.300000000000e+01 -6.916704891593e+03 9.585313021695e-01 0.000000000000e+00 -1.132141110911e-03 -4.449227060118e+03 2.413835206119e-04 -6.673838504594e+03 -4.449226225885e+03 -8.984049446030e-10 5.199029674718e-10 -2.395736300148e-03 0.000000000000e+00 5.190763930199e+03 2.224611861593e+03  2.395735850946e-03
2.400000000000e+01 -6.989835820229e+03 9.573940361369e-01 0.000000000000e+00 -1.146669413809e-03 -4.491816300922e+03 7.694069938828e-05 -6.737723851526e+03 -4.491816060979e+03 -2.583995150296e-10 1.657184294517e-10 -2.418669928282e-03 0.000000000000e+00 5.240452071142e+03 2.245907670576e+03  2.418669799082e-03
2.500000000000e+01 -7.059800136258e+03 9.563060150028e-01 0.000000000000e+00 -1.160585216302e-03 -4.532474602900e+03 9.330194734897e-07 -6.798711900554e+03 -4.532474601381e+03 -1.635105013473e-12 2.009580404438e-12 -2.440563245262e-03 0.000000000000e+00 5.287887034945e+03 2.266237298413e+03  2.440563244445e-03
2.600000000000e+01 -7.126990485557e+03 9.552611348177e-01 0.000000000000e+00 -1.173965780931e-03 -4.571441640255e+03 -1.598804220299e-05 -6.857162464073e+03 -4.571441641731e+03 1.589513748980e-12 -3.443578320644e-11 -2.461545500983e-03 0.000000000000e+00 5.333348582020e+03 2.285720823080e+03  2.461545501778e-03
2.700000000000e+01 -7.191599809959e+03 9.542563902998e-01 0.000000000000e+00 -1.186845569967e-03 -4.608837816121e+03 6.071721236973e-05 -6.913256196577e+03 -4.608837605079e+03 -2.272759744966e-10 1.307755343348e-10 -2.481681560075e-03 0.000000000000e+00 5.376977205926e+03 2.304418485977e+03  2.481681446437e-03
2.800000000000e+01 -7.253760208403e+03 9.532949118910e-01 0.000000000000e+00 -1.199240314212e-03 -4.644747220335e+03 -1.604033034801e-05 -6.967120995967e+03 -4.644747286521e+03 7.127716586845e-11 -3.454840382649e-11 -2.501017840942e-03 0.000000000000e+00 5.418871834274e+03 2.322373742539e+03  2.501017876581e-03
2.900000000000e+01 -7.313603805277e+03 9.523825757118e-01 0.000000000000e+00 -1.211164908251e-03 -4.679021720535e+03 -1.363319082157e-05 -7.018532724751e+03 -4.679021778114e+03 6.200874476151e-11 -2.936379561569e-11 -2.519473327147e-03 0.000000000000e+00 5.458858741134e+03 2.339510975427e+03  2.519473358152e-03
3.000000000000e+01 -7.371252113177e+03 9.515037074666e-01 0.000000000000e+00 -1.222378193708e-03 -4.711608058276e+03 2.518620938309e-06 -7.067412025742e+03 -4.711608033607e+03 -2.656635227324e-11 5.424722020973e-12 -2.537019683837e-03 0.000000000000e+00 5.496876039208e+03 2.355803979800e+03  2.537019670554e-03
3.100000000000e+01 -7.426814990064e+03 9.506566323332e-01 0.000000000000e+00 -1.233279708604e-03 -4.742952800727e+03 1.236533104492e-04 -7.114428120200e+03 -4.742952368371e+03 -4.656145067838e-10 2.663302071215e-10 -2.553896963508e-03 0.000000000000e+00 5.533444429766e+03 2.371475535651e+03  2.553896730701e-03
3.200000000000e+01 -7.480394406615e+03 9.498397957335e-01 0.000000000000e+00 -1.243761633970e-03 -4.773118373725e+03 1.044199810365e-05 -7.159677422042e+03 -4.773118318307e+03 -5.968115959469e-11 2.249045745402e-11 -2.570140573253e-03 0.000000000000e+00 5.568638038025e+03 2.386559076026e+03  2.570140543413e-03
3.300000000000e+01 -7.532106170743e+03 9.490331109232e-01 0.000000000000e+00 -1.253921128148e-03 -4.802177631944e+03 -4.500156301014e-05 -7.203267009811e+03 -4.802177856702e+03 2.420473036076e-10 -9.692644340646e-11 -2.585788318733e-03 0.000000000000e+00 5.602540832819e+03 2.401089265488e+03  2.585788439757e-03
3.400000000000e+01 -7.582089626926e+03 9.481611904125e-01 0.000000000000e+00 -1.263771329700e-03 -4.830213632270e+03 3.032291454014e-06 -7.245320425714e+03 -4.830213623194e+03 -9.774430746512e-12 6.531089285566e-12 -2.600884248868e-03 0.000000000000e+00 5.635249227059e+03 2.415106797982e+03  2.600884243981e-03
3.500000000000e+01 -7.630448449663e+03 9.473176091145e-01 0.000000000000e+00 -1.273320310879e-03 -4.857290716988e+03 1.609604014129e-04 -7.285934729881e+03 -4.857290178748e+03 -5.796432983583e-10 3.466839415048e-10 -2.615463362759e-03 0.000000000000e+00 5.666838541872e+03 2.428644282014e+03  2.615463072938e-03
3.600000000000e+01 -7.677262638271e+03 9.465009725765e-01 0.000000000000e+00 -1.282571675460e-03 -4.883456326194e+03 3.914238755050e-05 -7.325184189544e+03 -4.883456206295e+03 -1.291221589340e-10 8.430668087800e-11 -2.629553212729e-03 0.000000000000e+00 5.697365574011e+03 2.441727923299e+03  2.629553148168e-03
3.700000000000e+01 -7.722619412974e+03 9.457097604833e-01 0.000000000000e+00 -1.291534617971e-03 -4.908766080357e+03 6.729427980732e-05 -7.363148538024e+03 -4.908765847353e+03 -2.509278697541e-10 1.449415257388e-10 -2.643181359185e-03 0.000000000000e+00 5.726893488578e+03 2.454382574170e+03  2.643181233721e-03
3.800000000000e+01 -7.766617601835e+03 9.449422502795e-01 0.000000000000e+00 -1.300215357901e-03 -4.933278411648e+03 5.808676640011e-07 -7.399917654470e+03 -4.933278426447e+03 1.593729358579e-11 1.251099584001e-12 -2.656380707101e-03 0.000000000000e+00 5.755491497522e+03 2.466639235422e+03  2.656380715070e-03
3.900000000000e+01 -7.809303106904e+03 9.441976394746e-01 0.000000000000e+00 -1.308622473262e-03 -4.957023233818e+03 1.456791771221e-04 -7.435533595234e+03 -4.957022731621e+03 -5.408274660807e-10 3.137705353398e-10 -2.669165545430e-03 0.000000000000e+00 5.783193186891e+03 2.478510612515e+03  2.669165275016e-03
4.000000000000e+01 -7.850726630496e+03 9.434750431230e-01 0.000000000000e+00 -1.316777317265e-03 -4.980030231074e+03 1.429073284563e-04 -7.470044115474e+03 -4.980029738619e+03 -5.303356784602e-10 3.078003997519e-10 -2.681553944305e-03 0.000000000000e+00 5.810034695056e+03 2.490014130628e+03  2.681553679138e-03
4.100000000000e+01 -7.890939571028e+03 9.427735643896e-01 0.000000000000e+00 -1.324685126993e-03 -5.002330981957e+03 6.477968110401e-06 -7.503496420305e+03 -5.002330960905e+03 -2.267171275495e-11 1.395254669933e-11 -2.693562802431e-03 0.000000000000e+00 5.836052787722e+03 2.501165448874e+03  2.693562791095e-03
4.200000000000e+01 -7.929991357369e+03 9.421018193006e-01 0.000000000000e+00 -1.332356452447e-03 -5.023957169473e+03 -1.421511186031e-05 -7.535935920423e+03 -5.023957235959e+03 7.159970190663e-11 -3.061716400682e-11 -2.705207814039e-03 0.000000000000e+00 5.861283441952e+03 2.511978717708e+03  2.705207849839e-03
4.300000000000e+01 -7.967929438893e+03 9.414505731926e-01 0.000000000000e+00 -1.339800673515e-03 -5.044758529860e+03 8.437780504725e-06 -7.567137757098e+03 -5.044758514783e+03 -1.623646404202e-11 1.817368108710e-11 -2.716408414800e-03 0.000000000000e+00 5.885551600580e+03 2.522379234776e+03  2.716408406682e-03
4.400000000000e+01 -8.004807955087e+03 9.408175156110e-01 0.000000000000e+00 -1.347034472470e-03 -5.064747535088e+03 -1.206903303847e-06 -7.597121314350e+03 -5.064747539775e+03 5.047846715759e-12 -2.599484039057e-12 -2.727171757234e-03 0.000000000000e+00 5.908872129737e+03 2.532373776918e+03  2.727171759758e-03
4.500000000000e+01 -8.040679004071e+03 9.402017522381e-01 0.000000000000e+00 -1.354071853567e-03 -5.084160867985e+03 3.555345973877e-05 -7.626241018054e+03 -5.084160754415e+03 -1.223051189909e-10 7.657668251427e-11 -2.737624899303e-03 0.000000000000e+00 5.931520880151e+03 2.542080206854e+03  2.737624838151e-03
4.600000000000e+01 -8.075588880257e+03 9.396024883828e-01 0.000000000000e+00 -1.360920807835e-03 -5.103025210150e+03 -1.394972840192e-07 -7.654537819485e+03 -5.103025211854e+03 1.835038659548e-12 -3.004556886581e-13 -2.747782808218e-03 0.000000000000e+00 5.953529413830e+03 2.551512608483e+03  2.747782809135e-03
4.700000000000e+01 -8.109577920468e+03 9.390141703795e-01 0.000000000000e+00 -1.367587232726e-03 -5.121365365710e+03 -1.785603411007e-05 -7.682048216015e+03 -5.121365432690e+03 7.213216910391e-11 -3.845915039092e-11 -2.757658382042e-03 0.000000000000e+00 5.974926338139e+03 2.560682816815e+03  2.757658418108e-03
4.800000000000e+01 -8.142681258458e+03 9.383905295355e-01 0.000000000000e+00 -1.374075940092e-03 -5.139202695697e+03 5.054754274668e-05 -7.708803594377e+03 -5.139202516029e+03 -1.934880067009e-10 1.088716305313e-10 -2.767262699759e-03 0.000000000000e+00 5.995736268701e+03 2.569600988514e+03  2.767262603015e-03
4.900000000000e+01 -8.174930340898e+03 9.377829822414e-01 0.000000000000e+00 -1.380357293812e-03 -5.156555277792e+03 2.695747091333e-05 -7.734832704170e+03 -5.156555192785e+03 -9.154641332918e-11 5.806224504409e-11 -2.776606550722e-03 0.000000000000e+00 6.015981058249e+03 2.578277468881e+03  2.776606504949e-03
5.000000000000e+01 -8.206362464117e+03 9.371908254677e-01 0.000000000000e+00 -1.386481356226e-03 -5.173445273207e+03 6.464314276797e-06 -7.760167856713e+03 -5.173445251968e+03 -2.287297332566e-11 1.392313844233e-11 -2.785701266648e-03 0.000000000000e+00 6.035686127296e+03 2.586722594125e+03  2.785701255212e-03
5.100000000000e+01 -8.237008181829e+03 9.366134838749e-01 0.000000000000e+00 -1.392443768942e-03 -5.189891050802e+03 -2.783401561838e-05 -7.784836928980e+03 -5.189891191913e+03 1.519653739705e-10 -5.995018748575e-11 -2.794556947611e-03 0.000000000000e+00 6.054873057232e+03 2.594945807623e+03  2.794557023594e-03
5.200000000000e+01 -8.266892455761e+03 9.360504874292e-01 0.000000000000e+00 -1.398251223123e-03 -5.205908436660e+03 1.120580624130e-04 -7.808861756214e+03 -5.205908077150e+03 -3.871646586873e-10 2.413558267358e-10 -2.803180885147e-03 0.000000000000e+00 6.073559423341e+03 2.602953499310e+03  2.803180691564e-03
5.300000000000e+01 -8.296039188826e+03 9.355013858274e-01 0.000000000000e+00 -1.403912279141e-03 -5.221509794494e+03 1.063605834565e-05 -7.832264604837e+03 -5.221509759732e+03 -3.743549359127e-11 2.290843335986e-11 -2.811582140882e-03 0.000000000000e+00 6.091761386354e+03 2.610754827724e+03  2.811582122164e-03
5.400000000000e+01 -8.324472822782e+03 9.349657186559e-01 0.000000000000e+00 -1.409335532633e-03 -5.236711394922e+03 -1.127088994627e-06 -7.855067106627e+03 -5.236711400620e+03 6.135866156051e-12 -2.427576296121e-12 -2.819767683393e-03 0.000000000000e+00 6.109496634057e+03 2.618355708856e+03  2.819767686461e-03
5.500000000000e+01 -8.352214003775e+03 9.344430969420e-01 0.000000000000e+00 -1.414657253008e-03 -5.251525649468e+03 8.202047895541e-05 -7.877287757392e+03 -5.251525362744e+03 -3.087796508490e-10 1.766594931347e-10 -2.827744117313e-03 0.000000000000e+00 6.126779589868e+03 2.625762251286e+03  2.827743962923e-03
5.600000000000e+01 -8.379282833348e+03 9.339331419656e-01 0.000000000000e+00 -1.419862748286e-03 -5.265963117123e+03 -1.285338511514e-05 -7.898944760388e+03 -5.265963151004e+03 3.648735521488e-11 -2.768421409414e-11 -2.835518656259e-03 0.000000000000e+00 6.143623676172e+03 2.632981626324e+03  2.835518674503e-03
5.700000000000e+01 -8.405699342639e+03 9.334354763095e-01 0.000000000000e+00 -1.424950523111e-03 -5.280037561893e+03 6.521574704053e-05 -7.920055777171e+03 -5.280037335626e+03 -2.436729174449e-10 1.404646859334e-10 -2.843096783202e-03 0.000000000000e+00 6.160043558230e+03 2.640018328411e+03  2.843096661366e-03
5.800000000000e+01 -8.431483780741e+03 9.329497184346e-01 0.000000000000e+00 -1.429917449035e-03 -5.293759202465e+03 1.332577495616e-06 -7.940638793885e+03 -5.293759198540e+03 -4.226821652797e-12 2.870166913634e-12 -2.850485718064e-03 0.000000000000e+00 6.176052398297e+03 2.646879593383e+03  2.850485715950e-03
5.900000000000e+01 -8.456656902510e+03 9.324754772569e-01 0.000000000000e+00 -1.434765517009e-03 -5.307141270352e+03 3.418678213025e-06 -7.960711876871e+03 -5.307141258889e+03 -1.234434706950e-11 7.363306920360e-12 -2.857691434750e-03 0.000000000000e+00 6.191664802037e+03 2.653570612251e+03  2.857691428578e-03
6.000000000000e+01 -8.481239908541e+03 9.320123555006e-01 0.000000000000e+00 -1.439502026091e-03 -5.320195682873e+03 3.671819208001e-07 -7.980293544477e+03 -5.320195690940e+03 8.687134281432e-12 7.908533678759e-13 -2.864720765347e-03 0.000000000000e+00 6.206894972763e+03 2.660097857570e+03  2.864720769691e-03
6.100000000000e+01 -8.505253059902e+03 9.315650491134e-01 0.000000000000e+00 -1.444131429764e-03 -5.332934074560e+03 7.959604268932e-07 -7.999401086289e+03 -5.332934064340e+03 -1.100651408637e-11 1.714376304076e-12 -2.871579869792e-03 0.000000000000e+00 6.221756408396e+03 2.666467016839e+03  2.871579864288e-03
6.200000000000e+01 -8.528716332180e+03 9.311279856311e-01 0.000000000000e+00 -1.448658390365e-03 -5.345368056256e+03 -4.869306077187e-07 -8.018052090603e+03 -5.345368058743e+03 2.678712856167e-12 -1.048773616626e-12 -2.878275111233e-03 0.000000000000e+00 6.236262735201e+03 2.672684033103e+03  2.878275112572e-03
6.300000000000e+01 -8.551648891759e+03 9.307008080307e-01 0.000000000000e+00 -1.453082064358e-03 -5.357378843517e+03 -1.025556325932e-06 -8.036068282082e+03 -5.357378850240e+03 7.239789268826e-12 -2.208890548163e-12 -2.884742465061e-03 0.000000000000e+00 6.250275325280e+03 2.678689435204e+03  2.884742468681e-03
6.400000000000e+01 -8.574068891526e+03 9.302831781684e-01 0.000000000000e+00 -1.457406944347e-03 -5.369049734592e+03 -1.017285916505e-05 -8.053574698656e+03 -5.369049773299e+03 4.168484177732e-11 -2.191077358627e-11 -2.891026842692e-03 0.000000000000e+00 6.263891402183e+03 2.684524944711e+03  2.891026863535e-03
6.500000000000e+01 -8.595993115828e+03 9.298747833926e-01 0.000000000000e+00 -1.461635832828e-03 -5.380450759813e+03 3.298880557457e-05 -8.070675853039e+03 -5.380450645140e+03 -1.234930345574e-10 7.105281200676e-11 -2.897165608506e-03 0.000000000000e+00 6.277192419331e+03 2.690225150562e+03  2.897165546759e-03
6.600000000000e+01 -8.617437085420e+03 9.294753345897e-01 0.000000000000e+00 -1.465771229264e-03 -5.391590093449e+03 -6.651899912609e-06 -8.087385163663e+03 -5.391590102845e+03 1.011869057906e-11 -1.432716904254e-11 -2.903163911650e-03 0.000000000000e+00 6.290188453319e+03 2.695795065516e+03  2.903163916710e-03
6.700000000000e+01 -8.638415481312e+03 9.290845582882e-01 0.000000000000e+00 -1.469816378686e-03 -5.402477090203e+03 4.541703281419e-05 -8.103715231563e+03 -5.402476928706e+03 -1.739191554739e-10 9.782130144595e-11 -2.909025864615e-03 0.000000000000e+00 6.302889750157e+03 2.701238222109e+03  2.909025777655e-03
6.800000000000e+01 -8.658942175006e+03 9.286611053454e-01 0.000000000000e+00 -1.473773616152e-03 -5.413118841388e+03 4.503521032458e-05 -8.119677867918e+03 -5.413118683722e+03 -1.697941426374e-10 9.699891454524e-11 -2.914756044518e-03 0.000000000000e+00 6.315305131009e+03 2.706559105362e+03  2.914755959621e-03
6.900000000000e+01 -8.679032502141e+03 9.282322361316e-01 0.000000000000e+00 -1.477645559673e-03 -5.423524359967e+03 8.398323535470e-05 -8.135285757012e+03 -5.423524046792e+03 -3.372658437009e-10 1.808869684563e-10 -2.920358764853e-03 0.000000000000e+00 6.327444721257e+03 2.711761553633e+03  2.920358596220e-03
7.000000000000e+01 -8.698699868707e+03 9.278123957891e-01 0.000000000000e+00 -1.481432061736e-03 -5.433700902667e+03 6.748785599631e-05 -8.150550779394e+03 -5.433700672824e+03 -2.475228796237e-10 1.453584590690e-10 -2.925838576306e-03 0.000000000000e+00 6.339317451628e+03 2.716849991648e+03  2.925838452544e-03
7.100000000000e+01 -8.717956283684e+03 9.274013280486e-01 0.000000000000e+00 -1.485134313984e-03 -5.443655224406e+03 -9.106609369127e-06 -8.165482985047e+03 -5.443655283781e+03 6.394210578956e-11 -1.961423556428e-11 -2.931199062901e-03 0.000000000000e+00 6.350931164411e+03 2.721827730953e+03  2.931199094872e-03
7.200000000000e+01 -8.736812874171e+03 9.269987954217e-01 0.000000000000e+00 -1.488756505493e-03 -5.453394538307e+03 3.034233209100e-05 -8.180091545099e+03 -5.453394433363e+03 -1.130174571246e-10 6.535271527293e-11 -2.936443043409e-03 0.000000000000e+00 6.362293505590e+03 2.726697059264e+03  2.936442986900e-03
7.300000000000e+01 -8.755280149876e+03 9.266045735771e-01 0.000000000000e+00 -1.492301420744e-03 -5.462923931895e+03 -1.884941486135e-06 -8.194385932734e+03 -5.462923945852e+03 1.503059350463e-11 -4.059873970138e-12 -2.941574447412e-03 0.000000000000e+00 6.373411270160e+03 2.731461993861e+03  2.941574454928e-03
7.400000000000e+01 -8.773368175938e+03 9.262184476593e-01 0.000000000000e+00 -1.495771289120e-03 -5.472249823726e+03 3.241826497492e-05 -8.208374430985e+03 -5.472249701884e+03 -1.312142639116e-10 6.982395533059e-11 -2.946595862108e-03 0.000000000000e+00 6.384291318865e+03 2.736124668180e+03  2.946595796501e-03
7.500000000000e+01 -8.791086924468e+03 9.258402047660e-01 0.000000000000e+00 -1.499166467684e-03 -5.481377156237e+03 1.165121746011e-06 -8.222065725327e+03 -5.481377152626e+03 -3.889073182407e-12 2.509492991407e-12 -2.951510770602e-03 0.000000000000e+00 6.394940011397e+03 2.740688570896e+03  2.951510768657e-03
7.600000000000e+01 -8.808445866670e+03 9.254696427287e-01 0.000000000000e+00 -1.502490273059e-03 -5.490311839354e+03 3.478911620777e-06 -8.235467738525e+03 -5.490311831152e+03 -8.833216119512e-12 7.493040413979e-12 -2.956321746402e-03 0.000000000000e+00 6.405363803010e+03 2.745155903272e+03  2.956321741986e-03
7.700000000000e+01 -8.825454106797e+03 9.251065672012e-01 0.000000000000e+00 -1.505744017891e-03 -5.499058889333e+03 2.118560817126e-05 -8.248588143279e+03 -5.499058813045e+03 -8.215692951948e-11 4.563054067657e-11 -2.961031586406e-03 0.000000000000e+00 6.415568615219e+03 2.749529292090e+03  2.961031545327e-03
7.800000000000e+01 -8.842121962818e+03 9.247507580117e-01 0.000000000000e+00 -1.508929941666e-03 -5.507623800526e+03 4.215465055994e-06 -8.261435664536e+03 -5.507623786025e+03 -1.561635055352e-11 9.079463197525e-12 -2.965643561474e-03 0.000000000000e+00 6.425561083696e+03 2.753811871261e+03  2.965643553666e-03
7.900000000000e+01 -8.858458321856e+03 9.244020254470e-01 0.000000000000e+00 -1.512047081134e-03 -5.516011873121e+03 7.938464979297e-06 -8.274017717128e+03 -5.516011836099e+03 -3.986912288095e-11 1.709823226310e-11 -2.970160179569e-03 0.000000000000e+00 6.435347142116e+03 2.758005862518e+03  2.970160159634e-03
8.000000000000e+01 -8.874470903605e+03 9.240602046510e-01 0.000000000000e+00 -1.515100660259e-03 -5.524227540968e+03 4.796440741317e-05 -8.286340855736e+03 -5.524227358682e+03 -1.963081905930e-10 1.033079544284e-10 -2.974583766059e-03 0.000000000000e+00 6.444931918462e+03 2.762113405912e+03  2.974583667905e-03
8.100000000000e+01 -8.890167438538e+03 9.237251305724e-01 0.000000000000e+00 -1.518092245867e-03 -5.532274449244e+03 -2.638080005222e-06 -8.298411686757e+03 -5.532274454400e+03 5.553125887120e-12 -5.682018472787e-12 -2.978917019461e-03 0.000000000000e+00 6.454320196800e+03 2.766137234935e+03  2.978917022237e-03
8.200000000000e+01 -8.905555528012e+03 9.233966409312e-01 0.000000000000e+00 -1.521022126167e-03 -5.540157621330e+03 6.713825756530e-07 -8.310236426580e+03 -5.540157619164e+03 -2.332507353298e-12 1.446054778328e-12 -2.983161792602e-03 0.000000000000e+00 6.463517222358e+03 2.770078806333e+03  2.983161791436e-03
8.300000000000e+01 -8.920642595840e+03 9.230745772441e-01 0.000000000000e+00 -1.523890903443e-03 -5.547880931046e+03 2.848221030638e-06 -8.321821386125e+03 -5.547880926869e+03 -4.498969217673e-12 6.134629912143e-12 -2.987320494584e-03 0.000000000000e+00 6.472527748013e+03 2.773940457168e+03  2.987320492335e-03
8.400000000000e+01 -8.935435875052e+03 9.227587851016e-01 0.000000000000e+00 -1.526702488343e-03 -5.555448318818e+03 -8.946874518037e-06 -8.333172571115e+03 -5.555448355973e+03 4.001328150981e-11 -1.927019126962e-11 -2.991395308614e-03 0.000000000000e+00 6.481356415302e+03 2.777724233719e+03  2.991395328621e-03
8.500000000000e+01 -8.949942615451e+03 9.224491097156e-01 0.000000000000e+00 -1.529457993945e-03 -5.562864010683e+03 1.261259236308e-05 -8.344295882391e+03 -5.562863957230e+03 -5.756525035689e-11 2.716558355125e-11 -2.995388227097e-03 0.000000000000e+00 6.490007950101e+03 2.781431898435e+03  2.995388198314e-03
8.600000000000e+01 -8.964169869607e+03 9.221454005310e-01 0.000000000000e+00 -1.532159359406e-03 -5.570131935940e+03 5.227882274898e-05 -8.355197467611e+03 -5.570131761420e+03 -1.879443349889e-10 1.126005413055e-10 -2.999301529743e-03 0.000000000000e+00 6.498487054990e+03 2.785065618931e+03  2.999301435771e-03
8.700000000000e+01 -8.978124404233e+03 9.218475131044e-01 0.000000000000e+00 -1.534807800804e-03 -5.577255180652e+03 -7.761592213134e-07 -8.365882780369e+03 -5.577255184408e+03 4.045096093686e-12 -1.671727553599e-12 -3.003137411034e-03 0.000000000000e+00 6.506797715143e+03 2.788627597838e+03  3.003137413057e-03
8.800000000000e+01 -8.991812791250e+03 9.215553071428e-01 0.000000000000e+00 -1.537404683007e-03 -5.584238185782e+03 2.752182366251e-07 -8.376357277120e+03 -5.584238185161e+03 -6.689375407383e-13 5.927777404220e-13 -3.006897483648e-03 0.000000000000e+00 6.514944549354e+03 2.792119091649e+03  3.006897483314e-03
8.900000000000e+01 -9.005241356157e+03 9.212686476195e-01 0.000000000000e+00 -1.539951223693e-03 -5.591084167192e+03 3.470864517314e-06 -8.386626205762e+03 -5.591084149182e+03 -1.939593925157e-11 7.475708191136e-12 -3.010583753240e-03 0.000000000000e+00 6.522931507379e+03 2.795542047575e+03  3.010583743542e-03
9.000000000000e+01 -9.018416198691e+03 9.209874043260e-01 0.000000000000e+00 -1.542447780263e-03 -5.597796417274e+03 -2.810075055478e-06 -8.396694603593e+03 -5.597796408347e+03 -9.613822501531e-12 -6.052469350261e-12 -3.014198056419e-03 0.000000000000e+00 6.530762476405e+03 2.798898190783e+03  3.014198051612e-03
9.100000000000e+01 -9.031343166624e+03 9.207151493394e-01 0.000000000000e+00 -1.544893917584e-03 -5.604378341949e+03 7.504800280086e-06 -8.406567457647e+03 -5.604378319838e+03 -2.381123172462e-11 1.616418521865e-11 -3.017742148409e-03 0.000000000000e+00 6.538441373145e+03 2.802189126753e+03  3.017742136504e-03
9.200000000000e+01 -9.044027998213e+03 9.204487295648e-01 0.000000000000e+00 -1.547293220560e-03 -5.610832777178e+03 -9.646390283535e-06 -8.416249227002e+03 -5.610832801672e+03 2.637822795988e-11 -2.077684061069e-11 -3.021217688817e-03 0.000000000000e+00 6.545971601951e+03 2.805416437577e+03  3.021217702006e-03
9.300000000000e+01 -9.056476244917e+03 9.201872787874e-01 0.000000000000e+00 -1.549646882108e-03 -5.617163086287e+03 -7.770261206688e-06 -8.425744656955e+03 -5.617163097297e+03 1.185703059485e-11 -1.673594721441e-11 -3.024626295017e-03 0.000000000000e+00 6.553356946846e+03 2.808581565163e+03  3.024626300945e-03
9.400000000000e+01 -9.068693281827e+03 9.199306841140e-01 0.000000000000e+00 -1.551955938714e-03 -5.623372137093e+03 -1.995311420176e-06 -8.435058223504e+03 -5.623372144239e+03 7.695032625149e-12 -4.297593828073e-12 -3.027969623824e-03 0.000000000000e+00 6.560600834945e+03 2.811686082837e+03  3.027969627671e-03