 TITLE = "Time curves in points"
 VARIABLES = "TIME"  "PRESSURE1"  "SATURATION1"  "DISPLACEMENT_X1"  "DISPLACEMENT_Y1"  "STRESS_XX"  "STRESS_XY"  "STRESS_YY"  "STRESS_ZZ"  "STRAIN_XX"  "STRAIN_XY"  "STRAIN_YY"  "STRAIN_PLS"  p_(1st_Invariant)  q_(2nd_Invariant)   Effective_Strain
 ZONE T="POINT=POINT0"
0.000000000000e+00 0.000000000000e+00 1.000000000000e+00 0.000000000000e+00 0.000000000000e+00 0.000000000000e+00 0.000000000000e+00 0.000000000000e+00 0.000000000000e+00 0.000000000000e+00 0.000000000000e+00 0.000000000000e+00 0.000000000000e+00 -0.000000000000e+00 0.000000000000e+00  0.000000000000e+00
1.000000000000e+00 -2.102594212636e+03 9.975831605939e-01 0.000000000000e+00 -1.962506687520e-04 -1.398416940387e+03 -8.195705768399e-04 -2.097635093139e+03 -1.398420813411e+03 4.170948104014e-09 -1.765228934732e-09 -7.529999935539e-04 0.000000000000e+00 1.631490948979e+03 6.992162162497e+02  7.530020790428e-04
2.000000000000e+00 -2.999353595962e+03 9.945498895068e-01 0.000000000000e+00 -3.454525640884e-04 -1.989046364853e+03 2.049097682996e-03 -2.983552451218e+03 -1.989039526428e+03 -7.364457478332e-09 4.413441163376e-09 -1.071013919004e-03 0.000000000000e+00 2.320546114166e+03 9.945095056010e+02  1.071010236821e-03
3.000000000000e+00 -3.604603137824e+03 9.914568603293e-01 0.000000000000e+00 -4.662703042674e-04 -2.383166963316e+03 3.763432525983e-04 -3.574747931437e+03 -2.383165957901e+03 -1.082754590392e-09 8.105854671348e-10 -1.283242125346e-03 0.000000000000e+00 2.780360284218e+03 1.191581470829e+03  1.283241583970e-03
4.000000000000e+00 -4.041701610015e+03 9.887330194036e-01 0.000000000000e+00 -5.551011668660e-04 -2.664961307339e+03 3.477947074146e-05 -3.997441255566e+03 -2.664961025162e+03 -3.038829399093e-10 7.490962928931e-11 -1.434978709666e-03 0.000000000000e+00 3.109121196022e+03 1.332480089316e+03  1.434978557724e-03
5.000000000000e+00 -4.388410622511e+03 9.862519346014e-01 0.000000000000e+00 -6.263527396461e-04 -2.886445939004e+03 -8.875167597164e-05 -4.329667796202e+03 -2.886445494083e+03 -4.791463783604e-10 -1.911574559389e-10 -1.554239402283e-03 0.000000000000e+00 3.367519743096e+03 1.443222079659e+03  1.554239162710e-03
6.000000000000e+00 -4.677125350176e+03 9.839610183803e-01 0.000000000000e+00 -6.846875895824e-04 -3.069330037933e+03 1.189994529463e-03 -4.603985385625e+03 -3.069326169423e+03 -4.166087502089e-09 2.563065140382e-09 -1.652709925140e-03 0.000000000000e+00 3.580880530993e+03 1.534657281952e+03  1.652707842106e-03
7.000000000000e+00 -4.924452240886e+03 9.818384431864e-01 0.000000000000e+00 -7.335612569991e-04 -3.224767107351e+03 8.376187966972e-05 -4.837150492897e+03 -3.224767040099e+03 -7.242495025649e-11 1.804102023656e-10 -1.736412949167e-03 0.000000000000e+00 3.762228213449e+03 1.612383419172e+03  1.736412912955e-03
8.000000000000e+00 -5.140410523082e+03 9.798416189461e-01 0.000000000000e+00 -7.778991447323e-04 -3.359445195274e+03 -6.477578805831e-05 -5.039168686171e+03 -3.359445552578e+03 3.847889875657e-10 -1.395170819717e-10 -1.808932605408e-03 0.000000000000e+00 3.919353144675e+03 1.679723312245e+03  1.808932797803e-03
9.000000000000e+00 -5.328462460637e+03 9.778265946546e-01 0.000000000000e+00 -8.157124935305e-04 -3.475359016269e+03 2.180200283691e-04 -5.213035807293e+03 -3.475357929425e+03 -1.170447560670e-09 4.695815995642e-10 -1.871345406935e-03 0.000000000000e+00 4.054584250996e+03 1.737677334447e+03  1.871344821712e-03
1.000000000000e+01 -5.501186184649e+03 9.759306639983e-01 0.000000000000e+00 -8.507116381603e-04 -3.581207829633e+03 4.824465564634e-04 -5.371807548173e+03 -3.581206151122e+03 -1.807627154893e-09 1.039115660075e-09 -1.928339966054e-03 0.000000000000e+00 4.178073842976e+03 1.790600557796e+03  1.928339062242e-03
1.100000000000e+01 -5.658996498446e+03 9.742278002399e-01 0.000000000000e+00 -8.814041065342e-04 -3.677577574120e+03 -2.060067586764e-05 -5.516366104103e+03 -3.677577471289e+03 -1.107408883329e-10 -4.437068648414e-11 -1.980233912261e-03 0.000000000000e+00 4.290507049837e+03 1.838788581398e+03  1.980233856890e-03
1.200000000000e+01 -5.803295410818e+03 9.726776974643e-01 0.000000000000e+00 -9.101293032032e-04 -3.765354349826e+03 -1.085476353993e-04 -5.648032120052e+03 -3.765354587951e+03 2.564425160780e-10 -2.337949070138e-10 -2.027498880724e-03 0.000000000000e+00 4.392913685943e+03 1.882677651163e+03  2.027499008945e-03
1.300000000000e+01 -5.938090257574e+03 9.712296902502e-01 0.000000000000e+00 -9.369124235750e-04 -3.847080321133e+03 1.319384611763e-04 -5.770619008626e+03 -3.847079731904e+03 -6.345551609384e-10 2.841751471489e-10 -2.071503836470e-03 0.000000000000e+00 4.488259687221e+03 1.923538982107e+03  2.071503519192e-03
1.400000000000e+01 -6.063879632567e+03 9.698784225510e-01 0.000000000000e+00 -9.611589023011e-04 -3.923115232249e+03 -9.727134691888e-06 -5.884673153546e+03 -3.923115354318e+03 1.314591412889e-10 -2.095075164407e-11 -2.112446860707e-03 0.000000000000e+00 4.576967913371e+03 1.961557860263e+03  2.112446926437e-03
1.500000000000e+01 -6.181379260781e+03 9.684085510137e-01 0.000000000000e+00 -9.841616565271e-04 -3.993185502724e+03 3.819933055410e-04 -5.989775015722e+03 -3.993184207378e+03 -1.394987481887e-09 8.227548119344e-10 -2.150174716678e-03 0.000000000000e+00 4.658714908608e+03 1.996590160671e+03  2.150174019185e-03
1.600000000000e+01 -6.291829678325e+03 9.669197245292e-01 0.000000000000e+00 -1.005994556907e-03 -4.058446625159e+03 9.695602466993e-05 -6.087669221289e+03 -4.058446338579e+03 -3.086245273100e-10 2.088283608275e-10 -2.185316950610e-03 0.000000000000e+00 4.734854061676e+03 2.029222739420e+03  2.185316796298e-03
1.700000000000e+01 -6.395909937575e+03 9.655167213879e-01 0.000000000000e+00 -1.026548150294e-03 -4.119747963437e+03 2.484971780350e-05 -6.179621624305e+03 -4.119747835097e+03 -1.382122149557e-10 5.352246911524e-11 -2.218325619148e-03 0.000000000000e+00 4.806372474280e+03 2.059873725039e+03  2.218325550042e-03
1.800000000000e+01 -6.494268142428e+03 9.641986568911e-01 0.000000000000e+00 -1.046048555622e-03 -4.177519978724e+03 5.403653716293e-06 -6.266279929709e+03 -4.177519963373e+03 -1.653133330984e-11 1.163863877355e-11 -2.249433809900e-03 0.000000000000e+00 4.873773290602e+03 2.088759958661e+03  2.249433801635e-03
1.900000000000e+01 -6.587392041409e+03 9.629755729497e-01 0.000000000000e+00 -1.064551766951e-03 -4.232103477135e+03 2.832835116183e-04 -6.348152781185e+03 -4.232102503328e+03 -1.048715189154e-09 6.101491019472e-10 -2.278823376154e-03 0.000000000000e+00 4.937452920549e+03 2.116049790954e+03  2.278822851796e-03
2.000000000000e+01 -6.675772953908e+03 9.618147831204e-01 0.000000000000e+00 -1.081630559776e-03 -4.283712357770e+03 -5.850286370222e-05 -6.425569533333e+03 -4.283712756441e+03 4.293382189378e-10 -1.260061679740e-10 -2.306614990499e-03 0.000000000000e+00 4.997664882515e+03 2.141856976227e+03  2.306615205168e-03
2.100000000000e+01 -6.759941005158e+03 9.607093247688e-01 0.000000000000e+00 -1.098104081692e-03 -4.332735438624e+03 3.913836462465e-05 -6.499102901039e+03 -4.332735335865e+03 -1.106635199489e-10 8.429801611462e-11 -2.333011224033e-03 0.000000000000e+00 5.054857891843e+03 2.166367513794e+03  2.333011168701e-03
2.200000000000e+01 -6.840157925681e+03 9.596557603413e-01 0.000000000000e+00 -1.113916656328e-03 -4.379341917213e+03 1.404289154701e-04 -6.569011744345e+03 -4.379341464623e+03 -4.874039870757e-10 3.024622794740e-10 -2.358106455085e-03 0.000000000000e+00 5.109231708727e+03 2.189670053428e+03  2.358106211384e-03
2.300000000000e+01 -6.916704891593e+03 9.585313021695e-01 0.000000000000e+00 -1.128950225233e-03 -4.423226231984e+03 -4.967831867682e-06 -6.634839407345e+03 -4.423226255731e+03 2.557427144798e-11 -1.069994556116e-11 -2.381737240199e-03 0.000000000000e+00 5.160430631687e+03 2.211613163487e+03  2.381737252986e-03
2.400000000000e+01 -6.989835820229e+03 9.573940361369e-01 0.000000000000e+00 -1.143349339206e-03 -4.464794976443e+03 4.550907029639e-05 -6.697192068037e+03 -4.464794817792e+03 -1.708546322159e-10 9.801953602299e-11 -2.404120115649e-03 0.000000000000e+00 5.208927287424e+03 2.232397170920e+03  2.404120030221e-03
2.500000000000e+01 -7.059800136258e+03 9.563060150028e-01 0.000000000000e+00 -1.157148773710e-03 -4.504462941162e+03 1.738165054469e-04 -6.756692874093e+03 -4.504462326102e+03 -6.623723175167e-10 3.743740117319e-10 -2.425479051683e-03 0.000000000000e+00 5.255206047119e+03 2.252230240461e+03  2.425478720497e-03
2.600000000000e+01 -7.126990485557e+03 9.552611348177e-01 0.000000000000e+00 -1.170414590288e-03 -4.542462833879e+03 -1.154943462711e-05 -6.813694289626e+03 -4.542462849402e+03 1.671682933918e-11 -2.487570535070e-11 -2.445941551010e-03 0.000000000000e+00 5.299539990969e+03 2.271231447985e+03  2.445941559369e-03
2.700000000000e+01 -7.191599809959e+03 9.542563902998e-01 0.000000000000e+00 -1.183182871036e-03 -4.578917503594e+03 -3.229305908897e-06 -6.868376349245e+03 -4.578917541136e+03 4.042925903260e-11 -6.955428111469e-12 -2.465571024118e-03 0.000000000000e+00 5.342070464658e+03 2.289458826880e+03  2.465571044332e-03
2.800000000000e+01 -7.253760208403e+03 9.532949118910e-01 0.000000000000e+00 -1.195464262115e-03 -4.613921161958e+03 1.705082811997e-06 -6.920881732206e+03 -4.613921157666e+03 -4.622921607317e-12 3.672486056608e-12 -2.484419080274e-03 0.000000000000e+00 5.382908017277e+03 2.306960572394e+03  2.484419077963e-03
2.900000000000e+01 -7.313603805277e+03 9.523825757118e-01 0.000000000000e+00 -1.207281148893e-03 -4.647576332370e+03 2.455334257976e-04 -6.971362458362e+03 -4.647575516293e+03 -8.788522053303e-10 5.288412247947e-10 -2.502539783767e-03 0.000000000000e+00 5.422171435675e+03 2.323786534031e+03  2.502539344341e-03
3.000000000000e+01 -7.371252113177e+03 9.515037074666e-01 0.000000000000e+00 -1.218395725231e-03 -4.679907682496e+03 1.830916414007e-04 -7.019860002940e+03 -4.679907074174e+03 -6.551156697575e-10 3.943512276322e-10 -2.519949307901e-03 0.000000000000e+00 5.459891586537e+03 2.339952624605e+03  2.519948980344e-03
3.100000000000e+01 -7.426814990064e+03 9.506566323332e-01 0.000000000000e+00 -1.229191340776e-03 -4.710986500999e+03 -4.542543621853e-05 -7.066480208395e+03 -4.710986683758e+03 1.968167357243e-10 -9.783940108606e-11 -2.536685334225e-03 0.000000000000e+00 5.496151131051e+03 2.355493616016e+03  2.536685432633e-03
3.200000000000e+01 -7.480394406615e+03 9.498397957335e-01 0.000000000000e+00 -1.239582420054e-03 -4.740897522329e+03 -4.770365830382e-05 -7.111346758555e+03 -4.740897712354e+03 2.046417251620e-10 -1.027463409621e-10 -2.552791280524e-03 0.000000000000e+00 5.531047331079e+03 2.370449141214e+03  2.552791382845e-03
3.300000000000e+01 -7.532106170743e+03 9.490331109232e-01 0.000000000000e+00 -1.249645030808e-03 -4.769629802095e+03 -5.761159278421e-06 -7.154444809435e+03 -4.769629844612e+03 4.578748409576e-11 -1.240865075352e-11 -2.568262269809e-03 0.000000000000e+00 5.564568152048e+03 2.384814986082e+03  2.568262292703e-03
3.400000000000e+01 -7.582089626926e+03 9.481611904125e-01 0.000000000000e+00 -1.259392266656e-03 -4.796938611895e+03 1.299263784476e-05 -7.195407833366e+03 -4.796938578104e+03 -3.638983939577e-11 2.798414305026e-11 -2.582966890282e-03 0.000000000000e+00 5.596428341122e+03 2.398469238366e+03  2.582966872087e-03
3.500000000000e+01 -7.630448449663e+03 9.473176091145e-01 0.000000000000e+00 -1.268841458068e-03 -4.823305040462e+03 -2.108422382369e-05 -7.234957763169e+03 -4.823305121452e+03 8.722068786185e-11 -4.541217438949e-11 -2.597164383387e-03 0.000000000000e+00 5.627189308361e+03 2.411652682212e+03  2.597164426998e-03
3.600000000000e+01 -7.677262638271e+03 9.465009725765e-01 0.000000000000e+00 -1.277994109906e-03 -4.848778414926e+03 -1.651078929116e-05 -7.273167784762e+03 -4.848778479875e+03 6.994498993065e-11 -3.556170001173e-11 -2.610880789878e-03 0.000000000000e+00 5.656908226521e+03 2.424389337361e+03  2.610880824850e-03
3.700000000000e+01 -7.722619412974e+03 9.457097604833e-01 0.000000000000e+00 -1.286854361056e-03 -4.873412794123e+03 -4.411594101831e-05 -7.310119627978e+03 -4.873412968840e+03 1.881572635308e-10 -9.501894988559e-11 -2.624145632917e-03 0.000000000000e+00 5.685648463647e+03 2.436706746496e+03  2.624145726996e-03
3.800000000000e+01 -7.766617601835e+03 9.449422502795e-01 0.000000000000e+00 -1.295438697842e-03 -4.897266445641e+03 -1.145261283856e-05 -7.345899725824e+03 -4.897266468586e+03 2.471017454517e-11 -2.466716611382e-11 -2.636989661641e-03 0.000000000000e+00 5.713477546683e+03 2.448633268711e+03  2.636989673996e-03
3.900000000000e+01 -7.809303106904e+03 9.441976394746e-01 0.000000000000e+00 -1.303760439737e-03 -4.920366099538e+03 -9.505196424206e-06 -7.380549272212e+03 -4.920366148700e+03 5.294369248037e-11 -2.047273075983e-11 -2.649427979167e-03 0.000000000000e+00 5.740427173483e+03 2.460183148093e+03  2.649428005638e-03
4.000000000000e+01 -7.850726630496e+03 9.434750431230e-01 0.000000000000e+00 -1.311822434368e-03 -4.942742932882e+03 2.274810634127e-05 -7.414114136641e+03 -4.942742827809e+03 -1.131553413735e-10 4.899592135042e-11 -2.661476794126e-03 0.000000000000e+00 5.766533299110e+03 2.471371256295e+03  2.661476737549e-03
4.100000000000e+01 -7.890939571028e+03 9.427735643896e-01 0.000000000000e+00 -1.319644706585e-03 -4.964428113849e+03 -9.675970355423e-07 -7.446642229344e+03 -4.964428137277e+03 2.523036865760e-11 -2.084055153475e-12 -2.673153637610e-03 0.000000000000e+00 5.791832826823e+03 2.482214103781e+03  2.673153650225e-03
4.200000000000e+01 -7.929991357369e+03 9.421018193006e-01 0.000000000000e+00 -1.327231807704e-03 -4.985473926167e+03 -1.007135937444e-05 -7.478211021640e+03 -4.985473979122e+03 5.702946110827e-11 -2.169215865264e-11 -2.684486045788e-03 0.000000000000e+00 5.816386308976e+03 2.492737068995e+03  2.684486074302e-03
4.300000000000e+01 -7.967929438893e+03 9.414505731926e-01 0.000000000000e+00 -1.334593322354e-03 -5.005889576830e+03 9.597188482589e-06 -7.508834286996e+03 -5.005889545530e+03 -3.370688078776e-11 2.067086750096e-11 -2.695478952348e-03 0.000000000000e+00 5.840204469786e+03 2.502944725816e+03  2.695478935495e-03
4.400000000000e+01 -8.004807955087e+03 9.408175156110e-01 0.000000000000e+00 -1.341750122465e-03 -5.025702182895e+03 -1.633151319729e-05 -7.538553456782e+03 -5.025702255871e+03 7.858907741398e-11 -3.517556688648e-11 -2.706147447135e-03 0.000000000000e+00 5.863319298516e+03 2.512851237399e+03  2.706147486429e-03
4.500000000000e+01 -8.040679004071e+03 9.402017522381e-01 0.000000000000e+00 -1.348708984474e-03 -5.044921616976e+03 -4.522627188889e-06 -7.567382502267e+03 -5.044921647697e+03 3.308391899041e-11 -9.741043176067e-12 -2.716496304921e-03 0.000000000000e+00 5.885741922313e+03 2.522460869930e+03  2.716496321463e-03
4.600000000000e+01 -8.075588880257e+03 9.396024883828e-01 0.000000000000e+00 -1.355480836557e-03 -5.063598353136e+03 1.280774187568e-04 -7.595396434432e+03 -5.063597915027e+03 -4.718098858130e-10 2.758590557838e-10 -2.726552251666e-03 0.000000000000e+00 5.907530900865e+03 2.531798300350e+03  2.726552015761e-03
4.700000000000e+01 -8.109577920468e+03 9.390141703795e-01 0.000000000000e+00 -1.362071358317e-03 -5.081731812013e+03 1.293953418365e-04 -7.622596528977e+03 -5.081731336396e+03 -5.122031153513e-10 2.786976593401e-10 -2.736316361241e-03 0.000000000000e+00 5.928686559129e+03 2.540864954772e+03  2.736316105139e-03
4.800000000000e+01 -8.142681258458e+03 9.383905295355e-01 0.000000000000e+00 -1.368481092071e-03 -5.099124573327e+03 1.767484241521e-05 -7.648686662819e+03 -5.099124494458e+03 -8.493575088303e-11 3.806889135583e-11 -2.745682335157e-03 0.000000000000e+00 5.948978576868e+03 2.549562128926e+03  2.745682292689e-03
4.900000000000e+01 -8.174930340898e+03 9.377829822414e-01 0.000000000000e+00 -1.374682972510e-03 -5.116043270154e+03 8.439034643004e-05 -7.674064160430e+03 -5.116042972234e+03 -3.208373812406e-10 1.817638230801e-10 -2.754792048827e-03 0.000000000000e+00 5.968716800939e+03 2.558021039236e+03  2.754791888408e-03
5.000000000000e+01 -8.206362464117e+03 9.371908254677e-01 0.000000000000e+00 -1.380725116793e-03 -5.132507895420e+03 4.711723822768e-05 -7.698761457428e+03 -5.132507741139e+03 -1.661483673007e-10 1.014832823365e-10 -2.763657848311e-03 0.000000000000e+00 5.987925697996e+03 2.566253639149e+03  2.763657765237e-03
5.100000000000e+01 -8.237008181829e+03 9.366134838749e-01 0.000000000000e+00 -1.386613901905e-03 -5.148536887467e+03 1.837942147365e-05 -7.722805100689e+03 -5.148536795262e+03 -9.929715549914e-11 3.958644625094e-11 -2.772288944306e-03 0.000000000000e+00 6.006626261139e+03 2.574268259324e+03  2.772288894657e-03
5.200000000000e+01 -8.266892455761e+03 9.360504874292e-01 0.000000000000e+00 -1.392353222651e-03 -5.164145430680e+03 1.581419621361e-05 -7.746218034300e+03 -5.164145385992e+03 -4.812572312404e-11 3.406134569085e-11 -2.780693621255e-03 0.000000000000e+00 6.024836283657e+03 2.582072625964e+03  2.780693597192e-03
5.300000000000e+01 -8.296039188826e+03 9.355013858274e-01 0.000000000000e+00 -1.397941778230e-03 -5.179347341817e+03 2.137502379172e-05 -7.769020847817e+03 -5.179347275853e+03 -7.103736698982e-11 4.603851278218e-11 -2.788879231345e-03 0.000000000000e+00 6.042571821829e+03 2.589673538982e+03  2.788879195827e-03
5.400000000000e+01 -8.324472822782e+03 9.349657186559e-01 0.000000000000e+00 -1.403291386497e-03 -5.194156837870e+03 1.191055146983e-05 -7.791235063192e+03 -5.194156760425e+03 -8.340260545412e-11 2.565349547349e-11 -2.796853556826e-03 0.000000000000e+00 6.059849553829e+03 2.597078264044e+03  2.796853515125e-03
5.500000000000e+01 -8.352214003775e+03 9.344430969420e-01 0.000000000000e+00 -1.408544813492e-03 -5.208586422301e+03 2.213355543626e-06 -7.812879616144e+03 -5.208586415378e+03 -7.455506801891e-12 4.767227324733e-12 -2.804623446979e-03 0.000000000000e+00 6.076684151274e+03 2.604293197305e+03  2.804623443251e-03
5.600000000000e+01 -8.379282833348e+03 9.339331419656e-01 0.000000000000e+00 -1.413684030856e-03 -5.222648955058e+03 1.401486277634e-05 -7.833973340231e+03 -5.222648918115e+03 -3.978392066461e-11 3.018585828750e-11 -2.812195531509e-03 0.000000000000e+00 6.093090404468e+03 2.611324403644e+03  2.812195511617e-03
5.700000000000e+01 -8.405699342639e+03 9.334354763095e-01 0.000000000000e+00 -1.418702906934e-03 -5.236356118062e+03 -1.705963977250e-05 -7.854534372574e+03 -5.236356196254e+03 8.420708421475e-11 -3.674383951000e-11 -2.819576497575e-03 0.000000000000e+00 6.109082228964e+03 2.618178215416e+03  2.819576539678e-03
5.800000000000e+01 -8.431483780741e+03 9.329497184346e-01 0.000000000000e+00 -1.423604994522e-03 -5.249718924311e+03 3.328669754182e-05 -7.874577995262e+03 -5.249718767829e+03 -1.685191015601e-10 7.169442547468e-11 -2.826771475697e-03 0.000000000000e+00 6.124671895801e+03 2.624859149192e+03  2.826771391437e-03
5.900000000000e+01 -8.456656902510e+03 9.324754772569e-01 0.000000000000e+00 -1.428393621968e-03 -5.262749173475e+03 8.744155800957e-05 -7.894123022053e+03 -5.262748878211e+03 -3.179764619144e-10 1.883356634052e-10 -2.833787539522e-03 0.000000000000e+00 6.139873691246e+03 2.631373996210e+03  2.833787380534e-03
6.000000000000e+01 -8.481239908541e+03 9.320123555006e-01 0.000000000000e+00 -1.433070733112e-03 -5.275458024449e+03 7.296638679392e-06 -7.913186994010e+03 -5.275458007384e+03 -1.837782463783e-11 1.571583715561e-11 -2.840631216367e-03 0.000000000000e+00 6.154701008614e+03 2.637728978094e+03  2.840631207178e-03
6.100000000000e+01 -8.505253059902e+03 9.315650491134e-01 0.000000000000e+00 -1.437637072482e-03 -5.287870861983e+03 -5.233151847989e-07 -7.931806299361e+03 -5.287870864537e+03 2.750803015639e-12 -1.127140398028e-12 -2.847315083656e-03 0.000000000000e+00 6.169182675294e+03 2.643935436100e+03  2.847315085031e-03
6.200000000000e+01 -8.528716332180e+03 9.311279856311e-01 0.000000000000e+00 -1.442101435656e-03 -5.299985790647e+03 3.302497528291e-06 -7.949978631768e+03 -5.299985768966e+03 -2.334850921042e-11 7.113071599396e-12 -2.853838467633e-03 0.000000000000e+00 6.183316730460e+03 2.649992851962e+03  2.853838455959e-03
6.300000000000e+01 -8.551648891759e+03 9.307008080307e-01 0.000000000000e+00 -1.446467109472e-03 -5.311813594523e+03 1.450257871967e-05 -7.967720268519e+03 -5.311813545217e+03 -5.309900064649e-11 3.123632339622e-11 -2.860207240479e-03 0.000000000000e+00 6.197115802753e+03 2.655906698649e+03  2.860207213930e-03
6.400000000000e+01 -8.574068891526e+03 9.302831781684e-01 0.000000000000e+00 -1.450736594351e-03 -5.323364414245e+03 2.240439574105e-05 -7.985046417842e+03 -5.323364332835e+03 -8.767227943253e-11 4.825562159610e-11 -2.866426860777e-03 0.000000000000e+00 6.210591721640e+03 2.661682044302e+03  2.866426816941e-03
6.500000000000e+01 -8.595993115828e+03 9.298747833926e-01 0.000000000000e+00 -1.454911362303e-03 -5.334644696182e+03 1.141054310075e-04 -8.001966006821e+03 -5.334644281201e+03 -4.469027568449e-10 2.457655437084e-10 -2.872500319898e-03 0.000000000000e+00 6.223751661401e+03 2.667321518129e+03  2.872500096447e-03
6.600000000000e+01 -8.617437085420e+03 9.294753345897e-01 0.000000000000e+00 -1.458992794055e-03 -5.345657202233e+03 -1.336803253690e-05 -8.018485896070e+03 -5.345657239322e+03 3.994108882564e-11 -2.879268546409e-11 -2.878430861114e-03 0.000000000000e+00 6.236600112542e+03 2.672828675293e+03  2.878430881085e-03
6.700000000000e+01 -8.638415481312e+03 9.290845582882e-01 0.000000000000e+00 -1.462984489348e-03 -5.356420252729e+03 -1.234312167299e-06 -8.034630395628e+03 -5.356420259343e+03 7.122558332703e-12 -2.658518514183e-12 -2.884226300615e-03 0.000000000000e+00 6.249156969233e+03 2.678210139592e+03  2.884226304176e-03
6.800000000000e+01 -8.658942175006e+03 9.286611053454e-01 0.000000000000e+00 -1.466881454975e-03 -5.366732120570e+03 -2.848599469282e-06 -8.050098193151e+03 -5.366732125489e+03 5.296583498466e-12 -6.135445010762e-12 -2.889778842098e-03 0.000000000000e+00 6.261187479737e+03 2.683366070122e+03  2.889778844746e-03
6.900000000000e+01 -8.679032502141e+03 9.282322361316e-01 0.000000000000e+00 -1.470692247316e-03 -5.376740313342e+03 8.437366228431e-06 -8.065110370343e+03 -5.376740273474e+03 -4.293506889020e-11 1.817278879970e-11 -2.895167796628e-03 0.000000000000e+00 6.272863652387e+03 2.688370076935e+03  2.895167775160e-03
7.000000000000e+01 -8.698699868707e+03 9.278123957891e-01 0.000000000000e+00 -1.474420974214e-03 -5.386526741829e+03 -2.494173959584e-06 -8.079790123710e+03 -5.386526746215e+03 4.724273803251e-12 -5.372066989872e-12 -2.900437483456e-03 0.000000000000e+00 6.284281203918e+03 2.693263379688e+03  2.900437485818e-03
7.100000000000e+01 -8.717956283684e+03 9.274013280486e-01 0.000000000000e+00 -1.478068448562e-03 -5.396098260511e+03 3.775199591041e-06 -8.094147343175e+03 -5.396098241474e+03 -2.050092598634e-11 8.131199119164e-12 -2.905591340293e-03 0.000000000000e+00 6.295447948387e+03 2.698049092182e+03  2.905591330042e-03
7.200000000000e+01 -8.736812874171e+03 9.269987954217e-01 0.000000000000e+00 -1.481636447962e-03 -5.405461184795e+03 4.492372291556e-05 -8.108191397525e+03 -5.405461032928e+03 -1.635493963322e-10 9.675878781814e-11 -2.910632700335e-03 0.000000000000e+00 6.306371205083e+03 2.702730288663e+03  2.910632618560e-03
7.300000000000e+01 -8.755280149876e+03 9.266045735771e-01 0.000000000000e+00 -1.485126555564e-03 -5.414620637986e+03 -6.017477963207e-06 -8.121931044908e+03 -5.414620673158e+03 3.787719328651e-11 -1.296072176691e-11 -2.915565015731e-03 0.000000000000e+00 6.317057452017e+03 2.707310389336e+03  2.915565034670e-03
7.400000000000e+01 -8.773368175938e+03 9.262184476593e-01 0.000000000000e+00 -1.488541736951e-03 -5.423583005031e+03 2.905002159151e-06 -8.135374473967e+03 -5.423582991599e+03 -1.446472517044e-11 6.256927727402e-12 -2.920390827166e-03 0.000000000000e+00 6.327513490199e+03 2.711791475652e+03  2.920390819933e-03
7.500000000000e+01 -8.791086924468e+03 9.258402047660e-01 0.000000000000e+00 -1.491883725270e-03 -5.432353477112e+03 -1.202985657235e-06 -8.148530228928e+03 -5.432353482416e+03 5.712100007815e-12 -2.591046030968e-12 -2.925113419321e-03 0.000000000000e+00 6.337745729486e+03 2.716176749164e+03  2.925113422177e-03
7.600000000000e+01 -8.808445866670e+03 9.254696427287e-01 0.000000000000e+00 -1.495154382376e-03 -5.440937494710e+03 2.561113549648e-05 -8.161406011251e+03 -5.440937402384e+03 -9.942726942859e-11 5.516244568473e-11 -2.929735424934e-03 0.000000000000e+00 6.347760302782e+03 2.720468562704e+03  2.929735375220e-03
7.700000000000e+01 -8.825454106797e+03 9.251065672012e-01 0.000000000000e+00 -1.498356834395e-03 -5.449339685618e+03 1.314158580416e-05 -8.174009425574e+03 -5.449339644477e+03 -4.430590420028e-11 2.830495403973e-11 -2.934259764259e-03 0.000000000000e+00 6.357562918556e+03 2.724669760527e+03  2.934259742106e-03
7.800000000000e+01 -8.842121962818e+03 9.247507580117e-01 0.000000000000e+00 -1.501492935182e-03 -5.457565834054e+03 7.971890825287e-07 -8.186348745146e+03 -5.457565831680e+03 -2.556678969104e-12 1.717022639293e-12 -2.938689291425e-03 0.000000000000e+00 6.367160136960e+03 2.728782912279e+03  2.938689290147e-03
7.900000000000e+01 -8.858458321856e+03 9.244020254470e-01 0.000000000000e+00 -1.504562074010e-03 -5.465621010343e+03 1.469692040811e-05 -8.198431395362e+03 -5.465620962282e+03 -5.175819493424e-11 3.165490549439e-11 -2.943026620240e-03 0.000000000000e+00 6.376557789329e+03 2.732810409049e+03  2.943026594361e-03
8.000000000000e+01 -8.874470903605e+03 9.240602046510e-01 0.000000000000e+00 -1.507568042107e-03 -5.473509200317e+03 1.630974351940e-05 -8.210263670056e+03 -5.473509148149e+03 -5.618046239766e-11 3.512867834949e-11 -2.947274100515e-03 0.000000000000e+00 6.385760672841e+03 2.736754495823e+03  2.947274072425e-03
8.100000000000e+01 -8.890167438538e+03 9.237251305724e-01 0.000000000000e+00 -1.510512872816e-03 -5.481234675283e+03 1.143970207529e-05 -8.221851911326e+03 -5.481234634644e+03 -4.376547490394e-11 2.463935831601e-11 -2.951433990273e-03 0.000000000000e+00 6.394773740417e+03 2.740617256363e+03  2.951433968391e-03
8.200000000000e+01 -8.905555528012e+03 9.233966409312e-01 0.000000000000e+00 -1.513397513296e-03 -5.488801614725e+03 -1.292133544672e-06 -8.233202456714e+03 -5.488801628576e+03 1.491597870768e-11 -2.783056865447e-12 -2.955508584149e-03 0.000000000000e+00 6.403601900005e+03 2.744400835064e+03  2.955508591607e-03
8.300000000000e+01 -8.920642595840e+03 9.230745772441e-01 0.000000000000e+00 -1.516222835818e-03 -5.496214231863e+03 1.258060593737e-05 -8.244321245723e+03 -5.496214191034e+03 -4.396953564674e-11 2.709668971127e-11 -2.959499905049e-03 0.000000000000e+00 6.412249889540e+03 2.748107034274e+03  2.959499883064e-03
8.400000000000e+01 -8.935435875052e+03 9.227587851016e-01 0.000000000000e+00 -1.518991624778e-03 -5.503476180182e+03 5.924709039313e-06 -8.255214214635e+03 -5.503476157927e+03 -2.396664227128e-11 1.276091177698e-11 -2.963410214917e-03 0.000000000000e+00 6.420722184248e+03 2.751738045581e+03  2.963410202934e-03
8.500000000000e+01 -8.949942615451e+03 9.224491097156e-01 0.000000000000e+00 -1.521705314573e-03 -5.510591777872e+03 4.423293720576e-05 -8.265887286865e+03 -5.510591625895e+03 -1.636673318288e-10 9.527094167394e-11 -2.967241481045e-03 0.000000000000e+00 6.429023563544e+03 2.755295584982e+03  2.967241399212e-03
8.600000000000e+01 -8.964169869607e+03 9.221454005310e-01 0.000000000000e+00 -1.524364013016e-03 -5.517564372380e+03 1.448156655443e-05 -8.276346444874e+03 -5.517564326902e+03 -4.897686731370e-11 3.119106642492e-11 -2.970996127047e-03 0.000000000000e+00 6.437158381385e+03 2.758782095233e+03  2.970996102559e-03
8.700000000000e+01 -8.978124404233e+03 9.218475131044e-01 0.000000000000e+00 -1.526968866479e-03 -5.524398662537e+03 6.517269185721e-07 -8.286597988478e+03 -5.524398660406e+03 -2.295177696450e-12 1.403719516925e-12 -2.974676199462e-03 0.000000000000e+00 6.445131770474e+03 2.762199327006e+03  2.974676198314e-03
8.800000000000e+01 -8.991812791250e+03 9.215553071428e-01 0.000000000000e+00 -1.529522915193e-03 -5.531097665221e+03 5.062868100412e-05 -8.296646033053e+03 -5.531097479310e+03 -2.002117691271e-10 1.090463898550e-10 -2.978283057878e-03 0.000000000000e+00 6.452947059195e+03 2.765548460788e+03  2.978282957772e-03
8.900000000000e+01 -9.005241356157e+03 9.212686476195e-01 0.000000000000e+00 -1.532027326017e-03 -5.537663910173e+03 2.528945191268e-06 -8.306495856226e+03 -5.537663906560e+03 -3.891465622681e-12 5.446958873501e-12 -2.981819022718e-03 0.000000000000e+00 6.460607890986e+03 2.768831947860e+03  2.981819020772e-03
9.000000000000e+01 -9.018416198691e+03 9.209874043260e-01 0.000000000000e+00 -1.534483271063e-03 -5.544101394650e+03 -2.915698963605e-06 -8.316152127498e+03 -5.544101408859e+03 1.530273100515e-11 -6.279966998533e-12 -2.985285389304e-03 0.000000000000e+00 6.468118310336e+03 2.772050725744e+03  2.985285396955e-03
9.100000000000e+01 -9.031343166624e+03 9.207151493394e-01 0.000000000000e+00 -1.536890321534e-03 -5.550422954607e+03 8.353031987271e-06 -8.325634309318e+03 -5.550422905570e+03 -5.280873617025e-11 1.799114581874e-11 -2.988689204037e-03 0.000000000000e+00 6.475493389832e+03 2.775211379230e+03  2.988689177632e-03
9.200000000000e+01 -9.044027998213e+03 9.204487295648e-01 0.000000000000e+00 -1.539250914253e-03 -5.556623570660e+03 7.589056776369e-06 -8.334935300007e+03 -5.556623548267e+03 -2.411571066563e-11 1.634566074910e-11 -2.992028040336e-03 0.000000000000e+00 6.482727472978e+03 2.778311740544e+03  2.992028028278e-03
9.300000000000e+01 -9.056476244917e+03 9.201872787874e-01 0.000000000000e+00 -1.541566440346e-03 -5.562704069326e+03 -3.043433573702e-06 -8.344056108428e+03 -5.562704071101e+03 1.912199564544e-12 -6.555087697204e-12 -2.995302194044e-03 0.000000000000e+00 6.489821416285e+03 2.781352038214e+03  2.995302195000e-03
9.400000000000e+01 -9.068693281827e+03 9.199306841140e-01 0.000000000000e+00 -1.543837998314e-03 -5.568667528279e+03 -7.808378892758e-06 -8.353001387294e+03 -5.568667566229e+03 4.086939747222e-11 -1.681804684594e-11 -2.998513345762e-03 0.000000000000e+00 6.496778827267e+03 2.784333840040e+03  2.998513366197e-03