 TITLE = "Time curves in points"
 VARIABLES = "TIME"  "PRESSURE1"  "SATURATION1"  "DISPLACEMENT_X1"  "DISPLACEMENT_Y1"  "STRESS_XX"  "STRESS_XY"  "STRESS_YY"  "STRESS_ZZ"  "STRAIN_XX"  "STRAIN_XY"  "STRAIN_YY"  "STRAIN_PLS"  p_(1st_Invariant)  q_(2nd_Invariant)   Effective_Strain
 ZONE T="POINT=POINT0"
0.000000000000e+00 0.000000000000e+00 1.000000000000e+00 0.000000000000e+00 0.000000000000e+00 0.000000000000e+00 0.000000000000e+00 0.000000000000e+00 0.000000000000e+00 0.000000000000e+00 0.000000000000e+00 0.000000000000e+00 0.000000000000e+00 -0.000000000000e+00 0.000000000000e+00  0.000000000000e+00
1.000000000000e+00 -2.102594212636e+03 9.975831605939e-01 0.000000000000e+00 -1.962661816400e-04 -1.398346811925e+03 -8.474185202158e-04 -2.097528283258e+03 -1.398350038073e+03 3.474313738637e-09 -1.825209120465e-09 -7.529611871223e-04 0.000000000000e+00 1.631408377752e+03 6.991798582664e+02  7.529629242918e-04
2.000000000000e+00 -2.999353595962e+03 9.945498895068e-01 0.000000000000e+00 -3.455173692140e-04 -1.988669002378e+03 -7.643651515001e-04 -2.983007526719e+03 -1.988670611639e+03 1.733049981498e-09 -1.646324941692e-09 -1.070824370086e-03 0.000000000000e+00 2.320115713579e+03 9.943377197125e+02  1.070825236616e-03
3.000000000000e+00 -3.604603137824e+03 9.914568603293e-01 0.000000000000e+00 -4.664014702326e-04 -2.382540354761e+03 1.418656971772e-04 -3.573809439712e+03 -2.382539917789e+03 -4.705849334647e-10 3.055568862279e-10 -1.282905638994e-03 0.000000000000e+00 2.779629904087e+03 1.191269303437e+03  1.282905403702e-03
4.000000000000e+00 -4.041701610015e+03 9.887330194036e-01 0.000000000000e+00 -5.553014119846e-04 -2.664109745177e+03 -1.394432200452e-04 -3.996166571360e+03 -2.664110526615e+03 8.415482815899e-10 -3.003392431743e-10 -1.434521894341e-03 0.000000000000e+00 3.108128947717e+03 1.332056435464e+03  1.434522315115e-03
5.000000000000e+00 -4.388410622511e+03 9.862519346014e-01 0.000000000000e+00 -6.266206342237e-04 -2.885384889210e+03 -3.540191928078e-04 -4.328081109175e+03 -2.885386399354e+03 1.626309224650e-09 -7.625028768168e-10 -1.553671225961e-03 0.000000000000e+00 3.366284132580e+03 1.442695464894e+03  1.553672039117e-03
6.000000000000e+00 -4.677125350176e+03 9.839610183803e-01 0.000000000000e+00 -6.850236482401e-04 -3.068073025374e+03 2.062847824349e-05 -4.602109423211e+03 -3.068072979434e+03 -4.947365491395e-11 4.443056852443e-11 -1.652039247145e-03 0.000000000000e+00 3.579418476007e+03 1.534036420807e+03  1.652039222408e-03
7.000000000000e+00 -4.924452240886e+03 9.818384431864e-01 0.000000000000e+00 -7.339649654126e-04 -3.223344316334e+03 2.418434198447e-05 -4.835015268049e+03 -3.223343833753e+03 -5.197023938019e-10 5.208935196654e-11 -1.735646160011e-03 0.000000000000e+00 3.760567806046e+03 1.611671193006e+03  1.735645900160e-03
8.000000000000e+00 -5.140410523082e+03 9.798416189461e-01 0.000000000000e+00 -7.783698447089e-04 -3.357861263904e+03 3.671894996083e-04 -5.036788993672e+03 -3.357860103030e+03 -1.250171382242e-09 7.908696914640e-10 -1.808077266845e-03 0.000000000000e+00 3.917503453536e+03 1.678928310206e+03  1.808076641760e-03
9.000000000000e+00 -5.328462460637e+03 9.778265946546e-01 0.000000000000e+00 -8.162521974737e-04 -3.473542045137e+03 6.922855053820e-05 -5.210312494805e+03 -3.473541815977e+03 -2.467874888679e-10 1.491076473130e-10 -1.870368423354e-03 0.000000000000e+00 4.052465451973e+03 1.736770564249e+03  1.870368299960e-03
1.000000000000e+01 -5.501186184649e+03 9.759306639983e-01 0.000000000000e+00 -8.513196448126e-04 -3.579183975256e+03 -1.337511464525e-04 -5.368777341871e+03 -3.579184526851e+03 5.940255262739e-10 -2.880793923592e-10 -1.927253800791e-03 0.000000000000e+00 4.175715281326e+03 1.789593090818e+03  1.927254097804e-03
1.100000000000e+01 -5.658996498446e+03 9.742278002399e-01 0.000000000000e+00 -8.820749030603e-04 -3.675435456385e+03 1.130396487529e-04 -5.513152402579e+03 -3.675435143585e+03 -3.368606697664e-10 2.434700126986e-10 -1.979080125070e-03 0.000000000000e+00 4.288007667516e+03 1.837717102594e+03  1.979079956640e-03
1.200000000000e+01 -5.803295410818e+03 9.726776974643e-01 0.000000000000e+00 -9.108587107066e-04 -3.763156703604e+03 -1.296811086019e-04 -5.644735761850e+03 -3.763156986181e+03 3.043145039203e-10 -2.793131569887e-10 -2.026315604566e-03 0.000000000000e+00 4.390349817212e+03 1.881578916957e+03  2.026315756723e-03
1.300000000000e+01 -5.938090257574e+03 9.712296902502e-01 0.000000000000e+00 -9.376982877464e-04 -3.844833212581e+03 -3.629908548932e-05 -5.767250278643e+03 -3.844833396490e+03 1.980553373002e-10 -7.818264566931e-11 -2.070295103857e-03 0.000000000000e+00 4.485638962571e+03 1.922416974108e+03  2.070295202885e-03
1.400000000000e+01 -6.063879632567e+03 9.698784225510e-01 0.000000000000e+00 -9.619984042383e-04 -3.920818069263e+03 1.508906593293e-04 -5.881225461319e+03 -3.920817412233e+03 -7.075710058664e-10 3.249952662478e-10 -2.111208668247e-03 0.000000000000e+00 4.574286980938e+03 1.960407720571e+03  2.111208314461e-03
1.500000000000e+01 -6.181379260781e+03 9.684085510137e-01 0.000000000000e+00 -9.850600498959e-04 -3.990733542209e+03 -5.036518360884e-05 -5.986100638364e+03 -3.990733672229e+03 1.400219739538e-10 -1.084788570037e-10 -2.148856732761e-03 0.000000000000e+00 4.655855950934e+03 1.995367031145e+03  2.148856802772e-03
1.600000000000e+01 -6.291829678325e+03 9.669197245292e-01 0.000000000000e+00 -1.006954716686e-03 -4.055795475472e+03 -1.928703708961e-04 -6.083695001383e+03 -4.055796190742e+03 7.702906778757e-10 -4.154131065454e-10 -2.183891026844e-03 0.000000000000e+00 4.731762222532e+03 2.027899168276e+03  2.183891411990e-03
1.700000000000e+01 -6.395909937575e+03 9.655167213879e-01 0.000000000000e+00 -1.027567658600e-03 -4.116906701853e+03 2.339832045848e-04 -6.175358025768e+03 -4.116905891048e+03 -8.731742517459e-10 5.039638252595e-10 -2.216794606621e-03 0.000000000000e+00 4.803056872890e+03 2.058451729317e+03  2.216794170034e-03
1.800000000000e+01 -6.494268142428e+03 9.641986568911e-01 0.000000000000e+00 -1.047124448710e-03 -4.174510026921e+03 9.118392723078e-06 -6.261765139194e+03 -4.174510066446e+03 4.256525825847e-11 1.963961509586e-11 -2.247813155267e-03 0.000000000000e+00 4.870261744187e+03 2.087255092510e+03  2.247813176550e-03
1.900000000000e+01 -6.587392041409e+03 9.629755729497e-01 0.000000000000e+00 -1.065680773135e-03 -4.228998536332e+03 -2.161377945068e-05 -6.343498100028e+03 -4.228998654544e+03 1.273055121625e-10 -4.655275573994e-11 -2.277153248983e-03 0.000000000000e+00 4.933831763635e+03 2.114499504590e+03  2.277153312636e-03
2.000000000000e+01 -6.675772953908e+03 9.618147831204e-01 0.000000000000e+00 -1.082810778227e-03 -4.280573688473e+03 4.123211591949e-04 -6.420857069935e+03 -4.280572303363e+03 -1.491656409340e-09 8.880763428813e-10 -2.304922056308e-03 0.000000000000e+00 4.994001020590e+03 2.140284074018e+03  2.304921310481e-03
2.100000000000e+01 -6.759941005158e+03 9.607093247688e-01 0.000000000000e+00 -1.099333069381e-03 -4.329558931103e+03 -2.328124979979e-05 -6.494338634672e+03 -4.329559026310e+03 1.025307979290e-10 -5.014423033800e-11 -2.331301116698e-03 0.000000000000e+00 5.051152197361e+03 2.164779655966e+03  2.331301167963e-03
2.200000000000e+01 -6.840157925681e+03 9.596557603413e-01 0.000000000000e+00 -1.115193251134e-03 -4.376131200223e+03 -4.419626055615e-05 -6.564197214582e+03 -4.376131365922e+03 1.784448417696e-10 -9.519194581324e-11 -2.356378606249e-03 0.000000000000e+00 5.105486593575e+03 2.188065931509e+03  2.356378695471e-03
2.300000000000e+01 -6.916704891593e+03 9.585313021695e-01 0.000000000000e+00 -1.130278499402e-03 -4.419918727401e+03 -1.615942072209e-05 -6.629878238463e+03 -4.419918786346e+03 6.347832218554e-11 -3.480490617066e-11 -2.379956333049e-03 0.000000000000e+00 5.156571917403e+03 2.209959481589e+03  2.379956364788e-03
2.400000000000e+01 -6.989835820229e+03 9.573940361369e-01 0.000000000000e+00 -1.144729997243e-03 -4.461352029888e+03 1.036272476343e-04 -6.692027143592e+03 -4.461351669392e+03 -3.882262045664e-10 2.231971487508e-10 -2.402265895292e-03 0.000000000000e+00 5.204910280957e+03 2.230675293952e+03  2.402265701179e-03
2.500000000000e+01 -7.059800136258e+03 9.563060150028e-01 0.000000000000e+00 -1.158580016313e-03 -4.500886166101e+03 -1.603950837842e-05 -6.751329300675e+03 -4.500886186710e+03 2.219500754376e-11 -3.454663343045e-11 -2.423554122731e-03 0.000000000000e+00 5.251033884495e+03 2.250443124270e+03  2.423554133829e-03
2.600000000000e+01 -7.126990485557e+03 9.552611348177e-01 0.000000000000e+00 -1.171895117221e-03 -4.538758410163e+03 4.309747706955e-05 -6.808137305898e+03 -4.538758286425e+03 -1.332570985407e-10 9.282533522673e-11 -2.443946636356e-03 0.000000000000e+00 5.295218000829e+03 2.269378957604e+03  2.443946569728e-03
2.700000000000e+01 -7.191599809959e+03 9.542563902998e-01 0.000000000000e+00 -1.184711095023e-03 -4.575086981812e+03 1.876810095233e-05 -6.862630376371e+03 -4.575086943273e+03 -4.150293794852e-11 4.042360205117e-11 -2.463508312567e-03 0.000000000000e+00 5.337601433819e+03 2.287543413829e+03  2.463508291816e-03
2.800000000000e+01 -7.253760208403e+03 9.532949118910e-01 0.000000000000e+00 -1.197038638347e-03 -4.609981584386e+03 -7.388181684478e-05 -6.914973087829e+03 -4.609981868886e+03 3.063846643707e-10 -1.591300670503e-10 -2.482298235785e-03 0.000000000000e+00 5.378312180367e+03 2.304991361193e+03  2.482298388977e-03
2.900000000000e+01 -7.313603805277e+03 9.523825757118e-01 0.000000000000e+00 -1.208899667190e-03 -4.643565951451e+03 6.189292715847e-06 -6.965348879412e+03 -4.643565932345e+03 -2.057524900400e-11 1.333078431106e-11 -2.500381635303e-03 0.000000000000e+00 5.417493587736e+03 2.321782937514e+03  2.500381625015e-03
3.000000000000e+01 -7.371252113177e+03 9.515037074666e-01 0.000000000000e+00 -1.220057221723e-03 -4.675848998269e+03 -5.716542397498e-05 -7.013774052346e+03 -4.675849220246e+03 2.390521114459e-10 -1.231255285615e-10 -2.517765203800e-03 0.000000000000e+00 5.455157423621e+03 2.337924943089e+03  2.517765323326e-03
3.100000000000e+01 -7.426814990064e+03 9.506566323332e-01 0.000000000000e+00 -1.230894379146e-03 -4.706900506147e+03 -2.330008419379e-05 -7.060350879171e+03 -4.706900554127e+03 5.167103852961e-11 -5.018479672509e-11 -2.534484965432e-03 0.000000000000e+00 5.491383979815e+03 2.353450349034e+03  2.534484991267e-03
3.200000000000e+01 -7.480394406615e+03 9.498397957335e-01 0.000000000000e+00 -1.241325881291e-03 -4.736784313023e+03 3.976815629384e-06 -7.105176500922e+03 -4.736784325578e+03 1.352097192935e-11 8.565449047904e-12 -2.550576188832e-03 0.000000000000e+00 5.526248379841e+03 2.368392181622e+03  2.550576195593e-03
3.300000000000e+01 -7.532106170743e+03 9.490331109232e-01 0.000000000000e+00 -1.251428587731e-03 -4.765478973838e+03 4.133548235997e-05 -7.148217997167e+03 -4.765478788402e+03 -1.997002733395e-10 8.903026969841e-11 -2.566026840208e-03 0.000000000000e+00 5.559725253136e+03 2.382739116047e+03  2.566026740358e-03
3.400000000000e+01 -7.582089626926e+03 9.481611904125e-01 0.000000000000e+00 -1.261219558428e-03 -4.792695607600e+03 1.467817735654e-05 -7.189043334003e+03 -4.792695576641e+03 -3.334039601489e-11 3.161453584485e-11 -2.580682200236e-03 0.000000000000e+00 5.591478172748e+03 2.396347741882e+03  2.580682183565e-03
3.500000000000e+01 -7.630448449663e+03 9.473176091145e-01 0.000000000000e+00 -1.270711394241e-03 -4.818972238360e+03 1.125310988701e-05 -7.228458266358e+03 -4.818972201887e+03 -3.927865475489e-11 2.423746744895e-11 -2.594831146353e-03 0.000000000000e+00 5.622134235535e+03 2.409486046234e+03  2.594831126714e-03
3.600000000000e+01 -7.677262638271e+03 9.465009725765e-01 0.000000000000e+00 -1.279905750256e-03 -4.844357723091e+03 -2.749646393179e-07 -7.266536591119e+03 -4.844357725684e+03 2.792307477660e-12 -5.922315308382e-13 -2.608500316622e-03 0.000000000000e+00 5.651750679965e+03 2.422178866731e+03  2.608500318018e-03
3.700000000000e+01 -7.722619412974e+03 9.457097604833e-01 0.000000000000e+00 -1.288806494190e-03 -4.868903955812e+03 -9.563805224120e-05 -7.303356795301e+03 -4.868904300445e+03 3.711432800310e-10 -2.059896509811e-10 -2.621718071383e-03 0.000000000000e+00 5.680388350519e+03 2.434452667172e+03  2.621718256955e-03
3.800000000000e+01 -7.766617601835e+03 9.449422502795e-01 0.000000000000e+00 -1.297430467819e-03 -4.892670394365e+03 8.109648436172e-05 -7.339004639181e+03 -4.892670013418e+03 -4.102505762543e-10 1.746693509329e-10 -2.634514212359e-03 0.000000000000e+00 5.708115015655e+03 2.446334435289e+03  2.634514007234e-03
3.900000000000e+01 -7.809303106904e+03 9.441976394746e-01 0.000000000000e+00 -1.305790864171e-03 -4.915684581189e+03 1.605010309167e-04 -7.373525500933e+03 -4.915684032849e+03 -5.905200287844e-10 3.456945281283e-10 -2.646906196398e-03 0.000000000000e+00 5.734964704990e+03 2.457841193914e+03  2.646905901139e-03
4.000000000000e+01 -7.850726630496e+03 9.434750431230e-01 0.000000000000e+00 -1.313890436406e-03 -4.937976320727e+03 -2.834918975306e-05 -7.406964665555e+03 -4.937976394513e+03 7.946194982481e-11 -6.105979331429e-11 -2.658910445738e-03 0.000000000000e+00 5.760972460265e+03 2.468988307936e+03  2.658910485469e-03
4.100000000000e+01 -7.890939571028e+03 9.427735643896e-01 0.000000000000e+00 -1.321749438367e-03 -4.959579496524e+03 -3.861340156690e-06 -7.439369235972e+03 -4.959579492998e+03 -3.796701435048e-12 -8.316732645178e-12 -2.670542800125e-03 0.000000000000e+00 5.786176075164e+03 2.479789741211e+03  2.670542798227e-03
4.200000000000e+01 -7.929991357369e+03 9.421018193006e-01 0.000000000000e+00 -1.329371866767e-03 -4.980572869455e+03 -1.159300496716e-06 -7.470859319069e+03 -4.980572875410e+03 6.412759609390e-12 -2.496954916003e-12 -2.681846939326e-03 0.000000000000e+00 5.810668354645e+03 2.490286446637e+03  2.681846942532e-03
4.300000000000e+01 -7.967929438893e+03 9.414505731926e-01 0.000000000000e+00 -1.336767596727e-03 -5.000941256854e+03 5.111694190329e-06 -7.501411886710e+03 -5.000941257426e+03 6.157613747885e-13 1.100980287148e-11 -2.692814523845e-03 0.000000000000e+00 5.834431466996e+03 2.500470629570e+03  2.692814524153e-03
4.400000000000e+01 -8.004807955087e+03 9.408175156110e-01 0.000000000000e+00 -1.343958020384e-03 -5.020709093114e+03 -3.873572677211e-06 -7.531063709310e+03 -5.020709120970e+03 2.999849673268e-11 -8.343079612455e-12 -2.703458787444e-03 0.000000000000e+00 5.857493974465e+03 2.510354602268e+03  2.703458802443e-03
4.500000000000e+01 -8.040679004071e+03 9.402017522381e-01 0.000000000000e+00 -1.350949582319e-03 -5.039906909961e+03 -1.637682439868e-05 -7.559860439730e+03 -5.039906939876e+03 3.221660186097e-11 -3.527316024330e-11 -2.713796076765e-03 0.000000000000e+00 5.879891429856e+03 2.519953514811e+03  2.713796092874e-03
4.600000000000e+01 -8.075588880257e+03 9.396024883828e-01 0.000000000000e+00 -1.357753496819e-03 -5.058562424732e+03 1.491236404070e-05 -7.587843538285e+03 -5.058562385207e+03 -4.256563853001e-11 3.211893793381e-11 -2.723841241777e-03 0.000000000000e+00 5.901656116075e+03 2.529281133316e+03  2.723841220494e-03
4.700000000000e+01 -8.109577920468e+03 9.390141703795e-01 0.000000000000e+00 -1.364375712664e-03 -5.076672872388e+03 8.657067132203e-05 -7.615008528877e+03 -5.076672560506e+03 -3.358728054707e-10 1.864599074628e-10 -2.733592581323e-03 0.000000000000e+00 5.922784653924e+03 2.538335812430e+03  2.733592413386e-03
4.800000000000e+01 -8.142681258458e+03 9.383905295355e-01 0.000000000000e+00 -1.370819193147e-03 -5.094009999755e+03 -5.698078124613e-07 -7.641015008073e+03 -5.094010003131e+03 3.636055963498e-12 -1.227278365301e-12 -2.742928466860e-03 0.000000000000e+00 5.943011670319e+03 2.547005006630e+03  2.742928468678e-03
4.900000000000e+01 -8.174930340898e+03 9.377829822414e-01 0.000000000000e+00 -1.377054019401e-03 -5.110873847699e+03 1.419788144387e-05 -7.666310678067e+03 -5.110873810306e+03 -4.026880326754e-11 3.058005234065e-11 -2.752008934512e-03 0.000000000000e+00 5.962686112024e+03 2.555436849064e+03  2.752008914377e-03
5.000000000000e+01 -8.206362464117e+03 9.371908254677e-01 0.000000000000e+00 -1.383128333843e-03 -5.127285250077e+03 2.056685978612e-05 -7.690927723454e+03 -5.127285189413e+03 -6.533101966846e-11 4.429785184702e-11 -2.760845805891e-03 0.000000000000e+00 5.981832720981e+03 2.563642503710e+03  2.760845773226e-03
5.100000000000e+01 -8.237008181829e+03 9.366134838749e-01 0.000000000000e+00 -1.389048681945e-03 -5.143261909073e+03 -1.105641797070e-05 -7.714892933838e+03 -5.143261937165e+03 3.025219971942e-11 -2.381382332150e-11 -2.769448765649e-03 0.000000000000e+00 6.000472260025e+03 2.571631010719e+03  2.769448780775e-03
5.200000000000e+01 -8.266892455761e+03 9.360504874292e-01 0.000000000000e+00 -1.394818907061e-03 -5.158819057319e+03 -1.965203981905e-05 -7.738228734214e+03 -5.158819116613e+03 6.385506410970e-11 -4.232747037950e-11 -2.777825742031e-03 0.000000000000e+00 6.018622302716e+03 2.579409647248e+03  2.777825773959e-03
5.300000000000e+01 -8.296039188826e+03 9.355013858274e-01 0.000000000000e+00 -1.400437714392e-03 -5.173970888175e+03 2.356611620426e-05 -7.760956065865e+03 -5.173970781616e+03 -1.147561610781e-10 5.075778874763e-11 -2.785984152268e-03 0.000000000000e+00 6.036299245219e+03 2.586985230969e+03  2.785984094890e-03
5.400000000000e+01 -8.324472822782e+03 9.349657186559e-01 0.000000000000e+00 -1.405816925583e-03 -5.188731157830e+03 7.828963613819e-08 -7.783096738179e+03 -5.188731158404e+03 6.176924535448e-13 1.686238316826e-13 -2.793932162835e-03 0.000000000000e+00 6.053519684805e+03 2.594365580062e+03  2.793932163144e-03
5.500000000000e+01 -8.352214003775e+03 9.344430969420e-01 0.000000000000e+00 -1.411099405558e-03 -5.203113008393e+03 9.101685507843e-05 -7.804668746120e+03 -5.203112701805e+03 -3.301713758595e-10 1.960363032458e-10 -2.801675740031e-03 0.000000000000e+00 6.070298152106e+03 2.601555891021e+03  2.801675574946e-03
5.600000000000e+01 -8.379282833348e+03 9.339331419656e-01 0.000000000000e+00 -1.416266908537e-03 -5.217126701634e+03 2.114843950259e-06 -7.825690059615e+03 -5.217126704500e+03 3.086060881419e-12 4.555048508252e-12 -2.809222074740e-03 0.000000000000e+00 6.086647821916e+03 2.608563356548e+03  2.809222076283e-03
5.700000000000e+01 -8.405699342639e+03 9.334354763095e-01 0.000000000000e+00 -1.421313623976e-03 -5.230785899953e+03 1.051028091835e-04 -7.846177948835e+03 -5.230785539515e+03 -3.881639079814e-10 2.263752813184e-10 -2.816576440806e-03 0.000000000000e+00 6.102583129434e+03 2.615392229101e+03  2.816576246724e-03
5.800000000000e+01 -8.431483780741e+03 9.329497184346e-01 0.000000000000e+00 -1.426242873167e-03 -5.244100202029e+03 -2.505431170930e-05 -7.866150546791e+03 -5.244100299528e+03 1.049986892517e-10 -5.396313291233e-11 -2.823746420129e-03 0.000000000000e+00 6.118117016116e+03 2.622050296012e+03  2.823746472628e-03
5.900000000000e+01 -8.456656902510e+03 9.324754772569e-01 0.000000000000e+00 -1.431058095231e-03 -5.257083322162e+03 -3.518853418592e-05 -7.885625313549e+03 -5.257083454284e+03 1.422857110558e-10 -7.579068901584e-11 -2.830737386900e-03 0.000000000000e+00 6.133264029998e+03 2.628541925326e+03  2.830737458043e-03
6.000000000000e+01 -8.481239908541e+03 9.320123555006e-01 0.000000000000e+00 -1.435761381525e-03 -5.269746940394e+03 -6.769584219983e-06 -7.904620493039e+03 -5.269746973373e+03 3.551635004306e-11 -1.458064293535e-11 -2.837556098102e-03 0.000000000000e+00 6.148038135602e+03 2.634873536156e+03  2.837556115860e-03
6.100000000000e+01 -8.505253059902e+03 9.315650491134e-01 0.000000000000e+00 -1.440352925719e-03 -5.282130994620e+03 -1.018822646128e-05 -7.923196603386e+03 -5.282131039202e+03 4.801162093303e-11 -2.194387237813e-11 -2.844224453736e-03 0.000000000000e+00 6.162486212403e+03 2.641065586475e+03  2.844224477742e-03
6.200000000000e+01 -8.528716332180e+03 9.311279856311e-01 0.000000000000e+00 -1.444842021337e-03 -5.294218010291e+03 6.572580073057e-05 -7.941326446169e+03 -5.294217782584e+03 -2.452231210475e-10 1.415632631120e-10 -2.850732406938e-03 0.000000000000e+00 6.176587413015e+03 2.647108549731e+03  2.850732284326e-03
6.300000000000e+01 -8.551648891759e+03 9.307008080307e-01 0.000000000000e+00 -1.449231956516e-03 -5.306018285716e+03 1.101054650404e-04 -7.959026460606e+03 -5.306017898529e+03 -4.169710408658e-10 2.371502323947e-10 -2.857086143775e-03 0.000000000000e+00 6.190354214950e+03 2.653008368483e+03  2.857085935290e-03
6.400000000000e+01 -8.574068891526e+03 9.302831781684e-01 0.000000000000e+00 -1.453525192535e-03 -5.317541516214e+03 3.672020713357e-05 -7.976311840609e+03 -5.317541342729e+03 -1.868293921556e-10 7.908967690308e-11 -2.863291305409e-03 0.000000000000e+00 6.203798233184e+03 2.658770411138e+03  2.863291211995e-03
6.500000000000e+01 -8.595993115828e+03 9.298747833926e-01 0.000000000000e+00 -1.457723371427e-03 -5.328798158423e+03 -9.913513387479e-06 -7.993197344929e+03 -5.328798201341e+03 4.621927662485e-11 -2.135218268072e-11 -2.869352923864e-03 0.000000000000e+00 6.216931234897e+03 2.664399165047e+03  2.869352946974e-03
6.600000000000e+01 -8.617437085420e+03 9.294753345897e-01 0.000000000000e+00 -1.461827759368e-03 -5.339796831414e+03 1.942839812216e-06 -8.009695231851e+03 -5.339796825306e+03 -6.577795247089e-12 4.184578057081e-12 -2.875275207049e-03 0.000000000000e+00 6.229762962857e+03 2.669898403491e+03  2.875275203760e-03
6.700000000000e+01 -8.638415481312e+03 9.290845582882e-01 0.000000000000e+00 -1.465841878340e-03 -5.350545615538e+03 -7.006244153029e-06 -8.025818492074e+03 -5.350545643045e+03 2.962288960953e-11 -1.509037202191e-11 -2.881063068186e-03 0.000000000000e+00 6.242303250219e+03 2.675272862783e+03  2.881063082997e-03
6.800000000000e+01 -8.658942175006e+03 9.286611053454e-01 0.000000000000e+00 -1.469763224728e-03 -5.360815544170e+03 5.706271791194e-05 -8.041222817933e+03 -5.360815344842e+03 -2.146618853080e-10 1.229043155026e-10 -2.886592663330e-03 0.000000000000e+00 6.254284568982e+03 2.680407373427e+03  2.886592555999e-03
6.900000000000e+01 -8.679032502141e+03 9.282322361316e-01 0.000000000000e+00 -1.473598718113e-03 -5.370771846470e+03 1.468000966879e-06 -8.056157758126e+03 -5.370771841839e+03 -4.987626466264e-12 3.161848236356e-12 -2.891954063695e-03 0.000000000000e+00 6.265900482145e+03 2.685385913972e+03  2.891954061201e-03
7.000000000000e+01 -8.698699868707e+03 9.278123957891e-01 0.000000000000e+00 -1.477351785949e-03 -5.380507906419e+03 3.309930646329e-05 -8.070761572618e+03 -5.380507791615e+03 -1.236349306316e-10 7.129081392093e-11 -2.897196379542e-03 0.000000000000e+00 6.277259090217e+03 2.690253723602e+03  2.897196317725e-03
7.100000000000e+01 -8.717956283684e+03 9.274013280486e-01 0.000000000000e+00 -1.481023072601e-03 -5.390029604621e+03 1.479710966309e-05 -8.085044291183e+03 -5.390029558321e+03 -4.986057482436e-11 3.187069773589e-11 -2.902323558466e-03 0.000000000000e+00 6.288367818042e+03 2.695014709712e+03  2.902323533536e-03
7.200000000000e+01 -8.736812874171e+03 9.269987954217e-01 0.000000000000e+00 -1.484614394072e-03 -5.399343445563e+03 1.331533421929e-05 -8.099015066654e+03 -5.399343404887e+03 -4.380545130590e-11 2.867918139539e-11 -2.907338712672e-03 0.000000000000e+00 6.299233972368e+03 2.699671641429e+03  2.907338690769e-03
7.300000000000e+01 -8.755280149876e+03 9.266045735771e-01 0.000000000000e+00 -1.488127501393e-03 -5.408455145533e+03 8.656458378098e-06 -8.112682647205e+03 -5.408455117095e+03 -3.062553217835e-11 1.864467958360e-11 -2.912245032426e-03 0.000000000000e+00 6.309864303278e+03 2.704227515891e+03  2.912245017113e-03
7.400000000000e+01 -8.773368175938e+03 9.262184476593e-01 0.000000000000e+00 -1.491565204683e-03 -5.417370338479e+03 5.088552014580e-06 -8.126055480030e+03 -5.417370327404e+03 -1.192769743330e-11 1.095995818525e-11 -2.917045548982e-03 0.000000000000e+00 6.320265381971e+03 2.708685147088e+03  2.917045543018e-03
7.500000000000e+01 -8.791086924468e+03 9.258402047660e-01 0.000000000000e+00 -1.494929269015e-03 -5.426094829917e+03 6.113891833942e-05 -8.139141720313e+03 -5.426094620092e+03 -2.259652906395e-10 1.316838241157e-10 -2.921743031007e-03 0.000000000000e+00 6.330443723441e+03 2.713046995309e+03  2.921742918025e-03
7.600000000000e+01 -8.808445866670e+03 9.254696427287e-01 0.000000000000e+00 -1.498221548147e-03 -5.434632835050e+03 -1.133373610502e-06 -8.151949256364e+03 -5.434632836566e+03 1.632473307892e-12 -2.441112391851e-12 -2.926340759783e-03 0.000000000000e+00 6.340404975993e+03 2.717316420557e+03  2.926340760599e-03
7.700000000000e+01 -8.825454106797e+03 9.251065672012e-01 0.000000000000e+00 -1.501445269149e-03 -5.442990384132e+03 -8.644564826120e-06 -8.164485721532e+03 -5.442990442265e+03 6.260573142159e-11 -1.861906270241e-11 -2.930841069979e-03 0.000000000000e+00 6.350155515976e+03 2.721495308334e+03  2.930841101282e-03
7.800000000000e+01 -8.842121962818e+03 9.247507580117e-01 0.000000000000e+00 -1.504602355938e-03 -5.451172739999e+03 9.388907278581e-06 -8.176759040763e+03 -5.451172712305e+03 -2.982465122352e-11 2.022226183079e-11 -2.935246815263e-03 0.000000000000e+00 6.359701497689e+03 2.725586314611e+03  2.935246800350e-03
7.900000000000e+01 -8.858458321856e+03 9.244020254470e-01 0.000000000000e+00 -1.507691970437e-03 -5.459184602657e+03 5.170838463401e-06 -8.188776877729e+03 -5.459184592154e+03 -1.131007806013e-11 1.113719053656e-11 -2.939560922927e-03 0.000000000000e+00 6.369048690847e+03 2.729592280324e+03  2.939560917272e-03
8.000000000000e+01 -8.874470903605e+03 9.240602046510e-01 0.000000000000e+00 -1.510718072767e-03 -5.467030277673e+03 1.056811057506e-06 -8.200545408145e+03 -5.467030274327e+03 -3.603202217269e-12 2.276208431551e-12 -2.943785528727e-03 0.000000000000e+00 6.378201986715e+03 2.733515132145e+03  2.943785526925e-03
8.100000000000e+01 -8.890167438538e+03 9.237251305724e-01 0.000000000000e+00 -1.513682709350e-03 -5.474714052125e+03 -4.496625090636e-06 -8.212071123389e+03 -5.474714070205e+03 1.947166256097e-11 -9.685038656753e-12 -2.947922980351e-03 0.000000000000e+00 6.387166415240e+03 2.737357062224e+03  2.947922990087e-03
8.200000000000e+01 -8.905555528012e+03 9.233966409312e-01 0.000000000000e+00 -1.516586830462e-03 -5.482240114960e+03 1.239292768216e-05 -8.223360064051e+03 -5.482240071605e+03 -4.669071634368e-11 2.669245962312e-11 -2.951975376481e-03 0.000000000000e+00 6.395946750205e+03 2.741119970769e+03  2.951975353136e-03
8.300000000000e+01 -8.920642595840e+03 9.230745772441e-01 0.000000000000e+00 -1.519431220365e-03 -5.489612418514e+03 2.774298292331e-05 -8.234418387124e+03 -5.489612322255e+03 -1.036632250347e-10 5.975411706559e-11 -2.955944992936e-03 0.000000000000e+00 6.404547709297e+03 2.744806016739e+03  2.955944941104e-03
8.400000000000e+01 -8.935435875052e+03 9.227587851016e-01 0.000000000000e+00 -1.522218790537e-03 -5.496835021083e+03 7.309466621213e-05 -8.245251864288e+03 -5.496834754148e+03 -2.874678622095e-10 1.574346656877e-10 -2.959833810920e-03 0.000000000000e+00 6.412973879840e+03 2.748416976673e+03  2.959833667186e-03
8.500000000000e+01 -8.949942615451e+03 9.224491097156e-01 0.000000000000e+00 -1.524950824007e-03 -5.503911101250e+03 6.736917129516e-06 -8.255866570865e+03 -5.503911068846e+03 -3.489665540564e-11 1.451028304819e-11 -2.963644386790e-03 0.000000000000e+00 6.421229580320e+03 2.751955485817e+03  2.963644369341e-03
8.600000000000e+01 -8.964169869607e+03 9.221454005310e-01 0.000000000000e+00 -1.527627609688e-03 -5.510845326119e+03 -5.124004356466e-06 -8.266268022472e+03 -5.510845339436e+03 1.434192170641e-11 -1.103631707547e-11 -2.967378274038e-03 0.000000000000e+00 6.429319562676e+03 2.755422689694e+03  2.967378281209e-03
8.700000000000e+01 -8.978124404233e+03 9.218475131044e-01 0.000000000000e+00 -1.530250253078e-03 -5.517641117728e+03 -3.782750083525e-06 -8.276461720852e+03 -5.517641135432e+03 1.906545164329e-11 -8.147461718360e-12 -2.971037553529e-03 0.000000000000e+00 6.437247991337e+03 2.758820594271e+03  2.971037563062e-03
8.800000000000e+01 -8.991812791250e+03 9.215553071428e-01 0.000000000000e+00 -1.532821698122e-03 -5.524301885931e+03 2.632670713819e-06 -8.286452789211e+03 -5.524301870057e+03 -1.709517889068e-11 5.670367691303e-12 -2.974624066782e-03 0.000000000000e+00 6.445018848400e+03 2.762150911217e+03  2.974624058234e-03
8.900000000000e+01 -9.005241356157e+03 9.212686476195e-01 0.000000000000e+00 -1.535343262170e-03 -5.530831009112e+03 -5.454800244662e-06 -8.296246565749e+03 -5.530831029944e+03 2.243478799497e-11 -1.174880052696e-11 -2.978139807789e-03 0.000000000000e+00 6.452636201602e+03 2.765415546221e+03  2.978139819007e-03
9.000000000000e+01 -9.018416198691e+03 9.209874043260e-01 0.000000000000e+00 -1.537816116324e-03 -5.537231809074e+03 -2.794367720418e-06 -8.305847738293e+03 -5.537231818947e+03 1.063201354300e-11 -6.018638167055e-12 -2.981586374680e-03 0.000000000000e+00 6.460103788771e+03 2.768615924282e+03  2.981586379996e-03
9.100000000000e+01 -9.031343166624e+03 9.207151493394e-01 0.000000000000e+00 -1.540239475532e-03 -5.543529865724e+03 3.947749118783e-05 -8.315294452732e+03 -5.543529727383e+03 -1.489834469457e-10 8.502844255840e-11 -2.984977396530e-03 0.000000000000e+00 6.467451348613e+03 2.771764656179e+03  2.984977322039e-03
9.200000000000e+01 -9.044027998213e+03 9.204487295648e-01 0.000000000000e+00 -1.542616043908e-03 -5.549709408183e+03 -3.759423826172e-08 -8.324564124313e+03 -5.549709412999e+03 5.185797723284e-12 -8.097220548642e-14 -2.988305073723e-03 0.000000000000e+00 6.474660981832e+03 2.774854713722e+03  2.988305076316e-03
9.300000000000e+01 -9.056476244917e+03 9.201872787874e-01 0.000000000000e+00 -1.544947322366e-03 -5.555769437039e+03 -1.007704801970e-05 -8.333654213193e+03 -5.555769460093e+03 2.482729067703e-11 -2.170441111935e-11 -2.991568195647e-03 0.000000000000e+00 6.481731036775e+03 2.777884764627e+03  2.991568208060e-03
9.400000000000e+01 -9.068693281827e+03 9.199306841140e-01 0.000000000000e+00 -1.547234387990e-03 -5.561713133509e+03 5.923474989429e-05 -8.342569174541e+03 -5.561712923220e+03 -2.264647470167e-10 1.275825382339e-10 -2.994768270654e-03 0.000000000000e+00 6.488665077090e+03 2.780856146177e+03  2.994768157421e-03