VARIABLES  = "X","Y","Z", "PRESSURE1", "SATURATION1", "DISPLACEMENT_X1", "DISPLACEMENT_Y1", "STRESS_XX", "STRESS_XY", "STRESS_YY", "STRESS_ZZ", "STRAIN_XX", "STRAIN_XY", "STRAIN_YY", "STRAIN_PLS"
ZONE T="0.000000000000e+00s", N=42, E=20, F=FEPOINT, ET=QUADRILATERAL
STRANDID=1, SOLUTIONTIME=0.000000000000e+00
0.000000000000e+00 0.000000000000e+00 0.000000000000e+00 0.000000000000e+00 1.000000000000e+00 0.000000000000e+00 0.000000000000e+00 0.000000000000e+00 0.000000000000e+00 0.000000000000e+00 0.000000000000e+00 0.000000000000e+00 0.000000000000e+00 0.000000000000e+00 0.000000000000e+00 
0.000000000000e+00 0.000000000000e+00 5.000000000000e-02 0.000000000000e+00 1.000000000000e+00 0.000000000000e+00 0.000000000000e+00 0.000000000000e+00 0.000000000000e+00 0.000000000000e+00 0.000000000000e+00 0.000000000000e+00 0.000000000000e+00 0.000000000000e+00 0.000000000000e+00 
0.000000000000e+00 0.000000000000e+00 1.000000000000e-01 0.000000000000e+00 1.000000000000e+00 0.000000000000e+00 0.000000000000e+00 0.000000000000e+00 0.000000000000e+00 0.000000000000e+00 0.000000000000e+00 0.000000000000e+00 0.000000000000e+00 0.000000000000e+00 0.000000000000e+00 
0.000000000000e+00 0.000000000000e+00 1.500000000000e-01 0.000000000000e+00 1.000000000000e+00 0.000000000000e+00 0.000000000000e+00 0.000000000000e+00 0.000000000000e+00 0.000000000000e+00 0.000000000000e+00 0.000000000000e+00 0.000000000000e+00 0.000000000000e+00 0.000000000000e+00 
0.000000000000e+00 0.000000000000e+00 2.000000000000e-01 0.000000000000e+00 1.000000000000e+00 0.000000000000e+00 0.000000000000e+00 0.000000000000e+00 0.000000000000e+00 0.000000000000e+00 0.000000000000e+00 0.000000000000e+00 0.000000000000e+00 0.000000000000e+00 0.000000000000e+00 
0.000000000000e+00 0.000000000000e+00 2.500000000000e-01 0.000000000000e+00 1.000000000000e+00 0.000000000000e+00 0.000000000000e+00 0.000000000000e+00 0.000000000000e+00 0.000000000000e+00 0.000000000000e+00 0.000000000000e+00 0.000000000000e+00 0.000000000000e+00 0.000000000000e+00 
0.000000000000e+00 0.000000000000e+00 3.000000000000e-01 0.000000000000e+00 1.000000000000e+00 0.000000000000e+00 0.000000000000e+00 0.000000000000e+00 0.000000000000e+00 0.000000000000e+00 0.000000000000e+00 0.000000000000e+00 0.000000000000e+00 0.000000000000e+00 0.000000000000e+00 
0.000000000000e+00 0.000000000000e+00 3.500000000000e-01 0.000000000000e+00 1.000000000000e+00 0.000000000000e+00 0.000000000000e+00 0.000000000000e+00 0.000000000000e+00 0.000000000000e+00 0.000000000000e+00 0.000000000000e+00 0.000000000000e+00 0.000000000000e+00 0.000000000000e+00 
0.000000000000e+00 0.000000000000e+00 4.000000000000e-01 0.000000000000e+00 1.000000000000e+00 0.000000000000e+00 0.000000000000e+00 0.000000000000e+00 0.000000000000e+00 0.000000000000e+00 0.000000000000e+00 0.000000000000e+00 0.000000000000e+00 0.000000000000e+00 0.000000000000e+00 
0.000000000000e+00 0.000000000000e+00 4.500000000000e-01 0.000000000000e+00 1.000000000000e+00 0.000000000000e+00 0.000000000000e+00 0.000000000000e+00 0.000000000000e+00 0.000000000000e+00 0.000000000000e+00 0.000000000000e+00 0.000000000000e+00 0.000000000000e+00 0.000000000000e+00 
0.000000000000e+00 0.000000000000e+00 5.000000000000e-01 0.000000000000e+00 1.000000000000e+00 0.000000000000e+00 0.000000000000e+00 0.000000000000e+00 0.000000000000e+00 0.000000000000e+00 0.000000000000e+00 0.000000000000e+00 0.000000000000e+00 0.000000000000e+00 0.000000000000e+00 
0.000000000000e+00 0.000000000000e+00 5.500000000000e-01 0.000000000000e+00 1.000000000000e+00 0.000000000000e+00 0.000000000000e+00 0.000000000000e+00 0.000000000000e+00 0.000000000000e+00 0.000000000000e+00 0.000000000000e+00 0.000000000000e+00 0.000000000000e+00 0.000000000000e+00 
0.000000000000e+00 0.000000000000e+00 6.000000000000e-01 0.000000000000e+00 1.000000000000e+00 0.000000000000e+00 0.000000000000e+00 0.000000000000e+00 0.000000000000e+00 0.000000000000e+00 0.000000000000e+00 0.000000000000e+00 0.000000000000e+00 0.000000000000e+00 0.000000000000e+00 
0.000000000000e+00 0.000000000000e+00 6.500000000000e-01 0.000000000000e+00 1.000000000000e+00 0.000000000000e+00 0.000000000000e+00 0.000000000000e+00 0.000000000000e+00 0.000000000000e+00 0.000000000000e+00 0.000000000000e+00 0.000000000000e+00 0.000000000000e+00 0.000000000000e+00 
0.000000000000e+00 0.000000000000e+00 7.000000000000e-01 0.000000000000e+00 1.000000000000e+00 0.000000000000e+00 0.000000000000e+00 0.000000000000e+00 0.000000000000e+00 0.000000000000e+00 0.000000000000e+00 0.000000000000e+00 0.000000000000e+00 0.000000000000e+00 0.000000000000e+00 
0.000000000000e+00 0.000000000000e+00 7.500000000000e-01 0.000000000000e+00 1.000000000000e+00 0.000000000000e+00 0.000000000000e+00 0.000000000000e+00 0.000000000000e+00 0.000000000000e+00 0.000000000000e+00 0.000000000000e+00 0.000000000000e+00 0.000000000000e+00 0.000000000000e+00 
0.000000000000e+00 0.000000000000e+00 8.000000000000e-01 0.000000000000e+00 1.000000000000e+00 0.000000000000e+00 0.000000000000e+00 0.000000000000e+00 0.000000000000e+00 0.000000000000e+00 0.000000000000e+00 0.000000000000e+00 0.000000000000e+00 0.000000000000e+00 0.000000000000e+00 
0.000000000000e+00 0.000000000000e+00 8.500000000000e-01 0.000000000000e+00 1.000000000000e+00 0.000000000000e+00 0.000000000000e+00 0.000000000000e+00 0.000000000000e+00 0.000000000000e+00 0.000000000000e+00 0.000000000000e+00 0.000000000000e+00 0.000000000000e+00 0.000000000000e+00 
0.000000000000e+00 0.000000000000e+00 9.000000000000e-01 0.000000000000e+00 1.000000000000e+00 0.000000000000e+00 0.000000000000e+00 0.000000000000e+00 0.000000000000e+00 0.000000000000e+00 0.000000000000e+00 0.000000000000e+00 0.000000000000e+00 0.000000000000e+00 0.000000000000e+00 
0.000000000000e+00 0.000000000000e+00 9.500000000000e-01 0.000000000000e+00 1.000000000000e+00 0.000000000000e+00 0.000000000000e+00 0.000000000000e+00 0.000000000000e+00 0.000000000000e+00 0.000000000000e+00 0.000000000000e+00 0.000000000000e+00 0.000000000000e+00 0.000000000000e+00 
0.000000000000e+00 0.000000000000e+00 1.000000000000e+00 0.000000000000e+00 1.000000000000e+00 0.000000000000e+00 0.000000000000e+00 0.000000000000e+00 0.000000000000e+00 0.000000000000e+00 0.000000000000e+00 0.000000000000e+00 0.000000000000e+00 0.000000000000e+00 0.000000000000e+00 
1.000000000000e-01 0.000000000000e+00 0.000000000000e+00 0.000000000000e+00 1.000000000000e+00 0.000000000000e+00 0.000000000000e+00 0.000000000000e+00 0.000000000000e+00 0.000000000000e+00 0.000000000000e+00 0.000000000000e+00 0.000000000000e+00 0.000000000000e+00 0.000000000000e+00 
1.000000000000e-01 0.000000000000e+00 5.000000000000e-02 0.000000000000e+00 1.000000000000e+00 0.000000000000e+00 0.000000000000e+00 0.000000000000e+00 0.000000000000e+00 0.000000000000e+00 0.000000000000e+00 0.000000000000e+00 0.000000000000e+00 0.000000000000e+00 0.000000000000e+00 
1.000000000000e-01 0.000000000000e+00 1.000000000000e-01 0.000000000000e+00 1.000000000000e+00 0.000000000000e+00 0.000000000000e+00 0.000000000000e+00 0.000000000000e+00 0.000000000000e+00 0.000000000000e+00 0.000000000000e+00 0.000000000000e+00 0.000000000000e+00 0.000000000000e+00 
1.000000000000e-01 0.000000000000e+00 1.500000000000e-01 0.000000000000e+00 1.000000000000e+00 0.000000000000e+00 0.000000000000e+00 0.000000000000e+00 0.000000000000e+00 0.000000000000e+00 0.000000000000e+00 0.000000000000e+00 0.000000000000e+00 0.000000000000e+00 0.000000000000e+00 
1.000000000000e-01 0.000000000000e+00 2.000000000000e-01 0.000000000000e+00 1.000000000000e+00 0.000000000000e+00 0.000000000000e+00 0.000000000000e+00 0.000000000000e+00 0.000000000000e+00 0.000000000000e+00 0.000000000000e+00 0.000000000000e+00 0.000000000000e+00 0.000000000000e+00 
1.000000000000e-01 0.000000000000e+00 2.500000000000e-01 0.000000000000e+00 1.000000000000e+00 0.000000000000e+00 0.000000000000e+00 0.000000000000e+00 0.000000000000e+00 0.000000000000e+00 0.000000000000e+00 0.000000000000e+00 0.000000000000e+00 0.000000000000e+00 0.000000000000e+00 
1.000000000000e-01 0.000000000000e+00 3.000000000000e-01 0.000000000000e+00 1.000000000000e+00 0.000000000000e+00 0.000000000000e+00 0.000000000000e+00 0.000000000000e+00 0.000000000000e+00 0.000000000000e+00 0.000000000000e+00 0.000000000000e+00 0.000000000000e+00 0.000000000000e+00 
1.000000000000e-01 0.000000000000e+00 3.500000000000e-01 0.000000000000e+00 1.000000000000e+00 0.000000000000e+00 0.000000000000e+00 0.000000000000e+00 0.000000000000e+00 0.000000000000e+00 0.000000000000e+00 0.000000000000e+00 0.000000000000e+00 0.000000000000e+00 0.000000000000e+00 
1.000000000000e-01 0.000000000000e+00 4.000000000000e-01 0.000000000000e+00 1.000000000000e+00 0.000000000000e+00 0.000000000000e+00 0.000000000000e+00 0.000000000000e+00 0.000000000000e+00 0.000000000000e+00 0.000000000000e+00 0.000000000000e+00 0.000000000000e+00 0.000000000000e+00 
1.000000000000e-01 0.000000000000e+00 4.500000000000e-01 0.000000000000e+00 1.000000000000e+00 0.000000000000e+00 0.000000000000e+00 0.000000000000e+00 0.000000000000e+00 0.000000000000e+00 0.000000000000e+00 0.000000000000e+00 0.000000000000e+00 0.000000000000e+00 0.000000000000e+00 
1.000000000000e-01 0.000000000000e+00 5.000000000000e-01 0.000000000000e+00 1.000000000000e+00 0.000000000000e+00 0.000000000000e+00 0.000000000000e+00 0.000000000000e+00 0.000000000000e+00 0.000000000000e+00 0.000000000000e+00 0.000000000000e+00 0.000000000000e+00 0.000000000000e+00 
1.000000000000e-01 0.000000000000e+00 5.500000000000e-01 0.000000000000e+00 1.000000000000e+00 0.000000000000e+00 0.000000000000e+00 0.000000000000e+00 0.000000000000e+00 0.000000000000e+00 0.000000000000e+00 0.000000000000e+00 0.000000000000e+00 0.000000000000e+00 0.000000000000e+00 
1.000000000000e-01 0.000000000000e+00 6.000000000000e-01 0.000000000000e+00 1.000000000000e+00 0.000000000000e+00 0.000000000000e+00 0.000000000000e+00 0.000000000000e+00 0.000000000000e+00 0.000000000000e+00 0.000000000000e+00 0.000000000000e+00 0.000000000000e+00 0.000000000000e+00 
1.000000000000e-01 0.000000000000e+00 6.500000000000e-01 0.000000000000e+00 1.000000000000e+00 0.000000000000e+00 0.000000000000e+00 0.000000000000e+00 0.000000000000e+00 0.000000000000e+00 0.000000000000e+00 0.000000000000e+00 0.000000000000e+00 0.000000000000e+00 0.000000000000e+00 
1.000000000000e-01 0.000000000000e+00 7.000000000000e-01 0.000000000000e+00 1.000000000000e+00 0.000000000000e+00 0.000000000000e+00 0.000000000000e+00 0.000000000000e+00 0.000000000000e+00 0.000000000000e+00 0.000000000000e+00 0.000000000000e+00 0.000000000000e+00 0.000000000000e+00 
1.000000000000e-01 0.000000000000e+00 7.500000000000e-01 0.000000000000e+00 1.000000000000e+00 0.000000000000e+00 0.000000000000e+00 0.000000000000e+00 0.000000000000e+00 0.000000000000e+00 0.000000000000e+00 0.000000000000e+00 0.000000000000e+00 0.000000000000e+00 0.000000000000e+00 
1.000000000000e-01 0.000000000000e+00 8.000000000000e-01 0.000000000000e+00 1.000000000000e+00 0.000000000000e+00 0.000000000000e+00 0.000000000000e+00 0.000000000000e+00 0.000000000000e+00 0.000000000000e+00 0.000000000000e+00 0.000000000000e+00 0.000000000000e+00 0.000000000000e+00 
1.000000000000e-01 0.000000000000e+00 8.500000000000e-01 0.000000000000e+00 1.000000000000e+00 0.000000000000e+00 0.000000000000e+00 0.000000000000e+00 0.000000000000e+00 0.000000000000e+00 0.000000000000e+00 0.000000000000e+00 0.000000000000e+00 0.000000000000e+00 0.000000000000e+00 
1.000000000000e-01 0.000000000000e+00 9.000000000000e-01 0.000000000000e+00 1.000000000000e+00 0.000000000000e+00 0.000000000000e+00 0.000000000000e+00 0.000000000000e+00 0.000000000000e+00 0.000000000000e+00 0.000000000000e+00 0.000000000000e+00 0.000000000000e+00 0.000000000000e+00 
1.000000000000e-01 0.000000000000e+00 9.500000000000e-01 0.000000000000e+00 1.000000000000e+00 0.000000000000e+00 0.000000000000e+00 0.000000000000e+00 0.000000000000e+00 0.000000000000e+00 0.000000000000e+00 0.000000000000e+00 0.000000000000e+00 0.000000000000e+00 0.000000000000e+00 
1.000000000000e-01 0.000000000000e+00 1.000000000000e+00 0.000000000000e+00 1.000000000000e+00 0.000000000000e+00 0.000000000000e+00 0.000000000000e+00 0.000000000000e+00 0.000000000000e+00 0.000000000000e+00 0.000000000000e+00 0.000000000000e+00 0.000000000000e+00 0.000000000000e+00 
1  22  23  2  
2  23  24  3  
3  24  25  4  
4  25  26  5  
5  26  27  6  
6  27  28  7  
7  28  29  8  
8  29  30  9  
9  30  31  10  
10  31  32  11  
11  32  33  12  
12  33  34  13  
13  34  35  14  
14  35  36  15  
15  36  37  16  
16  37  38  17  
17  38  39  18  
18  39  40  19  
19  40  41  20  
20  41  42  21  
VARIABLES  = "X","Y","Z", "PRESSURE1", "SATURATION1", "DISPLACEMENT_X1", "DISPLACEMENT_Y1", "STRESS_XX", "STRESS_XY", "STRESS_YY", "STRESS_ZZ", "STRAIN_XX", "STRAIN_XY", "STRAIN_YY", "STRAIN_PLS"
ZONE T="1.000000000000e+00s", N=42, E=20, F=FEPOINT, ET=QUADRILATERAL
STRANDID=1, SOLUTIONTIME=1.000000000000e+00
0.000000000000e+00 0.000000000000e+00 0.000000000000e+00 0.000000000000e+00 1.000000000000e+00 0.000000000000e+00 0.000000000000e+00 4.339465584628e-01 -7.369663598598e-04 6.439810578358e-01 4.311710465194e-01 2.989012862051e-09 -1.587312159698e-09 2.291800121869e-07 0.000000000000e+00 
0.000000000000e+00 0.000000000000e+00 5.000000000000e-02 -2.117101693951e+01 9.999756648488e-01 0.000000000000e+00 -1.785310775327e-07 -1.368852148925e+01 -7.462987885955e-04 -2.052936368232e+01 -1.368715406863e+01 -1.472606821880e-09 -1.607412775436e-09 -7.368533430132e-06 0.000000000000e+00 
0.000000000000e+00 0.000000000000e+00 1.000000000000e-01 -4.297987881952e+01 9.999505965230e-01 0.000000000000e+00 -7.432257290521e-07 -2.826058091613e+01 4.509442902960e-03 -4.239367652411e+01 -2.826170297609e+01 1.208372270789e-09 9.712646252528e-09 -1.521904843632e-05 0.000000000000e+00 
0.000000000000e+00 0.000000000000e+00 1.500000000000e-01 -6.611582826271e+01 9.999240027685e-01 0.000000000000e+00 -1.711426364346e-06 -4.364260258637e+01 4.728491577287e-03 -6.547350136241e+01 -4.364644157951e+01 4.134300307869e-09 1.018444339723e-08 -2.350606438158e-05 0.000000000000e+00 
0.000000000000e+00 0.000000000000e+00 2.000000000000e-01 -9.130923276556e+01 9.998950440601e-01 0.000000000000e+00 -3.114181819586e-06 -6.051498509991e+01 6.213854700176e-03 -9.080291873191e+01 -6.052716153273e+01 1.311308149570e-08 1.338368704653e-08 -3.260466159912e-05 0.000000000000e+00 
0.000000000000e+00 0.000000000000e+00 2.500000000000e-01 -1.193546905940e+02 9.998628070420e-01 0.000000000000e+00 -4.994877447080e-06 -7.915865600083e+01 9.107492234919e-03 -1.187444048907e+02 -7.916122435659e+01 2.765921592817e-09 1.961613712136e-08 -4.262804057514e-05 0.000000000000e+00 
0.000000000000e+00 0.000000000000e+00 3.000000000000e-01 -1.511361697616e+02 9.998262756320e-01 0.000000000000e+00 -7.412729330443e-06 -1.004583635490e+02 1.120126009362e-02 -1.506734642938e+02 -1.004527311371e+02 -6.065674298745e-09 2.412579097086e-08 -5.408386647646e-05 0.000000000000e+00 
0.000000000000e+00 0.000000000000e+00 3.500000000000e-01 -1.876549852156e+02 9.997842988627e-01 0.000000000000e+00 -1.044287029055e-05 -1.246947873376e+02 3.448845057786e-03 -1.870074012076e+02 -1.246808754181e+02 -1.498206717921e-08 7.428281662924e-09 -6.712087392717e-05 0.000000000000e+00 
0.000000000000e+00 0.000000000000e+00 4.000000000000e-01 -2.300615143496e+02 9.997355544259e-01 0.000000000000e+00 -1.418228838531e-05 -1.531193939088e+02 8.097141642458e-04 -2.296800682124e+02 -1.531197848485e+02 4.210119733048e-10 1.743999738376e-09 -8.244953593039e-05 0.000000000000e+00 
0.000000000000e+00 0.000000000000e+00 4.500000000000e-01 -2.796916767882e+02 9.996785067409e-01 0.000000000000e+00 -1.874814302279e-05 -1.860611308128e+02 -1.255745612806e-04 -2.790951616306e+02 -1.860625169774e+02 1.492792553394e-09 -2.704682858352e-10 -1.001890019342e-04 0.000000000000e+00 
0.000000000000e+00 0.000000000000e+00 5.000000000000e-01 -3.381093661419e+02 9.996113581809e-01 0.000000000000e+00 -2.428446441546e-05 -2.251690190159e+02 3.563578785723e-03 -3.377678068365e+02 -2.251747303409e+02 6.150657756970e-09 7.675400461558e-09 -1.212540823798e-04 0.000000000000e+00 
0.000000000000e+00 0.000000000000e+00 5.500000000000e-01 -4.071562258077e+02 9.995319918579e-01 0.000000000000e+00 -3.096368229839e-05 -2.710285129102e+02 -2.424902870668e-06 -4.065160179084e+02 -2.710178123274e+02 -1.152370451192e-08 -5.222867721439e-12 -1.459211444718e-04 0.000000000000e+00 
0.000000000000e+00 0.000000000000e+00 6.000000000000e-01 -4.890104166441e+02 9.994379040721e-01 0.000000000000e+00 -3.899688293200e-05 -3.257297298922e+02 1.085878582186e-03 -4.885989004237e+02 -3.257314521264e+02 1.854713674746e-09 2.338815407784e-09 -1.753957135510e-04 0.000000000000e+00 
0.000000000000e+00 0.000000000000e+00 6.500000000000e-01 -5.862563428258e+02 9.993261241647e-01 0.000000000000e+00 -4.863616829241e-05 -3.903454644042e+02 -5.660493259350e-04 -5.855104739376e+02 -3.903423753367e+02 -3.326688036237e-09 -1.219183163552e-09 -2.101810292625e-04 0.000000000000e+00 
0.000000000000e+00 0.000000000000e+00 7.000000000000e-01 -7.019676982052e+02 9.991931190600e-01 0.000000000000e+00 -6.018510921140e-05 -4.675152247459e+02 2.896704135701e-03 -7.013043607645e+02 -4.675278342041e+02 1.357941659660e-08 6.239055061511e-09 -2.517593362958e-04 0.000000000000e+00 
0.000000000000e+00 0.000000000000e+00 7.500000000000e-01 -8.398066884383e+02 9.990346792139e-01 0.000000000000e+00 -7.400584879596e-05 -5.591417479278e+02 5.174079124093e-03 -8.387099669043e+02 -5.591406859328e+02 -1.143686926363e-09 1.114417042112e-08 -3.010746102769e-04 0.000000000000e+00 
0.000000000000e+00 0.000000000000e+00 8.000000000000e-01 -1.004142899494e+03 9.988457819801e-01 0.000000000000e+00 -9.053299696755e-05 -6.685615057827e+02 4.485468105634e-03 -1.002838519543e+03 -6.685600101302e+02 -1.610702792245e-09 9.661008227519e-09 -3.599922409058e-04 0.000000000000e+00 
0.000000000000e+00 0.000000000000e+00 8.500000000000e-01 -1.200196054879e+03 9.986204275161e-01 0.000000000000e+00 -1.102867083122e-04 -7.988658220813e+02 1.313034801590e-03 -1.198279166858e+03 -7.988579955758e+02 -8.428544374757e-09 2.828074957271e-09 -4.301458767657e-04 0.000000000000e+00 
0.000000000000e+00 0.000000000000e+00 9.000000000000e-01 -1.434207877468e+03 9.983514412367e-01 0.000000000000e+00 -1.338891748596e-04 -9.544290209808e+02 -8.590009410736e-04 -1.431640714468e+03 -9.544278941797e+02 -1.213478140103e-09 -1.850155873082e-09 -5.139214987724e-04 0.000000000000e+00 
0.000000000000e+00 0.000000000000e+00 9.500000000000e-01 -1.713627826095e+03 9.980302603172e-01 0.000000000000e+00 -1.620837451288e-04 -1.139938317122e+03 -1.919847368592e-03 -1.709907340292e+03 -1.139938262966e+03 -5.832204490783e-11 -4.135055870813e-09 -6.138128525057e-04 0.000000000000e+00 
0.000000000000e+00 0.000000000000e+00 1.000000000000e+00 -2.102594212636e+03 9.975831605939e-01 0.000000000000e+00 -1.962506687520e-04 -1.398416940387e+03 -8.195705768399e-04 -2.097635093139e+03 -1.398420813411e+03 4.170948104014e-09 -1.765228934732e-09 -7.529999935539e-04 0.000000000000e+00 
1.000000000000e-01 0.000000000000e+00 0.000000000000e+00 0.000000000000e+00 1.000000000000e+00 0.000000000000e+00 0.000000000000e+00 4.337895104961e-01 8.677854228278e-04 6.576230456025e-01 4.365650224395e-01 -2.989012862051e-09 1.869076295321e-09 2.380624864833e-07 0.000000000000e+00 
1.000000000000e-01 0.000000000000e+00 5.000000000000e-02 -2.117101693951e+01 9.999756648488e-01 0.000000000000e+00 -1.783885149165e-07 -1.368747091372e+01 6.820119997576e-04 -2.053462492212e+01 -1.368883833434e+01 1.472606821880e-09 1.468948922555e-09 -7.372385556080e-06 0.000000000000e+00 
1.000000000000e-01 0.000000000000e+00 1.000000000000e-01 -4.297987881952e+01 9.999505965230e-01 0.000000000000e+00 -7.431313482190e-07 -2.825427162805e+01 -1.943144212507e-03 -4.237860229217e+01 -2.825314956809e+01 -1.208372270789e-09 -4.185233688476e-09 -1.521202601055e-05 0.000000000000e+00 
1.000000000000e-01 0.000000000000e+00 1.500000000000e-01 -6.611582826271e+01 9.999240027685e-01 0.000000000000e+00 -1.710981585198e-06 -4.366219642247e+01 1.069151682340e-03 -6.548369715084e+01 -4.365835742932e+01 -4.134300307869e-09 2.302788238886e-09 -2.350421200779e-05 0.000000000000e+00 
1.000000000000e-01 0.000000000000e+00 2.000000000000e-01 -9.130923276556e+01 9.998950440601e-01 0.000000000000e+00 -3.112767131333e-06 -6.052319294529e+01 5.804883848763e-03 -9.075434833589e+01 -6.051101651247e+01 -1.311308149570e-08 1.250282675118e-08 -3.256974196368e-05 0.000000000000e+00 
1.000000000000e-01 0.000000000000e+00 2.500000000000e-01 -1.193546905940e+02 9.998628070420e-01 0.000000000000e+00 -4.992610369175e-06 -7.915860656013e+01 1.023616081186e-02 -1.187314889508e+02 -7.915603820437e+01 -2.765921592817e-09 2.204711559476e-08 -4.261971618845e-05 0.000000000000e+00 
1.000000000000e-01 0.000000000000e+00 3.000000000000e-01 -1.511361697616e+02 9.998262756320e-01 0.000000000000e+00 -7.410639699449e-06 -1.004439338985e+02 7.958055265919e-03 -1.506799818774e+02 -1.004495663104e+02 6.065674298745e-09 1.714042672659e-08 -5.409429368757e-05 0.000000000000e+00 
1.000000000000e-01 0.000000000000e+00 3.500000000000e-01 -1.876549852156e+02 9.997842988627e-01 0.000000000000e+00 -1.044198776070e-05 -1.246970791778e+02 5.506968435757e-03 -1.870803985655e+02 -1.247109910973e+02 1.498206717921e-08 1.186116278471e-08 -6.716705419650e-05 0.000000000000e+00 
1.000000000000e-01 0.000000000000e+00 4.000000000000e-01 -2.300615143496e+02 9.997355544259e-01 0.000000000000e+00 -1.418221534022e-05 -1.531065186655e+02 7.869774161824e-04 -2.296588006490e+02 -1.531061277258e+02 -4.210119733048e-10 1.695028281008e-09 -8.244134007113e-05 0.000000000000e+00 
1.000000000000e-01 0.000000000000e+00 4.500000000000e-01 -2.796916767882e+02 9.996785067409e-01 0.000000000000e+00 -1.874793851720e-05 -1.860689176573e+02 2.921509059985e-03 -2.790999110747e+02 -1.860675314928e+02 -1.492792553394e-09 6.292481052276e-09 -1.001887164728e-04 0.000000000000e+00 
1.000000000000e-01 0.000000000000e+00 5.000000000000e-01 -3.381093661419e+02 9.996113581809e-01 0.000000000000e+00 -2.428366882027e-05 -2.251617909393e+02 2.690899207380e-03 -3.377284080963e+02 -2.251560796142e+02 -6.150657756970e-09 5.795782908203e-09 -1.212317383653e-04 0.000000000000e+00 
1.000000000000e-01 0.000000000000e+00 5.500000000000e-01 -4.071562258077e+02 9.995319918579e-01 0.000000000000e+00 -3.096334279299e-05 -2.710400547668e+02 2.167168018827e-03 -4.065868336070e+02 -2.710507553495e+02 1.152370451192e-08 4.667746502089e-09 -1.459619304312e-04 0.000000000000e+00 
1.000000000000e-01 0.000000000000e+00 6.000000000000e-01 -4.890104166441e+02 9.994379040721e-01 0.000000000000e+00 -3.899706133423e-05 -3.257061493308e+02 -2.355649993644e-03 -4.885549184109e+02 -3.257044270967e+02 -1.854713674746e-09 -5.073707678618e-09 -1.753774521846e-04 0.000000000000e+00 
1.000000000000e-01 0.000000000000e+00 6.500000000000e-01 -5.862563428258e+02 9.993261241647e-01 0.000000000000e+00 -4.863650539955e-05 -3.903634498682e+02 -1.777895832567e-04 -5.855528974709e+02 -3.903665389356e+02 3.326688036237e-09 -3.829314100914e-10 -2.102006938072e-04 0.000000000000e+00 
1.000000000000e-01 0.000000000000e+00 7.000000000000e-01 -7.019676982052e+02 9.991931190600e-01 0.000000000000e+00 -6.018464861973e-05 -4.675125773893e+02 3.607167014322e-04 -7.012373424382e+02 -4.674999679310e+02 -1.357941659660e-08 7.769282800078e-10 -2.517171725463e-04 0.000000000000e+00 
1.000000000000e-01 0.000000000000e+00 7.500000000000e-01 -8.398066884383e+02 9.990346792139e-01 0.000000000000e+00 -7.400485069862e-05 -5.591542235237e+02 3.327811447289e-03 -8.387339902730e+02 -5.591552855187e+02 1.143686926363e-09 7.167593886469e-09 -3.010847589662e-04 0.000000000000e+00 
1.000000000000e-01 0.000000000000e+00 8.000000000000e-01 -1.004142899494e+03 9.988457819801e-01 0.000000000000e+00 -9.053212069313e-05 -6.685490699144e+02 2.274133391405e-03 -1.002827344003e+03 -6.685505655670e+02 1.610702792245e-09 4.898133458411e-09 -3.599903767773e-04 0.000000000000e+00 
1.000000000000e-01 0.000000000000e+00 8.500000000000e-01 -1.200196054879e+03 9.986204275161e-01 0.000000000000e+00 -1.102864854952e-04 -7.988621866413e+02 1.887200068414e-03 -1.198312846226e+03 -7.988700131468e+02 8.428544374757e-09 4.064738608891e-09 -4.301692048542e-04 0.000000000000e+00 
1.000000000000e-01 0.000000000000e+00 9.000000000000e-01 -1.434207877468e+03 9.983514412367e-01 0.000000000000e+00 -1.338894064739e-04 -9.544260816675e+02 -6.302968322009e-04 -1.431641939504e+03 -9.544272084686e+02 1.213478140103e-09 -1.357562407817e-09 -5.139235564997e-04 0.000000000000e+00 
1.000000000000e-01 0.000000000000e+00 9.500000000000e-01 -1.713627826095e+03 9.980302603172e-01 0.000000000000e+00 -1.620840808282e-04 -1.139942689195e+03 -1.378202958312e-03 -1.709914169183e+03 -1.139942743351e+03 5.832204490783e-11 -2.968437140980e-09 -6.138153816650e-04 0.000000000000e+00 
1.000000000000e-01 0.000000000000e+00 1.000000000000e+00 -2.102594212636e+03 9.975831605939e-01 0.000000000000e+00 -1.962509095304e-04 -1.398423525270e+03 -5.864866311963e-04 -2.097625605347e+03 -1.398419652247e+03 -4.170948104014e-09 -1.263201974884e-09 -7.529910264157e-04 0.000000000000e+00 
1  22  23  2  
2  23  24  3  
3  24  25  4  
4  25  26  5  
5  26  27  6  
6  27  28  7  
7  28  29  8  
8  29  30  9  
9  30  31  10  
10  31  32  11  
11  32  33  12  
12  33  34  13  
13  34  35  14  
14  35  36  15  
15  36  37  16  
16  37  38  17  
17  38  39  18  
18  39  40  19  
19  40  41  20  
20  41  42  21  
VARIABLES  = "X","Y","Z", "PRESSURE1", "SATURATION1", "DISPLACEMENT_X1", "DISPLACEMENT_Y1", "STRESS_XX", "STRESS_XY", "STRESS_YY", "STRESS_ZZ", "STRAIN_XX", "STRAIN_XY", "STRAIN_YY", "STRAIN_PLS"
ZONE T="2.000000000000e+00s", N=42, E=20, F=FEPOINT, ET=QUADRILATERAL
STRANDID=1, SOLUTIONTIME=2.000000000000e+00
0.000000000000e+00 0.000000000000e+00 0.000000000000e+00 0.000000000000e+00 1.000000000000e+00 0.000000000000e+00 0.000000000000e+00 2.211835336526e-01 7.598889742487e-05 2.880718947198e-01 2.037021713490e-01 1.882608248084e-08 1.636683944536e-10 9.085970209167e-08 0.000000000000e+00 
0.000000000000e+00 0.000000000000e+00 5.000000000000e-02 -5.534205529972e+01 9.999363867458e-01 0.000000000000e+00 -4.917123086544e-07 -3.667132681131e+01 6.887101252831e-03 -5.502820083720e+01 -3.667981105940e+01 9.136882559071e-09 1.483375654456e-08 -1.975980437608e-05 0.000000000000e+00 
0.000000000000e+00 0.000000000000e+00 1.000000000000e-01 -1.117044313422e+02 9.998716006779e-01 0.000000000000e+00 -1.985277336327e-06 -7.426032937077e+01 8.766868076759e-03 -1.113860436543e+02 -7.425854921004e+01 -1.917096161282e-09 1.888248508840e-08 -3.998345555540e-05 0.000000000000e+00 
0.000000000000e+00 0.000000000000e+00 1.500000000000e-01 -1.701801010951e+02 9.998043854720e-01 0.000000000000e+00 -4.508834712039e-06 -1.132319363813e+02 6.136574908798e-03 -1.698266962555e+02 -1.132234530547e+02 -9.135890151236e-09 1.321723826510e-08 -6.095733883162e-05 0.000000000000e+00 
0.000000000000e+00 0.000000000000e+00 2.000000000000e-01 -2.318862049300e+02 9.997334570245e-01 0.000000000000e+00 -8.110688822549e-06 -1.543735318803e+02 2.635177048442e-03 -2.315437844908e+02 -1.543669265484e+02 -7.113434331559e-09 5.675765950490e-09 -8.311353932252e-05 0.000000000000e+00 
0.000000000000e+00 0.000000000000e+00 2.500000000000e-01 -2.979763595039e+02 9.996574893037e-01 0.000000000000e+00 -1.285917174887e-05 -1.983948639857e+02 -3.445250041491e-05 -2.975851104760e+02 -1.983919897847e+02 -3.095293391371e-09 -7.420538550905e-11 -1.068233607445e-04 0.000000000000e+00 
0.000000000000e+00 0.000000000000e+00 3.000000000000e-01 -3.696521200665e+02 9.995751011750e-01 0.000000000000e+00 -1.884369035920e-05 -2.461677442715e+02 -2.629443937047e-04 -3.692553919630e+02 -2.461692544938e+02 1.626393235507e-09 -5.663417710563e-10 -1.325543018899e-04 0.000000000000e+00 
0.000000000000e+00 0.000000000000e+00 3.500000000000e-01 -4.481731699771e+02 9.994848446878e-01 0.000000000000e+00 -2.617530256926e-05 -2.984553021572e+02 2.439281902969e-04 -4.476867554294e+02 -2.984568230346e+02 1.637867976713e-09 5.253837944857e-10 -1.607091579636e-04 0.000000000000e+00 
0.000000000000e+00 0.000000000000e+00 4.000000000000e-01 -5.348656826769e+02 9.993851954642e-01 0.000000000000e+00 -3.498845276126e-05 -3.562164171365e+02 1.671972964581e-03 -5.343314570876e+02 -3.562191496896e+02 2.942749553614e-09 3.601172539097e-09 -1.918132541209e-04 0.000000000000e+00 
0.000000000000e+00 0.000000000000e+00 4.500000000000e-01 -6.311281262273e+02 9.992745460267e-01 0.000000000000e+00 -4.544180086277e-05 -4.202990708143e+02 2.874157660096e-03 -6.304544614373e+02 -4.203014129006e+02 2.522246856830e-09 6.190493421745e-09 -2.263186676549e-04 0.000000000000e+00 
0.000000000000e+00 0.000000000000e+00 5.000000000000e-01 -7.384335488535e+02 9.991512031713e-01 0.000000000000e+00 -5.771971795777e-05 -4.917522477441e+02 4.138998537626e-03 -7.376338167646e+02 -4.917544258035e+02 2.345602411612e-09 8.914766081040e-09 -2.647931902658e-04 0.000000000000e+00 
0.000000000000e+00 0.000000000000e+00 5.500000000000e-01 -8.583270825981e+02 9.990133908369e-01 0.000000000000e+00 -7.203319512472e-05 -5.715284240145e+02 3.738624723333e-03 -8.572870764129e+02 -5.715262001710e+02 -2.394908440138e-09 8.052422481024e-09 -3.077424821067e-04 0.000000000000e+00 
0.000000000000e+00 0.000000000000e+00 6.000000000000e-01 -9.924170141845e+02 9.988592603686e-01 0.000000000000e+00 -8.862139304540e-05 -6.607491682894e+02 1.499915462337e-03 -9.911080231161e+02 -6.607428765622e+02 -6.775706246896e-09 3.230587149650e-09 -3.557778501349e-04 0.000000000000e+00 
0.000000000000e+00 0.000000000000e+00 6.500000000000e-01 -1.142357275674e+03 9.986869106444e-01 0.000000000000e+00 -1.077525821188e-04 -7.604523117940e+02 -2.317293774963e-03 -1.140657874566e+03 -7.604440745440e+02 -8.870884653513e-09 -4.991094284536e-09 -4.094610154082e-04 0.000000000000e+00 