VARIABLES  = "X","Y","Z", "PRESSURE1", "SATURATION1", "DISPLACEMENT_X1", "DISPLACEMENT_Y1", "STRESS_XX", "STRESS_XY", "STRESS_YY", "STRESS_ZZ", "STRAIN_XX", "STRAIN_XY", "STRAIN_YY", "STRAIN_PLS"
ZONE T="0.000000000000e+00s", N=42, E=20, F=FEPOINT, ET=QUADRILATERAL
STRANDID=1, SOLUTIONTIME=0.000000000000e+00
0.000000000000e+00 0.000000000000e+00 0.000000000000e+00 0.000000000000e+00 1.000000000000e+00 0.000000000000e+00 0.000000000000e+00 0.000000000000e+00 0.000000000000e+00 0.000000000000e+00 0.000000000000e+00 0.000000000000e+00 0.000000000000e+00 0.000000000000e+00 0.000000000000e+00 
0.000000000000e+00 0.000000000000e+00 5.000000000000e-02 0.000000000000e+00 1.000000000000e+00 0.000000000000e+00 0.000000000000e+00 0.000000000000e+00 0.000000000000e+00 0.000000000000e+00 0.000000000000e+00 0.000000000000e+00 0.000000000000e+00 0.000000000000e+00 0.000000000000e+00 
0.000000000000e+00 0.000000000000e+00 1.000000000000e-01 0.000000000000e+00 1.000000000000e+00 0.000000000000e+00 0.000000000000e+00 0.000000000000e+00 0.000000000000e+00 0.000000000000e+00 0.000000000000e+00 0.000000000000e+00 0.000000000000e+00 0.000000000000e+00 0.000000000000e+00 
0.000000000000e+00 0.000000000000e+00 1.500000000000e-01 0.000000000000e+00 1.000000000000e+00 0.000000000000e+00 0.000000000000e+00 0.000000000000e+00 0.000000000000e+00 0.000000000000e+00 0.000000000000e+00 0.000000000000e+00 0.000000000000e+00 0.000000000000e+00 0.000000000000e+00 
0.000000000000e+00 0.000000000000e+00 2.000000000000e-01 0.000000000000e+00 1.000000000000e+00 0.000000000000e+00 0.000000000000e+00 0.000000000000e+00 0.000000000000e+00 0.000000000000e+00 0.000000000000e+00 0.000000000000e+00 0.000000000000e+00 0.000000000000e+00 0.000000000000e+00 
0.000000000000e+00 0.000000000000e+00 2.500000000000e-01 0.000000000000e+00 1.000000000000e+00 0.000000000000e+00 0.000000000000e+00 0.000000000000e+00 0.000000000000e+00 0.000000000000e+00 0.000000000000e+00 0.000000000000e+00 0.000000000000e+00 0.000000000000e+00 0.000000000000e+00 
0.000000000000e+00 0.000000000000e+00 3.000000000000e-01 0.000000000000e+00 1.000000000000e+00 0.000000000000e+00 0.000000000000e+00 0.000000000000e+00 0.000000000000e+00 0.000000000000e+00 0.000000000000e+00 0.000000000000e+00 0.000000000000e+00 0.000000000000e+00 0.000000000000e+00 
0.000000000000e+00 0.000000000000e+00 3.500000000000e-01 0.000000000000e+00 1.000000000000e+00 0.000000000000e+00 0.000000000000e+00 0.000000000000e+00 0.000000000000e+00 0.000000000000e+00 0.000000000000e+00 0.000000000000e+00 0.000000000000e+00 0.000000000000e+00 0.000000000000e+00 
0.000000000000e+00 0.000000000000e+00 4.000000000000e-01 0.000000000000e+00 1.000000000000e+00 0.000000000000e+00 0.000000000000e+00 0.000000000000e+00 0.000000000000e+00 0.000000000000e+00 0.000000000000e+00 0.000000000000e+00 0.000000000000e+00 0.000000000000e+00 0.000000000000e+00 
0.000000000000e+00 0.000000000000e+00 4.500000000000e-01 0.000000000000e+00 1.000000000000e+00 0.000000000000e+00 0.000000000000e+00 0.000000000000e+00 0.000000000000e+00 0.000000000000e+00 0.000000000000e+00 0.000000000000e+00 0.000000000000e+00 0.000000000000e+00 0.000000000000e+00 
0.000000000000e+00 0.000000000000e+00 5.000000000000e-01 0.000000000000e+00 1.000000000000e+00 0.000000000000e+00 0.000000000000e+00 0.000000000000e+00 0.000000000000e+00 0.000000000000e+00 0.000000000000e+00 0.000000000000e+00 0.000000000000e+00 0.000000000000e+00 0.000000000000e+00 
0.000000000000e+00 0.000000000000e+00 5.500000000000e-01 0.000000000000e+00 1.000000000000e+00 0.000000000000e+00 0.000000000000e+00 0.000000000000e+00 0.000000000000e+00 0.000000000000e+00 0.000000000000e+00 0.000000000000e+00 0.000000000000e+00 0.000000000000e+00 0.000000000000e+00 
0.000000000000e+00 0.000000000000e+00 6.000000000000e-01 0.000000000000e+00 1.000000000000e+00 0.000000000000e+00 0.000000000000e+00 0.000000000000e+00 0.000000000000e+00 0.000000000000e+00 0.000000000000e+00 0.000000000000e+00 0.000000000000e+00 0.000000000000e+00 0.000000000000e+00 
0.000000000000e+00 0.000000000000e+00 6.500000000000e-01 0.000000000000e+00 1.000000000000e+00 0.000000000000e+00 0.000000000000e+00 0.000000000000e+00 0.000000000000e+00 0.000000000000e+00 0.000000000000e+00 0.000000000000e+00 0.000000000000e+00 0.000000000000e+00 0.000000000000e+00 
0.000000000000e+00 0.000000000000e+00 7.000000000000e-01 0.000000000000e+00 1.000000000000e+00 0.000000000000e+00 0.000000000000e+00 0.000000000000e+00 0.000000000000e+00 0.000000000000e+00 0.000000000000e+00 0.000000000000e+00 0.000000000000e+00 0.000000000000e+00 0.000000000000e+00 
0.000000000000e+00 0.000000000000e+00 7.500000000000e-01 0.000000000000e+00 1.000000000000e+00 0.000000000000e+00 0.000000000000e+00 0.000000000000e+00 0.000000000000e+00 0.000000000000e+00 0.000000000000e+00 0.000000000000e+00 0.000000000000e+00 0.000000000000e+00 0.000000000000e+00 
0.000000000000e+00 0.000000000000e+00 8.000000000000e-01 0.000000000000e+00 1.000000000000e+00 0.000000000000e+00 0.000000000000e+00 0.000000000000e+00 0.000000000000e+00 0.000000000000e+00 0.000000000000e+00 0.000000000000e+00 0.000000000000e+00 0.000000000000e+00 0.000000000000e+00 
0.000000000000e+00 0.000000000000e+00 8.500000000000e-01 0.000000000000e+00 1.000000000000e+00 0.000000000000e+00 0.000000000000e+00 0.000000000000e+00 0.000000000000e+00 0.000000000000e+00 0.000000000000e+00 0.000000000000e+00 0.000000000000e+00 0.000000000000e+00 0.000000000000e+00 
0.000000000000e+00 0.000000000000e+00 9.000000000000e-01 0.000000000000e+00 1.000000000000e+00 0.000000000000e+00 0.000000000000e+00 0.000000000000e+00 0.000000000000e+00 0.000000000000e+00 0.000000000000e+00 0.000000000000e+00 0.000000000000e+00 0.000000000000e+00 0.000000000000e+00 
0.000000000000e+00 0.000000000000e+00 9.500000000000e-01 0.000000000000e+00 1.000000000000e+00 0.000000000000e+00 0.000000000000e+00 0.000000000000e+00 0.000000000000e+00 0.000000000000e+00 0.000000000000e+00 0.000000000000e+00 0.000000000000e+00 0.000000000000e+00 0.000000000000e+00 
0.000000000000e+00 0.000000000000e+00 1.000000000000e+00 0.000000000000e+00 1.000000000000e+00 0.000000000000e+00 0.000000000000e+00 0.000000000000e+00 0.000000000000e+00 0.000000000000e+00 0.000000000000e+00 0.000000000000e+00 0.000000000000e+00 0.000000000000e+00 0.000000000000e+00 
1.000000000000e-01 0.000000000000e+00 0.000000000000e+00 0.000000000000e+00 1.000000000000e+00 0.000000000000e+00 0.000000000000e+00 0.000000000000e+00 0.000000000000e+00 0.000000000000e+00 0.000000000000e+00 0.000000000000e+00 0.000000000000e+00 0.000000000000e+00 0.000000000000e+00 
1.000000000000e-01 0.000000000000e+00 5.000000000000e-02 0.000000000000e+00 1.000000000000e+00 0.000000000000e+00 0.000000000000e+00 0.000000000000e+00 0.000000000000e+00 0.000000000000e+00 0.000000000000e+00 0.000000000000e+00 0.000000000000e+00 0.000000000000e+00 0.000000000000e+00 
1.000000000000e-01 0.000000000000e+00 1.000000000000e-01 0.000000000000e+00 1.000000000000e+00 0.000000000000e+00 0.000000000000e+00 0.000000000000e+00 0.000000000000e+00 0.000000000000e+00 0.000000000000e+00 0.000000000000e+00 0.000000000000e+00 0.000000000000e+00 0.000000000000e+00 
1.000000000000e-01 0.000000000000e+00 1.500000000000e-01 0.000000000000e+00 1.000000000000e+00 0.000000000000e+00 0.000000000000e+00 0.000000000000e+00 0.000000000000e+00 0.000000000000e+00 0.000000000000e+00 0.000000000000e+00 0.000000000000e+00 0.000000000000e+00 0.000000000000e+00 
1.000000000000e-01 0.000000000000e+00 2.000000000000e-01 0.000000000000e+00 1.000000000000e+00 0.000000000000e+00 0.000000000000e+00 0.000000000000e+00 0.000000000000e+00 0.000000000000e+00 0.000000000000e+00 0.000000000000e+00 0.000000000000e+00 0.000000000000e+00 0.000000000000e+00 
1.000000000000e-01 0.000000000000e+00 2.500000000000e-01 0.000000000000e+00 1.000000000000e+00 0.000000000000e+00 0.000000000000e+00 0.000000000000e+00 0.000000000000e+00 0.000000000000e+00 0.000000000000e+00 0.000000000000e+00 0.000000000000e+00 0.000000000000e+00 0.000000000000e+00 
1.000000000000e-01 0.000000000000e+00 3.000000000000e-01 0.000000000000e+00 1.000000000000e+00 0.000000000000e+00 0.000000000000e+00 0.000000000000e+00 0.000000000000e+00 0.000000000000e+00 0.000000000000e+00 0.000000000000e+00 0.000000000000e+00 0.000000000000e+00 0.000000000000e+00 
1.000000000000e-01 0.000000000000e+00 3.500000000000e-01 0.000000000000e+00 1.000000000000e+00 0.000000000000e+00 0.000000000000e+00 0.000000000000e+00 0.000000000000e+00 0.000000000000e+00 0.000000000000e+00 0.000000000000e+00 0.000000000000e+00 0.000000000000e+00 0.000000000000e+00 
1.000000000000e-01 0.000000000000e+00 4.000000000000e-01 0.000000000000e+00 1.000000000000e+00 0.000000000000e+00 0.000000000000e+00 0.000000000000e+00 0.000000000000e+00 0.000000000000e+00 0.000000000000e+00 0.000000000000e+00 0.000000000000e+00 0.000000000000e+00 0.000000000000e+00 
1.000000000000e-01 0.000000000000e+00 4.500000000000e-01 0.000000000000e+00 1.000000000000e+00 0.000000000000e+00 0.000000000000e+00 0.000000000000e+00 0.000000000000e+00 0.000000000000e+00 0.000000000000e+00 0.000000000000e+00 0.000000000000e+00 0.000000000000e+00 0.000000000000e+00 
1.000000000000e-01 0.000000000000e+00 5.000000000000e-01 0.000000000000e+00 1.000000000000e+00 0.000000000000e+00 0.000000000000e+00 0.000000000000e+00 0.000000000000e+00 0.000000000000e+00 0.000000000000e+00 0.000000000000e+00 0.000000000000e+00 0.000000000000e+00 0.000000000000e+00 
1.000000000000e-01 0.000000000000e+00 5.500000000000e-01 0.000000000000e+00 1.000000000000e+00 0.000000000000e+00 0.000000000000e+00 0.000000000000e+00 0.000000000000e+00 0.000000000000e+00 0.000000000000e+00 0.000000000000e+00 0.000000000000e+00 0.000000000000e+00 0.000000000000e+00 
1.000000000000e-01 0.000000000000e+00 6.000000000000e-01 0.000000000000e+00 1.000000000000e+00 0.000000000000e+00 0.000000000000e+00 0.000000000000e+00 0.000000000000e+00 0.000000000000e+00 0.000000000000e+00 0.000000000000e+00 0.000000000000e+00 0.000000000000e+00 0.000000000000e+00 
1.000000000000e-01 0.000000000000e+00 6.500000000000e-01 0.000000000000e+00 1.000000000000e+00 0.000000000000e+00 0.000000000000e+00 0.000000000000e+00 0.000000000000e+00 0.000000000000e+00 0.000000000000e+00 0.000000000000e+00 0.000000000000e+00 0.000000000000e+00 0.000000000000e+00 
1.000000000000e-01 0.000000000000e+00 7.000000000000e-01 0.000000000000e+00 1.000000000000e+00 0.000000000000e+00 0.000000000000e+00 0.000000000000e+00 0.000000000000e+00 0.000000000000e+00 0.000000000000e+00 0.000000000000e+00 0.000000000000e+00 0.000000000000e+00 0.000000000000e+00 
1.000000000000e-01 0.000000000000e+00 7.500000000000e-01 0.000000000000e+00 1.000000000000e+00 0.000000000000e+00 0.000000000000e+00 0.000000000000e+00 0.000000000000e+00 0.000000000000e+00 0.000000000000e+00 0.000000000000e+00 0.000000000000e+00 0.000000000000e+00 0.000000000000e+00 
1.000000000000e-01 0.000000000000e+00 8.000000000000e-01 0.000000000000e+00 1.000000000000e+00 0.000000000000e+00 0.000000000000e+00 0.000000000000e+00 0.000000000000e+00 0.000000000000e+00 0.000000000000e+00 0.000000000000e+00 0.000000000000e+00 0.000000000000e+00 0.000000000000e+00 
1.000000000000e-01 0.000000000000e+00 8.500000000000e-01 0.000000000000e+00 1.000000000000e+00 0.000000000000e+00 0.000000000000e+00 0.000000000000e+00 0.000000000000e+00 0.000000000000e+00 0.000000000000e+00 0.000000000000e+00 0.000000000000e+00 0.000000000000e+00 0.000000000000e+00 
1.000000000000e-01 0.000000000000e+00 9.000000000000e-01 0.000000000000e+00 1.000000000000e+00 0.000000000000e+00 0.000000000000e+00 0.000000000000e+00 0.000000000000e+00 0.000000000000e+00 0.000000000000e+00 0.000000000000e+00 0.000000000000e+00 0.000000000000e+00 0.000000000000e+00 
1.000000000000e-01 0.000000000000e+00 9.500000000000e-01 0.000000000000e+00 1.000000000000e+00 0.000000000000e+00 0.000000000000e+00 0.000000000000e+00 0.000000000000e+00 0.000000000000e+00 0.000000000000e+00 0.000000000000e+00 0.000000000000e+00 0.000000000000e+00 0.000000000000e+00 
1.000000000000e-01 0.000000000000e+00 1.000000000000e+00 0.000000000000e+00 1.000000000000e+00 0.000000000000e+00 0.000000000000e+00 0.000000000000e+00 0.000000000000e+00 0.000000000000e+00 0.000000000000e+00 0.000000000000e+00 0.000000000000e+00 0.000000000000e+00 0.000000000000e+00 
1  22  23  2  
2  23  24  3  
3  24  25  4  
4  25  26  5  
5  26  27  6  
6  27  28  7  
7  28  29  8  
8  29  30  9  
9  30  31  10  
10  31  32  11  
11  32  33  12  
12  33  34  13  
13  34  35  14  
14  35  36  15  
15  36  37  16  
16  37  38  17  
17  38  39  18  
18  39  40  19  
19  40  41  20  
20  41  42  21  
VARIABLES  = "X","Y","Z", "PRESSURE1", "SATURATION1", "DISPLACEMENT_X1", "DISPLACEMENT_Y1", "STRESS_XX", "STRESS_XY", "STRESS_YY", "STRESS_ZZ", "STRAIN_XX", "STRAIN_XY", "STRAIN_YY", "STRAIN_PLS"
ZONE T="1.000000000000e+00s", N=42, E=20, F=FEPOINT, ET=QUADRILATERAL
STRANDID=1, SOLUTIONTIME=1.000000000000e+00
0.000000000000e+00 0.000000000000e+00 0.000000000000e+00 0.000000000000e+00 1.000000000000e+00 0.000000000000e+00 0.000000000000e+00 2.694486151540e-01 -1.274845866971e-03 4.114253977876e-01 2.723496051766e-01 -3.124143101313e-09 -2.745821867323e-09 1.497739305041e-07 0.000000000000e+00 
0.000000000000e+00 0.000000000000e+00 5.000000000000e-02 -2.117101693951e+01 9.999756648488e-01 0.000000000000e+00 -1.835819981205e-07 -1.385690779977e+01 3.638800660547e-05 -2.083188288083e+01 -1.387551627224e+01 2.003989342803e-08 7.837416807331e-11 -7.491471732328e-06 0.000000000000e+00 
0.000000000000e+00 0.000000000000e+00 1.000000000000e-01 -4.297987881952e+01 9.999505965230e-01 0.000000000000e+00 -7.546202817002e-07 -2.843629388795e+01 1.489339968740e-02 -4.270908731873e+01 -2.845815248267e+01 2.354002508494e-08 3.207809163440e-08 -1.534716059268e-05 0.000000000000e+00 
0.000000000000e+00 0.000000000000e+00 1.500000000000e-01 -6.611582826271e+01 9.999240027685e-01 0.000000000000e+00 -1.728194449493e-06 -4.381124807938e+01 2.134787531282e-02 -6.574099365078e+01 -4.382089669206e+01 1.039081366428e-08 4.598003913530e-08 -2.360625826324e-05 0.000000000000e+00 
0.000000000000e+00 0.000000000000e+00 2.000000000000e-01 -9.130923276556e+01 9.998950440601e-01 0.000000000000e+00 -3.133445704007e-06 -6.066444183906e+01 1.359404175234e-02 -9.092156622183e+01 -6.063440322436e+01 -3.234927737582e-08 2.927947454350e-08 -3.261694476651e-05 0.000000000000e+00 
0.000000000000e+00 0.000000000000e+00 2.500000000000e-01 -1.193546905940e+02 9.998628070420e-01 0.000000000000e+00 -5.015071743316e-06 -7.927899473941e+01 -2.236195615295e-03 -1.188432621967e+02 -7.924890277443e+01 -3.240673152102e-08 -4.816421325251e-09 -4.264007937779e-05 0.000000000000e+00 
0.000000000000e+00 0.000000000000e+00 3.000000000000e-01 -1.511361697616e+02 9.998262756320e-01 0.000000000000e+00 -7.434445513020e-06 -1.005075966800e+02 -2.889982566685e-03 -1.507536299350e+02 -1.005044906460e+02 -3.344959707603e-09 -6.224577835938e-09 -5.411445769583e-05 0.000000000000e+00 
0.000000000000e+00 0.000000000000e+00 3.500000000000e-01 -1.876549852156e+02 9.997842988627e-01 0.000000000000e+00 -1.046763331933e-05 -1.247615003899e+02 4.464456703591e-03 -1.871986429978e+02 -1.247840573551e+02 2.429211637350e-08 9.615752900041e-09 -6.721570761527e-05 0.000000000000e+00 
0.000000000000e+00 0.000000000000e+00 4.000000000000e-01 -2.300615143496e+02 9.997355544259e-01 0.000000000000e+00 -1.420963378597e-05 -1.530649980040e+02 1.495532113620e-02 -2.296748384111e+02 -1.530959345661e+02 3.331629754849e-08 3.221146090874e-08 -8.246958875619e-05 0.000000000000e+00 
0.000000000000e+00 0.000000000000e+00 4.500000000000e-01 -2.796916767882e+02 9.996785067409e-01 0.000000000000e+00 -1.877730062689e-05 -1.861423811643e+02 2.079544199382e-02 -2.792337148046e+02 -1.861504383876e+02 8.677009704169e-09 4.479018275592e-08 -1.002435284492e-04 0.000000000000e+00 
0.000000000000e+00 0.000000000000e+00 5.000000000000e-01 -3.381093661419e+02 9.996113581809e-01 0.000000000000e+00 -2.431401171856e-05 -2.251388732091e+02 2.371256271258e-02 -3.376958160069e+02 -2.251338756864e+02 -5.381947545525e-09 5.107321199634e-08 -1.212205511144e-04 0.000000000000e+00 
0.000000000000e+00 0.000000000000e+00 5.500000000000e-01 -4.071562258077e+02 9.995319918579e-01 0.000000000000e+00 -3.099283651553e-05 -2.711220162867e+02 1.604307492323e-02 -4.066006788579e+02 -2.710890780578e+02 -3.547193880857e-08 3.455431521926e-08 -1.459355700923e-04 0.000000000000e+00 
0.000000000000e+00 0.000000000000e+00 6.000000000000e-01 -4.890104166441e+02 9.994379040721e-01 0.000000000000e+00 -3.902437243014e-05 -3.256780979820e+02 1.848873746132e-04 -4.884552859849e+02 -3.256533535868e+02 -2.664781029557e-08 3.982189607052e-10 -1.753251579672e-04 0.000000000000e+00 
0.000000000000e+00 0.000000000000e+00 6.500000000000e-01 -5.862563428258e+02 9.993261241647e-01 0.000000000000e+00 -4.866148915114e-05 -3.903539572477e+02 -1.617159801393e-02 -5.854777227856e+02 -3.903326720133e+02 -2.292256006867e-08 -3.483113418384e-08 -2.101562085240e-04 0.000000000000e+00 
0.000000000000e+00 0.000000000000e+00 7.000000000000e-01 -7.019676982052e+02 9.991931190600e-01 0.000000000000e+00 -6.020927814544e-05 -4.674410376349e+02 -1.320702868274e-02 -7.012375106834e+02 -4.674714193273e+02 3.271874568982e-08 -2.844590793205e-08 -2.517480983835e-04 0.000000000000e+00 
0.000000000000e+00 0.000000000000e+00 7.500000000000e-01 -8.398066884383e+02 9.990346792139e-01 0.000000000000e+00 -7.402970926679e-05 -5.590552709578e+02 1.440873435561e-03 -8.386558413450e+02 -5.590844449211e+02 3.141811434714e-08 3.103419707361e-09 -3.010768884565e-04 0.000000000000e+00 
0.000000000000e+00 0.000000000000e+00 8.000000000000e-01 -1.004142899494e+03 9.988457819801e-01 0.000000000000e+00 -9.055697406832e-05 -6.685024204192e+02 1.937355342522e-02 -1.002833312824e+03 -6.685342932971e+02 3.432463769586e-08 4.172765353124e-08 -3.600143287207e-04 0.000000000000e+00 
0.000000000000e+00 0.000000000000e+00 8.500000000000e-01 -1.200196054879e+03 9.986204275161e-01 0.000000000000e+00 -1.103083540674e-04 -7.987863919252e+02 1.627807289891e-02 -1.198076937121e+03 -7.987453316184e+02 -4.421879196981e-08 3.506046470534e-08 -4.300494213102e-04 0.000000000000e+00 
0.000000000000e+00 0.000000000000e+00 9.000000000000e-01 -1.434207877468e+03 9.983514412367e-01 0.000000000000e+00 -1.339080324705e-04 -9.545134696134e+02 1.297376043700e-03 -1.431692215169e+03 -9.544822739128e+02 -3.359536981637e-08 2.794348401816e-09 -5.139183982756e-04 0.000000000000e+00 
0.000000000000e+00 0.000000000000e+00 9.500000000000e-01 -1.713627826095e+03 9.980302603172e-01 0.000000000000e+00 -1.621020625960e-04 -1.140075431969e+03 -1.216002501659e-02 -1.710044746234e+03 -1.140048071281e+03 -2.946535568281e-08 -2.619082311265e-08 -6.138425730265e-04 0.000000000000e+00 
0.000000000000e+00 0.000000000000e+00 1.000000000000e+00 -2.102594212636e+03 9.975831605939e-01 0.000000000000e+00 -1.962733934392e-04 -1.398328664906e+03 -1.002378218990e-02 -2.097605901796e+03 -1.398373826681e+03 4.863575717035e-08 -2.158968471670e-08 -7.530191578160e-04 0.000000000000e+00 
1.000000000000e-01 0.000000000000e+00 0.000000000000e+00 0.000000000000e+00 1.000000000000e+00 0.000000000000e+00 0.000000000000e+00 2.468029805237e-01 1.624876202616e-03 3.629519957289e-01 2.439019905010e-01 3.124143101313e-09 3.499733359480e-09 1.282076979377e-07 0.000000000000e+00 
1.000000000000e-01 0.000000000000e+00 5.000000000000e-02 -2.117101693951e+01 9.999756648488e-01 0.000000000000e+00 -1.828033368673e-07 -1.386763372440e+01 1.148072969691e-02 -2.075492940543e+01 -1.384902525194e+01 -2.003989342803e-08 2.472772550104e-08 -7.437127549922e-06 0.000000000000e+00 
1.000000000000e-01 0.000000000000e+00 1.000000000000e-01 -4.297987881952e+01 9.999505965230e-01 0.000000000000e+00 -7.512454673553e-07 -2.847500447399e+01 1.583621586442e-02 -4.265786022418e+01 -2.845314587927e+01 -2.354002508494e-08 3.410877263107e-08 -1.529738467914e-05 0.000000000000e+00 
1.000000000000e-01 0.000000000000e+00 1.500000000000e-01 -6.611582826271e+01 9.999240027685e-01 0.000000000000e+00 -1.722774558154e-06 -4.379809019060e+01 2.269961967239e-02 -6.567301375418e+01 -4.378844157791e+01 -1.039081366428e-08 4.889148852516e-08 -2.356800080521e-05 0.000000000000e+00 
1.000000000000e-01 0.000000000000e+00 2.000000000000e-01 -9.130923276556e+01 9.998950440601e-01 0.000000000000e+00 -3.129615243878e-06 -6.063750511904e+01 2.026989146805e-02 -9.103135421532e+01 -6.066754373375e+01 3.234927737582e-08 4.365822777734e-08 -3.269948821093e-05 0.000000000000e+00 
1.000000000000e-01 0.000000000000e+00 2.500000000000e-01 -1.193546905940e+02 9.998628070420e-01 0.000000000000e+00 -5.014967724617e-06 -7.924972642083e+01 6.698738407527e-03 -1.189498195437e+02 -7.927981838582e+01 3.240673152102e-08 1.442805195467e-08 -4.272153970850e-05 0.000000000000e+00 
1.000000000000e-01 0.000000000000e+00 3.000000000000e-01 -1.511361697616e+02 9.998262756320e-01 0.000000000000e+00 -7.436125536389e-06 -1.005066176077e+02 -7.666586588924e-03 -1.507676914966e+02 -1.005097236417e+02 3.344959707603e-09 -1.651264803768e-08 -5.412396538218e-05 0.000000000000e+00 
1.000000000000e-01 0.000000000000e+00 3.500000000000e-01 -1.876549852156e+02 9.997842988627e-01 0.000000000000e+00 -1.046799561452e-05 -1.247916620709e+02 -5.952656794473e-03 -1.871311006933e+02 -1.247691051057e+02 -2.429211637350e-08 -1.282110694194e-08 -6.715907217131e-05 0.000000000000e+00 
1.000000000000e-01 0.000000000000e+00 4.000000000000e-01 -2.300615143496e+02 9.997355544259e-01 0.000000000000e+00 -1.420674268861e-05 -1.530869626493e+02 1.041011485800e-02 -2.295531025689e+02 -1.530560260873e+02 -3.331629754849e-08 2.242178584800e-08 -8.238146698021e-05 0.000000000000e+00 
1.000000000000e-01 0.000000000000e+00 4.500000000000e-01 -2.796916767882e+02 9.996785067409e-01 0.000000000000e+00 -1.877223219434e-05 -1.861652507877e+02 2.389651843619e-02 -2.792277331233e+02 -1.861571935644e+02 -8.677009704169e-09 5.146942432409e-08 -1.002298118327e-04 0.000000000000e+00 
1.000000000000e-01 0.000000000000e+00 5.000000000000e-01 -3.381093661419e+02 9.996113581809e-01 0.000000000000e+00 -2.430867218124e-05 -2.251110511278e+02 2.309408416878e-02 -3.376790704984e+02 -2.251160486505e+02 5.381947545525e-09 4.974110436352e-08 -1.212217158363e-04 0.000000000000e+00 
1.000000000000e-01 0.000000000000e+00 5.500000000000e-01 -4.071562258077e+02 9.995319918579e-01 0.000000000000e+00 -3.098988408150e-05 -2.711013204983e+02 1.070569831858e-02 -4.067343263197e+02 -2.711342587272e+02 3.547193880857e-08 2.305842714772e-08 -1.460308420227e-04 0.000000000000e+00 
1.000000000000e-01 0.000000000000e+00 6.000000000000e-01 -4.890104166441e+02 9.994379040721e-01 0.000000000000e+00 -3.902484081624e-05 -3.256282465307e+02 -3.661984911159e-03 -4.885042307842e+02 -3.256529909260e+02 2.664781029557e-08 -7.887352116343e-09 -1.753782583089e-04 0.000000000000e+00 
1.000000000000e-01 0.000000000000e+00 6.500000000000e-01 -5.862563428258e+02 9.993261241647e-01 0.000000000000e+00 -4.866483360340e-05 -3.903651503124e+02 -1.031964866831e-02 -5.856009385545e+02 -3.903864355467e+02 2.292256006867e-08 -2.222693559329e-08 -2.102310032391e-04 0.000000000000e+00 
1.000000000000e-01 0.000000000000e+00 7.000000000000e-01 -7.019676982052e+02 9.991931190600e-01 0.000000000000e+00 -6.021180027785e-05 -4.674419773158e+02 -5.722033446050e-03 -7.010870117426e+02 -4.674115956233e+02 -3.271874568982e-08 -1.232437972995e-08 -2.516504481284e-04 0.000000000000e+00 
1.000000000000e-01 0.000000000000e+00 7.500000000000e-01 -8.398066884383e+02 9.990346792139e-01 0.000000000000e+00 -7.402868718538e-05 -5.591276233594e+02 8.586894763631e-03 -8.386185001307e+02 -5.590984493960e+02 -3.141811434714e-08 1.849485026013e-08 -3.010215930989e-04 0.000000000000e+00 
1.000000000000e-01 0.000000000000e+00 8.000000000000e-01 -1.004142899494e+03 9.988457819801e-01 0.000000000000e+00 -9.055204245368e-05 -6.684847140271e+02 1.866053620709e-02 -1.002647388846e+03 -6.684528411493e+02 -3.432463769586e-08 4.019192413835e-08 -3.599018205965e-04 0.000000000000e+00 
1.000000000000e-01 0.000000000000e+00 8.500000000000e-01 -1.200196054879e+03 9.986204275161e-01 0.000000000000e+00 -1.103044163366e-04 -7.987892188774e+02 1.547347295627e-02 -1.198286479083e+03 -7.988302791842e+02 4.421879196981e-08 3.332748021351e-08 -4.301835998911e-04 0.000000000000e+00 
1.000000000000e-01 0.000000000000e+00 9.000000000000e-01 -1.434207877468e+03 9.983514412367e-01 0.000000000000e+00 -1.339084442414e-04 -9.544352345096e+02 -3.758093687017e-03 -1.431730841016e+03 -9.544664302101e+02 3.359536981637e-08 -8.094355633574e-09 -5.139770577907e-04 0.000000000000e+00 
1.000000000000e-01 0.000000000000e+00 9.500000000000e-01 -1.713627826095e+03 9.980302603172e-01 0.000000000000e+00 -1.621061053660e-04 -1.140082216940e+03 -1.833611599886e-02 -1.710191727129e+03 -1.140109577628e+03 2.946535568281e-08 -3.949317292062e-08 -6.139346225399e-04 0.000000000000e+00 
1.000000000000e-01 0.000000000000e+00 1.000000000000e+00 -2.102594212636e+03 9.975831605939e-01 0.000000000000e+00 -1.962772899976e-04 -1.398416604463e+03 -1.419940367845e-02 -2.097512002259e+03 -1.398371442689e+03 -4.863575717035e-08 -3.058333099973e-08 -7.529206026137e-04 0.000000000000e+00 
1  22  23  2  
2  23  24  3  
3  24  25  4  
4  25  26  5  
5  26  27  6  
6  27  28  7  
7  28  29  8  
8  29  30  9  
9  30  31  10  
10  31  32  11  
11  32  33  12  
12  33  34  13  
13  34  35  14  
14  35  36  15  
15  36  37  16  
16  37  38  17  
17  38  39  18  
18  39  40  19  
19  40  41  20  
20  41  42  21  
VARIABLES  = "X","Y","Z", "PRESSURE1", "SATURATION1", "DISPLACEMENT_X1", "DISPLACEMENT_Y1", "STRESS_XX", "STRESS_XY", "STRESS_YY", "STRESS_ZZ", "STRAIN_XX", "STRAIN_XY", "STRAIN_YY", "STRAIN_PLS"
ZONE T="2.000000000000e+00s", N=42, E=20, F=FEPOINT, ET=QUADRILATERAL
STRANDID=1, SOLUTIONTIME=2.000000000000e+00
0.000000000000e+00 0.000000000000e+00 0.000000000000e+00 0.000000000000e+00 1.000000000000e+00 0.000000000000e+00 0.000000000000e+00 2.007021480779e-01 -6.084820913809e-05 3.349195644686e-01 2.142486850186e-01 -1.458857824385e-08 -1.310576812205e-10 1.299532547923e-07 0.000000000000e+00 
0.000000000000e+00 0.000000000000e+00 5.000000000000e-02 -5.534205529972e+01 9.999363867458e-01 0.000000000000e+00 -4.905593639304e-07 -3.669379730869e+01 -4.909311693405e-03 -5.502850263189e+01 -3.668891997623e+01 -5.252511880024e-09 -1.057390210887e-08 -1.975031978301e-05 0.000000000000e+00 
0.000000000000e+00 0.000000000000e+00 1.000000000000e-01 -1.117044313422e+02 9.998716006779e-01 0.000000000000e+00 -1.984219377017e-06 -7.425688114314e+01 -4.489971095422e-03 -1.114008283037e+02 -7.426308377875e+01 6.679761429204e-09 -9.670706974755e-09 -3.999449410383e-05 0.000000000000e+00 
0.000000000000e+00 0.000000000000e+00 1.500000000000e-01 -1.701801010951e+02 9.998043854720e-01 0.000000000000e+00 -4.508702544017e-06 -1.132336669027e+02 -8.753491618401e-04 -1.698716848781e+02 -1.132421407123e+02 9.125641124301e-09 -1.885367425502e-09 -6.098566294777e-05 0.000000000000e+00 
0.000000000000e+00 0.000000000000e+00 2.000000000000e-01 -2.318862049300e+02 9.997334570245e-01 0.000000000000e+00 -8.111345803750e-06 -1.543600883949e+02 1.747191185472e-03 -2.315476832409e+02 -1.543631086543e+02 3.252587065054e-09 3.763181014863e-09 -8.312184955477e-05 0.000000000000e+00 
0.000000000000e+00 0.000000000000e+00 2.500000000000e-01 -2.979763595039e+02 9.996574893037e-01 0.000000000000e+00 -1.286016322122e-05 -1.984108163422e+02 1.897899990819e-03 -2.976082003422e+02 -1.984076066738e+02 -3.456566046976e-09 4.087784595610e-09 -1.068314085660e-04 0.000000000000e+00 
0.000000000000e+00 0.000000000000e+00 3.000000000000e-01 -3.696521200665e+02 9.995751011750e-01 0.000000000000e+00 -1.884459139097e-05 -2.461674153067e+02 3.698623716182e-05 -3.692403254695e+02 -2.461630963105e+02 -4.651226739502e-09 7.966266465622e-11 -1.325447083251e-04 0.000000000000e+00 
0.000000000000e+00 0.000000000000e+00 3.500000000000e-01 -4.481731699771e+02 9.994848446878e-01 0.000000000000e+00 -2.617631650167e-05 -2.984797474678e+02 -4.596306595862e-04 -4.477239133977e+02 -2.984814643462e+02 1.848945944623e-09 -9.899737283394e-10 -1.607226374401e-04 0.000000000000e+00 
0.000000000000e+00 0.000000000000e+00 4.000000000000e-01 -5.348656826769e+02 9.993851954642e-01 0.000000000000e+00 -3.498967250331e-05 -3.562214553940e+02 -3.892883540182e-04 -5.343330516884e+02 -3.562218028329e+02 3.741650520892e-10 -8.384672240392e-10 -1.918121141520e-04 0.000000000000e+00 
0.000000000000e+00 0.000000000000e+00 4.500000000000e-01 -6.311281262273e+02 9.992745460267e-01 0.000000000000e+00 -4.544327310860e-05 -4.203257043590e+02 5.508102059410e-05 -6.304925820012e+02 -4.203273145441e+02 1.734045442919e-09 1.186360443565e-10 -2.263318264923e-04 0.000000000000e+00 
0.000000000000e+00 0.000000000000e+00 5.000000000000e-01 -7.384335488535e+02 9.991512031713e-01 0.000000000000e+00 -5.772122139690e-05 -4.917690331491e+02 -1.317715447797e-03 -7.376350866898e+02 -4.917616479356e+02 -7.953306915066e-09 -2.838156349102e-09 -2.647867801968e-04 0.000000000000e+00 
0.000000000000e+00 0.000000000000e+00 5.500000000000e-01 -8.583270825981e+02 9.990133908369e-01 0.000000000000e+00 -7.203510483851e-05 -5.715610172444e+02 -2.303508158788e-03 -8.573461221431e+02 -5.715628557550e+02 1.979934521751e-09 -4.961402188160e-09 -3.077665945718e-04 0.000000000000e+00 
0.000000000000e+00 0.000000000000e+00 6.000000000000e-01 -9.924170141845e+02 9.988592603686e-01 0.000000000000e+00 -8.862437838903e-05 -6.607828756605e+02 -1.970829502348e-03 -9.911718554516e+02 -6.607818924448e+02 -1.058847653504e-09 -4.244863543519e-09 -3.558045755457e-04 0.000000000000e+00 
0.000000000000e+00 0.000000000000e+00 6.500000000000e-01 -1.142357275674e+03 9.986869106444e-01 0.000000000000e+00 -1.077575507985e-04 -7.605058911217e+02 4.682132734569e-04 -1.140787971298e+03 -7.605175449679e+02 1.255029587748e-08 1.008459358215e-09 -4.095219975863e-04 0.000000000000e+00 