 TITLE = "Profiles along polylines"
 VARIABLES = "DIST" "PRESSURE1" "SATURATION1" "DISPLACEMENT_X1" "DISPLACEMENT_Y1" "STRESS_XX" "STRESS_XY" "STRESS_YY" "STRESS_ZZ" "STRAIN_XX" "STRAIN_XY" "STRAIN_YY" "STRAIN_PLS"  p_(1st_Invariant)  q_(2nd_Invariant)   Effective_Strain
 ZONE T="TIME=0.000000000000e+00"
0.000000000000e+00 0.000000000000e+00 1.000000000000e+00 0.000000000000e+00 0.000000000000e+00 0.000000000000e+00 0.000000000000e+00 0.000000000000e+00 0.000000000000e+00 0.000000000000e+00 0.000000000000e+00 0.000000000000e+00 0.000000000000e+00 -0.000000000000e+00 0.000000000000e+00  0.000000000000e+00
5.000000000000e-02 0.000000000000e+00 1.000000000000e+00 0.000000000000e+00 0.000000000000e+00 0.000000000000e+00 0.000000000000e+00 0.000000000000e+00 0.000000000000e+00 0.000000000000e+00 0.000000000000e+00 0.000000000000e+00 0.000000000000e+00 -0.000000000000e+00 0.000000000000e+00  0.000000000000e+00
1.000000000000e-01 0.000000000000e+00 1.000000000000e+00 0.000000000000e+00 0.000000000000e+00 0.000000000000e+00 0.000000000000e+00 0.000000000000e+00 0.000000000000e+00 0.000000000000e+00 0.000000000000e+00 0.000000000000e+00 0.000000000000e+00 -0.000000000000e+00 0.000000000000e+00  0.000000000000e+00
1.500000000000e-01 0.000000000000e+00 1.000000000000e+00 0.000000000000e+00 0.000000000000e+00 0.000000000000e+00 0.000000000000e+00 0.000000000000e+00 0.000000000000e+00 0.000000000000e+00 0.000000000000e+00 0.000000000000e+00 0.000000000000e+00 -0.000000000000e+00 0.000000000000e+00  0.000000000000e+00
2.000000000000e-01 0.000000000000e+00 1.000000000000e+00 0.000000000000e+00 0.000000000000e+00 0.000000000000e+00 0.000000000000e+00 0.000000000000e+00 0.000000000000e+00 0.000000000000e+00 0.000000000000e+00 0.000000000000e+00 0.000000000000e+00 -0.000000000000e+00 0.000000000000e+00  0.000000000000e+00
2.500000000000e-01 0.000000000000e+00 1.000000000000e+00 0.000000000000e+00 0.000000000000e+00 0.000000000000e+00 0.000000000000e+00 0.000000000000e+00 0.000000000000e+00 0.000000000000e+00 0.000000000000e+00 0.000000000000e+00 0.000000000000e+00 -0.000000000000e+00 0.000000000000e+00  0.000000000000e+00
3.000000000000e-01 0.000000000000e+00 1.000000000000e+00 0.000000000000e+00 0.000000000000e+00 0.000000000000e+00 0.000000000000e+00 0.000000000000e+00 0.000000000000e+00 0.000000000000e+00 0.000000000000e+00 0.000000000000e+00 0.000000000000e+00 -0.000000000000e+00 0.000000000000e+00  0.000000000000e+00
3.500000000000e-01 0.000000000000e+00 1.000000000000e+00 0.000000000000e+00 0.000000000000e+00 0.000000000000e+00 0.000000000000e+00 0.000000000000e+00 0.000000000000e+00 0.000000000000e+00 0.000000000000e+00 0.000000000000e+00 0.000000000000e+00 -0.000000000000e+00 0.000000000000e+00  0.000000000000e+00
4.000000000000e-01 0.000000000000e+00 1.000000000000e+00 0.000000000000e+00 0.000000000000e+00 0.000000000000e+00 0.000000000000e+00 0.000000000000e+00 0.000000000000e+00 0.000000000000e+00 0.000000000000e+00 0.000000000000e+00 0.000000000000e+00 -0.000000000000e+00 0.000000000000e+00  0.000000000000e+00
4.500000000000e-01 0.000000000000e+00 1.000000000000e+00 0.000000000000e+00 0.000000000000e+00 0.000000000000e+00 0.000000000000e+00 0.000000000000e+00 0.000000000000e+00 0.000000000000e+00 0.000000000000e+00 0.000000000000e+00 0.000000000000e+00 -0.000000000000e+00 0.000000000000e+00  0.000000000000e+00
5.000000000000e-01 0.000000000000e+00 1.000000000000e+00 0.000000000000e+00 0.000000000000e+00 0.000000000000e+00 0.000000000000e+00 0.000000000000e+00 0.000000000000e+00 0.000000000000e+00 0.000000000000e+00 0.000000000000e+00 0.000000000000e+00 -0.000000000000e+00 0.000000000000e+00  0.000000000000e+00
5.500000000000e-01 0.000000000000e+00 1.000000000000e+00 0.000000000000e+00 0.000000000000e+00 0.000000000000e+00 0.000000000000e+00 0.000000000000e+00 0.000000000000e+00 0.000000000000e+00 0.000000000000e+00 0.000000000000e+00 0.000000000000e+00 -0.000000000000e+00 0.000000000000e+00  0.000000000000e+00
6.000000000000e-01 0.000000000000e+00 1.000000000000e+00 0.000000000000e+00 0.000000000000e+00 0.000000000000e+00 0.000000000000e+00 0.000000000000e+00 0.000000000000e+00 0.000000000000e+00 0.000000000000e+00 0.000000000000e+00 0.000000000000e+00 -0.000000000000e+00 0.000000000000e+00  0.000000000000e+00
6.500000000000e-01 0.000000000000e+00 1.000000000000e+00 0.000000000000e+00 0.000000000000e+00 0.000000000000e+00 0.000000000000e+00 0.000000000000e+00 0.000000000000e+00 0.000000000000e+00 0.000000000000e+00 0.000000000000e+00 0.000000000000e+00 -0.000000000000e+00 0.000000000000e+00  0.000000000000e+00
7.000000000000e-01 0.000000000000e+00 1.000000000000e+00 0.000000000000e+00 0.000000000000e+00 0.000000000000e+00 0.000000000000e+00 0.000000000000e+00 0.000000000000e+00 0.000000000000e+00 0.000000000000e+00 0.000000000000e+00 0.000000000000e+00 -0.000000000000e+00 0.000000000000e+00  0.000000000000e+00
7.500000000000e-01 0.000000000000e+00 1.000000000000e+00 0.000000000000e+00 0.000000000000e+00 0.000000000000e+00 0.000000000000e+00 0.000000000000e+00 0.000000000000e+00 0.000000000000e+00 0.000000000000e+00 0.000000000000e+00 0.000000000000e+00 -0.000000000000e+00 0.000000000000e+00  0.000000000000e+00
8.000000000000e-01 0.000000000000e+00 1.000000000000e+00 0.000000000000e+00 0.000000000000e+00 0.000000000000e+00 0.000000000000e+00 0.000000000000e+00 0.000000000000e+00 0.000000000000e+00 0.000000000000e+00 0.000000000000e+00 0.000000000000e+00 -0.000000000000e+00 0.000000000000e+00  0.000000000000e+00
8.500000000000e-01 0.000000000000e+00 1.000000000000e+00 0.000000000000e+00 0.000000000000e+00 0.000000000000e+00 0.000000000000e+00 0.000000000000e+00 0.000000000000e+00 0.000000000000e+00 0.000000000000e+00 0.000000000000e+00 0.000000000000e+00 -0.000000000000e+00 0.000000000000e+00  0.000000000000e+00
9.000000000000e-01 0.000000000000e+00 1.000000000000e+00 0.000000000000e+00 0.000000000000e+00 0.000000000000e+00 0.000000000000e+00 0.000000000000e+00 0.000000000000e+00 0.000000000000e+00 0.000000000000e+00 0.000000000000e+00 0.000000000000e+00 -0.000000000000e+00 0.000000000000e+00  0.000000000000e+00
9.500000000000e-01 0.000000000000e+00 1.000000000000e+00 0.000000000000e+00 0.000000000000e+00 0.000000000000e+00 0.000000000000e+00 0.000000000000e+00 0.000000000000e+00 0.000000000000e+00 0.000000000000e+00 0.000000000000e+00 0.000000000000e+00 -0.000000000000e+00 0.000000000000e+00  0.000000000000e+00
1.000000000000e+00 0.000000000000e+00 1.000000000000e+00 0.000000000000e+00 0.000000000000e+00 0.000000000000e+00 0.000000000000e+00 0.000000000000e+00 0.000000000000e+00 0.000000000000e+00 0.000000000000e+00 0.000000000000e+00 0.000000000000e+00 -0.000000000000e+00 0.000000000000e+00  0.000000000000e+00
 TITLE = "Profiles along polylines"
 VARIABLES = "DIST" "PRESSURE1" "SATURATION1" "DISPLACEMENT_X1" "DISPLACEMENT_Y1" "STRESS_XX" "STRESS_XY" "STRESS_YY" "STRESS_ZZ" "STRAIN_XX" "STRAIN_XY" "STRAIN_YY" "STRAIN_PLS"  p_(1st_Invariant)  q_(2nd_Invariant)   Effective_Strain
 ZONE T="TIME=1.000000000000e+00"
0.000000000000e+00 0.000000000000e+00 1.000000000000e+00 0.000000000000e+00 0.000000000000e+00 2.468029805237e-01 1.624876202616e-03 3.629519957289e-01 2.439019905010e-01 3.124143101313e-09 3.499733359480e-09 1.282076979377e-07 0.000000000000e+00 -2.845523222512e-01 1.176600071329e-01  1.268194751855e-07
5.000000000000e-02 -2.117101693951e+01 9.999756648488e-01 0.000000000000e+00 -1.828033368673e-07 -1.386763372440e+01 1.148072969691e-02 -2.075492940543e+01 -1.384902525194e+01 -2.003989342803e-08 2.472772550104e-08 -7.437127549922e-06 0.000000000000e+00 1.615719612726e+01 6.896647413541e+00  7.427251371056e-06
1.000000000000e-01 -4.297987881952e+01 9.999505965230e-01 0.000000000000e+00 -7.512454673553e-07 -2.847500447399e+01 1.583621586442e-02 -4.265786022418e+01 -2.845314587927e+01 -2.354002508494e-08 3.410877263107e-08 -1.529738467914e-05 0.000000000000e+00 3.319533685914e+01 1.419382417398e+01  1.528574242751e-05
1.500000000000e-01 -6.611582826271e+01 9.999240027685e-01 0.000000000000e+00 -1.722774558154e-06 -4.379809019060e+01 2.269961967239e-02 -6.567301375418e+01 -4.378844157791e+01 -1.039081366428e-08 4.889148852516e-08 -2.356800080521e-05 0.000000000000e+00 5.108651517423e+01 2.187978479079e+01  2.356295928680e-05
2.000000000000e-01 -9.130923276556e+01 9.998950440601e-01 0.000000000000e+00 -3.129615243878e-06 -6.063750511904e+01 2.026989146805e-02 -9.103135421532e+01 -6.066754373375e+01 3.234927737582e-08 4.365822777734e-08 -3.269948821093e-05 0.000000000000e+00 7.077880102270e+01 3.037886121449e+01  3.271576223580e-05
2.500000000000e-01 -1.193546905940e+02 9.998628070420e-01 0.000000000000e+00 -5.014967724617e-06 -7.924972642083e+01 6.698738407527e-03 -1.189498195437e+02 -7.927981838582e+01 3.240673152102e-08 1.442805195467e-08 -4.272153970850e-05 0.000000000000e+00 9.249312145012e+01 3.968505739316e+01  4.273775959541e-05
3.000000000000e-01 -1.511361697616e+02 9.998262756320e-01 0.000000000000e+00 -7.436125536389e-06 -1.005066176077e+02 -7.666586588924e-03 -1.507676914966e+02 -1.005097236417e+02 3.344959707603e-09 -1.651264803768e-08 -5.412396538218e-05 0.000000000000e+00 1.172613442487e+02 5.025952269807e+01  5.412564549607e-05
3.500000000000e-01 -1.876549852156e+02 9.997842988627e-01 0.000000000000e+00 -1.046799561452e-05 -1.247916620709e+02 -5.952656794473e-03 -1.871311006933e+02 -1.247691051057e+02 -2.429211637350e-08 -1.282110694194e-08 -6.715907217131e-05 0.000000000000e+00 1.455639559566e+02 6.235072101770e+01  6.714693308084e-05
4.000000000000e-01 -2.300615143496e+02 9.997355544259e-01 0.000000000000e+00 -1.420674268861e-05 -1.530869626493e+02 1.041011485800e-02 -2.295531025689e+02 -1.530560260873e+02 -3.331629754849e-08 2.242178584800e-08 -8.238146698021e-05 0.000000000000e+00 1.785653637685e+02 7.648161501869e+01  8.236482304073e-05
4.500000000000e-01 -2.796916767882e+02 9.996785067409e-01 0.000000000000e+00 -1.877223219434e-05 -1.861652507877e+02 2.389651843619e-02 -2.792277331233e+02 -1.861571935644e+02 -8.677009704169e-09 5.146942432409e-08 -1.002298118327e-04 0.000000000000e+00 2.171833924918e+02 9.306652041264e+01  1.002255132566e-04
5.000000000000e-01 -3.381093661419e+02 9.996113581809e-01 0.000000000000e+00 -2.430867218124e-05 -2.251110511278e+02 2.309408416878e-02 -3.376790704984e+02 -2.251160486505e+02 5.381947545525e-09 4.974110436352e-08 -1.212217158363e-04 0.000000000000e+00 2.626353900922e+02 1.125655277995e+02  1.212244375145e-04
5.500000000000e-01 -4.071562258077e+02 9.995319918579e-01 0.000000000000e+00 -3.098988408150e-05 -2.711013204983e+02 1.070569831858e-02 -4.067343263197e+02 -2.711342587272e+02 3.547193880857e-08 2.305842714772e-08 -1.460308420227e-04 0.000000000000e+00 3.163233018484e+02 1.356165409746e+02  1.460485866836e-04
6.000000000000e-01 -4.890104166441e+02 9.994379040721e-01 0.000000000000e+00 -3.902484081624e-05 -3.256282465307e+02 -3.661984911159e-03 -4.885042307842e+02 -3.256529909260e+02 2.664781029557e-08 -7.887352116343e-09 -1.753782583089e-04 0.000000000000e+00 3.799284894136e+02 1.628636135892e+02  1.753915842643e-04
6.500000000000e-01 -5.862563428258e+02 9.993261241647e-01 0.000000000000e+00 -4.866483360340e-05 -3.903651503124e+02 -1.031964866831e-02 -5.856009385545e+02 -3.903864355467e+02 2.292256006867e-08 -2.222693559329e-08 -2.102310032391e-04 0.000000000000e+00 4.554508414712e+02 1.952251473134e+02  2.102424689811e-04
7.000000000000e-01 -7.019676982052e+02 9.991931190600e-01 0.000000000000e+00 -6.021180027785e-05 -4.674419773158e+02 -5.722033446050e-03 -7.010870117426e+02 -4.674115956233e+02 -3.271874568982e-08 -1.232437972995e-08 -2.516504481284e-04 0.000000000000e+00 5.453135282272e+02 2.336602269646e+02  2.516340912563e-04
7.500000000000e-01 -8.398066884383e+02 9.990346792139e-01 0.000000000000e+00 -7.402868718538e-05 -5.591276233594e+02 8.586894763631e-03 -8.386185001307e+02 -5.590984493960e+02 -3.141811434714e-08 1.849485026013e-08 -3.010215930989e-04 0.000000000000e+00 6.522815242954e+02 2.795054652906e+02  3.010058869761e-04
8.000000000000e-01 -1.004142899494e+03 9.988457819801e-01 0.000000000000e+00 -9.055204245368e-05 -6.684847140271e+02 1.866053620709e-02 -1.002647388846e+03 -6.684528411493e+02 -3.432463769586e-08 4.019192413835e-08 -3.599018205965e-04 0.000000000000e+00 7.798616480075e+02 3.341786139608e+02  3.598846662383e-04
8.500000000000e-01 -1.200196054879e+03 9.986204275161e-01 0.000000000000e+00 -1.103044163366e-04 -7.987892188774e+02 1.547347295627e-02 -1.198286479083e+03 -7.988302791842e+02 4.421879196981e-08 3.332748021351e-08 -4.301835998911e-04 0.000000000000e+00 9.319686590482e+02 3.994767325340e+02  4.302057148643e-04
9.000000000000e-01 -1.434207877468e+03 9.983514412367e-01 0.000000000000e+00 -1.339084442414e-04 -9.544352345096e+02 -3.758093687017e-03 -1.431730841016e+03 -9.544664302101e+02 3.359536981637e-08 -8.094355633574e-09 -5.139770577907e-04 0.000000000000e+00 1.113544168579e+03 4.772800094649e+02  5.139938564902e-04
9.500000000000e-01 -1.713627826095e+03 9.980302603172e-01 0.000000000000e+00 -1.621061053660e-04 -1.140082216940e+03 -1.833611599886e-02 -1.710191727129e+03 -1.140109577628e+03 2.946535568281e-08 -3.949317292062e-08 -6.139346225399e-04 0.000000000000e+00 1.330127840566e+03 5.700958312221e+02  6.139493595587e-04
1.000000000000e+00 -2.102594212636e+03 9.975831605939e-01 0.000000000000e+00 -1.962772899976e-04 -1.398416604463e+03 -1.419940367845e-02 -2.097512002259e+03 -1.398371442689e+03 -4.863575717035e-08 -3.058333099973e-08 -7.529206026137e-04 0.000000000000e+00 1.631433349804e+03 6.991179802092e+02  7.528962877768e-04
 TITLE = "Profiles along polylines"
 VARIABLES = "DIST" "PRESSURE1" "SATURATION1" "DISPLACEMENT_X1" "DISPLACEMENT_Y1" "STRESS_XX" "STRESS_XY" "STRESS_YY" "STRESS_ZZ" "STRAIN_XX" "STRAIN_XY" "STRAIN_YY" "STRAIN_PLS"  p_(1st_Invariant)  q_(2nd_Invariant)   Effective_Strain
 ZONE T="TIME=5.000000000000e+00"
0.000000000000e+00 0.000000000000e+00 1.000000000000e+00 0.000000000000e+00 0.000000000000e+00 8.254034706238e-02 -3.119060494602e-05 1.209501578475e-01 8.139620196396e-02 1.232156259833e-09 -6.717976449912e-11 4.259656787461e-08 0.000000000000e+00 -9.496223562463e-02 3.899451176588e-02  4.199421049803e-08
5.000000000000e-02 -1.467862125929e+02 9.998312757161e-01 0.000000000000e+00 -1.314984927165e-06 -9.776075372259e+01 -6.381163525606e-04 -1.466440960925e+02 -9.776193992603e+01 1.277449865219e-09 -1.374404451669e-09 -5.264232202542e-05 0.000000000000e+00 1.140555965804e+02 4.888274929148e+01  5.264296081580e-05
1.000000000000e-01 -2.942333580780e+02 9.996617917190e-01 0.000000000000e+00 -5.269569702902e-06 -1.960077912306e+02 -6.343235323315e-04 -2.940091540088e+02 -1.960067780957e+02 -1.091068261715e-09 -1.366235300406e-09 -1.055410202141e-04 0.000000000000e+00 2.286745744450e+02 9.800186935574e+01  1.055404747107e-04
1.500000000000e-01 -4.431185850303e+02 9.994906547105e-01 0.000000000000e+00 -1.188177217584e-05 -2.951867456876e+02 -4.358215833320e-04 -4.427801010667e+02 -2.951867387017e+02 -7.523283039032e-12 -9.386926410229e-10 -1.589466979315e-04 0.000000000000e+00 3.443845284853e+02 1.475933588739e+02  1.589466941782e-04
2.000000000000e-01 -5.942068271926e+02 9.993169854332e-01 0.000000000000e+00 -2.118333846885e-05 -3.957919470919e+02 1.114699053792e-05 -5.936834499413e+02 -3.957901588133e+02 -1.925838513764e-09 2.400890269707e-11 -2.131158519840e-04 0.000000000000e+00 4.617551852822e+02 1.978923969948e+02  2.131148890713e-04
2.500000000000e-01 -7.482447955294e+02 9.991399255756e-01 0.000000000000e+00 -3.321959952418e-05 -4.983333837971e+02 4.294239623191e-04 -7.475006164635e+02 -4.983336001042e+02 2.329461338269e-10 9.249131496103e-10 -2.683337099253e-04 0.000000000000e+00 5.813892001216e+02 2.491671245140e+02  2.683338264033e-04
3.000000000000e-01 -9.059549465598e+02 9.989586447057e-01 0.000000000000e+00 -4.804893841061e-05 -6.032772208389e+02 6.250496393346e-04 -9.049136604389e+02 -6.032763525111e+02 -9.351222095816e-10 1.346260761644e-09 -3.248401777684e-04 0.000000000000e+00 7.038224112630e+02 3.016368737668e+02  3.248397102167e-04
3.500000000000e-01 -1.068029439825e+03 9.987723472168e-01 0.000000000000e+00 -6.574232948353e-05 -7.110876639380e+02 6.694859380845e-04 -1.066633628826e+03 -7.110885171057e+02 9.187959856861e-10 1.441969712797e-09 -3.828947356991e-04 0.000000000000e+00 8.296032699567e+02 3.555455383071e+02  3.828951951060e-04
4.000000000000e-01 -1.235124122916e+03 9.985802792409e-01 0.000000000000e+00 -8.638277760166e-05 -8.221978424113e+02 2.983634511218e-05 -1.233299793783e+03 -8.221990544779e+02 1.305302426452e-09 6.426289716469e-11 -4.427238730982e-04 0.000000000000e+00 9.592322302242e+02 4.111013453401e+02  4.427245257509e-04
4.500000000000e-01 -1.407852615359e+03 9.983817354493e-01 0.000000000000e+00 -1.100643937008e-04 -9.370014008066e+02 -4.329915586146e-04 -1.405504234538e+03 -9.370022541380e+02 9.189722909814e-10 -9.325972031699e-10 -5.045405942774e-04 0.000000000000e+00 1.093169296494e+03 4.685024070673e+02  5.045410537667e-04
5.000000000000e-01 -1.586780603266e+03 9.981760656109e-01 0.000000000000e+00 -1.368918623468e-04 -1.055890986454e+03 -1.068534551458e-03 -1.583839624489e+03 -1.055892244377e+03 1.354686782067e-09 -2.301459033911e-09 -5.685587170437e-04 0.000000000000e+00 1.231874285107e+03 5.279480090781e+02  5.685593944022e-04
5.500000000000e-01 -1.772420505377e+03 9.979626807228e-01 0.000000000000e+00 -1.669791575842e-04 -1.179168986171e+03 -6.395417714793e-04 -1.768747418930e+03 -1.179166562041e+03 -2.610602426430e-09 -1.377474584725e-09 -6.349332304964e-04 0.000000000000e+00 1.375694322381e+03 5.895796448288e+02  6.349319252037e-04
6.000000000000e-01 -1.965226728547e+03 9.977410584644e-01 0.000000000000e+00 -2.004490547851e-04 -1.307172166829e+03 -2.002947381802e-04 -1.960758774999e+03 -1.307172376731e+03 2.260484807674e-10 -4.314040514650e-10 -7.038622750575e-04 0.000000000000e+00 1.525034439520e+03 6.535865032189e+02  7.038623880822e-04
6.500000000000e-01 -2.165591797288e+03 9.975216376021e-01 0.000000000000e+00 -2.374317201419e-04 -1.440120821624e+03 6.631399829905e-04 -2.160173419010e+03 -1.440117696254e+03 -3.365783497368e-09 1.428301501826e-09 -7.754446245069e-04 0.000000000000e+00 1.680137312296e+03 7.200541600772e+02  7.754429416246e-04
7.000000000000e-01 -2.381844928519e+03 9.967802244787e-01 0.000000000000e+00 -2.781245350615e-04 -1.582772658821e+03 6.629115086649e-04 -2.374166252295e+03 -1.582775564447e+03 3.129135130856e-09 1.427809403278e-09 -8.522668946064e-04 0.000000000000e+00 1.846571491854e+03 7.913921406664e+02  8.522684591818e-04
7.500000000000e-01 -2.623554792005e+03 9.959393623206e-01 0.000000000000e+00 -3.228799558065e-04 -1.741913441291e+03 3.760355310861e-04 -2.612866642428e+03 -1.741912033488e+03 -1.516095541460e-09 8.099226823394e-10 -9.379511173208e-04 0.000000000000e+00 2.032230705735e+03 8.709539050403e+02  9.379503592750e-04
8.000000000000e-01 -2.892800408884e+03 9.950032047983e-01 0.000000000000e+00 -3.721601443571e-04 -1.918892656044e+03 -1.877620850802e-04 -2.878347575941e+03 -1.918896092794e+03 3.701115523576e-09 -4.044106447881e-10 -1.033255443389e-03 0.000000000000e+00 2.238712108259e+03 9.594532015267e+02  1.033257293952e-03
8.500000000000e-01 -3.194678437851e+03 9.935748649141e-01 0.000000000000e+00 -4.264772230416e-04 -2.116090660590e+03 -4.573596849850e-04 -3.174129771705e+03 -2.116088172918e+03 -2.679031542701e-09 -9.850823984293e-10 -1.139429414078e-03 0.000000000000e+00 2.468769535071e+03 1.058040354953e+03  1.139428074566e-03
9.000000000000e-01 -3.537932381545e+03 9.918286587363e-01 0.000000000000e+00 -4.864542930696e-04 -2.339349198354e+03 -2.097481135740e-04 -3.509027578614e+03 -2.339350710787e+03 1.628774577796e-09 -4.517651676978e-10 -1.259652011506e-03 0.000000000000e+00 2.729242495918e+03 1.169677624045e+03  1.259652825894e-03
9.500000000000e-01 -3.932130466816e+03 9.894690859526e-01 0.000000000000e+00 -5.528621668351e-04 -2.593811500266e+03 -6.195136753959e-05 -3.890712109666e+03 -2.593809443973e+03 -2.214469302587e-09 -1.334337147007e-10 -1.396664409208e-03 0.000000000000e+00 3.026111017968e+03 1.296901637548e+03  1.396663301975e-03
1.000000000000e+00 -4.388410622511e+03 9.862519346014e-01 0.000000000000e+00 -6.266205714334e-04 -2.885386230234e+03 3.081325347984e-04 -4.328082007965e+03 -2.885387295279e+03 1.146972581960e-09 6.636700749504e-10 -1.553671229046e-03 0.000000000000e+00 3.366285177826e+03 1.442695245209e+03  1.553671802533e-03
 TITLE = "Profiles along polylines"
 VARIABLES = "DIST" "PRESSURE1" "SATURATION1" "DISPLACEMENT_X1" "DISPLACEMENT_Y1" "STRESS_XX" "STRESS_XY" "STRESS_YY" "STRESS_ZZ" "STRAIN_XX" "STRAIN_XY" "STRAIN_YY" "STRAIN_PLS"  p_(1st_Invariant)  q_(2nd_Invariant)   Effective_Strain
 ZONE T="TIME=1.000000000000e+01"
0.000000000000e+00 0.000000000000e+00 1.000000000000e+00 0.000000000000e+00 0.000000000000e+00 3.766227497313e-02 1.759269937286e-05 6.488148641555e-02 4.101750455548e-02 -3.613324165603e-09 3.789196788000e-11 2.569967277240e-08 0.000000000000e+00 -4.785375531472e-02 2.570636617974e-02  2.768383731014e-08
5.000000000000e-02 -2.198276059111e+02 9.997473178527e-01 0.000000000000e+00 -1.971085030235e-06 -1.464746234194e+02 1.343417658870e-03 -2.197080275308e+02 -1.464730603801e+02 -1.683273121831e-09 2.893514957565e-09 -7.886842616232e-05 0.000000000000e+00 1.708852371101e+02 7.323418568054e+01  7.886758469847e-05
1.000000000000e-01 -4.398605071817e+02 9.994943997275e-01 0.000000000000e+00 -7.887839861408e-06 -2.930600688189e+02 1.712117745803e-03 -4.395894358874e+02 -2.930598018825e+02 -2.874699523746e-10 3.687638221729e-09 -1.578011443129e-04 0.000000000000e+00 3.419031021963e+02 1.465295005669e+02  1.578010007074e-04
1.500000000000e-01 -6.604476577990e+02 9.992408445170e-01 0.000000000000e+00 -1.775502823891e-05 -4.399239114543e+02 1.213500410681e-03 -6.598927367731e+02 -4.399266592910e+02 2.959208709415e-09 2.613693192236e-09 -2.368865449808e-04 0.000000000000e+00 5.132477691728e+02 2.199674514234e+02  2.368880246422e-04
2.000000000000e-01 -8.819363401462e+02 9.989862530355e-01 0.000000000000e+00 -3.158376784902e-05 -5.873376476948e+02 -4.449874229712e-04 -8.810134103141e+02 -5.873404232035e+02 2.989009431503e-09 -9.584344494764e-10 -3.162632168883e-04 0.000000000000e+00 6.852304937375e+02 2.936743748757e+02  3.162647114079e-04
2.500000000000e-01 -1.104671288208e+03 9.987302290266e-01 0.000000000000e+00 -4.939110088879e-05 -7.354764826393e+02 -1.836745872594e-03 -1.103223412835e+03 -7.354799581896e+02 3.742900284304e-09 -3.956068033279e-09 -3.960314126947e-04 0.000000000000e+00 8.580599512212e+02 3.677451924463e+02  3.960332842174e-04
3.000000000000e-01 -1.328993931428e+03 9.984723800319e-01 0.000000000000e+00 -7.120031907548e-05 -8.846274240210e+02 -2.914983372461e-03 -1.326940641928e+03 -8.846272263797e+02 -2.128445057403e-10 -6.278425725300e-09 -4.763375244369e-04 0.000000000000e+00 1.032065097443e+03 4.423133167567e+02  4.763374181388e-04
3.500000000000e-01 -1.555241806904e+03 9.982123180677e-01 0.000000000000e+00 -9.704063311476e-05 -1.034945873905e+03 -2.180869937655e-03 -1.552414629344e+03 -1.034944201300e+03 -1.801267050891e-09 -4.697258327257e-09 -5.572758455866e-04 0.000000000000e+00 1.207434901516e+03 5.174695917580e+02  5.572749450146e-04
4.000000000000e-01 -1.783748195385e+03 9.979496600422e-01 0.000000000000e+00 -1.269474081992e-04 -1.186717045972e+03 -7.973729831332e-04 -1.780064214870e+03 -1.186712504337e+03 -4.890991583673e-09 -1.717418732902e-09 -6.389941498051e-04 0.000000000000e+00 1.384497921726e+03 5.933494397304e+02  6.389917043303e-04
4.500000000000e-01 -2.014842047376e+03 9.976920801970e-01 0.000000000000e+00 -1.609620080948e-04 -1.340102400502e+03 1.210170120966e-03 -2.010147443178e+03 -1.340099937472e+03 -2.652494053840e-09 2.606520260541e-09 -7.215896215294e-04 0.000000000000e+00 1.563449927051e+03 6.700462741975e+02  7.215882953002e-04
5.000000000000e-01 -2.248831551634e+03 9.972656137729e-01 0.000000000000e+00 -1.991281840017e-04 -1.495106977158e+03 1.901800088718e-03 -2.242658320285e+03 -1.495106118977e+03 -9.241945741573e-10 4.096184806470e-09 -8.050562167933e-04 0.000000000000e+00 1.744290472140e+03 7.475517722253e+02  8.050557547277e-04
5.500000000000e-01 -2.489256034888e+03 9.964065618842e-01 0.000000000000e+00 -2.415135301105e-04 -1.653513441697e+03 1.556917101839e-03 -2.480277176779e+03 -1.653516247390e+03 3.021515635839e-09 3.353359911654e-09 -8.903579239566e-04 0.000000000000e+00 1.929102288622e+03 8.267623322428e+02  8.903594347372e-04
6.000000000000e-01 -2.740431297084e+03 9.955401967337e-01 0.000000000000e+00 -2.882562764304e-04 -1.818787914080e+03 -1.134465912764e-06 -2.728189008254e+03 -1.818790768934e+03 3.074457733946e-09 -2.443465042876e-12 -9.793519500373e-04 0.000000000000e+00 2.121922563756e+03 9.093996667505e+02  9.793534872698e-04
6.500000000000e-01 -3.003275067142e+03 9.944900151255e-01 0.000000000000e+00 -3.395438115596e-04 -1.991129601658e+03 -1.243314065861e-03 -2.986700003158e+03 -1.991131841926e+03 2.412596722817e-09 -2.677907218778e-09 -1.072150327480e-03 0.000000000000e+00 2.322987148914e+03 9.955692813699e+02  1.072151533791e-03
7.000000000000e-01 -3.280462111144e+03 9.931704653677e-01 0.000000000000e+00 -3.955863592227e-04 -2.172026442309e+03 -1.747763797459e-03 -3.258038138267e+03 -2.172025832231e+03 -6.570078197706e-10 -3.764414332988e-09 -1.169551714193e-03 0.000000000000e+00 2.534030137602e+03 1.086012001002e+03  1.169551385708e-03
7.500000000000e-01 -3.576405981611e+03 9.915969294602e-01 0.000000000000e+00 -4.566511896157e-04 -2.364225354776e+03 -1.108396192422e-03 -3.546333538714e+03 -2.364223557396e+03 -1.935639980567e-09 -2.387314875986e-09 -1.273041518342e-03 0.000000000000e+00 2.758260816962e+03 1.182109082631e+03  1.273040550530e-03
8.000000000000e-01 -3.895162737367e+03 9.897092194648e-01 0.000000000000e+00 -5.230739462198e-04 -2.570048049172e+03 -5.568008714330e-05 -3.855066223083e+03 -2.570045708902e+03 -2.520290644158e-09 -1.199263415394e-10 -1.383868246041e-03 0.000000000000e+00 2.998386660385e+03 1.285019344048e+03  1.383866985897e-03
8.500000000000e-01 -4.241256474829e+03 9.873509714897e-01 0.000000000000e+00 -5.952516807704e-04 -2.791736287563e+03 9.019260812101e-04 -4.187601518809e+03 -2.791735122549e+03 -1.254630823313e-09 1.942610021068e-09 -1.503240734434e-03 0.000000000000e+00 3.257024309640e+03 1.395865813754e+03  1.503240107123e-03
9.000000000000e-01 -4.619910733896e+03 9.844315055534e-01 0.000000000000e+00 -6.736479329843e-04 -3.031989335749e+03 1.313896774630e-03 -4.547983247341e+03 -3.031989033236e+03 -3.257836666815e-10 2.829931514588e-09 -1.632609153651e-03 0.000000000000e+00 3.537320538775e+03 1.515994062850e+03  1.632608990767e-03
9.500000000000e-01 -5.037053941689e+03 9.808200427335e-01 0.000000000000e+00 -7.588004872729e-04 -3.293628317957e+03 1.303060584342e-03 -4.940443769157e+03 -3.293628834845e+03 5.566493524234e-10 2.806592027813e-09 -1.773493006181e-03 0.000000000000e+00 3.842566973986e+03 1.646815192757e+03  1.773493284513e-03
1.000000000000e+00 -5.501186184649e+03 9.759306639983e-01 0.000000000000e+00 -8.513191636966e-04 -3.579181690542e+03 5.761045876017e-04 -5.368777492521e+03 -3.579183673225e+03 2.135197448261e-09 1.240840650219e-09 -1.927254882319e-03 0.000000000000e+00 4.175714285430e+03 1.789594810639e+03  1.927255949920e-03
 TITLE = "Profiles along polylines"
 VARIABLES = "DIST" "PRESSURE1" "SATURATION1" "DISPLACEMENT_X1" "DISPLACEMENT_Y1" "STRESS_XX" "STRESS_XY" "STRESS_YY" "STRESS_ZZ" "STRAIN_XX" "STRAIN_XY" "STRAIN_YY" "STRAIN_PLS"  p_(1st_Invariant)  q_(2nd_Invariant)   Effective_Strain
 ZONE T="TIME=2.000000000000e+01"
0.000000000000e+00 0.000000000000e+00 1.000000000000e+00 0.000000000000e+00 0.000000000000e+00 9.397088873101e-03 2.769891714258e-06 1.413523799981e-02 9.412930749172e-03 -1.706048190826e-11 5.965920615325e-12 5.085561654538e-09 0.000000000000e+00 -1.098175254069e-02 4.730250517423e-03  5.094123802125e-09
5.000000000000e-02 -2.917662307980e+02 9.996646275731e-01 0.000000000000e+00 -2.617268125861e-06 -1.944353278470e+02 1.565526508956e-05 -2.916529245732e+02 -1.944353009681e+02 -2.894653937272e-11 3.371903250058e-11 -1.046959023440e-04 0.000000000000e+00 2.268411844628e+02 9.721761016565e+01  1.046958878707e-04
1.000000000000e-01 -5.835556897015e+02 9.993292284464e-01 0.000000000000e+00 -1.046803508404e-05 -3.887647028978e+02 2.065672669704e-05 -5.831470814169e+02 -3.887647137259e+02 1.166098390928e-11 4.449141134747e-11 -2.093348575134e-04 0.000000000000e+00 4.535588326802e+02 1.943823731050e+02  2.093348633439e-04
1.500000000000e-01 -8.755318201619e+02 9.989936147491e-01 0.000000000000e+00 -2.355065282384e-05 -5.830870681468e+02 2.364595480233e-05 -8.746305364657e+02 -5.830870418450e+02 -2.832499197282e-11 5.092974880502e-11 -3.139699172839e-04 0.000000000000e+00 6.802682154858e+02 2.915434814698e+02  3.139699031214e-04
2.000000000000e-01 -1.167856837442e+03 9.986576000217e-01 0.000000000000e+00 -4.186639396172e-05 -7.775108365920e+02 1.853120726457e-05 -1.166266329403e+03 -7.775108663981e+02 3.209880321775e-11 3.991336949293e-11 -4.186597293901e-04 0.000000000000e+00 9.070960107978e+02 3.887554779081e+02  4.186597454395e-04
2.500000000000e-01 -1.460690920290e+03 9.983210001459e-01 0.000000000000e+00 -6.541941440060e-05 -9.721419872916e+02 1.045258689888e-05 -1.458212953482e+03 -9.721419763096e+02 -1.182675110092e-11 2.251326408990e-11 -5.234610523400e-04 0.000000000000e+00 1.134165639028e+03 4.860709716818e+02  5.234610464266e-04
3.000000000000e-01 -1.754191352348e+03 9.979836343310e-01 0.000000000000e+00 -9.421670570334e-05 -1.167085076187e+03 -8.164386734983e-07 -1.750627718146e+03 -1.167085117733e+03 4.474215230796e-11 -1.758483296765e-12 -6.284304927523e-04 0.000000000000e+00 1.361599304022e+03 5.835426211860e+02  6.284305151234e-04