 TITLE = "Time curves in points"
 VARIABLES = "TIME"  "PRESSURE1"  "SATURATION1"  "DISPLACEMENT_X1"  "DISPLACEMENT_Y1"  "STRESS_XX"  "STRESS_XY"  "STRESS_YY"  "STRESS_ZZ"  "STRAIN_XX"  "STRAIN_XY"  "STRAIN_YY"  "STRAIN_PLS"  p_(1st_Invariant)  q_(2nd_Invariant)   Effective_Strain
 ZONE T="POINT=POINT0"
0.000000000000e+00 0.000000000000e+00 1.000000000000e+00 0.000000000000e+00 0.000000000000e+00 0.000000000000e+00 0.000000000000e+00 0.000000000000e+00 0.000000000000e+00 0.000000000000e+00 0.000000000000e+00 0.000000000000e+00 0.000000000000e+00 -0.000000000000e+00 0.000000000000e+00  0.000000000000e+00
1.000000000000e+00 -2.102594212636e+03 9.975831605939e-01 0.000000000000e+00 -1.962733934392e-04 -1.398328664906e+03 -1.002378218990e-02 -2.097605901796e+03 -1.398373826681e+03 4.863575717035e-08 -2.158968471670e-08 -7.530191578160e-04 0.000000000000e+00 1.631436131128e+03 6.992546573115e+02  7.530434778010e-04
2.000000000000e+00 -2.999353595962e+03 9.945498895068e-01 0.000000000000e+00 -3.455172917768e-04 -1.988670762500e+03 -3.898329510053e-04 -2.983007433146e+03 -1.988671278259e+03 5.554319260174e-10 -8.396402021652e-10 -1.070823551417e-03 0.000000000000e+00 2.320116491302e+03 9.943364127670e+02  1.070823829134e-03
3.000000000000e+00 -3.604603137824e+03 9.914568603293e-01 0.000000000000e+00 -4.664004258179e-04 -2.382538702508e+03 -6.207748890765e-05 -3.573807317268e+03 -2.382538407911e+03 -3.172590546269e-10 -1.337053607242e-10 -1.282904979308e-03 0.000000000000e+00 2.779628142562e+03 1.191268762059e+03  1.282904820679e-03
4.000000000000e+00 -4.041701610015e+03 9.887330194036e-01 0.000000000000e+00 -5.553012780882e-04 -2.664109085367e+03 -7.415703105317e-05 -3.996164294612e+03 -2.664109351992e+03 2.871341518756e-10 -1.597228361145e-10 -1.434520707437e-03 0.000000000000e+00 3.108127577324e+03 1.332055075933e+03  1.434520851005e-03
5.000000000000e+00 -4.388410622511e+03 9.862519346014e-01 0.000000000000e+00 -6.266206580853e-04 -2.885386822370e+03 2.107140734105e-04 -4.328077570941e+03 -2.885385757325e+03 -1.146972581960e-09 4.538456965764e-10 -1.553668106971e-03 0.000000000000e+00 3.366283383545e+03 1.442691281094e+03  1.553667533486e-03
6.000000000000e+00 -4.677125350176e+03 9.839610183803e-01 0.000000000000e+00 -6.850230871554e-04 -3.068072828461e+03 -9.646725743065e-06 -4.602109013733e+03 -3.068072736878e+03 -9.862828351400e-11 -2.077756313891e-11 -1.652039067383e-03 0.000000000000e+00 3.579418193024e+03 1.534036231064e+03  1.652039018069e-03
7.000000000000e+00 -4.924452240886e+03 9.818384431864e-01 0.000000000000e+00 -7.339649948338e-04 -3.223348835557e+03 8.173413466781e-04 -4.835016137031e+03 -3.223345989035e+03 -3.065484966942e-09 1.760427515922e-09 -1.735644774765e-03 0.000000000000e+00 3.760570320541e+03 1.611668724738e+03  1.735643242027e-03
8.000000000000e+00 -5.140410523082e+03 9.798416189461e-01 0.000000000000e+00 -7.783692307103e-04 -3.357858582325e+03 -1.135516857672e-04 -5.036788949026e+03 -3.357859012540e+03 4.633093267085e-10 -2.445728616524e-10 -1.808078393139e-03 0.000000000000e+00 3.917502181297e+03 1.678930151594e+03  1.808078624794e-03
9.000000000000e+00 -5.328462460637e+03 9.778265946546e-01 0.000000000000e+00 -8.162521211945e-04 -3.473545444589e+03 6.963851526068e-04 -5.210312158398e+03 -3.473543041195e+03 -2.588270982997e-09 1.499906482538e-09 -1.870366741603e-03 0.000000000000e+00 4.052466881394e+03 1.736767915507e+03  1.870365447471e-03
1.000000000000e+01 -5.501186184649e+03 9.759306639983e-01 0.000000000000e+00 -8.513193505728e-04 -3.579187435888e+03 5.744012389859e-04 -5.368776197123e+03 -3.579185453204e+03 -2.135197448261e-09 1.237171899354e-09 -1.927251570374e-03 0.000000000000e+00 4.175716362072e+03 1.789589752578e+03  1.927250502777e-03
1.100000000000e+01 -5.658996498446e+03 9.742278002399e-01 0.000000000000e+00 -8.820746022662e-04 -3.675434608093e+03 7.195409586484e-06 -5.513151869096e+03 -3.675434590875e+03 -1.854184443116e-11 1.549780526320e-11 -1.979080145776e-03 0.000000000000e+00 4.288007022688e+03 1.837717269612e+03  1.979080136505e-03
1.200000000000e+01 -5.803295410818e+03 9.726776974643e-01 0.000000000000e+00 -9.108587040845e-04 -3.763157656128e+03 -4.907609594643e-06 -5.644736775879e+03 -3.763157772803e+03 1.256493078575e-10 -1.057023605000e-11 -2.026315849466e-03 0.000000000000e+00 4.390350734937e+03 1.881579061413e+03  2.026315912291e-03
1.300000000000e+01 -5.938090257574e+03 9.712296902502e-01 0.000000000000e+00 -9.376985058511e-04 -3.844834162938e+03 1.454354141665e-04 -5.767250140633e+03 -3.844833721429e+03 -4.754720251459e-10 3.132455074355e-10 -2.070294605297e-03 0.000000000000e+00 4.485639341667e+03 1.922416198450e+03  2.070294367561e-03
1.400000000000e+01 -6.063879632567e+03 9.698784225510e-01 0.000000000000e+00 -9.619984171548e-04 -3.920818446025e+03 2.779920844559e-04 -5.881224443664e+03 -3.920817155876e+03 -1.389391670257e-09 5.987521819049e-10 -2.111207848388e-03 0.000000000000e+00 4.574286681855e+03 1.960406642714e+03  2.111207153692e-03
1.500000000000e+01 -6.181379260781e+03 9.684085510137e-01 0.000000000000e+00 -9.850604427037e-04 -3.990734320083e+03 5.288683643131e-05 -5.986101157431e+03 -3.990734191005e+03 -1.390061876655e-10 1.139101092367e-10 -2.148856733074e-03 0.000000000000e+00 4.655856556173e+03 1.995366901887e+03  2.148856663571e-03
1.600000000000e+01 -6.291829678325e+03 9.669197245292e-01 0.000000000000e+00 -1.006954491106e-03 -4.055796257700e+03 -2.865316366187e-05 -6.083694810339e+03 -4.055796427215e+03 1.825554157171e-10 -6.171450634864e-11 -2.183890566441e-03 0.000000000000e+00 4.731762498418e+03 2.027898467881e+03  2.183890657718e-03
1.700000000000e+01 -6.395909937575e+03 9.655167213879e-01 0.000000000000e+00 -1.027567523050e-03 -4.116905060904e+03 -6.509837115193e-05 -6.175358011575e+03 -4.116905228992e+03 1.810170754887e-10 -1.402118763272e-10 -2.216795304320e-03 0.000000000000e+00 4.803056100490e+03 2.058452866627e+03  2.216795394829e-03
1.800000000000e+01 -6.494268142428e+03 9.641986568911e-01 0.000000000000e+00 -1.047124491471e-03 -4.174510150487e+03 4.314076147561e-05 -6.261764898651e+03 -4.174510019655e+03 -1.408959003441e-10 9.291856317823e-11 -2.247812946611e-03 0.000000000000e+00 4.870261689598e+03 2.087254813580e+03  2.247812876163e-03
1.900000000000e+01 -6.587392041409e+03 9.629755729497e-01 0.000000000000e+00 -1.065680670706e-03 -4.228998720085e+03 4.272578659056e-05 -6.343497726774e+03 -4.228998578744e+03 -1.522141677610e-10 9.202477111812e-11 -2.277152928648e-03 0.000000000000e+00 4.933831675201e+03 2.114499077359e+03  2.277152852541e-03
2.000000000000e+01 -6.675772953908e+03 9.618147831204e-01 0.000000000000e+00 -1.082810584368e-03 -4.280571443768e+03 -7.120554126915e-06 -6.420857254711e+03 -4.280571479392e+03 3.836375887175e-11 -1.533657811951e-11 -2.304923142652e-03 0.000000000000e+00 4.994000059291e+03 2.140285793131e+03  2.304923161834e-03
2.100000000000e+01 -6.759941005158e+03 9.607093247688e-01 0.000000000000e+00 -1.099333010042e-03 -4.329559265318e+03 7.245924555770e-05 -6.494338084882e+03 -4.329558940080e+03 -3.502561033404e-10 1.560660673551e-10 -2.331300617479e-03 0.000000000000e+00 5.051152096760e+03 2.164778982183e+03  2.331300442351e-03
2.200000000000e+01 -6.840157925681e+03 9.596557603413e-01 0.000000000000e+00 -1.115193498834e-03 -4.376133062874e+03 3.109156275079e-04 -6.564196923196e+03 -4.376131994428e+03 -1.150633849492e-09 6.696644284785e-10 -2.356377615597e-03 0.000000000000e+00 5.105487326833e+03 2.188064394546e+03  2.356377040280e-03
2.300000000000e+01 -6.916704891593e+03 9.585313021695e-01 0.000000000000e+00 -1.130278636808e-03 -4.419920551846e+03 3.152410118174e-04 -6.629878157997e+03 -4.419919483937e+03 -1.150055560788e-09 6.789806408376e-10 -2.379955495141e-03 0.000000000000e+00 5.156572731260e+03 2.209958140106e+03  2.379954920114e-03
2.400000000000e+01 -6.989835820229e+03 9.573940361369e-01 0.000000000000e+00 -1.144729866291e-03 -4.461351445800e+03 -3.062627179239e-06 -6.692027209419e+03 -4.461351462088e+03 1.754087327369e-11 -6.596427770668e-12 -2.402266189434e-03 0.000000000000e+00 5.204910039102e+03 2.230675755476e+03  2.402266198205e-03
2.500000000000e+01 -7.059800136258e+03 9.563060150028e-01 0.000000000000e+00 -1.158580133674e-03 -4.500886436477e+03 8.300871246748e-06 -6.751329657979e+03 -4.500886437782e+03 1.405822187617e-12 1.787879960838e-11 -2.423554237135e-03 0.000000000000e+00 5.251034177413e+03 2.250443220849e+03  2.423554237838e-03
2.600000000000e+01 -7.126990485557e+03 9.552611348177e-01 0.000000000000e+00 -1.171895012343e-03 -4.538758037607e+03 -2.462546507177e-06 -6.808137088614e+03 -4.538758050489e+03 1.387210177599e-11 -5.303946323151e-12 -2.443946656443e-03 0.000000000000e+00 5.295217725570e+03 2.269379044566e+03  2.443946663379e-03
2.700000000000e+01 -7.191599809959e+03 9.542563902998e-01 0.000000000000e+00 -1.184710911916e-03 -4.575086619873e+03 -1.715676778461e-05 -6.862629863948e+03 -4.575086593528e+03 -2.837099372169e-11 -3.695303830530e-11 -2.463508137375e-03 0.000000000000e+00 5.337601025783e+03 2.287543257247e+03  2.463508123189e-03
2.800000000000e+01 -7.253760208403e+03 9.532949118910e-01 0.000000000000e+00 -1.197038576405e-03 -4.609981874786e+03 -7.038242426774e-06 -6.914972900879e+03 -4.609981910266e+03 3.820921787837e-11 -1.515929138074e-11 -2.482297989891e-03 0.000000000000e+00 5.378312228644e+03 2.304991008353e+03  2.482298008996e-03
2.900000000000e+01 -7.313603805277e+03 9.523825757118e-01 0.000000000000e+00 -1.208899661632e-03 -4.643565916675e+03 -1.842493217590e-06 -6.965348903319e+03 -4.643565927998e+03 1.219338883200e-11 -3.968446930193e-12 -2.500381665731e-03 0.000000000000e+00 5.417493582664e+03 2.321782980983e+03  2.500381671827e-03
3.000000000000e+01 -7.371252113177e+03 9.515037074666e-01 0.000000000000e+00 -1.220057142942e-03 -4.675849193837e+03 3.635221591278e-06 -7.013773765258e+03 -4.675849183638e+03 -1.098333208742e-11 7.829708042753e-12 -2.517764934053e-03 0.000000000000e+00 5.455157380911e+03 2.337924576521e+03  2.517764928561e-03
3.100000000000e+01 -7.426814990064e+03 9.506566323332e-01 0.000000000000e+00 -1.230894390780e-03 -4.706900901463e+03 4.960967277900e-05 -7.060350861266e+03 -4.706900705092e+03 -2.114772707791e-10 1.068516029086e-10 -2.534484783572e-03 0.000000000000e+00 5.491384155940e+03 2.353450057988e+03  2.534484677833e-03
3.200000000000e+01 -7.480394406615e+03 9.498397957335e-01 0.000000000000e+00 -1.241325994112e-03 -4.736784408719e+03 1.744647314036e-05 -7.105176524401e+03 -4.736784373248e+03 -3.819964918362e-11 3.757701907155e-11 -2.550576162780e-03 0.000000000000e+00 5.526248435456e+03 2.368392133417e+03  2.550576143680e-03
3.300000000000e+01 -7.532106170743e+03 9.490331109232e-01 0.000000000000e+00 -1.251428582222e-03 -4.765478760398e+03 -2.115153140236e-05 -7.148218398317e+03 -4.765478863486e+03 1.110182276306e-10 -4.555714455894e-11 -2.566027191357e-03 0.000000000000e+00 5.559725340734e+03 2.382739586376e+03  2.566027246866e-03
3.400000000000e+01 -7.582089626926e+03 9.481611904125e-01 0.000000000000e+00 -1.261219519860e-03 -4.792695537107e+03 3.395099565127e-05 -7.189042798936e+03 -4.792695334417e+03 -2.182815608675e-10 7.312522140273e-11 -2.580681884866e-03 0.000000000000e+00 5.591477890153e+03 2.396347363174e+03  2.580681775725e-03
3.500000000000e+01 -7.630448449663e+03 9.473176091145e-01 0.000000000000e+00 -1.270711436571e-03 -4.818972829835e+03 1.234363298975e-04 -7.228458163235e+03 -4.818972397228e+03 -4.658847196778e-10 2.658628643946e-10 -2.594830824930e-03 0.000000000000e+00 5.622134463433e+03 2.409485549703e+03  2.594830591988e-03
3.600000000000e+01 -7.677262638271e+03 9.465009725765e-01 0.000000000000e+00 -1.279905793512e-03 -4.844357922340e+03 2.193485156771e-05 -7.266536735982e+03 -4.844357863329e+03 -6.355063543522e-11 4.724429568430e-11 -2.608500324396e-03 0.000000000000e+00 5.651750840550e+03 2.422178843147e+03  2.608500292620e-03
3.700000000000e+01 -7.722619412974e+03 9.457097604833e-01 0.000000000000e+00 -1.288806544340e-03 -4.868904469055e+03 1.168145859226e-05 -7.303356617142e+03 -4.868904434479e+03 -3.723596529196e-11 2.516006466026e-11 -2.621717735176e-03 0.000000000000e+00 5.680388506892e+03 2.434452165375e+03  2.621717716558e-03
3.800000000000e+01 -7.766617601835e+03 9.449422502795e-01 0.000000000000e+00 -1.297430494250e-03 -4.892670101809e+03 -9.600609963858e-06 -7.339005254053e+03 -4.892670142345e+03 4.365394192099e-11 -2.067823684523e-11 -2.634514735686e-03 0.000000000000e+00 5.708115166069e+03 2.446335131976e+03  2.634514757513e-03
3.900000000000e+01 -7.809303106904e+03 9.441976394746e-01 0.000000000000e+00 -1.305790780866e-03 -4.915683702603e+03 -2.971035525026e-05 -7.373525990031e+03 -4.915683877054e+03 1.878695914344e-10 -6.399153438518e-11 -2.646906890899e-03 0.000000000000e+00 5.734964523229e+03 2.457842200202e+03  2.646906984833e-03
4.000000000000e+01 -7.850726630496e+03 9.434750431230e-01 0.000000000000e+00 -1.313890430178e-03 -4.937976263324e+03 -3.441860383045e-05 -7.406964576205e+03 -4.937976335812e+03 7.806343181933e-11 -7.413237748097e-11 -2.658910412731e-03 0.000000000000e+00 5.760972391780e+03 2.468988276637e+03  2.658910451763e-03
4.100000000000e+01 -7.890939571028e+03 9.427735643896e-01 0.000000000000e+00 -1.321749550671e-03 -4.959579627967e+03 5.763753911463e-06 -7.439369431043e+03 -4.959579623604e+03 -4.698721898432e-12 1.241423919392e-11 -2.670542869550e-03 0.000000000000e+00 5.786176227538e+03 2.479789805257e+03  2.670542867200e-03
4.200000000000e+01 -7.929991357369e+03 9.421018193006e-01 0.000000000000e+00 -1.329371825832e-03 -4.980572912198e+03 6.040948532146e-06 -7.470859274303e+03 -4.980572874600e+03 -4.048991630571e-11 1.301127376155e-11 -2.681846891987e-03 0.000000000000e+00 5.810668353701e+03 2.490286380904e+03  2.681846871742e-03
4.300000000000e+01 -7.967929438893e+03 9.414505731926e-01 0.000000000000e+00 -1.336767609402e-03 -5.000941111884e+03 -2.023890592922e-05 -7.501411856942e+03 -5.000941187530e+03 8.146496970425e-11 -4.359148969370e-11 -2.692814567058e-03 0.000000000000e+00 5.834431385452e+03 2.500470707234e+03  2.692814607791e-03
4.400000000000e+01 -8.004807955087e+03 9.408175156110e-01 0.000000000000e+00 -1.343958017151e-03 -5.020708936877e+03 -3.450373469427e-05 -7.531063745589e+03 -5.020709072986e+03 1.465793666228e-10 -7.431573626459e-11 -2.703458878187e-03 0.000000000000e+00 5.857493918484e+03 2.510354740657e+03  2.703458951477e-03
4.500000000000e+01 -8.040679004071e+03 9.402017522381e-01 0.000000000000e+00 -1.350949621148e-03 -5.039907683022e+03 1.208689921215e-04 -7.559860478494e+03 -5.039907264606e+03 -4.506016171705e-10 2.603332138002e-10 -2.713795768802e-03 0.000000000000e+00 5.879891808707e+03 2.519953004679e+03  2.713795543501e-03
4.600000000000e+01 -8.075588880257e+03 9.396024883828e-01 0.000000000000e+00 -1.357753468582e-03 -5.058562284637e+03 -3.537655936293e-07 -7.587843433080e+03 -5.058562287087e+03 2.638099959488e-12 -7.619566632019e-13 -2.723841234147e-03 0.000000000000e+00 5.901656001602e+03 2.529281147218e+03  2.723841235466e-03
4.700000000000e+01 -8.109577920468e+03 9.390141703795e-01 0.000000000000e+00 -1.364375781157e-03 -5.076672609943e+03 3.704916749178e-05 -7.615008595609e+03 -5.076672482221e+03 -1.375470320194e-10 7.979820690537e-11 -2.733592737495e-03 0.000000000000e+00 5.922784562591e+03 2.538336049527e+03  2.733592668722e-03
4.800000000000e+01 -8.142681258458e+03 9.383905295355e-01 0.000000000000e+00 -1.370819145737e-03 -5.094010031383e+03 5.664635761979e-06 -7.641014971242e+03 -5.094010001050e+03 -3.266593091719e-11 1.220075394888e-11 -2.742928429438e-03 0.000000000000e+00 5.943011667892e+03 2.547004955026e+03  2.742928413105e-03
4.900000000000e+01 -8.174930340898e+03 9.377829822414e-01 0.000000000000e+00 -1.377053951695e-03 -5.110873769612e+03 -6.052941319356e-06 -7.666310809879e+03 -5.110873831796e+03 6.696797611821e-11 -1.303710438015e-11 -2.752009053320e-03 0.000000000000e+00 5.962686137096e+03 2.555437009175e+03  2.752009086804e-03
5.000000000000e+01 -8.206362464117e+03 9.371908254677e-01 0.000000000000e+00 -1.383128266858e-03 -5.127285124201e+03 -1.273548696051e-05 -7.690927927647e+03 -5.127285220739e+03 1.039639689985e-10 -2.743027960725e-11 -2.760845992054e-03 0.000000000000e+00 5.981832757529e+03 2.563642755177e+03  2.760846044036e-03
5.100000000000e+01 -8.237008181829e+03 9.366134838749e-01 0.000000000000e+00 -1.389048719483e-03 -5.143261966503e+03 5.056817838110e-08 -7.714892951891e+03 -5.143261967358e+03 9.207492286834e-13 1.089160765128e-13 -2.769448752575e-03 0.000000000000e+00 6.000472295250e+03 2.571630984961e+03  2.769448753035e-03
5.200000000000e+01 -8.266892455761e+03 9.360504874292e-01 0.000000000000e+00 -1.394818962916e-03 -5.158819138108e+03 -3.763709331380e-06 -7.738228742124e+03 -5.158819152093e+03 1.506102483428e-11 -8.106450867587e-12 -2.777825712342e-03 0.000000000000e+00 6.018622344108e+03 2.579409597024e+03  2.777825719872e-03
5.300000000000e+01 -8.296039188826e+03 9.355013858274e-01 0.000000000000e+00 -1.400437719625e-03 -5.173970709543e+03 -1.149549549169e-05 -7.760956099013e+03 -5.173970723422e+03 1.494713488748e-11 -2.475952875134e-11 -2.785984250636e-03 0.000000000000e+00 6.036299177326e+03 2.586985382530e+03  2.785984258110e-03
5.400000000000e+01 -8.324472822782e+03 9.349657186559e-01 0.000000000000e+00 -1.405816908772e-03 -5.188731277941e+03 2.673215784818e-05 -7.783096624245e+03 -5.188731160874e+03 -1.260714963656e-10 5.757695536531e-11 -2.793932037476e-03 0.000000000000e+00 6.053519687687e+03 2.594365404838e+03  2.793931974440e-03
5.500000000000e+01 -8.352214003775e+03 9.344430969420e-01 0.000000000000e+00 -1.411099347956e-03 -5.203112588472e+03 9.371063766073e-06 -7.804668826226e+03 -5.203112565879e+03 -2.433095271123e-11 2.018382965000e-11 -2.801675972681e-03 0.000000000000e+00 6.070297993526e+03 2.601556249050e+03  2.801675960516e-03
5.600000000000e+01 -8.379282833348e+03 9.339331419656e-01 0.000000000000e+00 -1.416266869110e-03 -5.217126734428e+03 1.392571864400e-05 -7.825689986610e+03 -5.217126688415e+03 -4.955257186018e-11 2.999385554091e-11 -2.809222013440e-03 0.000000000000e+00 6.086647803151e+03 2.608563275188e+03  2.809221988664e-03
5.700000000000e+01 -8.405699342639e+03 9.334354763095e-01 0.000000000000e+00 -1.421313574319e-03 -5.230785774013e+03 8.721098224261e-05 -7.846177871254e+03 -5.230785458107e+03 -3.402063816251e-10 1.878390386764e-10 -2.816576444928e-03 0.000000000000e+00 6.102583034458e+03 2.615392255194e+03  2.816576274825e-03
5.800000000000e+01 -8.431483780741e+03 9.329497184346e-01 0.000000000000e+00 -1.426242830290e-03 -5.244100297558e+03 1.540198617911e-06 -7.866150434566e+03 -5.244100292850e+03 -5.070703030950e-12 3.317350869347e-12 -2.823746306464e-03 0.000000000000e+00 6.118117008325e+03 2.622050139362e+03  2.823746303929e-03
5.900000000000e+01 -8.456656902510e+03 9.324754772569e-01 0.000000000000e+00 -1.431058086606e-03 -5.257083468867e+03 7.084452688736e-07 -7.885625198462e+03 -5.257083466932e+03 -2.084249157778e-12 1.525882117574e-12 -2.830737249341e-03 0.000000000000e+00 6.133264044754e+03 2.628541730563e+03  2.830737248298e-03
6.000000000000e+01 -8.481239908541e+03 9.320123555006e-01 0.000000000000e+00 -1.435761323403e-03 -5.269746901334e+03 -1.126661902623e-05 -7.904620458817e+03 -5.269746944060e+03 4.601324535311e-11 -2.426656405651e-11 -2.837556092815e-03 0.000000000000e+00 6.148038101404e+03 2.634873536120e+03  2.837556115822e-03
6.100000000000e+01 -8.505253059902e+03 9.315650491134e-01 0.000000000000e+00 -1.440352895867e-03 -5.282131005243e+03 1.277593993591e-06 -7.923196498227e+03 -5.282131001388e+03 -4.151722853872e-12 2.751740909272e-12 -2.844224381211e-03 0.000000000000e+00 6.162486168286e+03 2.641065494911e+03  2.844224379135e-03
6.200000000000e+01 -8.528716332180e+03 9.311279856311e-01 0.000000000000e+00 -1.444841989948e-03 -5.294217676383e+03 5.243099687588e-06 -7.941326441854e+03 -5.294217647295e+03 -3.132593909940e-11 1.129283009634e-11 -2.850732547987e-03 0.000000000000e+00 6.176587255178e+03 2.647108780015e+03  2.850732532324e-03
6.300000000000e+01 -8.551648891759e+03 9.307008080307e-01 0.000000000000e+00 -1.449231913759e-03 -5.306017751511e+03 1.140945416254e-05 -7.959026491218e+03 -5.306017697091e+03 -5.860558258742e-11 2.457420896546e-11 -2.857086393674e-03 0.000000000000e+00 6.190353979940e+03 2.653008766917e+03  2.857086364372e-03
6.400000000000e+01 -8.574068891526e+03 9.302831781684e-01 0.000000000000e+00 -1.453525213556e-03 -5.317541376703e+03 -1.272334804587e-06 -7.976312080527e+03 -5.317541382892e+03 6.665029149703e-12 -2.740413425265e-12 -2.863291520530e-03 0.000000000000e+00 6.203798280041e+03 2.658770700730e+03  2.863291523863e-03
6.500000000000e+01 -8.595993115828e+03 9.298747833926e-01 0.000000000000e+00 -1.457723334465e-03 -5.328798118364e+03 -1.949288069676e-05 -7.993197403009e+03 -5.328798208549e+03 9.712267067974e-11 -4.198466611609e-11 -2.869352978649e-03 0.000000000000e+00 6.216931243307e+03 2.664399239553e+03  2.869353027210e-03
6.600000000000e+01 -8.617437085420e+03 9.294753345897e-01 0.000000000000e+00 -1.461827726402e-03 -5.339796824655e+03 -1.124237350053e-05 -8.009695417841e+03 -5.339796896999e+03 7.790829499633e-11 -2.421434292421e-11 -2.875275330138e-03 0.000000000000e+00 6.229763046498e+03 2.669898557014e+03  2.875275369093e-03
6.700000000000e+01 -8.638415481312e+03 9.290845582882e-01 0.000000000000e+00 -1.465841920378e-03 -5.350545970681e+03 5.781861558270e-05 -8.025818490270e+03 -5.350545784380e+03 -2.006313101672e-10 1.245324027935e-10 -2.881062914035e-03 0.000000000000e+00 6.242303415110e+03 2.675272612739e+03  2.881062813719e-03
6.800000000000e+01 -8.658942175006e+03 9.286611053454e-01 0.000000000000e+00 -1.469763266440e-03 -5.360815339271e+03 1.849791316172e-05 -8.041222864371e+03 -5.360815281457e+03 -6.226115448825e-11 3.984165911754e-11 -2.886592781600e-03 0.000000000000e+00 6.254284495033e+03 2.680407554008e+03  2.886592750470e-03
6.900000000000e+01 -8.679032502141e+03 9.282322361316e-01 0.000000000000e+00 -1.473598712821e-03 -5.370771826015e+03 -7.487824534430e-06 -8.056157818491e+03 -5.370771857802e+03 3.423279483889e-11 -1.612762207416e-11 -2.891954111511e-03 0.000000000000e+00 6.265900500769e+03 2.685385976582e+03  2.891954128627e-03
7.000000000000e+01 -8.698699868707e+03 9.278123957891e-01 0.000000000000e+00 -1.477351773717e-03 -5.380507841191e+03 1.787840978683e-05 -8.070761618637e+03 -5.380507783931e+03 -6.166430807364e-11 3.850734415625e-11 -2.897196437375e-03 0.000000000000e+00 6.277259081253e+03 2.690253806076e+03  2.897196406543e-03
7.100000000000e+01 -8.717956283684e+03 9.274013280486e-01 0.000000000000e+00 -1.481023053418e-03 -5.390029767447e+03 4.796575914567e-05 -8.085044223932e+03 -5.390029596552e+03 -1.840409071267e-10 1.033108658522e-10 -2.902323444871e-03 0.000000000000e+00 6.288367862643e+03 2.695014541933e+03  2.902323352851e-03
7.200000000000e+01 -8.736812874171e+03 9.269987954217e-01 0.000000000000e+00 -1.484614419881e-03 -5.399343591524e+03 4.128456167774e-05 -8.099015041395e+03 -5.399343453167e+03 -1.489992176927e-10 8.892059438282e-11 -2.907338633475e-03 0.000000000000e+00 6.299234028695e+03 2.699671519049e+03  2.907338558976e-03
7.300000000000e+01 -8.755280149876e+03 9.266045735771e-01 0.000000000000e+00 -1.488127477850e-03 -5.408455289356e+03 3.047631967724e-05 -8.112682666457e+03 -5.408455182325e+03 -1.152637494145e-10 6.564130392020e-11 -2.912244982911e-03 0.000000000000e+00 6.309864379380e+03 2.704227430617e+03  2.912244925280e-03
7.400000000000e+01 -8.773368175938e+03 9.262184476593e-01 0.000000000000e+00 -1.491565184861e-03 -5.417370311690e+03 1.332186594364e-07 -8.126055467024e+03 -5.417370311486e+03 -2.202297058083e-13 2.869324972474e-13 -2.917045552118e-03 0.000000000000e+00 6.320265363400e+03 2.708685155436e+03  2.917045552008e-03
7.500000000000e+01 -8.791086924468e+03 9.258402047660e-01 0.000000000000e+00 -1.494929221645e-03 -5.426094514161e+03 -4.080176661816e-06 -8.139141874569e+03 -5.426094555492e+03 4.451014612024e-11 -8.788072810066e-12 -2.921743266698e-03 0.000000000000e+00 6.330443648074e+03 2.713047339742e+03  2.921743288953e-03
7.600000000000e+01 -8.808445866670e+03 9.254696427287e-01 0.000000000000e+00 -1.498221551701e-03 -5.434632823738e+03 -7.565460667376e-06 -8.151949327499e+03 -5.434632860495e+03 3.958454072142e-11 -1.629483836050e-11 -2.926340810620e-03 0.000000000000e+00 6.340405003911e+03 2.717316485383e+03  2.926340830412e-03
7.700000000000e+01 -8.825454106797e+03 9.251065672012e-01 0.000000000000e+00 -1.501445277618e-03 -5.442990390705e+03 -3.226216728728e-07 -8.164485603465e+03 -5.442990397668e+03 7.498285279772e-12 -6.948774492648e-13 -2.930840990858e-03 0.000000000000e+00 6.350155463946e+03 2.721495209278e+03  2.930840994607e-03
7.800000000000e+01 -8.842121962818e+03 9.247507580117e-01 0.000000000000e+00 -1.504602349392e-03 -5.451172753011e+03 1.194263588236e-05 -8.176759038614e+03 -5.451172716650e+03 -3.915797137273e-11 2.572260036200e-11 -2.935246808269e-03 0.000000000000e+00 6.359701502758e+03 2.725586303783e+03  2.935246788690e-03
7.900000000000e+01 -8.858458321856e+03 9.244020254470e-01 0.000000000000e+00 -1.507691964954e-03 -5.459184640691e+03 1.257954698672e-05 -8.188776861497e+03 -5.459184600875e+03 -4.287824367314e-11 2.709440889447e-11 -2.939560896055e-03 0.000000000000e+00 6.369048701021e+03 2.729592240714e+03  2.939560874616e-03
8.000000000000e+01 -8.874470903605e+03 9.240602046510e-01 0.000000000000e+00 -1.510718072481e-03 -5.467030277676e+03 1.056940979677e-06 -8.200545408146e+03 -5.467030274329e+03 -3.604497302168e-12 2.276488263919e-12 -2.943785528726e-03 0.000000000000e+00 6.378201986717e+03 2.733515132144e+03  2.943785526924e-03
8.100000000000e+01 -8.890167438538e+03 9.237251305724e-01 0.000000000000e+00 -1.513682725196e-03 -5.474714140708e+03 1.107008547288e-05 -8.212071127011e+03 -5.474714107087e+03 -3.620662367371e-11 2.384326101852e-11 -2.947922944533e-03 0.000000000000e+00 6.387166458269e+03 2.737357003113e+03  2.947922926429e-03
8.200000000000e+01 -8.905555528012e+03 9.233966409312e-01 0.000000000000e+00 -1.516586796872e-03 -5.482240026166e+03 -8.357584691139e-06 -8.223360136394e+03 -5.482240065024e+03 4.184704474371e-11 -1.800095164245e-11 -2.951975461475e-03 0.000000000000e+00 6.395946742528e+03 2.741120090799e+03  2.951975482399e-03
8.300000000000e+01 -8.920642595840e+03 9.230745772441e-01 0.000000000000e+00 -1.519431229920e-03 -5.489612583270e+03 5.632708480987e-05 -8.234418398749e+03 -5.489612392808e+03 -2.051137131278e-10 1.213198749751e-10 -2.955944929475e-03 0.000000000000e+00 6.404547791609e+03 2.744805910710e+03  2.955944826918e-03
8.400000000000e+01 -8.935435875052e+03 9.227587851016e-01 0.000000000000e+00 -1.522218759406e-03 -5.496834618991e+03 -7.129474974817e-06 -8.245251995934e+03 -5.496834645970e+03 2.905430360115e-11 -1.535579225345e-11 -2.959834069192e-03 0.000000000000e+00 6.412973753632e+03 2.748417363454e+03  2.959834083719e-03
8.500000000000e+01 -8.949942615451e+03 9.224491097156e-01 0.000000000000e+00 -1.524950867945e-03 -5.503911164131e+03 1.357719228250e-05 -8.255866637786e+03 -5.503911120767e+03 -4.669957536648e-11 2.924318337769e-11 -2.963644402944e-03 0.000000000000e+00 6.421229640895e+03 2.751955495338e+03  2.963644379594e-03
8.600000000000e+01 -8.964169869607e+03 9.221454005310e-01 0.000000000000e+00 -1.527627642422e-03 -5.510845385993e+03 6.511885800548e-06 -8.266268023921e+03 -5.510845363966e+03 -2.372152197119e-11 1.402560018580e-11 -2.967378249183e-03 0.000000000000e+00 6.429319591293e+03 2.755422648942e+03  2.967378237322e-03
8.700000000000e+01 -8.978124404233e+03 9.218475131044e-01 0.000000000000e+00 -1.530250238947e-03 -5.517641310373e+03 3.889602823065e-05 -8.276461619845e+03 -5.517641172087e+03 -1.489233641216e-10 8.377606080448e-11 -2.971037405277e-03 0.000000000000e+00 6.437248034102e+03 2.758820378615e+03  2.971037330816e-03
8.800000000000e+01 -8.991812791250e+03 9.215553071428e-01 0.000000000000e+00 -1.532821698163e-03 -5.524301863774e+03 -5.415421187972e-06 -8.286452857084e+03 -5.524301888343e+03 2.645952511443e-11 -1.166398409717e-11 -2.974624120183e-03 0.000000000000e+00 6.445018869734e+03 2.762150981026e+03  2.974624133413e-03
8.900000000000e+01 -9.005241356157e+03 9.212686476195e-01 0.000000000000e+00 -1.535343281243e-03 -5.530831000846e+03 -1.002016406125e-05 -8.296246600432e+03 -5.530831040511e+03 4.271622123934e-11 -2.158189182424e-11 -2.978139833761e-03 0.000000000000e+00 6.452636213930e+03 2.765415579753e+03  2.978139855119e-03
9.000000000000e+01 -9.018416198691e+03 9.209874043260e-01 0.000000000000e+00 -1.537816106531e-03 -5.537231896956e+03 1.197288267516e-05 -8.305847742710e+03 -5.537231855866e+03 -4.425010085598e-11 2.578774730034e-11 -2.981586339678e-03 0.000000000000e+00 6.460103831844e+03 2.768615866299e+03  2.981586317553e-03
9.100000000000e+01 -9.031343166624e+03 9.207151493394e-01 0.000000000000e+00 -1.540239473601e-03 -5.543529655209e+03 4.728112539815e-07 -8.315294479138e+03 -5.543529653739e+03 -1.583624194024e-12 1.018362700883e-12 -2.984977504276e-03 0.000000000000e+00 6.467451262695e+03 2.771764824664e+03  2.984977503484e-03
9.200000000000e+01 -9.044027998213e+03 9.204487295648e-01 0.000000000000e+00 -1.542616054650e-03 -5.549709389553e+03 -7.178791425362e-07 -8.324564092956e+03 -5.549709393004e+03 3.716430526585e-12 -1.546201230078e-12 -2.988305061488e-03 0.000000000000e+00 6.474660958504e+03 2.774854701678e+03  2.988305063346e-03
9.300000000000e+01 -9.056476244917e+03 9.201872787874e-01 0.000000000000e+00 -1.544947319611e-03 -5.555769571662e+03 2.170446805976e-05 -8.333654101735e+03 -5.555769469359e+03 -1.101727293265e-10 4.674808505178e-11 -2.991568065636e-03 0.000000000000e+00 6.481731047586e+03 2.777884581225e+03  2.991568010550e-03
9.400000000000e+01 -9.068693281827e+03 9.199306841140e-01 0.000000000000e+00 -1.547234365590e-03 -5.561712972400e+03 2.778442801477e-05 -8.342569218006e+03 -5.561712876162e+03 -1.036405607166e-10 5.984338341642e-11 -2.994768368139e-03 0.000000000000e+00 6.488665022189e+03 2.780856293725e+03  2.994768316319e-03