 TITLE = "Profiles along polylines"
 VARIABLES = "DIST" "PRESSURE1" "SATURATION1" 
 ZONE T="TIME=0.000000000000e+00"
0.000000000000e+00 -9.000000000000e+04 3.601056880734e-01 
5.000000000000e-02 -9.000000000000e+04 3.601056880734e-01 
1.000000000000e-01 -9.000000000000e+04 3.601056880734e-01 
1.500000000000e-01 -9.000000000000e+04 3.601056880734e-01 
2.000000000000e-01 -9.000000000000e+04 3.601056880734e-01 
2.500000000000e-01 -9.000000000000e+04 2.147624357798e-01 
3.000000000000e-01 -9.000000000000e+04 1.684751605505e-01 
3.500000000000e-01 -9.000000000000e+04 2.675311376147e-01 
4.000000000000e-01 -9.000000000000e+04 2.675311376147e-01 
4.500000000000e-01 -9.000000000000e+04 2.675311376147e-01 
5.000000000000e-01 -9.000000000000e+04 2.675311376147e-01 
5.500000000000e-01 -9.000000000000e+04 2.675311376147e-01 
6.000000000000e-01 -9.000000000000e+04 2.675311376147e-01 
6.500000000000e-01 -9.000000000000e+04 2.675311376147e-01 
7.000000000000e-01 -9.000000000000e+04 1.754136146789e-01 
7.500000000000e-01 -9.000000000000e+04 8.329609174312e-02 
8.000000000000e-01 -9.000000000000e+04 8.329609174312e-02 
8.500000000000e-01 -9.000000000000e+04 8.329609174312e-02 
9.000000000000e-01 -9.000000000000e+04 8.329609174312e-02 
9.500000000000e-01 -9.000000000000e+04 8.329609174312e-02 
1.000000000000e+00 -9.000000000000e+04 8.329609174312e-02 
1.050000000000e+00 -9.000000000000e+04 8.329609174312e-02 
1.100000000000e+00 -9.000000000000e+04 8.329609174312e-02 
1.150000000000e+00 -9.000000000000e+04 8.329609174312e-02 
1.200000000000e+00 -9.000000000000e+04 8.329609174312e-02 
1.250000000000e+00 -9.000000000000e+04 8.329609174312e-02 
1.300000000000e+00 -9.000000000000e+04 8.329609174312e-02 
1.350000000000e+00 -9.000000000000e+04 8.329609174312e-02 
1.400000000000e+00 -9.000000000000e+04 8.329609174312e-02 
1.450000000000e+00 -9.000000000000e+04 8.329609174312e-02 
1.500000000000e+00 -9.000000000000e+04 8.329609174312e-02 
1.550000000000e+00 -9.000000000000e+04 8.329609174312e-02 
1.600000000000e+00 -9.000000000000e+04 8.329609174312e-02 
1.650000000000e+00 -9.000000000000e+04 8.329609174312e-02 
1.700000000000e+00 -9.000000000000e+04 8.329609174312e-02 
1.750000000000e+00 -9.000000000000e+04 8.329609174312e-02 
1.800000000000e+00 -9.000000000000e+04 8.329609174312e-02 
1.850000000000e+00 -9.000000000000e+04 8.329609174312e-02 
1.900000000000e+00 -9.000000000000e+04 8.329609174312e-02 
1.950000000000e+00 -9.000000000000e+04 8.329609174312e-02 
2.000000000000e+00 -9.000000000000e+04 8.329609174312e-02 
 TITLE = "Profiles along polylines"
 VARIABLES = "DIST" "PRESSURE1" "SATURATION1" 
 ZONE T="TIME=5.000000000000e-01"
0.000000000000e+00 -8.364370621316e+04 3.771412773217e-01 
5.000000000000e-02 -8.764051591728e+04 3.717572051664e-01 
1.000000000000e-01 -8.917390730330e+04 3.643154610107e-01 
1.500000000000e-01 -8.974813505155e+04 3.614572042511e-01 
2.000000000000e-01 -9.001629869051e+04 3.601920914874e-01 
2.500000000000e-01 -9.030194466744e+04 2.145392615612e-01 
3.000000000000e-01 -8.999848310221e+04 1.684455619384e-01 
3.500000000000e-01 -8.999999276478e+04 2.675356724534e-01 
4.000000000000e-01 -8.999999996549e+04 2.675311592447e-01 
4.500000000000e-01 -8.999999999984e+04 2.675311377178e-01 
5.000000000000e-01 -9.000000000000e+04 2.675311376153e-01 
5.500000000000e-01 -8.999999999993e+04 2.675311376370e-01 
6.000000000000e-01 -8.999999998517e+04 2.675311420663e-01 
6.500000000000e-01 -8.999999704519e+04 2.675320248370e-01 
7.000000000000e-01 -8.999941109121e+04 1.754146020461e-01 
7.500000000000e-01 -8.999990280792e+04 8.329621357597e-02 
8.000000000000e-01 -8.999998395978e+04 8.329611185008e-02 
8.500000000000e-01 -8.999999735279e+04 8.329609506150e-02 
9.000000000000e-01 -8.999999956311e+04 8.329609229077e-02 
9.500000000000e-01 -8.999999992790e+04 8.329609183350e-02 
1.000000000000e+00 -8.999999998810e+04 8.329609175804e-02 
1.050000000000e+00 -8.999999999804e+04 8.329609174558e-02 
1.100000000000e+00 -8.999999999968e+04 8.329609174353e-02 
1.150000000000e+00 -8.999999999995e+04 8.329609174319e-02 
1.200000000000e+00 -8.999999999999e+04 8.329609174313e-02 
1.250000000000e+00 -9.000000000000e+04 8.329609174312e-02 
1.300000000000e+00 -9.000000000000e+04 8.329609174312e-02 
1.350000000000e+00 -9.000000000001e+04 8.329609174311e-02 
1.400000000000e+00 -9.000000000009e+04 8.329609174305e-02 
1.450000000000e+00 -9.000000000052e+04 8.329609174272e-02 
1.500000000000e+00 -9.000000000310e+04 8.329609174076e-02 
1.550000000000e+00 -9.000000001839e+04 8.329609172914e-02 
1.600000000000e+00 -9.000000010911e+04 8.329609166016e-02 
1.650000000000e+00 -9.000000064734e+04 8.329609125092e-02 
1.700000000000e+00 -9.000000384080e+04 8.329608882284e-02 
1.750000000000e+00 -9.000002278815e+04 8.329607441654e-02 
1.800000000000e+00 -9.000013520640e+04 8.329598894058e-02 
1.850000000000e+00 -9.000080221356e+04 8.329548176565e-02 
1.900000000000e+00 -9.000476003200e+04 8.329247151613e-02 
1.950000000000e+00 -9.002825470979e+04 8.327457251052e-02 
2.000000000000e+00 -9.016808676343e+04 8.325924972704e-02 
 TITLE = "Profiles along polylines"
 VARIABLES = "DIST" "PRESSURE1" "SATURATION1" 
 ZONE T="TIME=1.000000000000e+00"
0.000000000000e+00 -8.532026217644e+04 3.738539497333e-01 
5.000000000000e-02 -8.719583505519e+04 3.709212335814e-01 
1.000000000000e-01 -8.863407339750e+04 3.658932661657e-01 
1.500000000000e-01 -8.946510300788e+04 3.625787475600e-01 
2.000000000000e-01 -8.996051359627e+04 3.605582906688e-01 
2.500000000000e-01 -9.038738171975e+04 2.145444196279e-01 
3.000000000000e-01 -8.999732243662e+04 1.684394152151e-01 
3.500000000000e-01 -8.999998006321e+04 2.675391743239e-01 
4.000000000000e-01 -8.999999987074e+04 2.675311973693e-01 
4.500000000000e-01 -8.999999999922e+04 2.675311380018e-01 
5.000000000000e-01 -8.999999999999e+04 2.675311376176e-01 
5.500000000000e-01 -8.999999999963e+04 2.675311377035e-01 
6.000000000000e-01 -8.999999994124e+04 2.675311509157e-01 
6.500000000000e-01 -8.999999121487e+04 2.675329099590e-01 
7.000000000000e-01 -8.999883228232e+04 1.754155868580e-01 
7.500000000000e-01 -8.999973787625e+04 8.329635227612e-02 
8.000000000000e-01 -8.999994528566e+04 8.329614909943e-02 
8.500000000000e-01 -8.999998907978e+04 8.329610357866e-02 
9.000000000000e-01 -8.999999788579e+04 8.329609408749e-02 
9.500000000000e-01 -8.999999959959e+04 8.329609219457e-02 
1.000000000000e+00 -8.999999992542e+04 8.329609182828e-02 
1.050000000000e+00 -8.999999998629e+04 8.329609175893e-02 
1.100000000000e+00 -8.999999999751e+04 8.329609174602e-02 
1.150000000000e+00 -8.999999999955e+04 8.329609174365e-02 
1.200000000000e+00 -8.999999999992e+04 8.329609174321e-02 
1.250000000000e+00 -8.999999999999e+04 8.329609174313e-02 
1.300000000000e+00 -9.000000000003e+04 8.329609174310e-02 
1.350000000000e+00 -9.000000000016e+04 8.329609174300e-02 
1.400000000000e+00 -9.000000000091e+04 8.329609174246e-02 
1.450000000000e+00 -9.000000000502e+04 8.329609173948e-02 
1.500000000000e+00 -9.000000002755e+04 8.329609172318e-02 
1.550000000000e+00 -9.000000015035e+04 8.329609163483e-02 
1.600000000000e+00 -9.000000081417e+04 8.329609115984e-02 
1.650000000000e+00 -9.000000436833e+04 8.329608863391e-02 
1.700000000000e+00 -9.000002317536e+04 8.329607538099e-02 
1.750000000000e+00 -9.000012123074e+04 8.329600703607e-02 
1.800000000000e+00 -9.000062273880e+04 8.329566255794e-02 
1.850000000000e+00 -9.000312211679e+04 8.329398054690e-02 
1.900000000000e+00 -9.001512870763e+04 8.328614308023e-02 
1.950000000000e+00 -9.006966765870e+04 8.325227681030e-02 
2.000000000000e+00 -9.029494852109e+04 8.322485325659e-02 
 TITLE = "Profiles along polylines"
 VARIABLES = "DIST" "PRESSURE1" "SATURATION1" 
 ZONE T="TIME=5.000000000000e+00"
0.000000000000e+00 -7.518204303803e+04 4.085412959201e-01 
5.000000000000e-02 -7.678298165697e+04 4.054351151441e-01 
1.000000000000e-01 -7.907743079228e+04 3.984954001395e-01 
1.500000000000e-01 -8.127189665984e+04 3.912344547956e-01 
2.000000000000e-01 -8.294770212554e+04 3.853739784748e-01 
2.500000000000e-01 -8.390135267780e+04 2.268810595469e-01 
3.000000000000e-01 -8.981834426200e+04 1.697226972926e-01 
3.500000000000e-01 -8.999506718910e+04 2.680924941668e-01 
4.000000000000e-01 -8.999987263410e+04 2.675463514377e-01 
4.500000000000e-01 -8.999999677482e+04 2.675315301577e-01 
5.000000000000e-01 -8.999999991517e+04 2.675311477850e-01 
5.500000000000e-01 -8.999999985216e+04 2.675311463778e-01 
6.000000000000e-01 -8.999999470864e+04 2.675314303537e-01 
6.500000000000e-01 -8.999981892471e+04 2.675399960105e-01 
7.000000000000e-01 -8.999458509680e+04 1.754232933016e-01 
7.500000000000e-01 -8.999736118583e+04 8.329773019497e-02 
8.000000000000e-01 -8.999876959889e+04 8.329687300380e-02 
8.500000000000e-01 -8.999944339386e+04 8.329645075922e-02 
9.000000000000e-01 -8.999975335503e+04 8.329625257199e-02 
9.500000000000e-01 -8.999989225822e+04 8.329616253129e-02 
1.000000000000e+00 -8.999995343808e+04 8.329612250355e-02 
1.050000000000e+00 -8.999998012598e+04 8.329610494185e-02 
1.100000000000e+00 -8.999999182173e+04 8.329609723987e-02 
1.150000000000e+00 -8.999999726429e+04 8.329609371057e-02 
1.200000000000e+00 -9.000000057574e+04 8.329609170024e-02 
1.250000000000e+00 -9.000000426701e+04 8.329608968788e-02 
1.300000000000e+00 -9.000001110579e+04 8.329608616369e-02 
1.350000000000e+00 -9.000002617518e+04 8.329607850828e-02 
1.400000000000e+00 -9.000006062721e+04 8.329606106054e-02 
1.450000000000e+00 -9.000013986210e+04 8.329602097312e-02 
1.500000000000e+00 -9.000032201497e+04 8.329592888832e-02 
1.550000000000e+00 -9.000073982071e+04 8.329571788391e-02 
1.600000000000e+00 -9.000169474656e+04 8.329523629948e-02 
1.650000000000e+00 -9.000386602463e+04 8.329414350820e-02 
1.700000000000e+00 -9.000876608017e+04 8.329168452496e-02 
1.750000000000e+00 -9.001970424925e+04 8.328621845455e-02 
1.800000000000e+00 -9.004373411366e+04 8.327428247908e-02 
1.850000000000e+00 -9.009529629478e+04 8.324889199462e-02 
1.900000000000e+00 -9.020212080628e+04 8.319693670536e-02 
1.950000000000e+00 -9.041198225285e+04 8.309663476393e-02 
2.000000000000e+00 -9.079166965251e+04 8.303106845185e-02 
 TITLE = "Profiles along polylines"
 VARIABLES = "DIST" "PRESSURE1" "SATURATION1" 
 ZONE T="TIME=1.000000000000e+01"
0.000000000000e+00 -7.808241097825e+04 3.997963560584e-01 
5.000000000000e-02 -7.871924614118e+04 3.986029793843e-01 
1.000000000000e-01 -7.955723259259e+04 3.959559072274e-01 
1.500000000000e-01 -8.045354552767e+04 3.930249683842e-01 
2.000000000000e-01 -8.127487300658e+04 3.902504225168e-01 
2.500000000000e-01 -8.192776956243e+04 2.301295212885e-01 
3.000000000000e-01 -8.948577518265e+04 1.709859353493e-01 
3.500000000000e-01 -8.997234529080e+04 2.691826074054e-01 
4.000000000000e-01 -8.999866745089e+04 2.676192487657e-01 
4.500000000000e-01 -8.999993852090e+04 2.675353709594e-01 
5.000000000000e-01 -8.999999714385e+04 2.675313355280e-01 
5.500000000000e-01 -8.999999817432e+04 2.675312046237e-01 
6.000000000000e-01 -8.999996603926e+04 2.675322297276e-01 
6.500000000000e-01 -8.999936967717e+04 2.675489740182e-01 
7.000000000000e-01 -8.998994087281e+04 1.754325611817e-01 
7.500000000000e-01 -8.999394861516e+04 8.329952047224e-02 
8.000000000000e-01 -8.999646799351e+04 8.329811854941e-02 
8.500000000000e-01 -8.999798716881e+04 8.329725865974e-02 
9.000000000000e-01 -8.999887499965e+04 8.329674937241e-02 
9.500000000000e-01 -8.999938258817e+04 8.329645529335e-02 
1.000000000000e+00 -8.999966968862e+04 8.329628791606e-02 
1.050000000000e+00 -8.999983394001e+04 8.329619215352e-02 
1.100000000000e+00 -8.999993455962e+04 8.329613430589e-02 
1.150000000000e+00 -9.000000949906e+04 8.329609292951e-02 
1.200000000000e+00 -9.000008791860e+04 8.329605209240e-02 
1.250000000000e+00 -9.000020068326e+04 8.329599579037e-02 
1.300000000000e+00 -9.000039200675e+04 8.329590198270e-02 
1.350000000000e+00 -9.000073624698e+04 8.329573426015e-02 
1.400000000000e+00 -9.000136581862e+04 8.329542822279e-02 
1.450000000000e+00 -9.000251995132e+04 8.329486785750e-02 
1.500000000000e+00 -9.000463060412e+04 8.329384408386e-02 
1.550000000000e+00 -9.000847263171e+04 8.329198255148e-02 
1.600000000000e+00 -9.001542177903e+04 8.328862009338e-02 
1.650000000000e+00 -9.002788669500e+04 8.328259893420e-02 
1.700000000000e+00 -9.005000599592e+04 8.327193703234e-02 
1.750000000000e+00 -9.008871236659e+04 8.325333003008e-02 
1.800000000000e+00 -9.015521855064e+04 8.322146674920e-02 
1.850000000000e+00 -9.026677692327e+04 8.316824149264e-02 
1.900000000000e+00 -9.044803272200e+04 8.308219612409e-02 
1.950000000000e+00 -9.073024759306e+04 8.294897735338e-02 
2.000000000000e+00 -9.114534708802e+04 8.286863798292e-02 
 TITLE = "Profiles along polylines"
 VARIABLES = "DIST" "PRESSURE1" "SATURATION1" 
 ZONE T="TIME=2.000000000000e+01"
0.000000000000e+00 -4.464327584679e+04 5.146206331700e-01 
5.000000000000e-02 -4.994602119136e+04 5.027199997669e-01 
1.000000000000e-01 -5.446030393497e+04 4.838319760683e-01 
1.500000000000e-01 -5.779578945775e+04 4.718022394013e-01 
2.000000000000e-01 -6.004715208888e+04 4.635367055706e-01 
2.500000000000e-01 -6.124779424654e+04 2.683011467490e-01 
3.000000000000e-01 -8.685035845597e+04 1.817286674879e-01 
3.500000000000e-01 -8.968351906038e+04 2.783295419858e-01 
4.000000000000e-01 -8.997285280220e+04 2.685947558254e-01 
4.500000000000e-01 -8.999774656044e+04 2.676220280853e-01 
5.000000000000e-01 -8.999981348750e+04 2.675387071047e-01 
5.500000000000e-01 -8.999996615861e+04 2.675321456393e-01 
6.000000000000e-01 -8.999979535073e+04 2.675351935486e-01 
6.500000000000e-01 -8.999794877674e+04 2.675673164202e-01 
7.000000000000e-01 -8.998218599659e+04 1.754500852963e-01 
7.500000000000e-01 -8.998754648126e+04 8.330277708369e-02 
8.000000000000e-01 -8.999147825859e+04 8.330069879286e-02 
8.500000000000e-01 -8.999430129728e+04 8.329919472268e-02 
9.000000000000e-01 -8.999630684240e+04 8.329812046407e-02 
9.500000000000e-01 -8.999774191363e+04 8.329735082869e-02 
1.000000000000e+00 -8.999880930730e+04 8.329678159250e-02 
1.050000000000e+00 -8.999967733559e+04 8.329632584831e-02 
1.100000000000e+00 -9.000049507594e+04 8.329590710602e-02 
1.150000000000e+00 -9.000141126916e+04 8.329545026893e-02 
1.200000000000e+00 -9.000259714652e+04 8.329487055408e-02 
1.250000000000e+00 -9.000427523973e+04 8.329405950495e-02 
1.300000000000e+00 -9.000675783569e+04 8.329286641914e-02 
1.350000000000e+00 -9.001050043340e+04 8.329107267156e-02 
1.400000000000e+00 -9.001617752509e+04 8.328835546684e-02 
1.450000000000e+00 -9.002479028441e+04 8.328423648691e-02 
1.500000000000e+00 -9.003781804808e+04 8.327800983158e-02 
1.550000000000e+00 -9.005742707196e+04 8.326864294134e-02 
1.600000000000e+00 -9.008674928686e+04 8.325464462439e-02 
1.650000000000e+00 -9.013023758630e+04 8.323389733905e-02 
1.700000000000e+00 -9.019408732995e+04 8.320345893520e-02 
1.750000000000e+00 -9.028667850456e+04 8.315935565097e-02 
1.800000000000e+00 -9.041893009981e+04 8.309641729383e-02 
1.850000000000e+00 -9.060436219620e+04 8.300824898871e-02 
1.900000000000e+00 -9.085854540762e+04 8.288748378896e-02 
1.950000000000e+00 -9.119754844547e+04 8.272648356172e-02 
2.000000000000e+00 -9.163515107118e+04 8.263498317833e-02 
 TITLE = "Profiles along polylines"
 VARIABLES = "DIST" "PRESSURE1" "SATURATION1" 
 ZONE T="TIME=3.000000000000e+01"
0.000000000000e+00 -3.959787554028e+04 5.502331311332e-01 
5.000000000000e-02 -4.203248226406e+04 5.431104742011e-01 
1.000000000000e-01 -4.436516372244e+04 5.293134145682e-01 
1.500000000000e-01 -4.644845475175e+04 5.168700190394e-01 
2.000000000000e-01 -4.811504428295e+04 5.067467888044e-01 
2.500000000000e-01 -4.918454255001e+04 2.909052750085e-01 
3.000000000000e-01 -8.334784476595e+04 1.946586679652e-01 
3.500000000000e-01 -8.903064400449e+04 2.917485752444e-01 
4.000000000000e-01 -8.989487476990e+04 2.708920478513e-01 
4.500000000000e-01 -8.998953492358e+04 2.678912734246e-01 
5.000000000000e-01 -8.999898924104e+04 2.675669273883e-01 
5.500000000000e-01 -8.999984758438e+04 2.675355682323e-01 
6.000000000000e-01 -8.999949345229e+04 2.675395173773e-01 
6.500000000000e-01 -8.999617826156e+04 2.675858978232e-01 
7.000000000000e-01 -8.997558134761e+04 1.754666926095e-01 
7.500000000000e-01 -8.998186100133e+04 8.330563977001e-02 
8.000000000000e-01 -8.998684099760e+04 8.330306260532e-02 
8.500000000000e-01 -8.999076350788e+04 8.330102522782e-02 
9.000000000000e-01 -8.999387649317e+04 8.329940683581e-02 
9.500000000000e-01 -8.999642458934e+04 8.329808680852e-02 
1.000000000000e+00 -8.999864862278e+04 8.329694567478e-02 
1.050000000000e+00 -9.000079348188e+04 8.329586197037e-02 
1.100000000000e+00 -9.000312378860e+04 8.329470517127e-02 
1.150000000000e+00 -9.000594730038e+04 8.329332474724e-02 
1.200000000000e+00 -9.000964682491e+04 8.329153501243e-02 
1.250000000000e+00 -9.001472237917e+04 8.328909500444e-02 
1.300000000000e+00 -9.002184620548e+04 8.328568219455e-02 
1.350000000000e+00 -9.003193394000e+04 8.328085849433e-02 
1.400000000000e+00 -9.004623553610e+04 8.327402686519e-02 
1.450000000000e+00 -9.006644919110e+04 8.326437699451e-02 
1.500000000000e+00 -9.009486005685e+04 8.325081918652e-02 
1.550000000000e+00 -9.013450228275e+04 8.323190713098e-02 
1.600000000000e+00 -9.018933710109e+04 8.320575294636e-02 
1.650000000000e+00 -9.026443031090e+04 8.316994226381e-02 
1.700000000000e+00 -9.036609898642e+04 8.312146341004e-02 
1.750000000000e+00 -9.050197981332e+04 8.305667279833e-02 
1.800000000000e+00 -9.068095262995e+04 8.297132723320e-02 
1.850000000000e+00 -9.091283925995e+04 8.286071979322e-02 
1.900000000000e+00 -9.120780319509e+04 8.271995299254e-02 
1.950000000000e+00 -9.157542238848e+04 8.254436116104e-02 
2.000000000000e+00 -9.202352168450e+04 8.244730575843e-02 
 TITLE = "Profiles along polylines"
 VARIABLES = "DIST" "PRESSURE1" "SATURATION1" 
 ZONE T="TIME=4.000000000000e+01"
0.000000000000e+00 -4.394085360342e+04 5.281028920565e-01 
5.000000000000e-02 -4.453474266940e+04 5.262144546363e-01 
1.000000000000e-01 -4.525641040388e+04 5.221282245850e-01 
1.500000000000e-01 -4.603531752005e+04 5.176255927537e-01 
2.000000000000e-01 -4.680798331141e+04 5.130846491715e-01 
2.500000000000e-01 -4.752363227431e+04 2.954775717973e-01 
3.000000000000e-01 -8.058977108444e+04 2.045582677092e-01 
3.500000000000e-01 -8.810851165964e+04 3.042648173532e-01 
4.000000000000e-01 -8.974408159260e+04 2.743293579348e-01 
4.500000000000e-01 -8.997014881981e+04 2.684285645491e-01 
5.000000000000e-01 -8.999671171293e+04 2.676350861950e-01 
5.500000000000e-01 -8.999952755149e+04 2.675444166701e-01 
6.000000000000e-01 -8.999904660494e+04 2.675454206345e-01 
6.500000000000e-01 -8.999418130480e+04 2.676045637688e-01 
7.000000000000e-01 -8.996988895700e+04 1.754824007446e-01 
7.500000000000e-01 -8.997700164907e+04 8.330808685256e-02 
8.000000000000e-01 -8.998296804153e+04 8.330503816097e-02 
8.500000000000e-01 -8.998801432837e+04 8.330245885844e-02 
9.000000000000e-01 -8.999239055490e+04 8.330022786121e-02 
9.500000000000e-01 -8.999637049822e+04 8.329821193843e-02 
1.000000000000e+00 -9.000025713951e+04 8.329626338570e-02 
1.050000000000e+00 -9.000439485106e+04 8.329421451558e-02 
1.100000000000e+00 -9.000918906505e+04 8.329186853479e-02 
1.150000000000e+00 -9.001513412156e+04 8.328898644502e-02 
1.200000000000e+00 -9.002285009730e+04 8.328526957979e-02 
1.250000000000e+00 -9.003312954141e+04 8.328033734269e-02 
1.300000000000e+00 -9.004699503430e+04 8.327369971999e-02 
1.350000000000e+00 -9.006576817687e+04 8.326472428190e-02 
1.400000000000e+00 -9.009114983850e+04 8.325259774663e-02 
1.450000000000e+00 -9.012531006114e+04 8.323628284631e-02 
1.500000000000e+00 -9.017098375842e+04 8.321447228798e-02 
1.550000000000e+00 -9.023156513602e+04 8.318554310553e-02 
1.600000000000e+00 -9.031118959153e+04 8.314751665066e-02 
1.650000000000e+00 -9.041478698001e+04 8.309803175581e-02 
1.700000000000e+00 -9.054808522560e+04 8.303434090661e-02 
1.750000000000e+00 -9.071753962263e+04 8.295334098050e-02 
1.800000000000e+00 -9.093016293210e+04 8.285165025592e-02 
1.850000000000e+00 -9.119323756300e+04 8.272574058787e-02 
1.900000000000e+00 -9.151390729933e+04 8.257212627659e-02 
1.950000000000e+00 -9.189867499523e+04 8.238759803961e-02 
2.000000000000e+00 -9.235287335560e+04 8.228722941810e-02 
 TITLE = "Profiles along polylines"
 VARIABLES = "DIST" "PRESSURE1" "SATURATION1" 
 ZONE T="TIME=5.000000000000e+01"
0.000000000000e+00 -4.278628237704e+04 5.345237060711e-01 
5.000000000000e-02 -4.359776305111e+04 5.321447539398e-01 
1.000000000000e-01 -4.438021914747e+04 5.274727700112e-01 
1.500000000000e-01 -4.513384822072e+04 5.229763202393e-01 
2.000000000000e-01 -4.585452058360e+04 5.186732351671e-01 
2.500000000000e-01 -4.653620128482e+04 2.985730067584e-01 
3.000000000000e-01 -7.845150853351e+04 2.127444402114e-01 
3.500000000000e-01 -8.702620504684e+04 3.157794898002e-01 
4.000000000000e-01 -8.950903808523e+04 2.786421353664e-01 
4.500000000000e-01 -8.993397978237e+04 2.692945273063e-01 
5.000000000000e-01 -8.999182749281e+04 2.677652491619e-01 
5.500000000000e-01 -8.999881558572e+04 2.675629912174e-01 
6.000000000000e-01 -8.999843557038e+04 2.675534218155e-01 
6.500000000000e-01 -8.999204721226e+04 2.676231856905e-01 
7.000000000000e-01 -8.996496601120e+04 1.754971727445e-01 
7.500000000000e-01 -8.997305687756e+04 8.331009450980e-02 
8.000000000000e-01 -8.998017010015e+04 8.330649286449e-02 
8.500000000000e-01 -8.998656137738e+04 8.330326453278e-02 
9.000000000000e-01 -8.999252219186e+04 8.330026837116e-02 
9.500000000000e-01 -8.999838757609e+04 8.329734211728e-02 
1.000000000000e+00 -9.000454783388e+04 8.329429684539e-02 
1.050000000000e+00 -9.001146544602e+04 8.329090899796e-02 
1.100000000000e+00 -9.001969806372e+04 8.328690951862e-02 
1.150000000000e+00 -9.002992821322e+04 8.328196975576e-02 
1.200000000000e+00 -9.004300006317e+04 8.327568394680e-02 
1.250000000000e+00 -9.005996327199e+04 8.326754825898e-02 
1.300000000000e+00 -9.008212345485e+04 8.325693659239e-02 
1.350000000000e+00 -9.011109810588e+04 8.324307368448e-02 
1.400000000000e+00 -9.014887581871e+04 8.322500652217e-02 
1.450000000000e+00 -9.019787533472e+04 8.320157568613e-02 
1.500000000000e+00 -9.026099933962e+04 8.317138901005e-02 
1.550000000000e+00 -9.034167613328e+04 8.313280078812e-02 
1.600000000000e+00 -9.044388053784e+04 8.308390060251e-02 
1.650000000000e+00 -9.057212405354e+04 8.302251649986e-02 
1.700000000000e+00 -9.073140384591e+04 8.294623747623e-02 
1.750000000000e+00 -9.092710132730e+04 8.285245971980e-02 
1.800000000000e+00 -9.116482462855e+04 8.273845946094e-02 
1.850000000000e+00 -9.145019580405e+04 8.260149228337e-02 
1.900000000000e+00 -9.178859343284e+04 8.243891423896e-02 
1.950000000000e+00 -9.218487372567e+04 8.224831437919e-02 
2.000000000000e+00 -9.264310612605e+04 8.214572640400e-02 
 TITLE = "Profiles along polylines"
 VARIABLES = "DIST" "PRESSURE1" "SATURATION1" 
 ZONE T="TIME=6.000000000000e+01"
0.000000000000e+00 -5.978288514172e+03 8.087792108015e-01 
5.000000000000e-02 -9.475732846681e+03 7.837565857481e-01 
1.000000000000e-01 -1.419339561924e+04 7.390451591665e-01 
1.500000000000e-01 -1.869365037652e+04 7.011949061637e-01 
2.000000000000e-01 -2.254767469793e+04 6.689909402833e-01 
2.500000000000e-01 -2.477880832926e+04 3.745176797390e-01 
3.000000000000e-01 -7.440097031635e+04 2.333947667364e-01 
3.500000000000e-01 -8.576624058535e+04 3.338470711747e-01 
4.000000000000e-01 -8.921622510499e+04 2.837569156180e-01 
4.500000000000e-01 -8.988605217590e+04 2.703871244092e-01 
5.000000000000e-01 -8.998505362920e+04 2.679391584203e-01 
5.500000000000e-01 -8.999781380896e+04 2.675886170613e-01 
6.000000000000e-01 -8.999772215205e+04 2.675628277685e-01 
6.500000000000e-01 -8.998985336958e+04 2.676417513524e-01 
7.000000000000e-01 -8.996046499066e+04 1.755113807511e-01 
7.500000000000e-01 -8.996967224138e+04 8.331183719547e-02 
8.000000000000e-01 -8.997807853990e+04 8.330760939204e-02 
8.500000000000e-01 -8.998599218701e+04 8.330364559779e-02 
9.000000000000e-01 -8.999376678875e+04 8.329977431866e-02 
9.500000000000e-01 -9.000181584870e+04 8.329579556295e-02 
1.000000000000e+00 -9.001063002167e+04 8.329147248974e-02 
1.050000000000e+00 -9.002079799350e+04 8.328652137896e-02 
1.100000000000e+00 -9.003303162423e+04 8.328059958799e-02 
1.150000000000e+00 -9.004819559543e+04 8.327329135040e-02 
1.200000000000e+00 -9.006734133055e+04 8.326409149869e-02 
1.250000000000e+00 -9.009174439716e+04 8.325238746239e-02 
1.300000000000e+00 -9.012294394606e+04 8.323744020607e-02 
1.350000000000e+00 -9.016278200048e+04 8.321836512688e-02 
1.400000000000e+00 -9.021343961544e+04 8.319411431137e-02 
1.450000000000e+00 -9.027746615282e+04 8.316346192487e-02 
1.500000000000e+00 -9.035779727590e+04 8.312499482099e-02 
1.550000000000e+00 -9.045775690832e+04 8.307711064402e-02 
1.600000000000e+00 -9.058103850425e+04 8.301802567040e-02 
1.650000000000e+00 -9.073166171380e+04 8.294579431338e-02 
1.700000000000e+00 -9.091390203819e+04 8.285834153078e-02 
1.750000000000e+00 -9.113219340475e+04 8.275350830086e-02 
1.800000000000e+00 -9.139100667205e+04 8.262910889702e-02 
1.850000000000e+00 -9.169471064911e+04 8.248299700943e-02 
1.900000000000e+00 -9.204742584635e+04 8.231313602620e-02 
1.950000000000e+00 -9.245288428845e+04 8.211766726422e-02 
2.000000000000e+00 -9.291431067685e+04 8.201331177012e-02 
 TITLE = "Profiles along polylines"
 VARIABLES = "DIST" "PRESSURE1" "SATURATION1" 
 ZONE T="TIME=7.000000000000e+01"
0.000000000000e+00 -1.023168751470e+04 7.632188637427e-01 
5.000000000000e-02 -1.109429656814e+04 7.595906426443e-01 
1.000000000000e-01 -1.193710508285e+04 7.524281047592e-01 
1.500000000000e-01 -1.275304993498e+04 7.454862204583e-01 
2.000000000000e-01 -1.353300996470e+04 7.388356927919e-01 
2.500000000000e-01 -1.426843183128e+04 4.234011727441e-01 
3.000000000000e-01 -5.643247446039e+04 3.014547017915e-01 
3.500000000000e-01 -8.161358429129e+04 4.066701942262e-01 
4.000000000000e-01 -8.854358420898e+04 2.992177873360e-01 
4.500000000000e-01 -8.979188346882e+04 2.728224049747e-01 
5.000000000000e-01 -8.997197019148e+04 2.682798028265e-01 
5.500000000000e-01 -8.999587823006e+04 2.676374871086e-01 
6.000000000000e-01 -8.999676754157e+04 2.675761615207e-01 
6.500000000000e-01 -8.998760418993e+04 2.676601374838e-01 
7.000000000000e-01 -8.995673333147e+04 1.755243861101e-01 
7.500000000000e-01 -8.996749295373e+04 8.331302141420e-02 
8.000000000000e-01 -8.997764126017e+04 8.330794482680e-02 
8.500000000000e-01 -8.998757284879e+04 8.330300309320e-02 
9.000000000000e-01 -8.999773303186e+04 8.329797968498e-02 
9.500000000000e-01 -9.000863667629e+04 8.329262527425e-02 
1.000000000000e+00 -9.002088846071e+04 8.328664783748e-02 
1.050000000000e+00 -9.003520508126e+04 8.327970187030e-02 
1.100000000000e+00 -9.005243961744e+04 8.327137658827e-02 
1.150000000000e+00 -9.007360788431e+04 8.326118317167e-02 
1.200000000000e+00 -9.009991616007e+04 8.324854132231e-02 
1.250000000000e+00 -9.013278920405e+04 8.323276562797e-02 
1.300000000000e+00 -9.017389699739e+04 8.321305246437e-02 
1.350000000000e+00 -9.022517818184e+04 8.318846838689e-02 
1.400000000000e+00 -9.028885779410e+04 8.315794115208e-02 
1.450000000000e+00 -9.036745665484e+04 8.312025463172e-02 
1.500000000000e+00 -9.046378974285e+04 8.307404890804e-02 
1.550000000000e+00 -9.058095113328e+04 8.301782673498e-02 
1.600000000000e+00 -9.072228365665e+04 8.294996729087e-02 
1.650000000000e+00 -9.089133236703e+04 8.286874772011e-02 
1.700000000000e+00 -9.109178217486e+04 8.277237237093e-02 
1.750000000000e+00 -9.132738153428e+04 8.265900891305e-02 
1.800000000000e+00 -9.160185575405e+04 8.252682971856e-02 
1.850000000000e+00 -9.191881515892e+04 8.237405608698e-02 
1.900000000000e+00 -9.228166477347e+04 8.219900218252e-02 
1.950000000000e+00 -9.269352324824e+04 8.200011501383e-02 
2.000000000000e+00 -9.315715926453e+04 8.189452844948e-02 
 TITLE = "Profiles along polylines"
 VARIABLES = "DIST" "PRESSURE1" "SATURATION1" 
 ZONE T="TIME=8.000000000000e+01"
0.000000000000e+00 -1.349261918594e+04 7.365602643381e-01 
5.000000000000e-02 -1.400680769026e+04 7.343183856196e-01 
1.000000000000e-01 -1.456521496942e+04 7.296494734304e-01 
1.500000000000e-01 -1.516623578969e+04 7.246151080320e-01 
2.000000000000e-01 -1.580964337070e+04 7.192186786606e-01 
2.500000000000e-01 -1.649692964612e+04 4.156903983129e-01 
3.000000000000e-01 -4.616439729863e+04 3.430583881377e-01 
3.500000000000e-01 -7.537805829154e+04 4.673935963265e-01 
4.000000000000e-01 -8.687140419989e+04 3.255560377970e-01 
4.500000000000e-01 -8.953298614695e+04 2.789898443990e-01 
5.000000000000e-01 -8.993745389963e+04 2.692090254705e-01 
5.500000000000e-01 -8.999111942799e+04 2.677632373584e-01 
6.000000000000e-01 -8.999534708173e+04 2.675999433118e-01 
6.500000000000e-01 -8.998535920480e+04 2.676787164067e-01 
7.000000000000e-01 -8.995379088619e+04 1.755359615980e-01 
7.500000000000e-01 -8.996673600399e+04 8.331355730668e-02 
8.000000000000e-01 -8.997926318794e+04 8.330731742895e-02 
8.500000000000e-01 -8.999187044664e+04 8.330107475718e-02 
9.000000000000e-01 -9.000510741479e+04 8.329456135594e-02 
9.500000000000e-01 -9.001959594541e+04 8.328747541354e-02 
1.000000000000e+00 -9.003605101695e+04 8.327947096254e-02 
1.050000000000e+00 -9.005530215940e+04 8.327014738286e-02 
1.100000000000e+00 -9.007831534339e+04 8.325903869725e-02 
1.150000000000e+00 -9.010621497535e+04 8.324560281160e-02 
1.200000000000e+00 -9.014030531959e+04 8.322921100785e-02 
1.250000000000e+00 -9.018209034829e+04 8.320913815241e-02 
1.300000000000e+00 -9.023329073059e+04 8.318455422526e-02 
1.350000000000e+00 -9.029585644578e+04 8.315451788858e-02 
1.400000000000e+00 -9.037197337876e+04 8.311797288158e-02 
1.450000000000e+00 -9.046406226385e+04 8.307374803231e-02 
1.500000000000e+00 -9.057476851789e+04 8.302056160358e-02 
1.550000000000e+00 -9.070694186610e+04 8.295703052643e-02 
1.600000000000e+00 -9.086360522048e+04 8.288168481792e-02 