 TITLE = "Profiles along polylines"
 VARIABLES = "DIST" "PRESSURE1" "SATURATION1" 
 ZONE T="TIME=0.000000000000e+00"
0.000000000000e+00 -9.000000000000e+04 3.601056880734e-01 
5.000000000000e-02 -9.000000000000e+04 3.601056880734e-01 
1.000000000000e-01 -9.000000000000e+04 3.601056880734e-01 
1.500000000000e-01 -9.000000000000e+04 3.601056880734e-01 
2.000000000000e-01 -9.000000000000e+04 3.601056880734e-01 
2.500000000000e-01 -9.000000000000e+04 3.601056880734e-01 
3.000000000000e-01 -9.000000000000e+04 3.601056880734e-01 
3.500000000000e-01 -9.000000000000e+04 3.601056880734e-01 
4.000000000000e-01 -9.000000000000e+04 2.217008899083e-01 
4.500000000000e-01 -9.000000000000e+04 8.329609174312e-02 
5.000000000000e-01 -9.000000000000e+04 8.329609174312e-02 
5.500000000000e-01 -9.000000000000e+04 8.329609174312e-02 
6.000000000000e-01 -9.000000000000e+04 9.913826605505e-02 
6.500000000000e-01 -9.000000000000e+04 1.149804403670e-01 
7.000000000000e-01 -9.000000000000e+04 1.149804403670e-01 
7.500000000000e-01 -9.000000000000e+04 1.149804403670e-01 
8.000000000000e-01 -9.000000000000e+04 1.149804403670e-01 
8.500000000000e-01 -9.000000000000e+04 1.149804403670e-01 
9.000000000000e-01 -9.000000000000e+04 1.149804403670e-01 
9.500000000000e-01 -9.000000000000e+04 1.149804403670e-01 
1.000000000000e+00 -9.000000000000e+04 1.149804403670e-01 
1.050000000000e+00 -9.000000000000e+04 1.149804403670e-01 
1.100000000000e+00 -9.000000000000e+04 9.913826605505e-02 
1.150000000000e+00 -9.000000000000e+04 8.329609174312e-02 
1.200000000000e+00 -9.000000000000e+04 8.329609174312e-02 
1.250000000000e+00 -9.000000000000e+04 8.329609174312e-02 
1.300000000000e+00 -9.000000000000e+04 8.329609174312e-02 
1.350000000000e+00 -9.000000000000e+04 8.329609174312e-02 
1.400000000000e+00 -9.000000000000e+04 8.329609174312e-02 
1.450000000000e+00 -9.000000000000e+04 8.329609174312e-02 
1.500000000000e+00 -9.000000000000e+04 8.329609174312e-02 
1.550000000000e+00 -9.000000000000e+04 8.329609174312e-02 
1.600000000000e+00 -9.000000000000e+04 8.329609174312e-02 
1.650000000000e+00 -9.000000000000e+04 8.329609174312e-02 
1.700000000000e+00 -9.000000000000e+04 8.329609174312e-02 
1.750000000000e+00 -9.000000000000e+04 8.329609174312e-02 
1.800000000000e+00 -9.000000000000e+04 8.329609174312e-02 
1.850000000000e+00 -9.000000000000e+04 8.329609174312e-02 
1.900000000000e+00 -9.000000000000e+04 8.329609174312e-02 
1.950000000000e+00 -9.000000000000e+04 8.329609174312e-02 
2.000000000000e+00 -9.000000000000e+04 8.329609174312e-02 
 TITLE = "Profiles along polylines"
 VARIABLES = "DIST" "PRESSURE1" "SATURATION1" 
 ZONE T="TIME=5.000000000000e-01"
0.000000000000e+00 -8.354771555276e+04 3.819842599239e-01 
5.000000000000e-02 -8.759852224034e+04 3.751164702370e-01 
1.000000000000e-01 -8.914673401041e+04 3.656238224299e-01 
1.500000000000e-01 -8.970420607184e+04 3.620538190165e-01 
2.000000000000e-01 -8.990240876248e+04 3.607726383359e-01 
2.500000000000e-01 -8.997990563177e+04 3.603052137609e-01 
3.000000000000e-01 -9.003176817758e+04 3.600858961471e-01 
3.500000000000e-01 -9.012122966727e+04 3.598462935621e-01 
4.000000000000e-01 -9.035705765119e+04 2.214074997365e-01 
4.500000000000e-01 -9.005873472784e+04 8.319378393022e-02 
5.000000000000e-01 -9.001057789762e+04 8.327903702188e-02 
5.500000000000e-01 -9.000704618082e+04 8.329175524969e-02 
6.000000000000e-01 -9.003262663179e+04 9.910371144502e-02 
6.500000000000e-01 -9.000045659520e+04 1.149471601919e-01 
7.000000000000e-01 -9.000000639239e+04 1.149799746232e-01 
7.500000000000e-01 -9.000000008949e+04 1.149804338465e-01 
8.000000000000e-01 -9.000000000125e+04 1.149804402757e-01 
8.500000000000e-01 -9.000000000000e+04 1.149804403657e-01 
9.000000000000e-01 -8.999999999866e+04 1.149804403683e-01 
9.500000000000e-01 -8.999999990611e+04 1.149804404628e-01 
1.000000000000e+00 -8.999999340541e+04 1.149804470953e-01 
1.050000000000e+00 -8.999953683526e+04 1.149809129228e-01 
1.100000000000e+00 -8.996748266712e+04 9.914673303089e-02 
1.150000000000e+00 -8.999463062955e+04 8.330541395764e-02 
1.200000000000e+00 -8.999911378317e+04 8.329763096193e-02 
1.250000000000e+00 -8.999985374022e+04 8.329634578920e-02 
1.300000000000e+00 -8.999997586182e+04 8.329613367040e-02 
1.350000000000e+00 -8.999999601634e+04 8.329609866264e-02 
1.400000000000e+00 -8.999999934264e+04 8.329609288506e-02 
1.450000000000e+00 -8.999999989202e+04 8.329609193144e-02 
1.500000000000e+00 -8.999999998519e+04 8.329609177333e-02 
1.550000000000e+00 -9.000000001543e+04 8.329609174297e-02 
1.600000000000e+00 -9.000000010862e+04 8.329609171260e-02 
1.650000000000e+00 -9.000000064726e+04 8.329609155713e-02 
1.700000000000e+00 -9.000000384079e+04 8.329609063881e-02 
1.750000000000e+00 -9.000002278815e+04 8.329608519094e-02 
1.800000000000e+00 -9.000013520640e+04 8.329605286776e-02 
1.850000000000e+00 -9.000080221356e+04 8.329586108621e-02 
1.900000000000e+00 -9.000476003200e+04 8.329472312453e-02 
1.950000000000e+00 -9.002825470979e+04 8.328796829931e-02 
2.000000000000e+00 -9.016808676343e+04 8.328218731529e-02 
 TITLE = "Profiles along polylines"
 VARIABLES = "DIST" "PRESSURE1" "SATURATION1" 
 ZONE T="TIME=1.000000000000e+00"
0.000000000000e+00 -8.528561131322e+04 3.760913583361e-01 
5.000000000000e-02 -8.715225506868e+04 3.729266265379e-01 
1.000000000000e-01 -8.857905089956e+04 3.673428867621e-01 
1.500000000000e-01 -8.936484691090e+04 3.635916301342e-01 
2.000000000000e-01 -8.974606513336e+04 3.616130592130e-01 
2.500000000000e-01 -8.993553869539e+04 3.606455010316e-01 
3.000000000000e-01 -9.006880376571e+04 3.600983258091e-01 
3.500000000000e-01 -9.024523066909e+04 3.595732700592e-01 
4.000000000000e-01 -9.057161958225e+04 2.211444727996e-01 
4.500000000000e-01 -9.013594045615e+04 8.312199302541e-02 
5.000000000000e-01 -9.003224850375e+04 8.325470800088e-02 
5.500000000000e-01 -9.002024332347e+04 8.328317586416e-02 
6.000000000000e-01 -9.006290238195e+04 9.907000823647e-02 
6.500000000000e-01 -9.000132384185e+04 1.149158317975e-01 
7.000000000000e-01 -9.000002474816e+04 1.149790837487e-01 
7.500000000000e-01 -9.000000043348e+04 1.149804150354e-01 
8.000000000000e-01 -9.000000000728e+04 1.149804399236e-01 
8.500000000000e-01 -8.999999999999e+04 1.149804403597e-01 
9.000000000000e-01 -8.999999999224e+04 1.149804403748e-01 
9.500000000000e-01 -8.999999954606e+04 1.149804408314e-01 
1.000000000000e+00 -8.999997452850e+04 1.149804664468e-01 
1.050000000000e+00 -8.999866131553e+04 1.149818126439e-01 
1.100000000000e+00 -8.993764952181e+04 9.915495435862e-02 
1.150000000000e+00 -8.998586566056e+04 8.331491121843e-02 
1.200000000000e+00 -8.999703395768e+04 8.330029937834e-02 
1.250000000000e+00 -8.999940602918e+04 8.329696770232e-02 
1.300000000000e+00 -8.999988473547e+04 8.329626625406e-02 
1.350000000000e+00 -8.999997813259e+04 8.329612548512e-02 
1.400000000000e+00 -8.999999592249e+04 8.329609812700e-02 
1.450000000000e+00 -8.999999925445e+04 8.329609292986e-02 
1.500000000000e+00 -8.999999989090e+04 8.329609195341e-02 
1.550000000000e+00 -9.000000012569e+04 8.329609173904e-02 
1.600000000000e+00 -9.000000080975e+04 8.329609151295e-02 
1.650000000000e+00 -9.000000436754e+04 8.329609046922e-02 
1.700000000000e+00 -9.000002317522e+04 8.329608496608e-02 
1.750000000000e+00 -9.000012123072e+04 8.329605621131e-02 
1.800000000000e+00 -9.000062273879e+04 8.329590868567e-02 
1.850000000000e+00 -9.000312211678e+04 8.329517030251e-02 
1.900000000000e+00 -9.001512870763e+04 8.329160103568e-02 
1.950000000000e+00 -9.006966765870e+04 8.327522716931e-02 
2.000000000000e+00 -9.029494852109e+04 8.326180758521e-02 
 TITLE = "Profiles along polylines"
 VARIABLES = "DIST" "PRESSURE1" "SATURATION1" 
 ZONE T="TIME=5.000000000000e+00"
0.000000000000e+00 -7.562044322746e+04 4.088642585608e-01 
5.000000000000e-02 -7.726988764888e+04 4.060677693032e-01 
1.000000000000e-01 -7.972222191962e+04 3.991135610252e-01 
1.500000000000e-01 -8.222508364463e+04 3.907124580892e-01 
2.000000000000e-01 -8.442354912854e+04 3.827417675552e-01 
2.500000000000e-01 -8.619326395438e+04 3.760140636906e-01 
3.000000000000e-01 -8.753610402922e+04 3.707369981342e-01 
3.500000000000e-01 -8.850621309252e+04 3.668155944578e-01 
4.000000000000e-01 -8.915815331087e+04 2.244406160432e-01 
4.500000000000e-01 -8.974662895190e+04 8.356557559369e-02 
5.000000000000e-01 -8.996918737848e+04 8.336601656898e-02 
5.500000000000e-01 -9.009224330101e+04 8.328097641446e-02 
6.000000000000e-01 -9.022870986852e+04 9.888549772207e-02 
6.500000000000e-01 -9.002052126126e+04 1.147297255371e-01 
7.000000000000e-01 -9.000158714686e+04 1.149582003451e-01 
7.500000000000e-01 -9.000011485575e+04 1.149787282322e-01 
8.000000000000e-01 -9.000000801107e+04 1.149803167687e-01 
8.500000000000e-01 -8.999999994678e+04 1.149804323618e-01 
9.000000000000e-01 -8.999999135681e+04 1.149804491152e-01 
9.500000000000e-01 -8.999987813460e+04 1.149805716525e-01 
1.000000000000e+00 -8.999834055340e+04 1.149822322833e-01 
1.050000000000e+00 -8.997880466913e+04 1.150034312014e-01 
1.100000000000e+00 -8.976570675224e+04 9.921723659986e-02 
1.150000000000e+00 -8.988329326028e+04 8.338245706114e-02 
1.200000000000e+00 -8.994483454060e+04 8.333838176496e-02 
1.250000000000e+00 -8.997483007396e+04 8.331585867007e-02 
1.300000000000e+00 -8.998879220431e+04 8.330504266511e-02 
1.350000000000e+00 -8.999510591882e+04 8.330005369117e-02 
1.400000000000e+00 -8.999792616673e+04 8.329780623363e-02 
1.450000000000e+00 -8.999922080493e+04 8.329679374514e-02 
1.500000000000e+00 -8.999992831891e+04 8.329630110549e-02 
1.550000000000e+00 -9.000057177225e+04 8.329596869316e-02 
1.600000000000e+00 -9.000162319135e+04 8.329555166125e-02 
1.650000000000e+00 -9.000383560731e+04 8.329474857817e-02 
1.700000000000e+00 -9.000875316397e+04 8.329299421243e-02 
1.750000000000e+00 -9.001969876723e+04 8.328909100188e-02 
1.800000000000e+00 -9.004373178549e+04 8.328048433556e-02 
1.850000000000e+00 -9.009529530159e+04 8.326188342683e-02 
1.900000000000e+00 -9.020212037290e+04 8.322291111569e-02 
1.950000000000e+00 -9.041198204212e+04 8.314498874522e-02 
2.000000000000e+00 -9.079166950108e+04 8.309335122257e-02 
 TITLE = "Profiles along polylines"
 VARIABLES = "DIST" "PRESSURE1" "SATURATION1" 
 ZONE T="TIME=1.000000000000e+01"
0.000000000000e+00 -7.951451083739e+04 3.956601540780e-01 
5.000000000000e-02 -8.020427949838e+04 3.944907114307e-01 
1.000000000000e-01 -8.120452452093e+04 3.916254405251e-01 
1.500000000000e-01 -8.237843539206e+04 3.879393486980e-01 
2.000000000000e-01 -8.359479575970e+04 3.838868521390e-01 
2.500000000000e-01 -8.474885975318e+04 3.798680042314e-01 
3.000000000000e-01 -8.576677786743e+04 3.761855978689e-01 
3.500000000000e-01 -8.660191669609e+04 3.730439013272e-01 
4.000000000000e-01 -8.722815936814e+04 2.281440693606e-01 
4.500000000000e-01 -8.849533590744e+04 8.434834730925e-02 
5.000000000000e-01 -8.928279284929e+04 8.384279437380e-02 
5.500000000000e-01 -8.979411584950e+04 8.352322301558e-02 
6.000000000000e-01 -9.018127413564e+04 9.900657160880e-02 
6.500000000000e-01 -9.003670529400e+04 1.147611632820e-01 
7.000000000000e-01 -9.000540452409e+04 1.149380798645e-01 
7.500000000000e-01 -9.000070170963e+04 1.149742977822e-01 
8.000000000000e-01 -9.000008395612e+04 1.149796500241e-01 
8.500000000000e-01 -8.999999496676e+04 1.149803609743e-01 
9.000000000000e-01 -8.999987346795e+04 1.149805727155e-01 
9.500000000000e-01 -8.999894924150e+04 1.149816246661e-01 
1.000000000000e+00 -8.999170015643e+04 1.149898466342e-01 
1.050000000000e+00 -8.993928431440e+04 1.150498667531e-01 
1.100000000000e+00 -8.961961643873e+04 9.929293848236e-02 
1.150000000000e+00 -8.976548198299e+04 8.344739137917e-02 
1.200000000000e+00 -8.986071283397e+04 8.338806839458e-02 
1.250000000000e+00 -8.991969818719e+04 8.335012271938e-02 
1.300000000000e+00 -8.995489233286e+04 8.332694937846e-02 
1.350000000000e+00 -8.997544140062e+04 8.331323347952e-02 
1.400000000000e+00 -8.998747988768e+04 8.330521514723e-02 
1.450000000000e+00 -8.999497058626e+04 8.330040989256e-02 
1.500000000000e+00 -9.000055679317e+04 8.329719225398e-02 
1.550000000000e+00 -9.000628696719e+04 8.329440780135e-02 
1.600000000000e+00 -9.001425433184e+04 8.329103745284e-02 
1.650000000000e+00 -9.002726519160e+04 8.328587565487e-02 
1.700000000000e+00 -9.004967588027e+04 8.327716000415e-02 
1.750000000000e+00 -9.008853716989e+04 8.326208372472e-02 
1.800000000000e+00 -9.015512537015e+04 8.323613734565e-02 
1.850000000000e+00 -9.026672682986e+04 8.319229288069e-02 
1.900000000000e+00 -9.044800475809e+04 8.312022842946e-02 
1.950000000000e+00 -9.073023006440e+04 8.300618111982e-02 
2.000000000000e+00 -9.114533263958e+04 8.293673815913e-02 
 TITLE = "Profiles along polylines"
 VARIABLES = "DIST" "PRESSURE1" "SATURATION1" 
 ZONE T="TIME=2.000000000000e+01"
0.000000000000e+00 -4.693845277580e+04 5.089846763808e-01 
5.000000000000e-02 -5.302820271339e+04 4.972276422139e-01 
1.000000000000e-01 -5.819311918315e+04 4.767139423259e-01 
1.500000000000e-01 -6.250157495234e+04 4.606526653556e-01 
2.000000000000e-01 -6.607194020717e+04 4.472948109956e-01 
2.500000000000e-01 -6.896412239298e+04 4.363381250596e-01 
3.000000000000e-01 -7.120417445509e+04 4.276368691970e-01 
3.500000000000e-01 -7.279828584153e+04 4.211363792402e-01 
4.000000000000e-01 -7.374214297988e+04 2.548652247868e-01 
4.500000000000e-01 -7.873322907377e+04 9.006866533506e-02 
5.000000000000e-01 -8.248496596261e+04 8.791744962499e-02 
5.500000000000e-01 -8.529298121711e+04 8.630338951046e-02 
6.000000000000e-01 -8.742334725121e+04 1.028884436212e-01 
6.500000000000e-01 -8.952404486968e+04 1.180512207537e-01 
7.000000000000e-01 -8.991326670747e+04 1.155464785354e-01 
7.500000000000e-01 -8.998406698412e+04 1.150837178591e-01 
8.000000000000e-01 -8.999699166211e+04 1.149994944807e-01 
8.500000000000e-01 -8.999914850894e+04 1.149843231739e-01 
9.000000000000e-01 -8.999838023627e+04 1.149829263334e-01 
9.500000000000e-01 -8.999252859494e+04 1.149895856565e-01 
1.000000000000e+00 -8.996487294396e+04 1.150232924214e-01 
1.050000000000e+00 -8.984636733234e+04 1.151703237979e-01 
1.100000000000e+00 -8.941625499102e+04 9.943644671970e-02 
1.150000000000e+00 -8.958256220191e+04 8.354243782464e-02 
1.200000000000e+00 -8.970907086700e+04 8.347038900084e-02 
1.250000000000e+00 -8.980247763163e+04 8.341627769969e-02 
1.300000000000e+00 -8.987020615949e+04 8.337662954791e-02 
1.350000000000e+00 -8.991929210549e+04 8.334788675719e-02 
1.400000000000e+00 -8.995589701897e+04 8.332680208883e-02 
1.450000000000e+00 -8.998529036797e+04 8.331056288332e-02 
1.500000000000e+00 -9.001211295779e+04 8.329673066792e-02 
1.550000000000e+00 -9.004079043096e+04 8.328307459737e-02 
1.600000000000e+00 -9.007602673573e+04 8.326734828981e-02 
1.650000000000e+00 -9.012334630597e+04 8.324703500020e-02 
1.700000000000e+00 -9.018966319164e+04 8.321907417683e-02 
1.750000000000e+00 -9.028383302372e+04 8.317958561013e-02 
1.800000000000e+00 -9.041708575136e+04 8.312362714177e-02 
1.850000000000e+00 -9.060314191021e+04 8.304505957905e-02 
1.900000000000e+00 -9.085769845081e+04 8.293664460108e-02 
1.950000000000e+00 -9.119689983311e+04 8.279054746812e-02 
2.000000000000e+00 -9.163456509153e+04 8.270708525644e-02 
 TITLE = "Profiles along polylines"
 VARIABLES = "DIST" "PRESSURE1" "SATURATION1" 
 ZONE T="TIME=3.000000000000e+01"
0.000000000000e+00 -4.381504343617e+04 5.300241575409e-01 
5.000000000000e-02 -4.692704213167e+04 5.205347041789e-01 
1.000000000000e-01 -5.031673073290e+04 5.028549938539e-01 
1.500000000000e-01 -5.352380378660e+04 4.892274240440e-01 
2.000000000000e-01 -5.634789707978e+04 4.790021071550e-01 
2.500000000000e-01 -5.874369243653e+04 4.701522408934e-01 
3.000000000000e-01 -6.067230380834e+04 4.628205861830e-01 
3.500000000000e-01 -6.210156911999e+04 4.571275989252e-01 
4.000000000000e-01 -6.300834780789e+04 2.756416801690e-01 
4.500000000000e-01 -6.925058833237e+04 9.504302140108e-02 
5.000000000000e-01 -7.447587834626e+04 9.222137764843e-02 
5.500000000000e-01 -7.882680839523e+04 8.986510038159e-02 
6.000000000000e-01 -8.243421500663e+04 1.094983111645e-01 
6.500000000000e-01 -8.813865034054e+04 1.244636957806e-01 
7.000000000000e-01 -8.958236553930e+04 1.172729915282e-01 
7.500000000000e-01 -8.990989720130e+04 1.154912002417e-01 
8.000000000000e-01 -8.998072442542e+04 1.150904698816e-01 
8.500000000000e-01 -8.999493379027e+04 1.150049270606e-01 
9.000000000000e-01 -8.999452339164e+04 1.149910459476e-01 
9.500000000000e-01 -8.998095875959e+04 1.150051041732e-01 
1.000000000000e+00 -8.992818338935e+04 1.150718391047e-01 
1.050000000000e+00 -8.975168483869e+04 1.153024779183e-01 
1.100000000000e+00 -8.926016660861e+04 9.957009920265e-02 
1.150000000000e+00 -8.943678699761e+04 8.361671288331e-02 
1.200000000000e+00 -8.958126558108e+04 8.353770486091e-02 
1.250000000000e+00 -8.969744159527e+04 8.347356948193e-02 
1.300000000000e+00 -8.979021442466e+04 8.342215656464e-02 
1.350000000000e+00 -8.986497888060e+04 8.338093317021e-02 
1.400000000000e+00 -8.992724562435e+04 8.334721595208e-02 
1.450000000000e+00 -8.998247632088e+04 8.331830511403e-02 
1.500000000000e+00 -9.003610471281e+04 8.329151978602e-02 
1.550000000000e+00 -9.009369220135e+04 8.326415455745e-02 
1.600000000000e+00 -9.016116350386e+04 8.323338321088e-02 
1.650000000000e+00 -9.024507024780e+04 8.319613587872e-02 
1.700000000000e+00 -9.035282941841e+04 8.314897551332e-02 
1.750000000000e+00 -9.049287630865e+04 8.308800158165e-02 
1.800000000000e+00 -9.067465976199e+04 8.300881360170e-02 
1.850000000000e+00 -9.090839819976e+04 8.290657234372e-02 
1.900000000000e+00 -9.120452255067e+04 8.277619693095e-02 
1.950000000000e+00 -9.157277969415e+04 8.261272251187e-02 
2.000000000000e+00 -9.202108421533e+04 8.252211098354e-02 
 TITLE = "Profiles along polylines"
 VARIABLES = "DIST" "PRESSURE1" "SATURATION1" 
 ZONE T="TIME=4.000000000000e+01"
0.000000000000e+00 -5.121984284665e+04 4.916024411365e-01 
5.000000000000e-02 -5.192735266006e+04 4.904029199116e-01 
1.000000000000e-01 -5.293027445651e+04 4.875030321914e-01 
1.500000000000e-01 -5.409240091754e+04 4.838323815677e-01 
2.000000000000e-01 -5.529983197939e+04 4.798150033087e-01 
2.500000000000e-01 -5.646401327029e+04 4.757941412648e-01 
3.000000000000e-01 -5.751787429508e+04 4.720336438341e-01 
3.500000000000e-01 -5.841352709681e+04 4.687284130530e-01 
4.000000000000e-01 -5.912123603346e+04 2.828508774504e-01 
4.500000000000e-01 -6.443493163243e+04 9.718438149726e-02 
5.000000000000e-01 -6.932486217768e+04 9.467372779828e-02 
5.500000000000e-01 -7.373613395427e+04 9.238512003432e-02 
6.000000000000e-01 -7.764139462214e+04 1.155722498646e-01 
6.500000000000e-01 -8.613859930066e+04 1.312970059095e-01 
7.000000000000e-01 -8.895615550191e+04 1.199148870241e-01 
7.500000000000e-01 -8.973898419573e+04 1.162930686450e-01 
8.000000000000e-01 -8.993693514072e+04 1.153064503181e-01 
8.500000000000e-01 -8.998284680767e+04 1.150611359654e-01 
9.000000000000e-01 -8.998677383243e+04 1.150110005785e-01 
9.500000000000e-01 -8.996419455662e+04 1.150297638684e-01 
1.000000000000e+00 -8.988490034429e+04 1.151322438206e-01 
1.050000000000e+00 -8.966028760547e+04 1.154379599630e-01 
1.100000000000e+00 -8.913395345222e+04 9.969309591756e-02 
1.150000000000e+00 -8.931804149570e+04 8.367698619722e-02 
1.200000000000e+00 -8.947554587353e+04 8.359293565832e-02 
1.250000000000e+00 -8.960922207167e+04 8.352128920835e-02 
1.300000000000e+00 -8.972280113622e+04 8.346045080334e-02 
1.350000000000e+00 -8.982072222281e+04 8.340841012395e-02 
1.400000000000e+00 -8.990790663356e+04 8.336286398231e-02 
1.450000000000e+00 -8.998961113955e+04 8.332130801216e-02 
1.500000000000e+00 -9.007136829678e+04 8.328108744512e-02 
1.550000000000e+00 -9.015899935713e+04 8.323940861947e-02 
1.600000000000e+00 -9.025867201049e+04 8.319332159560e-02 
1.650000000000e+00 -9.037696834818e+04 8.313968922551e-02 
1.700000000000e+00 -9.052092567780e+04 8.307516038737e-02 
1.750000000000e+00 -9.069801297320e+04 8.299616573743e-02 
1.800000000000e+00 -9.091600939373e+04 8.289895339559e-02 
1.850000000000e+00 -9.118276071392e+04 8.277967876801e-02 
1.900000000000e+00 -9.150580797841e+04 8.263455585020e-02 
1.950000000000e+00 -9.189191305037e+04 8.246006533952e-02 
2.000000000000e+00 -9.234654700095e+04 8.236506223833e-02 
 TITLE = "Profiles along polylines"
 VARIABLES = "DIST" "PRESSURE1" "SATURATION1" 
 ZONE T="TIME=5.000000000000e+01"
0.000000000000e+00 -5.033768757727e+04 4.945936758848e-01 
5.000000000000e-02 -5.135532582508e+04 4.928683589289e-01 
1.000000000000e-01 -5.234744421891e+04 4.894609917052e-01 
1.500000000000e-01 -5.331365803740e+04 4.861408101196e-01 
2.000000000000e-01 -5.424292426740e+04 4.829271888998e-01 
2.500000000000e-01 -5.511964619199e+04 4.798652933863e-01 
3.000000000000e-01 -5.592779524911e+04 4.770087414833e-01 
3.500000000000e-01 -5.665368940490e+04 4.744079049169e-01 
4.000000000000e-01 -5.728781225646e+04 2.862856520482e-01 
4.500000000000e-01 -6.178910583713e+04 9.828652345624e-02 
5.000000000000e-01 -6.610830863486e+04 9.611619581524e-02 
5.500000000000e-01 -7.016597785512e+04 9.405502418659e-02 
6.000000000000e-01 -7.389909121150e+04 1.202152865384e-01 
6.500000000000e-01 -8.392478539176e+04 1.372885806451e-01 
7.000000000000e-01 -8.806783908195e+04 1.230354846732e-01 
7.500000000000e-01 -8.944826625125e+04 1.174791219296e-01 
8.000000000000e-01 -8.985102439400e+04 1.156853211209e-01 
8.500000000000e-01 -8.995698179108e+04 1.151735771420e-01 
9.000000000000e-01 -8.997309857568e+04 1.150507762394e-01 
9.500000000000e-01 -8.994229700087e+04 1.150655484498e-01 
1.000000000000e+00 -8.983750401237e+04 1.152019502223e-01 
1.050000000000e+00 -8.957428154177e+04 1.155721565176e-01 
1.100000000000e+00 -8.902931293585e+04 9.980536131179e-02 
1.150000000000e+00 -8.922030024334e+04 8.372678325261e-02 
1.200000000000e+00 -8.938900507128e+04 8.363827918772e-02 
1.250000000000e+00 -8.953776345733e+04 8.356016576204e-02 
1.300000000000e+00 -8.966975056227e+04 8.349108691738e-02 
1.350000000000e+00 -8.978884912893e+04 8.342930602094e-02 
1.400000000000e+00 -8.989951533774e+04 8.337277123857e-02 
1.450000000000e+00 -9.000666531545e+04 8.331917646680e-02 
1.500000000000e+00 -9.011559293064e+04 8.326600948477e-02 
1.550000000000e+00 -9.023191724489e+04 8.321058511094e-02 
1.600000000000e+00 -9.036154850378e+04 8.315006650111e-02 
1.650000000000e+00 -9.051065573899e+04 8.308148148815e-02 
1.700000000000e+00 -9.068561693657e+04 8.300174281506e-02 
1.750000000000e+00 -9.089293408800e+04 8.290768129836e-02 
1.800000000000e+00 -9.113910015611e+04 8.279609946397e-02 
1.850000000000e+00 -9.143041304601e+04 8.266385005430e-02 
1.900000000000e+00 -9.177274289646e+04 8.250793906076e-02 
1.950000000000e+00 -9.217127250857e+04 8.232564685172e-02 
2.000000000000e+00 -9.263024418549e+04 8.222758662973e-02 
 TITLE = "Profiles along polylines"
 VARIABLES = "DIST" "PRESSURE1" "SATURATION1" 
 ZONE T="TIME=6.000000000000e+01"
0.000000000000e+00 -7.827200840954e+03 7.940521378378e-01 
5.000000000000e-02 -1.284405144298e+04 7.687816444541e-01 
1.000000000000e-01 -1.889526484377e+04 7.176689788225e-01 
1.500000000000e-01 -2.656175905374e+04 6.621158537083e-01 
2.000000000000e-01 -3.428145207787e+04 6.095006267239e-01 
2.500000000000e-01 -4.041909935173e+04 5.683859969398e-01 
3.000000000000e-01 -4.507224220280e+04 5.363697996376e-01 
3.500000000000e-01 -4.822239103694e+04 5.130343692668e-01 
4.000000000000e-01 -4.977062074639e+04 3.032990778953e-01 
4.500000000000e-01 -5.699633914804e+04 1.013154507856e-01 
5.000000000000e-01 -6.224275009946e+04 9.824662042553e-02 
5.500000000000e-01 -6.662261796317e+04 9.587802595010e-02 
6.000000000000e-01 -7.049328854162e+04 1.245132259038e-01 
6.500000000000e-01 -8.165709957413e+04 1.429958440284e-01 
7.000000000000e-01 -8.703763133296e+04 1.263530109599e-01 
7.500000000000e-01 -8.908159427624e+04 1.188843174310e-01 
8.000000000000e-01 -8.973631629091e+04 1.161695669072e-01 
8.500000000000e-01 -8.992129741024e+04 1.153248649288e-01 
9.000000000000e-01 -8.995534644530e+04 1.151045308640e-01 
9.500000000000e-01 -8.991739856312e+04 1.151084529214e-01 
1.000000000000e+00 -8.978826470507e+04 1.152765293175e-01 
1.050000000000e+00 -8.949179435134e+04 1.157046671975e-01 
1.100000000000e+00 -8.893573895134e+04 9.991136390851e-02 
1.150000000000e+00 -8.913360987795e+04 8.377113820549e-02 
1.200000000000e+00 -8.931292940046e+04 8.367832859223e-02 
1.250000000000e+00 -8.947583007188e+04 8.359412358671e-02 
1.300000000000e+00 -8.962515031433e+04 8.351730005543e-02 
1.350000000000e+00 -8.976437531077e+04 8.344630204344e-02 
1.400000000000e+00 -8.989755919690e+04 8.337927446334e-02 
1.450000000000e+00 -9.002923892706e+04 8.331410343409e-02 
1.500000000000e+00 -9.016434718649e+04 8.324845890307e-02 
1.550000000000e+00 -9.030812752704e+04 8.317983695581e-02 
1.600000000000e+00 -9.046605082656e+04 8.310560125281e-02 
1.650000000000e+00 -9.064372926319e+04 8.302302475223e-02 
1.700000000000e+00 -9.084682285829e+04 8.292933387249e-02 
1.750000000000e+00 -9.108093442178e+04 8.282175733714e-02 
1.800000000000e+00 -9.135149118865e+04 8.269758114797e-02 
1.850000000000e+00 -9.166361503004e+04 8.255420964417e-02 
1.900000000000e+00 -9.202198712046e+04 8.238923073691e-02 
1.950000000000e+00 -9.243071649364e+04 8.220048155110e-02 
2.000000000000e+00 -9.289322417927e+04 8.209991162643e-02 
 TITLE = "Profiles along polylines"
 VARIABLES = "DIST" "PRESSURE1" "SATURATION1" 
 ZONE T="TIME=7.000000000000e+01"
0.000000000000e+00 -2.002229002530e+04 6.826607616204e-01 
5.000000000000e-02 -2.133421587101e+04 6.771001217973e-01 
1.000000000000e-01 -2.280605258795e+04 6.653010547886e-01 
1.500000000000e-01 -2.450874737561e+04 6.518250352221e-01 
2.000000000000e-01 -2.635328912536e+04 6.391147006316e-01 
2.500000000000e-01 -2.810561547270e+04 6.284428186532e-01 
3.000000000000e-01 -2.967364283323e+04 6.185913528946e-01 
3.500000000000e-01 -3.096745975349e+04 6.101002813344e-01 
4.000000000000e-01 -3.191351171813e+04 3.669020161068e-01 
4.500000000000e-01 -3.792231249769e+04 1.233182053734e-01 
5.000000000000e-01 -4.434118856574e+04 1.142582301289e-01 
5.500000000000e-01 -5.276107497188e+04 1.055221442578e-01 
6.000000000000e-01 -6.075250486609e+04 1.377227001236e-01 
6.500000000000e-01 -7.815140286906e+04 1.563211821515e-01 
7.000000000000e-01 -8.558855322774e+04 1.313372820850e-01 
7.500000000000e-01 -8.853058559140e+04 1.208963109559e-01 
8.000000000000e-01 -8.954754704174e+04 1.169137488199e-01 
8.500000000000e-01 -8.985840012721e+04 1.155780296593e-01 
9.000000000000e-01 -8.992667949706e+04 1.151966401871e-01 
9.500000000000e-01 -8.988642127939e+04 1.151684522220e-01 
1.000000000000e+00 -8.973699772635e+04 1.153592631890e-01 
1.050000000000e+00 -8.941681982911e+04 1.158316602279e-01 
1.100000000000e+00 -8.886016269518e+04 1.000053806814e-01 
1.150000000000e+00 -8.906527528203e+04 8.380654819680e-02 
1.200000000000e+00 -8.925480523211e+04 8.370944440927e-02 
1.250000000000e+00 -8.943082199950e+04 8.361949979494e-02 
1.300000000000e+00 -8.959599158317e+04 8.353554917168e-02 
1.350000000000e+00 -8.975353716972e+04 8.345614347567e-02 
1.400000000000e+00 -8.990718080879e+04 8.337957379648e-02 
1.450000000000e+00 -9.006107149748e+04 8.330390342336e-02 
1.500000000000e+00 -9.021970450777e+04 8.322700539027e-02 
1.550000000000e+00 -9.038783551012e+04 8.314660345615e-02 
1.600000000000e+00 -9.057039154176e+04 8.306031514192e-02 
1.650000000000e+00 -9.077237962320e+04 8.296569612253e-02 
1.700000000000e+00 -9.099879317320e+04 8.286028573946e-02 
1.750000000000e+00 -9.125451643920e+04 8.274165354308e-02 
1.800000000000e+00 -9.154422787406e+04 8.260744658274e-02 
1.850000000000e+00 -9.187230452304e+04 8.245543670743e-02 
1.900000000000e+00 -9.224273072098e+04 8.228356655739e-02 
1.950000000000e+00 -9.265901539993e+04 8.208999237649e-02 
2.000000000000e+00 -9.312412278233e+04 8.198756343072e-02 
 TITLE = "Profiles along polylines"
 VARIABLES = "DIST" "PRESSURE1" "SATURATION1" 
 ZONE T="TIME=8.000000000000e+01"
0.000000000000e+00 -2.394641702942e+04 6.493956849983e-01 
5.000000000000e-02 -2.449771633325e+04 6.470242929437e-01 
1.000000000000e-01 -2.515622493345e+04 6.426991105712e-01 
1.500000000000e-01 -2.589520763820e+04 6.385527638413e-01 
2.000000000000e-01 -2.668540602494e+04 6.340156944544e-01 
2.500000000000e-01 -2.749374560470e+04 6.292728437143e-01 
3.000000000000e-01 -2.828952890074e+04 6.245134225881e-01 
3.500000000000e-01 -2.904644377236e+04 6.199065782041e-01 
4.000000000000e-01 -2.974495592026e+04 3.741261891206e-01 
4.500000000000e-01 -3.390476234790e+04 1.276671450552e-01 
5.000000000000e-01 -3.833548196536e+04 1.216278563781e-01 
5.500000000000e-01 -4.326165975522e+04 1.150497953527e-01 
6.000000000000e-01 -4.970479424792e+04 1.538186111902e-01 
6.500000000000e-01 -7.305116565900e+04 1.725652604745e-01 
7.000000000000e-01 -8.332803298627e+04 1.387418589285e-01 
7.500000000000e-01 -8.764093992605e+04 1.240652301439e-01 
8.000000000000e-01 -8.922722299187e+04 1.181309216168e-01 
8.500000000000e-01 -8.974619140964e+04 1.160131373415e-01 
9.000000000000e-01 -8.987905189495e+04 1.153574280299e-01 
9.500000000000e-01 -8.984760149349e+04 1.152554142407e-01 
1.000000000000e+00 -8.968483842509e+04 1.154507838845e-01 
1.050000000000e+00 -8.934970744228e+04 1.159516419534e-01 
1.100000000000e+00 -8.879969705561e+04 1.000877704713e-01 
1.150000000000e+00 -8.901239052142e+04 8.383443863471e-02 
1.200000000000e+00 -8.921192116187e+04 8.373300881334e-02 
1.250000000000e+00 -8.940030800467e+04 8.363755975921e-02 
1.300000000000e+00 -8.958007773755e+04 8.354697297609e-02 
1.350000000000e+00 -8.975423230793e+04 8.345988811541e-02 
1.400000000000e+00 -8.992619978867e+04 8.337472303825e-02 
1.450000000000e+00 -9.009977200085e+04 8.328970125326e-02 
1.500000000000e+00 -9.027903250959e+04 8.320288498193e-02 
1.550000000000e+00 -9.046827825703e+04 8.311221215816e-02 
1.600000000000e+00 -9.067193749162e+04 8.301553590478e-02 