 TITLE = "Profiles along polylines"
 VARIABLES = "DIST" "PRESSURE1" "SATURATION1" 
 ZONE T="TIME=0.000000000000e+00"
0.000000000000e+00 -9.000000000000e+04 3.601056880734e-01 
5.000000000000e-02 -9.000000000000e+04 3.601056880734e-01 
1.000000000000e-01 -9.000000000000e+04 3.601056880734e-01 
1.500000000000e-01 -9.000000000000e+04 3.601056880734e-01 
2.000000000000e-01 -9.000000000000e+04 3.601056880734e-01 
2.500000000000e-01 -9.000000000000e+04 3.601056880734e-01 
3.000000000000e-01 -9.000000000000e+04 3.601056880734e-01 
3.500000000000e-01 -9.000000000000e+04 3.601056880734e-01 
4.000000000000e-01 -9.000000000000e+04 3.601056880734e-01 
4.500000000000e-01 -9.000000000000e+04 3.601056880734e-01 
5.000000000000e-01 -9.000000000000e+04 3.601056880734e-01 
5.500000000000e-01 -9.000000000000e+04 3.601056880734e-01 
6.000000000000e-01 -9.000000000000e+04 3.601056880734e-01 
6.500000000000e-01 -9.000000000000e+04 3.601056880734e-01 
7.000000000000e-01 -9.000000000000e+04 3.601056880734e-01 
7.500000000000e-01 -9.000000000000e+04 2.217008899083e-01 
8.000000000000e-01 -9.000000000000e+04 8.329609174312e-02 
8.500000000000e-01 -9.000000000000e+04 8.329609174312e-02 
9.000000000000e-01 -9.000000000000e+04 8.329609174312e-02 
9.500000000000e-01 -9.000000000000e+04 8.329609174312e-02 
1.000000000000e+00 -9.000000000000e+04 8.329609174312e-02 
1.050000000000e+00 -9.000000000000e+04 8.329609174312e-02 
1.100000000000e+00 -9.000000000000e+04 8.329609174312e-02 
1.150000000000e+00 -9.000000000000e+04 8.329609174312e-02 
1.200000000000e+00 -9.000000000000e+04 8.329609174312e-02 
1.250000000000e+00 -9.000000000000e+04 8.329609174312e-02 
1.300000000000e+00 -9.000000000000e+04 8.329609174312e-02 
1.350000000000e+00 -9.000000000000e+04 8.329609174312e-02 
1.400000000000e+00 -9.000000000000e+04 8.329609174312e-02 
1.450000000000e+00 -9.000000000000e+04 8.329609174312e-02 
1.500000000000e+00 -9.000000000000e+04 8.329609174312e-02 
1.550000000000e+00 -9.000000000000e+04 8.329609174312e-02 
1.600000000000e+00 -9.000000000000e+04 8.329609174312e-02 
1.650000000000e+00 -9.000000000000e+04 8.329609174312e-02 
1.700000000000e+00 -9.000000000000e+04 8.329609174312e-02 
1.750000000000e+00 -9.000000000000e+04 8.329609174312e-02 
1.800000000000e+00 -9.000000000000e+04 8.329609174312e-02 
1.850000000000e+00 -9.000000000000e+04 8.329609174312e-02 
1.900000000000e+00 -9.000000000000e+04 8.329609174312e-02 
1.950000000000e+00 -9.000000000000e+04 8.329609174312e-02 
2.000000000000e+00 -9.000000000000e+04 8.329609174312e-02 
 TITLE = "Profiles along polylines"
 VARIABLES = "DIST" "PRESSURE1" "SATURATION1" 
 ZONE T="TIME=5.000000000000e-01"
0.000000000000e+00 -8.361924651779e+04 3.817417108901e-01 
5.000000000000e-02 -8.762672130270e+04 3.749473866676e-01 
1.000000000000e-01 -8.915648244817e+04 3.655594857508e-01 
1.500000000000e-01 -8.970598187850e+04 3.620342806645e-01 
2.000000000000e-01 -8.989826617585e+04 3.607766510051e-01 
2.500000000000e-01 -8.996489823816e+04 3.603376808834e-01 
3.000000000000e-01 -8.998792228431e+04 3.601856767656e-01 
3.500000000000e-01 -8.999591012586e+04 3.601330988129e-01 
4.000000000000e-01 -8.999879900795e+04 3.601146582759e-01 
4.500000000000e-01 -9.000017947890e+04 3.601074199599e-01 
5.000000000000e-01 -9.000174950197e+04 3.601024176544e-01 
5.500000000000e-01 -9.000540283037e+04 3.600935619173e-01 
6.000000000000e-01 -9.001551541358e+04 3.600702230139e-01 
6.500000000000e-01 -9.004420049286e+04 3.600044449586e-01 
7.000000000000e-01 -9.012592699156e+04 3.598172517512e-01 
7.500000000000e-01 -9.035983399722e+04 2.213988526987e-01 
8.000000000000e-01 -9.005903638912e+04 8.319302657099e-02 
8.500000000000e-01 -9.000973375853e+04 8.327917050128e-02 
9.000000000000e-01 -9.000160616588e+04 8.329330149750e-02 
9.500000000000e-01 -9.000026506825e+04 8.329563131652e-02 
1.000000000000e+00 -9.000004374561e+04 8.329601575791e-02 
1.050000000000e+00 -9.000000721960e+04 8.329607920287e-02 
1.100000000000e+00 -9.000000119149e+04 8.329608967353e-02 
1.150000000000e+00 -9.000000019664e+04 8.329609140156e-02 
1.200000000000e+00 -9.000000003245e+04 8.329609168675e-02 
1.250000000000e+00 -9.000000000536e+04 8.329609173382e-02 
1.300000000000e+00 -9.000000000089e+04 8.329609174158e-02 
1.350000000000e+00 -9.000000000016e+04 8.329609174286e-02 
1.400000000000e+00 -9.000000000011e+04 8.329609174305e-02 
1.450000000000e+00 -9.000000000053e+04 8.329609174296e-02 
1.500000000000e+00 -9.000000000310e+04 8.329609174223e-02 
1.550000000000e+00 -9.000000001839e+04 8.329609173783e-02 
1.600000000000e+00 -9.000000010911e+04 8.329609171175e-02 
1.650000000000e+00 -9.000000064734e+04 8.329609155699e-02 
1.700000000000e+00 -9.000000384080e+04 8.329609063879e-02 
1.750000000000e+00 -9.000002278815e+04 8.329608519093e-02 
1.800000000000e+00 -9.000013520640e+04 8.329605286776e-02 
1.850000000000e+00 -9.000080221356e+04 8.329586108621e-02 
1.900000000000e+00 -9.000476003200e+04 8.329472312453e-02 
1.950000000000e+00 -9.002825470979e+04 8.328796829931e-02 
2.000000000000e+00 -9.016808676343e+04 8.328218731529e-02 
 TITLE = "Profiles along polylines"
 VARIABLES = "DIST" "PRESSURE1" "SATURATION1" 
 ZONE T="TIME=1.000000000000e+00"
0.000000000000e+00 -8.530173524570e+04 3.760366848917e-01 
5.000000000000e-02 -8.717071588845e+04 3.728679911047e-01 
1.000000000000e-01 -8.858825674481e+04 3.672959803429e-01 
1.500000000000e-01 -8.936338111586e+04 3.635785075537e-01 
2.000000000000e-01 -8.972973101468e+04 3.616432374154e-01 
2.500000000000e-01 -8.988962004680e+04 3.607510451728e-01 
3.000000000000e-01 -8.995620284993e+04 3.603670819145e-01 
3.500000000000e-01 -8.998327622927e+04 3.602082960198e-01 
4.000000000000e-01 -8.999456830973e+04 3.601432507265e-01 
4.500000000000e-01 -9.000052767322e+04 3.601140024069e-01 
5.000000000000e-01 -9.000679094455e+04 3.600932799948e-01 
5.500000000000e-01 -9.001902657300e+04 3.600619167225e-01 
6.000000000000e-01 -9.004750817687e+04 3.599928842039e-01 
6.500000000000e-01 -9.011423008043e+04 3.598314749546e-01 
7.000000000000e-01 -9.026501287051e+04 3.594627147034e-01 
7.500000000000e-01 -9.058441205823e+04 2.211077861480e-01 
8.000000000000e-01 -9.013772899474e+04 8.311840529320e-02 
8.500000000000e-01 -9.002963178173e+04 8.325491177959e-02 
9.000000000000e-01 -9.000603497209e+04 8.328731575837e-02 
9.500000000000e-01 -9.000118517675e+04 8.329431518907e-02 
1.000000000000e+00 -9.000022683182e+04 8.329574431129e-02 
1.050000000000e+00 -9.000004259079e+04 8.329602545033e-02 
1.100000000000e+00 -9.000000787985e+04 8.329607932456e-02 
1.150000000000e+00 -9.000000144088e+04 8.329608944971e-02 
1.200000000000e+00 -9.000000026097e+04 8.329609132437e-02 
1.250000000000e+00 -9.000000004690e+04 8.329609166737e-02 
1.300000000000e+00 -9.000000000840e+04 8.329609172951e-02 
1.350000000000e+00 -9.000000000165e+04 8.329609174065e-02 
1.400000000000e+00 -9.000000000117e+04 8.329609174243e-02 
1.450000000000e+00 -9.000000000506e+04 8.329609174159e-02 
1.500000000000e+00 -9.000000002756e+04 8.329609173509e-02 
1.550000000000e+00 -9.000000015036e+04 8.329609169934e-02 
1.600000000000e+00 -9.000000081417e+04 8.329609150579e-02 
1.650000000000e+00 -9.000000436833e+04 8.329609046794e-02 
1.700000000000e+00 -9.000002317536e+04 8.329608496586e-02 
1.750000000000e+00 -9.000012123074e+04 8.329605621127e-02 
1.800000000000e+00 -9.000062273880e+04 8.329590868566e-02 
1.850000000000e+00 -9.000312211679e+04 8.329517030251e-02 
1.900000000000e+00 -9.001512870763e+04 8.329160103568e-02 
1.950000000000e+00 -9.006966765870e+04 8.327522716931e-02 
2.000000000000e+00 -9.029494852109e+04 8.326180758521e-02 
 TITLE = "Profiles along polylines"
 VARIABLES = "DIST" "PRESSURE1" "SATURATION1" 
 ZONE T="TIME=5.000000000000e+00"
0.000000000000e+00 -7.560365266605e+04 4.089211924278e-01 
5.000000000000e-02 -7.724791478397e+04 4.061334893141e-01 
1.000000000000e-01 -7.968553081427e+04 3.992130206738e-01 
1.500000000000e-01 -8.216321412924e+04 3.908795590316e-01 
2.000000000000e-01 -8.432506985571e+04 3.830136249503e-01 
2.500000000000e-01 -8.604748551728e+04 3.764281813493e-01 
3.000000000000e-01 -8.733779616669e+04 3.713203664661e-01 
3.500000000000e-01 -8.826555335832e+04 3.675598257594e-01 
4.000000000000e-01 -8.891898460945e+04 3.648790585647e-01 
4.500000000000e-01 -8.938194026537e+04 3.629863218636e-01 
5.000000000000e-01 -8.972518364479e+04 3.616194816642e-01 
5.500000000000e-01 -9.000579394091e+04 3.605617921299e-01 
6.000000000000e-01 -9.026990847560e+04 3.596382586553e-01 
6.500000000000e-01 -9.055574678566e+04 3.587058615387e-01 
7.000000000000e-01 -9.089503618368e+04 3.576460119933e-01 
7.500000000000e-01 -9.131163923824e+04 2.198606986136e-01 
8.000000000000e-01 -9.067950628380e+04 8.280616034036e-02 
8.500000000000e-01 -9.033010198963e+04 8.304767253309e-02 
9.000000000000e-01 -9.015359403494e+04 8.317707589561e-02 
9.500000000000e-01 -9.006940197696e+04 8.324122244918e-02 
1.000000000000e+00 -9.003073632056e+04 8.327145220973e-02 
1.050000000000e+00 -9.001342571110e+04 8.328522545239e-02 
1.100000000000e+00 -9.000580900914e+04 8.329135894315e-02 
1.150000000000e+00 -9.000249750988e+04 8.329404788220e-02 
1.200000000000e+00 -9.000107028267e+04 8.329521386976e-02 
1.250000000000e+00 -9.000046047651e+04 8.329571509210e-02 
1.300000000000e+00 -9.000020523905e+04 8.329592794045e-02 
1.350000000000e+00 -9.000010865781e+04 8.329601450721e-02 
1.400000000000e+00 -9.000009563417e+04 8.329604147605e-02 
1.450000000000e+00 -9.000015470838e+04 8.329603014507e-02 
1.500000000000e+00 -9.000032830788e+04 8.329597289453e-02 
1.550000000000e+00 -9.000074248712e+04 8.329582826861e-02 
1.600000000000e+00 -9.000169587609e+04 8.329549177155e-02 
1.650000000000e+00 -9.000386650306e+04 8.329472309166e-02 
1.700000000000e+00 -9.000876628281e+04 8.329298338241e-02 
1.750000000000e+00 -9.001970433511e+04 8.328908640392e-02 
1.800000000000e+00 -9.004373415008e+04 8.328048238374e-02 
1.850000000000e+00 -9.009529631031e+04 8.326188259681e-02 
1.900000000000e+00 -9.020212081305e+04 8.322291075919e-02 
1.950000000000e+00 -9.041198225614e+04 8.314498858426e-02 
2.000000000000e+00 -9.079166965488e+04 8.309335111725e-02 
 TITLE = "Profiles along polylines"
 VARIABLES = "DIST" "PRESSURE1" "SATURATION1" 
 ZONE T="TIME=1.000000000000e+01"
0.000000000000e+00 -7.953744284135e+04 3.955823956499e-01 
5.000000000000e-02 -8.022929512283e+04 3.944094204057e-01 
1.000000000000e-01 -8.123671429648e+04 3.915284537552e-01 
1.500000000000e-01 -8.242561570014e+04 3.878047836388e-01 
2.000000000000e-01 -8.366982028664e+04 3.836796644921e-01 
2.500000000000e-01 -8.487272617233e+04 3.795308019668e-01 
3.000000000000e-01 -8.597263190214e+04 3.756265855765e-01 
3.500000000000e-01 -8.693973075056e+04 3.721221594659e-01 
4.000000000000e-01 -8.776925160961e+04 3.690761473380e-01 
4.500000000000e-01 -8.847359698410e+04 3.664756108246e-01 
5.000000000000e-01 -8.907520458599e+04 3.642614813747e-01 
5.500000000000e-01 -8.960091872373e+04 3.623502056180e-01 
6.000000000000e-01 -9.007794138482e+04 3.606501527701e-01 
6.500000000000e-01 -9.053100516180e+04 3.590732722769e-01 
7.000000000000e-01 -9.098026538750e+04 3.575434605733e-01 
7.500000000000e-01 -9.143949954375e+04 2.196847392534e-01 
8.000000000000e-01 -9.094886833568e+04 8.270842177499e-02 
8.500000000000e-01 -9.059060838178e+04 8.291729572879e-02 
9.000000000000e-01 -9.035284969384e+04 8.306394912304e-02 
9.500000000000e-01 -9.020456104076e+04 8.315893801925e-02 
1.000000000000e+00 -9.011596023895e+04 8.321722586494e-02 
1.050000000000e+00 -9.006463320498e+04 8.325165581499e-02 
1.100000000000e+00 -9.003557481293e+04 8.327143505468e-02 
1.150000000000e+00 -9.001941605990e+04 8.328256096138e-02 
1.200000000000e+00 -9.001057292807e+04 8.328871280131e-02 
1.250000000000e+00 -9.000583115422e+04 8.329205543590e-02 
1.300000000000e+00 -9.000340117910e+04 8.329382008092e-02 
1.350000000000e+00 -9.000233844981e+04 8.329467947846e-02 
1.400000000000e+00 -9.000221636977e+04 8.329497100678e-02 
1.450000000000e+00 -9.000297042270e+04 8.329481550666e-02 
1.500000000000e+00 -9.000486874553e+04 8.329416287622e-02 
1.550000000000e+00 -9.000859834544e+04 8.329277809743e-02 
1.600000000000e+00 -9.001548807213e+04 8.329016515854e-02 
1.650000000000e+00 -9.002792162931e+04 8.328541056704e-02 
1.700000000000e+00 -9.005002440155e+04 8.327691272892e-02 
1.750000000000e+00 -9.008872207148e+04 8.326195247333e-02 
1.800000000000e+00 -9.015522368534e+04 8.323606765873e-02 
1.850000000000e+00 -9.026677967182e+04 8.319225568771e-02 
1.900000000000e+00 -9.044803425078e+04 8.312020817060e-02 
1.950000000000e+00 -9.073024854853e+04 8.300616931489e-02 
2.000000000000e+00 -9.114534787456e+04 8.293672906291e-02 
 TITLE = "Profiles along polylines"
 VARIABLES = "DIST" "PRESSURE1" "SATURATION1" 
 ZONE T="TIME=2.000000000000e+01"
0.000000000000e+00 -4.757550595469e+04 5.044510011233e-01 
5.000000000000e-02 -5.388374441906e+04 4.935103081888e-01 
1.000000000000e-01 -5.924044834754e+04 4.734877906122e-01 
1.500000000000e-01 -6.385791934703e+04 4.565774463307e-01 
2.000000000000e-01 -6.787718837093e+04 4.419346063644e-01 
2.500000000000e-01 -7.138913591724e+04 4.291660850601e-01 
3.000000000000e-01 -7.445726796072e+04 4.180101336087e-01 
3.500000000000e-01 -7.712971174711e+04 4.082774876146e-01 
4.000000000000e-01 -7.944595043576e+04 3.998196112716e-01 
4.500000000000e-01 -8.144053051406e+04 3.925109937658e-01 
5.000000000000e-01 -8.314481966987e+04 3.862398833579e-01 
5.500000000000e-01 -8.458743714158e+04 3.809045774426e-01 
6.000000000000e-01 -8.579378450931e+04 3.764134884304e-01 
6.500000000000e-01 -8.678501325644e+04 3.726876896595e-01 
7.000000000000e-01 -8.757671438679e+04 3.696648874452e-01 
7.500000000000e-01 -8.817758484181e+04 2.262577739070e-01 
8.000000000000e-01 -8.903693013838e+04 8.398147438744e-02 
8.500000000000e-01 -8.951299333500e+04 8.365289038939e-02 
9.000000000000e-01 -8.976576876450e+04 8.347355596781e-02 
9.500000000000e-01 -8.989472435003e+04 8.337962912540e-02 
1.000000000000e+00 -8.995777431150e+04 8.333238519172e-02 
1.050000000000e+00 -8.998706635748e+04 8.330966397484e-02 
1.100000000000e+00 -8.999979953310e+04 8.329932345701e-02 
1.150000000000e+00 -9.000490351220e+04 8.329493453509e-02 
1.200000000000e+00 -9.000691260775e+04 8.329318432718e-02 
1.250000000000e+00 -9.000812601754e+04 8.329239141349e-02 
1.300000000000e+00 -9.000978697640e+04 8.329168416057e-02 
1.350000000000e+00 -9.001272906142e+04 8.329055155840e-02 
1.400000000000e+00 -9.001775119919e+04 8.328859192120e-02 
1.450000000000e+00 -9.002587141860e+04 8.328535817790e-02 
1.500000000000e+00 -9.003854661093e+04 8.328024136191e-02 
1.550000000000e+00 -9.005791122214e+04 8.327235780658e-02 
1.600000000000e+00 -9.008706774333e+04 8.326041893712e-02 
1.650000000000e+00 -9.013044554260e+04 8.324257150157e-02 
1.700000000000e+00 -9.019422253691e+04 8.321620552392e-02 
1.750000000000e+00 -9.028676635877e+04 8.317774199833e-02 
1.800000000000e+00 -9.041898752442e+04 8.312243743902e-02 
1.850000000000e+00 -9.060440045911e+04 8.304428196589e-02 
1.900000000000e+00 -9.085857212163e+04 8.293611995765e-02 
1.950000000000e+00 -9.119756899303e+04 8.279016784683e-02 
2.000000000000e+00 -9.163516966658e+04 8.270675595609e-02 
 TITLE = "Profiles along polylines"
 VARIABLES = "DIST" "PRESSURE1" "SATURATION1" 
 ZONE T="TIME=3.000000000000e+01"
0.000000000000e+00 -4.583800140914e+04 5.180199537992e-01 
5.000000000000e-02 -4.941328566173e+04 5.078740577227e-01 
1.000000000000e-01 -5.321402770645e+04 4.912843347666e-01 
1.500000000000e-01 -5.686864386999e+04 4.786444247034e-01 
2.000000000000e-01 -6.033977654410e+04 4.665633386007e-01 
2.500000000000e-01 -6.360427549681e+04 4.551436622279e-01 
3.000000000000e-01 -6.664651676825e+04 4.444511338479e-01 
3.500000000000e-01 -6.945508552482e+04 4.345315953783e-01 
4.000000000000e-01 -7.202104412254e+04 4.254195526713e-01 
4.500000000000e-01 -7.433697148854e+04 4.171427405052e-01 
5.000000000000e-01 -7.639637670759e+04 4.097247454436e-01 
5.500000000000e-01 -7.819329026717e+04 4.031866930556e-01 
6.000000000000e-01 -7.972194723526e+04 3.975484780693e-01 
6.500000000000e-01 -8.097654777968e+04 3.928297075343e-01 
7.000000000000e-01 -8.195112938220e+04 3.890503234907e-01 
7.500000000000e-01 -8.263961331300e+04 2.371581088176e-01 
8.000000000000e-01 -8.496432537983e+04 8.634620517668e-02 
8.500000000000e-01 -8.662822254514e+04 8.536478774910e-02 
9.000000000000e-01 -8.778265184195e+04 8.467132430219e-02 
9.500000000000e-01 -8.856301199426e+04 8.419525959553e-02 
1.000000000000e+00 -8.907978111384e+04 8.387609439304e-02 
1.050000000000e+00 -8.941682200336e+04 8.366601013208e-02 
1.100000000000e+00 -8.963444691550e+04 8.352953181281e-02 
1.150000000000e+00 -8.977439069155e+04 8.344155023283e-02 
1.200000000000e+00 -8.986480358065e+04 8.338486981302e-02 
1.250000000000e+00 -8.992441625802e+04 8.334795526538e-02 
1.300000000000e+00 -8.996569322519e+04 8.332313085927e-02 
1.350000000000e+00 -8.999709530462e+04 8.330524781312e-02 
1.400000000000e+00 -9.002466132812e+04 8.329073841385e-02 
1.450000000000e+00 -9.005311035739e+04 8.327695562747e-02 
1.500000000000e+00 -9.008662404349e+04 8.326170938870e-02 
1.550000000000e+00 -9.012942261973e+04 8.324293237149e-02 
1.600000000000e+00 -9.018620677783e+04 8.321842953722e-02 
1.650000000000e+00 -9.026250209466e+04 8.318568466092e-02 
1.700000000000e+00 -9.036491082332e+04 8.314171362881e-02 
1.750000000000e+00 -9.050124607879e+04 8.308296946684e-02 
1.800000000000e+00 -9.068049647277e+04 8.300531802539e-02 
1.850000000000e+00 -9.091255046623e+04 8.290411450547e-02 
1.900000000000e+00 -9.120761177132e+04 8.277441512650e-02 
1.950000000000e+00 -9.157528164647e+04 8.261134677555e-02 
2.000000000000e+00 -9.202339677225e+04 8.252087974755e-02 
 TITLE = "Profiles along polylines"
 VARIABLES = "DIST" "PRESSURE1" "SATURATION1" 
 ZONE T="TIME=4.000000000000e+01"
0.000000000000e+00 -5.661854962881e+04 4.732963674972e-01 
5.000000000000e-02 -5.739536474392e+04 4.719793451736e-01 
1.000000000000e-01 -5.860207330536e+04 4.686164536559e-01 
1.500000000000e-01 -6.010995054784e+04 4.640141100177e-01 
2.000000000000e-01 -6.181660688820e+04 4.585641484938e-01 
2.500000000000e-01 -6.364035870393e+04 4.525786491612e-01 
3.000000000000e-01 -6.551537563350e+04 4.463077091233e-01 
3.500000000000e-01 -6.738776588449e+04 4.399543068576e-01 
4.000000000000e-01 -6.921256787923e+04 4.336860396373e-01 
4.500000000000e-01 -7.095153765100e+04 4.276439752111e-01 
5.000000000000e-01 -7.257161127253e+04 4.219490098985e-01 
5.500000000000e-01 -7.404394101194e+04 4.167061095214e-01 
6.000000000000e-01 -7.534342753367e+04 4.120067366309e-01 
6.500000000000e-01 -7.644868352939e+04 4.079297052802e-01 
7.000000000000e-01 -7.734235918930e+04 4.045406908769e-01 
7.500000000000e-01 -7.801173649034e+04 2.461105894417e-01 
8.000000000000e-01 -8.091582405347e+04 8.848107180014e-02 
8.500000000000e-01 -8.326589867790e+04 8.718825868206e-02 
9.000000000000e-01 -8.510923273126e+04 8.615644931749e-02 
9.500000000000e-01 -8.651327317868e+04 8.535741643574e-02 
1.000000000000e+00 -8.755488103464e+04 8.475565233026e-02 
1.050000000000e+00 -8.831043167792e+04 8.431345241329e-02 
1.100000000000e+00 -8.884873506117e+04 8.399509310145e-02 
1.150000000000e+00 -8.922740822996e+04 8.376946639387e-02 
1.200000000000e+00 -8.949214169720e+04 8.361115294453e-02 
1.250000000000e+00 -8.967779151180e+04 8.350033386545e-02 
1.300000000000e+00 -8.981030229986e+04 8.342204884377e-02 
1.350000000000e+00 -8.990878831453e+04 8.336521091488e-02 
1.400000000000e+00 -8.998741949669e+04 8.332163033489e-02 
1.450000000000e+00 -9.005698076596e+04 8.328516683445e-02 
1.500000000000e+00 -9.012609349946e+04 8.325104539634e-02 
1.550000000000e+00 -9.020213883022e+04 8.321532852218e-02 
1.600000000000e+00 -9.029193321798e+04 8.317452282263e-02 
1.650000000000e+00 -9.040219854456e+04 8.312529712045e-02 
1.700000000000e+00 -9.053985405041e+04 8.306429494865e-02 
1.750000000000e+00 -9.071214272328e+04 8.298803161954e-02 
1.800000000000e+00 -9.092659472989e+04 8.289287212391e-02 
1.850000000000e+00 -9.119082882903e+04 8.277508899220e-02 
1.900000000000e+00 -9.151220291184e+04 8.263099714413e-02 
1.950000000000e+00 -9.189734934039e+04 8.245715420729e-02 
2.000000000000e+00 -9.235166813066e+04 8.236238698515e-02 
 TITLE = "Profiles along polylines"
 VARIABLES = "DIST" "PRESSURE1" "SATURATION1" 
 ZONE T="TIME=5.000000000000e+01"
0.000000000000e+00 -5.735805555830e+04 4.707888317950e-01 
5.000000000000e-02 -5.847716971523e+04 4.688914712794e-01 
1.000000000000e-01 -5.966632474743e+04 4.649780020486e-01 
1.500000000000e-01 -6.092657461616e+04 4.608252495193e-01 
2.000000000000e-01 -6.224754295436e+04 4.564490190180e-01 
2.500000000000e-01 -6.361204453675e+04 4.518960388224e-01 
3.000000000000e-01 -6.499910044753e+04 4.472310129074e-01 
3.500000000000e-01 -6.638586895429e+04 4.425282353628e-01 
4.000000000000e-01 -6.774888130072e+04 4.378662215860e-01 
4.500000000000e-01 -6.906486492363e+04 4.333242174105e-01 
5.000000000000e-01 -7.031135457946e+04 4.289797673012e-01 
5.500000000000e-01 -7.146722905460e+04 4.249067682975e-01 
6.000000000000e-01 -7.251326052686e+04 4.211736286729e-01 
6.500000000000e-01 -7.343271891458e+04 4.178413119195e-01 
7.000000000000e-01 -7.421203093900e+04 4.149611947437e-01 
7.500000000000e-01 -7.484145349018e+04 2.521978522923e-01 
8.000000000000e-01 -7.777790631651e+04 9.003323642188e-02 
8.500000000000e-01 -8.033663650954e+04 8.868111891198e-02 
9.000000000000e-01 -8.250606118192e+04 8.751773254968e-02 
9.500000000000e-01 -8.429625123738e+04 8.654344936619e-02 
1.000000000000e+00 -8.573541482189e+04 8.574885060817e-02 
1.050000000000e+00 -8.686468768201e+04 8.511687386097e-02 
1.100000000000e+00 -8.773207502437e+04 8.462558554326e-02 
1.150000000000e+00 -8.838677736791e+04 8.425106769577e-02 
1.200000000000e+00 -8.887488419916e+04 8.396987373185e-02 
1.250000000000e+00 -8.923682319084e+04 8.376071566789e-02 
1.300000000000e+00 -8.950640135755e+04 8.360532768452e-02 
1.350000000000e+00 -8.971098350045e+04 8.348865814778e-02 
1.400000000000e+00 -8.987231610533e+04 8.339862297773e-02 
1.450000000000e+00 -9.000760872165e+04 8.332563684532e-02 
1.500000000000e+00 -9.013062358398e+04 8.326207898682e-02 
1.550000000000e+00 -9.025264035196e+04 8.320178771778e-02 
1.600000000000e+00 -9.038324014739e+04 8.313963013768e-02 
1.650000000000e+00 -9.053089646956e+04 8.307116381590e-02 
1.700000000000e+00 -9.070338119671e+04 8.299239149533e-02 
1.750000000000e+00 -9.090800206672e+04 8.289960276032e-02 
1.800000000000e+00 -9.115169129030e+04 8.278929379968e-02 
1.850000000000e+00 -9.144096802680e+04 8.265815483592e-02 
1.900000000000e+00 -9.178180278757e+04 8.250311272255e-02 
1.950000000000e+00 -9.217941977627e+04 8.232141294347e-02 
2.000000000000e+00 -9.263808183735e+04 8.222357727707e-02 
 TITLE = "Profiles along polylines"
 VARIABLES = "DIST" "PRESSURE1" "SATURATION1" 
 ZONE T="TIME=6.000000000000e+01"
0.000000000000e+00 -9.013687582337e+03 7.759813915039e-01 
5.000000000000e-02 -1.508730337345e+04 7.502381759489e-01 
1.000000000000e-01 -2.236456268989e+04 6.909281970964e-01 
1.500000000000e-01 -3.251916814699e+04 6.272075770503e-01 
2.000000000000e-01 -4.136464892980e+04 5.708092419368e-01 
2.500000000000e-01 -4.918271759652e+04 5.215373706681e-01 
3.000000000000e-01 -5.529673541014e+04 4.881441934346e-01 
3.500000000000e-01 -5.945740915067e+04 4.707243494052e-01 
4.000000000000e-01 -6.247967938838e+04 4.585462939265e-01 
4.500000000000e-01 -6.479036470508e+04 4.495047325828e-01 
5.000000000000e-01 -6.662658816480e+04 4.424740101802e-01 
5.500000000000e-01 -6.812339318331e+04 4.368231508887e-01 
6.000000000000e-01 -6.935857084141e+04 4.321913123691e-01 
6.500000000000e-01 -7.037676500682e+04 4.283709168371e-01 
7.000000000000e-01 -7.120262315685e+04 4.252444868565e-01 
7.500000000000e-01 -7.184789258705e+04 2.580366216645e-01 
8.000000000000e-01 -7.492145660168e+04 9.147266105283e-02 
8.500000000000e-01 -7.763888813384e+04 9.004775737792e-02 
9.000000000000e-01 -8.002402829536e+04 8.879224386577e-02 
9.500000000000e-01 -8.208583494185e+04 8.769805016494e-02 
1.000000000000e+00 -8.383304450523e+04 8.676082250669e-02 
1.050000000000e+00 -8.528127021209e+04 8.597456953469e-02 
1.100000000000e+00 -8.645515155343e+04 8.532938686467e-02 
1.150000000000e+00 -8.738713540367e+04 8.481122810836e-02 
1.200000000000e+00 -8.811436752030e+04 8.440296964752e-02 
1.250000000000e+00 -8.867510403032e+04 8.408605846800e-02 
1.300000000000e+00 -8.910569526919e+04 8.384213727328e-02 
1.350000000000e+00 -8.943864841046e+04 8.365426332580e-02 
1.400000000000e+00 -8.970178713616e+04 8.350759191412e-02 
1.450000000000e+00 -8.991824702329e+04 8.338958425545e-02 
1.500000000000e+00 -9.010697184751e+04 8.328988651271e-02 
1.550000000000e+00 -9.028342594765e+04 8.320003239572e-02 
1.600000000000e+00 -9.046032910960e+04 8.311308705839e-02 
1.650000000000e+00 -9.064830513608e+04 8.302330669294e-02 
1.700000000000e+00 -9.085639652425e+04 8.292585230706e-02 
1.750000000000e+00 -9.109243578947e+04 8.281657171877e-02 
1.800000000000e+00 -9.136328515825e+04 8.269184921268e-02 
1.850000000000e+00 -9.167496692462e+04 8.254851448750e-02 
1.900000000000e+00 -9.203271117078e+04 8.238379883928e-02 
1.950000000000e+00 -9.244094825164e+04 8.219532526872e-02 
2.000000000000e+00 -9.290327138641e+04 8.209487647506e-02 
 TITLE = "Profiles along polylines"
 VARIABLES = "DIST" "PRESSURE1" "SATURATION1" 
 ZONE T="TIME=7.000000000000e+01"
0.000000000000e+00 -2.578242482533e+04 6.370294590314e-01 
5.000000000000e-02 -2.778860387310e+04 6.310771401119e-01 
1.000000000000e-01 -3.005749493324e+04 6.183930376068e-01 
1.500000000000e-01 -3.258834580315e+04 6.041522375493e-01 
2.000000000000e-01 -3.536136378974e+04 5.884156964982e-01 
2.500000000000e-01 -3.835126032333e+04 5.713171702385e-01 
3.000000000000e-01 -4.153592835477e+04 5.529972812332e-01 
3.500000000000e-01 -4.490529047906e+04 5.335515205279e-01 
4.000000000000e-01 -4.846483588268e+04 5.122494183341e-01 
4.500000000000e-01 -5.203070588276e+04 4.948985677225e-01 
5.000000000000e-01 -5.511079318640e+04 4.836309263488e-01 
5.500000000000e-01 -5.772236762544e+04 4.739812099264e-01 
6.000000000000e-01 -5.987837122613e+04 4.658981968828e-01 
6.500000000000e-01 -6.158781406247e+04 4.593446693456e-01 
7.000000000000e-01 -6.285601171548e+04 4.542963394150e-01 
7.500000000000e-01 -6.368489374661e+04 2.741961209605e-01 
8.000000000000e-01 -6.862383907349e+04 9.503076867674e-02 
8.500000000000e-01 -7.269834238084e+04 9.281296415959e-02 
9.000000000000e-01 -7.608445974645e+04 9.097724079767e-02 
9.500000000000e-01 -7.890346514816e+04 8.945043903052e-02 
1.000000000000e+00 -8.124377642785e+04 8.818096312781e-02 
1.050000000000e+00 -8.317391002395e+04 8.713019861801e-02 
1.100000000000e+00 -8.475084699398e+04 8.626726620898e-02 
1.150000000000e+00 -8.602520541306e+04 8.556569059122e-02 
1.200000000000e+00 -8.704390160998e+04 8.500147293250e-02 
1.250000000000e+00 -8.785096920475e+04 8.455223453898e-02 
1.300000000000e+00 -8.848729046174e+04 8.419708142885e-02 
1.350000000000e+00 -8.898994048217e+04 8.391683179894e-02 
1.400000000000e+00 -8.939163718010e+04 8.369431272567e-02 
1.450000000000e+00 -8.972052971824e+04 8.351454755767e-02 
1.500000000000e+00 -9.000034770140e+04 8.336477126244e-02 
1.550000000000e+00 -9.025081704852e+04 8.323429138906e-02 
1.600000000000e+00 -9.048821547084e+04 8.311424906267e-02 
1.650000000000e+00 -9.072595717871e+04 8.299733843614e-02 
1.700000000000e+00 -9.097513169017e+04 8.287753024345e-02 
1.750000000000e+00 -9.124495647517e+04 8.274982784776e-02 
1.800000000000e+00 -9.154312978467e+04 8.261006905056e-02 
1.850000000000e+00 -9.187608713029e+04 8.245477616826e-02 
1.900000000000e+00 -9.224917400367e+04 8.228105042557e-02 
1.950000000000e+00 -9.266675057747e+04 8.208650369480e-02 
2.000000000000e+00 -9.313224289507e+04 8.198375687178e-02 
 TITLE = "Profiles along polylines"
 VARIABLES = "DIST" "PRESSURE1" "SATURATION1" 
 ZONE T="TIME=8.000000000000e+01"
0.000000000000e+00 -3.452998356716e+04 5.851215702951e-01 
5.000000000000e-02 -3.517785045536e+04 5.831993538607e-01 
1.000000000000e-01 -3.610277744690e+04 5.785328856423e-01 
1.500000000000e-01 -3.727495777722e+04 5.723107831824e-01 
2.000000000000e-01 -3.866856449915e+04 5.646981113068e-01 
2.500000000000e-01 -4.026048596071e+04 5.558400704898e-01 
3.000000000000e-01 -4.202951711107e+04 5.458681480726e-01 
3.500000000000e-01 -4.395544412154e+04 5.349052335751e-01 
4.000000000000e-01 -4.601716713687e+04 5.230739044027e-01 
4.500000000000e-01 -4.818829378543e+04 5.101106370132e-01 
5.000000000000e-01 -5.038266902421e+04 4.988528193688e-01 
5.500000000000e-01 -5.236801855334e+04 4.910751645474e-01 
6.000000000000e-01 -5.408460511192e+04 4.847988545565e-01 
6.500000000000e-01 -5.550578383654e+04 4.794790469938e-01 
7.000000000000e-01 -5.661240472789e+04 4.751933830577e-01 
7.500000000000e-01 -5.739237154567e+04 2.863299192792e-01 
8.000000000000e-01 -6.271028794581e+04 9.803413460953e-02 
8.500000000000e-01 -6.732408334033e+04 9.559038680831e-02 
9.000000000000e-01 -7.132096702522e+04 9.347168577244e-02 
9.500000000000e-01 -7.476550475387e+04 9.164068648518e-02 
1.000000000000e+00 -7.771099316199e+04 9.006838831098e-02 
1.050000000000e+00 -8.020530521848e+04 8.872989795812e-02 
1.100000000000e+00 -8.229424467932e+04 8.760216579579e-02 
1.150000000000e+00 -8.402334117114e+04 8.666271878432e-02 
1.200000000000e+00 -8.543841451753e+04 8.588907993055e-02 
1.250000000000e+00 -8.658516011113e+04 8.525873145375e-02 
1.300000000000e+00 -8.750809978955e+04 8.474947494921e-02 
1.350000000000e+00 -8.824931031708e+04 8.434000239395e-02 
1.400000000000e+00 -8.884729895681e+04 8.401048568142e-02 
1.450000000000e+00 -8.933625795948e+04 8.374303672940e-02 
1.500000000000e+00 -8.974576647009e+04 8.352196426421e-02 
1.550000000000e+00 -9.010088278728e+04 8.333382446713e-02 
1.600000000000e+00 -9.042250750731e+04 8.316730892017e-02 