 TITLE = "Profiles along polylines"
 VARIABLES = "DIST" "PRESSURE1" "SATURATION1" 
 ZONE T="TIME=0.000000000000e+00"
0.000000000000e+00 -9.000000000000e+04 3.601056880734e-01 
5.000000000000e-02 -9.000000000000e+04 3.601056880734e-01 
1.000000000000e-01 -9.000000000000e+04 3.601056880734e-01 
1.500000000000e-01 -9.000000000000e+04 3.601056880734e-01 
2.000000000000e-01 -9.000000000000e+04 3.601056880734e-01 
2.500000000000e-01 -9.000000000000e+04 3.039060458716e-01 
3.000000000000e-01 -9.000000000000e+04 2.477064036697e-01 
3.500000000000e-01 -9.000000000000e+04 1.655012477064e-01 
4.000000000000e-01 -9.000000000000e+04 8.329609174312e-02 
4.500000000000e-01 -9.000000000000e+04 8.329609174312e-02 
5.000000000000e-01 -9.000000000000e+04 8.329609174312e-02 
5.500000000000e-01 -9.000000000000e+04 8.329609174312e-02 
6.000000000000e-01 -9.000000000000e+04 8.329609174312e-02 
6.500000000000e-01 -9.000000000000e+04 8.329609174312e-02 
7.000000000000e-01 -9.000000000000e+04 8.329609174312e-02 
7.500000000000e-01 -9.000000000000e+04 8.329609174312e-02 
8.000000000000e-01 -9.000000000000e+04 8.329609174312e-02 
8.500000000000e-01 -9.000000000000e+04 8.329609174312e-02 
9.000000000000e-01 -9.000000000000e+04 8.329609174312e-02 
9.500000000000e-01 -9.000000000000e+04 8.329609174312e-02 
1.000000000000e+00 -9.000000000000e+04 8.981318348624e-02 
1.050000000000e+00 -9.000000000000e+04 9.633027522936e-02 
1.100000000000e+00 -9.000000000000e+04 9.633027522936e-02 
1.150000000000e+00 -9.000000000000e+04 9.633027522936e-02 
1.200000000000e+00 -9.000000000000e+04 9.633027522936e-02 
1.250000000000e+00 -9.000000000000e+04 9.633027522936e-02 
1.300000000000e+00 -9.000000000000e+04 9.633027522936e-02 
1.350000000000e+00 -9.000000000000e+04 9.633027522936e-02 
1.400000000000e+00 -9.000000000000e+04 9.633027522936e-02 
1.450000000000e+00 -9.000000000000e+04 9.633027522936e-02 
1.500000000000e+00 -9.000000000000e+04 9.633027522936e-02 
1.550000000000e+00 -9.000000000000e+04 9.633027522936e-02 
1.600000000000e+00 -9.000000000000e+04 9.633027522936e-02 
1.650000000000e+00 -9.000000000000e+04 9.633027522936e-02 
1.700000000000e+00 -9.000000000000e+04 9.633027522936e-02 
1.750000000000e+00 -9.000000000000e+04 9.633027522936e-02 
1.800000000000e+00 -9.000000000000e+04 9.633027522936e-02 
1.850000000000e+00 -9.000000000000e+04 9.633027522936e-02 
1.900000000000e+00 -9.000000000000e+04 9.633027522936e-02 
1.950000000000e+00 -9.000000000000e+04 9.633027522936e-02 
2.000000000000e+00 -9.000000000000e+04 9.633027522936e-02 
 TITLE = "Profiles along polylines"
 VARIABLES = "DIST" "PRESSURE1" "SATURATION1" 
 ZONE T="TIME=5.000000000000e-01"
0.000000000000e+00 -8.357359221141e+04 3.818965166850e-01 
5.000000000000e-02 -8.761009672886e+04 3.750529750811e-01 
1.000000000000e-01 -8.915490476264e+04 3.655903460951e-01 
1.500000000000e-01 -8.971853053217e+04 3.620156803442e-01 
2.000000000000e-01 -8.994021113042e+04 3.606842618418e-01 
2.500000000000e-01 -9.008676343466e+04 3.039492254681e-01 
3.000000000000e-01 -9.026710278736e+04 2.474690860474e-01 
3.500000000000e-01 -9.056857122743e+04 1.651822174855e-01 
4.000000000000e-01 -9.009296111887e+04 8.313331837130e-02 
4.500000000000e-01 -9.001531868866e+04 8.326944895011e-02 
5.000000000000e-01 -9.000252750551e+04 8.329170059699e-02 
5.500000000000e-01 -9.000041711919e+04 8.329536720335e-02 
6.000000000000e-01 -9.000006888063e+04 8.329597216041e-02 
6.500000000000e-01 -9.000001161353e+04 8.329607193713e-02 
7.000000000000e-01 -9.000000337475e+04 8.329608805518e-02 
7.500000000000e-01 -9.000000920814e+04 8.329608864703e-02 
8.000000000000e-01 -9.000005284873e+04 8.329607647371e-02 
8.500000000000e-01 -9.000031326784e+04 8.329600165829e-02 
9.000000000000e-01 -9.000185867919e+04 8.329555732460e-02 
9.500000000000e-01 -9.001102978311e+04 8.329292047194e-02 
1.000000000000e+00 -9.006550940897e+04 8.980003545953e-02 
1.050000000000e+00 -9.000791775531e+04 9.631858002608e-02 
1.100000000000e+00 -9.000095812911e+04 9.632886151178e-02 
1.150000000000e+00 -9.000011596026e+04 9.633010415243e-02 
1.200000000000e+00 -9.000001403466e+04 9.633025452425e-02 
1.250000000000e+00 -9.000000169862e+04 9.633027272342e-02 
1.300000000000e+00 -9.000000020558e+04 9.633027492606e-02 
1.350000000000e+00 -9.000000002488e+04 9.633027519265e-02 
1.400000000000e+00 -9.000000000301e+04 9.633027522491e-02 
1.450000000000e+00 -9.000000000038e+04 9.633027522882e-02 
1.500000000000e+00 -9.000000000015e+04 9.633027522927e-02 
1.550000000000e+00 -9.000000000086e+04 9.633027522920e-02 
1.600000000000e+00 -9.000000000685e+04 9.633027522813e-02 
1.650000000000e+00 -9.000000005516e+04 9.633027521948e-02 
1.700000000000e+00 -9.000000044440e+04 9.633027514979e-02 
1.750000000000e+00 -9.000000358050e+04 9.633027458829e-02 
1.800000000000e+00 -9.000002884768e+04 9.633027006432e-02 
1.850000000000e+00 -9.000023242320e+04 9.633023361511e-02 
1.900000000000e+00 -9.000187267549e+04 9.632993993714e-02 
1.950000000000e+00 -9.001509251679e+04 9.632757307717e-02 
2.000000000000e+00 -9.012189919486e+04 9.632546747044e-02 
 TITLE = "Profiles along polylines"
 VARIABLES = "DIST" "PRESSURE1" "SATURATION1" 
 ZONE T="TIME=1.000000000000e+00"
0.000000000000e+00 -8.529566441632e+04 3.760572700159e-01 
5.000000000000e-02 -8.716563159713e+04 3.728869036396e-01 
1.000000000000e-01 -8.859816295512e+04 3.672878051995e-01 
1.500000000000e-01 -8.940307178812e+04 3.634944203619e-01 
2.000000000000e-01 -8.983258872210e+04 3.614015590616e-01 
2.500000000000e-01 -9.012953676378e+04 3.041030042819e-01 
3.000000000000e-01 -9.043864725375e+04 2.473253554892e-01 
3.500000000000e-01 -9.082541103029e+04 1.650039757974e-01 
4.000000000000e-01 -9.020086166206e+04 8.304357216873e-02 
4.500000000000e-01 -9.004398379169e+04 8.323584628377e-02 
5.000000000000e-01 -9.000905874765e+04 8.328304035867e-02 
5.500000000000e-01 -9.000179272005e+04 8.329342168474e-02 
6.000000000000e-01 -9.000034532116e+04 8.329556566729e-02 
6.500000000000e-01 -9.000006676141e+04 8.329599034812e-02 
7.000000000000e-01 -9.000002115645e+04 8.329607011049e-02 
7.500000000000e-01 -9.000004974398e+04 8.329607429771e-02 
8.000000000000e-01 -9.000024470554e+04 8.329601929233e-02 
8.500000000000e-01 -9.000122589542e+04 8.329572989433e-02 
9.000000000000e-01 -9.000594633945e+04 8.329432697854e-02 
9.500000000000e-01 -9.002741708165e+04 8.328788250501e-02 
1.000000000000e+00 -9.011614129621e+04 8.978793882497e-02 
1.050000000000e+00 -9.002021203531e+04 9.630855738221e-02 
1.100000000000e+00 -9.000319414132e+04 9.632654718135e-02 
1.150000000000e+00 -9.000047719854e+04 9.632969047212e-02 
1.200000000000e+00 -9.000006872459e+04 9.633018827677e-02 
1.250000000000e+00 -9.000000964541e+04 9.633026274688e-02 
1.300000000000e+00 -9.000000132807e+04 9.633027348154e-02 
1.350000000000e+00 -9.000000018019e+04 9.633027498913e-02 
1.400000000000e+00 -9.000000002418e+04 9.633027519681e-02 
1.450000000000e+00 -9.000000000335e+04 9.633027522497e-02 
1.500000000000e+00 -9.000000000144e+04 9.633027522860e-02 
1.550000000000e+00 -9.000000000756e+04 9.633027522792e-02 
1.600000000000e+00 -9.000000005514e+04 9.633027521937e-02 
1.650000000000e+00 -9.000000040107e+04 9.633027515669e-02 
1.700000000000e+00 -9.000000288403e+04 9.633027470612e-02 
1.750000000000e+00 -9.000002043768e+04 9.633027151476e-02 
1.800000000000e+00 -9.000014211643e+04 9.633024933835e-02 
1.850000000000e+00 -9.000096336806e+04 9.633009915194e-02 
1.900000000000e+00 -9.000629886897e+04 9.632911852749e-02 
1.950000000000e+00 -9.003898637452e+04 9.632306236565e-02 
2.000000000000e+00 -9.022001666681e+04 9.631785602239e-02 
 TITLE = "Profiles along polylines"
 VARIABLES = "DIST" "PRESSURE1" "SATURATION1" 
 ZONE T="TIME=5.000000000000e+00"
0.000000000000e+00 -7.537571478290e+04 4.096940900572e-01 
5.000000000000e-02 -7.699978782229e+04 4.069406157666e-01 
1.000000000000e-01 -7.936850524092e+04 4.001711875405e-01 
1.500000000000e-01 -8.170586787298e+04 3.921924389775e-01 
2.000000000000e-01 -8.361871579441e+04 3.849865774153e-01 
2.500000000000e-01 -8.493020246721e+04 3.181249772554e-01 
3.000000000000e-01 -8.584427817177e+04 2.538934262871e-01 
3.500000000000e-01 -8.652061431211e+04 1.691443705486e-01 
4.000000000000e-01 -8.847973037801e+04 8.452628215973e-02 
4.500000000000e-01 -8.935653895295e+04 8.382848859214e-02 
5.000000000000e-01 -8.973080591040e+04 8.352065514463e-02 
5.500000000000e-01 -8.988780546660e+04 8.338993433825e-02 
6.000000000000e-01 -8.995362560710e+04 8.333510842755e-02 
6.500000000000e-01 -8.998182758455e+04 8.331197381101e-02 
7.000000000000e-01 -8.999524697492e+04 8.330173266344e-02 
7.500000000000e-01 -9.000447038000e+04 8.329616128937e-02 
8.000000000000e-01 -9.001620799104e+04 8.329100372558e-02 
8.500000000000e-01 -9.003791452568e+04 8.328277462478e-02 
9.000000000000e-01 -9.008146503987e+04 8.326671779864e-02 
9.500000000000e-01 -9.016632569073e+04 8.323512158354e-02 
1.000000000000e+00 -9.031898468828e+04 8.972145152623e-02 
1.050000000000e+00 -9.013918132773e+04 9.625730026504e-02 
1.100000000000e+00 -9.005620916498e+04 9.629915416464e-02 
1.150000000000e+00 -9.002163174356e+04 9.631787702145e-02 
1.200000000000e+00 -9.000807483042e+04 9.632554367769e-02 
1.250000000000e+00 -9.000295619938e+04 9.632851824831e-02 
1.300000000000e+00 -9.000106929894e+04 9.632963406309e-02 
1.350000000000e+00 -9.000038518908e+04 9.633004356396e-02 
1.400000000000e+00 -9.000014230897e+04 9.633019121145e-02 
1.450000000000e+00 -9.000006417941e+04 9.633024234066e-02 
1.500000000000e+00 -9.000006022865e+04 9.633025541411e-02 
1.550000000000e+00 -9.000012437822e+04 9.633024582587e-02 
1.600000000000e+00 -9.000032672078e+04 9.633020338000e-02 
1.650000000000e+00 -9.000088831814e+04 9.633008170252e-02 
1.700000000000e+00 -9.000241473058e+04 9.632974913215e-02 
1.750000000000e+00 -9.000651597397e+04 9.632885278024e-02 
1.800000000000e+00 -9.001736985412e+04 9.632647078426e-02 
1.850000000000e+00 -9.004543533977e+04 9.632027185367e-02 
1.900000000000e+00 -9.011540515116e+04 9.630465715932e-02 
1.950000000000e+00 -9.027993478867e+04 9.626730696677e-02 
2.000000000000e+00 -9.063107901799e+04 9.624110130330e-02 
 TITLE = "Profiles along polylines"
 VARIABLES = "DIST" "PRESSURE1" "SATURATION1" 
 ZONE T="TIME=1.000000000000e+01"
0.000000000000e+00 -7.862645501451e+04 3.986713965746e-01 
5.000000000000e-02 -7.928180248556e+04 3.975603120549e-01 
1.000000000000e-01 -8.017574893747e+04 3.949336192388e-01 
1.500000000000e-01 -8.116502285984e+04 3.917407832280e-01 
2.000000000000e-01 -8.211201145701e+04 3.884580188830e-01 
2.500000000000e-01 -8.291099249234e+04 3.220336305647e-01 
3.000000000000e-01 -8.358490218689e+04 2.567628265959e-01 
3.500000000000e-01 -8.417343491789e+04 1.712371387673e-01 
4.000000000000e-01 -8.637380742824e+04 8.562199046125e-02 
4.500000000000e-01 -8.785580009561e+04 8.471592592854e-02 
5.000000000000e-01 -8.877743502702e+04 8.412450122946e-02 
5.500000000000e-01 -8.932140037913e+04 8.376388288447e-02 
6.000000000000e-01 -8.963259429022e+04 8.355346663273e-02 
6.500000000000e-01 -8.980891952326e+04 8.343351008736e-02 
7.000000000000e-01 -8.991156101533e+04 8.336486891702e-02 
7.500000000000e-01 -8.997798744978e+04 8.332326890060e-02 
8.000000000000e-01 -9.003228551042e+04 8.329356402943e-02 
8.500000000000e-01 -9.009221827730e+04 8.326545695792e-02 
9.000000000000e-01 -9.017353197518e+04 8.323070255255e-02 
9.500000000000e-01 -9.029165737579e+04 8.318162955603e-02 
1.000000000000e+00 -9.046018632224e+04 8.966812296614e-02 
1.050000000000e+00 -9.025818321211e+04 9.621585602473e-02 
1.100000000000e+00 -9.013711486713e+04 9.626731363417e-02 
1.150000000000e+00 -9.006996650261e+04 9.629729208560e-02 
1.200000000000e+00 -9.003468611799e+04 9.631360655253e-02 
1.250000000000e+00 -9.001684835959e+04 9.632206701109e-02 
1.300000000000e+00 -9.000808609555e+04 9.632630376288e-02 
1.350000000000e+00 -9.000389769342e+04 9.632836649641e-02 
1.400000000000e+00 -9.000199301707e+04 9.632933697909e-02 
1.450000000000e+00 -9.000128385017e+04 9.632975330224e-02 
1.500000000000e+00 -9.000134890143e+04 9.632985589456e-02 
1.550000000000e+00 -9.000221172104e+04 9.632970810677e-02 
1.600000000000e+00 -9.000434802919e+04 9.632923041695e-02 
1.650000000000e+00 -9.000892648820e+04 9.632816091403e-02 
1.700000000000e+00 -9.001838104886e+04 9.632592578729e-02 
1.750000000000e+00 -9.003752083945e+04 9.632137138629e-02 
1.800000000000e+00 -9.007548311752e+04 9.631227638300e-02 
1.850000000000e+00 -9.014880069058e+04 9.629455214575e-02 
1.900000000000e+00 -9.028530480978e+04 9.626113253371e-02 
1.950000000000e+00 -9.052667436123e+04 9.620094623296e-02 
2.000000000000e+00 -9.092314197149e+04 9.616250179625e-02 
 TITLE = "Profiles along polylines"
 VARIABLES = "DIST" "PRESSURE1" "SATURATION1" 
 ZONE T="TIME=2.000000000000e+01"
0.000000000000e+00 -4.542690957099e+04 5.197327990516e-01 
5.000000000000e-02 -5.101048031210e+04 5.060225760242e-01 
1.000000000000e-01 -5.574511767096e+04 4.842851880067e-01 
1.500000000000e-01 -5.940894761014e+04 4.700463186794e-01 
2.000000000000e-01 -6.210085857297e+04 4.592707139207e-01 
2.500000000000e-01 -6.385894423370e+04 3.687379037819e-01 
3.000000000000e-01 -6.501074650189e+04 2.819965468553e-01 
3.500000000000e-01 -6.584018219854e+04 1.882047407720e-01 
4.000000000000e-01 -7.257793410467e+04 9.352752404356e-02 
4.500000000000e-01 -7.766833418050e+04 9.061714756506e-02 
5.000000000000e-01 -8.145394214260e+04 8.843316100013e-02 
5.500000000000e-01 -8.420214008328e+04 8.682548508901e-02 
6.000000000000e-01 -8.614678076512e+04 8.567078846648e-02 
6.500000000000e-01 -8.749284145861e+04 8.486109478862e-02 
7.000000000000e-01 -8.841174885287e+04 8.430378796189e-02 
7.500000000000e-01 -8.903889745578e+04 8.392337308259e-02 
8.000000000000e-01 -8.947610378844e+04 8.366148318009e-02 
8.500000000000e-01 -8.979731914851e+04 8.347486969570e-02 
9.000000000000e-01 -9.005501507058e+04 8.333242565361e-02 
9.500000000000e-01 -9.028543188972e+04 8.321232305069e-02 
1.000000000000e+00 -9.051194527690e+04 8.966141080626e-02 
1.050000000000e+00 -9.035654817580e+04 9.619194485017e-02 
1.100000000000e+00 -9.023694495969e+04 9.623574586909e-02 
1.150000000000e+00 -9.015210384218e+04 9.626830899562e-02 
1.200000000000e+00 -9.009525428760e+04 9.629087695435e-02 
1.250000000000e+00 -9.005878342964e+04 9.630574067959e-02 
1.300000000000e+00 -9.003629905510e+04 9.631513084787e-02 
1.350000000000e+00 -9.002315218029e+04 9.632080605960e-02 
1.400000000000e+00 -9.001631419756e+04 9.632398917274e-02 
1.450000000000e+00 -9.001409158769e+04 9.632543230994e-02 
1.500000000000e+00 -9.001589844447e+04 9.632549852954e-02 
1.550000000000e+00 -9.002217603292e+04 9.632421086943e-02 
1.600000000000e+00 -9.003449817149e+04 9.632124837468e-02 
1.650000000000e+00 -9.005588963244e+04 9.631587859902e-02 
1.700000000000e+00 -9.009138194292e+04 9.630681836529e-02 
1.750000000000e+00 -9.014880938175e+04 9.629201845619e-02 
1.800000000000e+00 -9.023977176001e+04 9.626838348277e-02 
1.850000000000e+00 -9.038050939530e+04 9.623147917379e-02 
1.900000000000e+00 -9.059209826354e+04 9.617536192998e-02 
1.950000000000e+00 -9.089890426499e+04 9.609279393977e-02 
2.000000000000e+00 -9.132397261350e+04 9.604392703078e-02 
 TITLE = "Profiles along polylines"
 VARIABLES = "DIST" "PRESSURE1" "SATURATION1" 
 ZONE T="TIME=3.000000000000e+01"
0.000000000000e+00 -4.101847922017e+04 5.466189296885e-01 
5.000000000000e-02 -4.365310883569e+04 5.388020024188e-01 
1.000000000000e-01 -4.627810806179e+04 5.231967211762e-01 
1.500000000000e-01 -4.877570733633e+04 5.076492229066e-01 
2.000000000000e-01 -5.089714047550e+04 4.962933736181e-01 
2.500000000000e-01 -5.238549684800e+04 3.954274093627e-01 
3.000000000000e-01 -5.342848975583e+04 2.974586750391e-01 
3.500000000000e-01 -5.422700315508e+04 1.988297722406e-01 
4.000000000000e-01 -6.177334023310e+04 9.904353018650e-02 
4.500000000000e-01 -6.802601507772e+04 9.564821367490e-02 
5.000000000000e-01 -7.319091400951e+04 9.283886203560e-02 
5.500000000000e-01 -7.739523668758e+04 9.053351778261e-02 
6.000000000000e-01 -8.074782118419e+04 8.867410264109e-02 
6.500000000000e-01 -8.336000505654e+04 8.720644128646e-02 
7.000000000000e-01 -8.534981403459e+04 8.607409772455e-02 
7.500000000000e-01 -8.683728958286e+04 8.521849432092e-02 
8.000000000000e-01 -8.793634241392e+04 8.458206596189e-02 
8.500000000000e-01 -8.874733133692e+04 8.411209055048e-02 
9.000000000000e-01 -8.935257851106e+04 8.376361851263e-02 
9.500000000000e-01 -8.981496498592e+04 8.350092186616e-02 
1.000000000000e+00 -9.017857784686e+04 8.983026907556e-02 
1.050000000000e+00 -9.020565338876e+04 9.626907631951e-02 
1.100000000000e+00 -9.018495190104e+04 9.626806108407e-02 
1.150000000000e+00 -9.014859049922e+04 9.627714984705e-02 
1.200000000000e+00 -9.011211326407e+04 9.628875131191e-02 
1.250000000000e+00 -9.008185357499e+04 9.629938091885e-02 
1.300000000000e+00 -9.005955957088e+04 9.630775147396e-02 
1.350000000000e+00 -9.004506757850e+04 9.631361060949e-02 
1.400000000000e+00 -9.003775020387e+04 9.631708432365e-02 
1.450000000000e+00 -9.003727269626e+04 9.631832586326e-02 
1.500000000000e+00 -9.004400613202e+04 9.631732944249e-02 
1.550000000000e+00 -9.005930829404e+04 9.631381969514e-02 
1.600000000000e+00 -9.008579038714e+04 9.630716445572e-02 
1.650000000000e+00 -9.012762463007e+04 9.629628328599e-02 
1.700000000000e+00 -9.019089726219e+04 9.627954225722e-02 
1.750000000000e+00 -9.028395860229e+04 9.625464196858e-02 
1.800000000000e+00 -9.041765604028e+04 9.621852468104e-02 
1.850000000000e+00 -9.060525657336e+04 9.616734954548e-02 
1.900000000000e+00 -9.086179359413e+04 9.609660898199e-02 
1.950000000000e+00 -9.120257134782e+04 9.600147092540e-02 
2.000000000000e+00 -9.164075864772e+04 9.594719312315e-02 
 TITLE = "Profiles along polylines"
 VARIABLES = "DIST" "PRESSURE1" "SATURATION1" 
 ZONE T="TIME=4.000000000000e+01"
0.000000000000e+00 -4.606565967392e+04 5.166690329050e-01 
5.000000000000e-02 -4.668955974785e+04 5.148179258375e-01 
1.000000000000e-01 -4.748848366163e+04 5.105964172186e-01 
1.500000000000e-01 -4.837852572479e+04 5.055691489817e-01 
2.000000000000e-01 -4.927383108846e+04 5.005566550458e-01 
2.500000000000e-01 -5.008039836905e+04 3.997254852667e-01 
3.000000000000e-01 -5.079215351206e+04 3.007726097018e-01 
3.500000000000e-01 -5.144418688806e+04 2.012825365682e-01 
4.000000000000e-01 -5.734255585098e+04 1.008184730251e-01 
4.500000000000e-01 -6.279689930099e+04 9.802508085160e-02 
5.000000000000e-01 -6.772491402715e+04 9.547044923431e-02 
5.500000000000e-01 -7.208883206761e+04 9.318412229118e-02 
6.000000000000e-01 -7.587486634585e+04 9.117878539955e-02 
6.500000000000e-01 -7.908903368641e+04 8.945635046913e-02 
7.000000000000e-01 -8.175669482757e+04 8.800909689225e-02 
7.500000000000e-01 -8.392129631289e+04 8.682009429003e-02 
8.000000000000e-01 -8.564058248204e+04 8.586444413505e-02 
8.500000000000e-01 -8.698034619764e+04 8.511174947533e-02 
9.000000000000e-01 -8.800703099533e+04 8.452947287784e-02 
9.500000000000e-01 -8.878086333977e+04 8.408644654984e-02 
1.000000000000e+00 -8.935070297410e+04 9.021657580769e-02 
1.050000000000e+00 -8.970061347532e+04 9.648137798652e-02 
1.100000000000e+00 -8.989066525852e+04 9.639537481941e-02 
1.150000000000e+00 -8.998617065924e+04 9.634989234235e-02 
1.200000000000e+00 -9.002921811828e+04 9.632782416260e-02 
1.250000000000e+00 -9.004551033245e+04 9.631837276205e-02 
1.300000000000e+00 -9.005011481020e+04 9.631504441535e-02 
1.350000000000e+00 -9.005167103330e+04 9.631406316203e-02 
1.400000000000e+00 -9.005524026016e+04 9.631324679959e-02 
1.450000000000e+00 -9.006415681736e+04 9.631125811074e-02 
1.500000000000e+00 -9.008121529175e+04 9.630712090515e-02 
1.550000000000e+00 -9.010944551824e+04 9.629990749076e-02 
1.600000000000e+00 -9.015264180728e+04 9.628853094331e-02 
1.650000000000e+00 -9.021574013790e+04 9.627160073503e-02 
1.700000000000e+00 -9.030507778802e+04 9.624732130385e-02 
1.750000000000e+00 -9.042852145618e+04 9.621343029367e-02 
1.800000000000e+00 -9.059541191307e+04 9.616718696336e-02 
1.850000000000e+00 -9.081625060019e+04 9.610543091978e-02 
1.900000000000e+00 -9.110205890524e+04 9.602473408744e-02 
1.950000000000e+00 -9.146339405064e+04 9.592165950626e-02 
2.000000000000e+00 -9.190912681972e+04 9.586410739977e-02 
 TITLE = "Profiles along polylines"
 VARIABLES = "DIST" "PRESSURE1" "SATURATION1" 
 ZONE T="TIME=5.000000000000e+01"
0.000000000000e+00 -4.481408810297e+04 5.240958407456e-01 
5.000000000000e-02 -4.567491957283e+04 5.215417599171e-01 
1.000000000000e-01 -4.650413973766e+04 5.165273887765e-01 
1.500000000000e-01 -4.729953472377e+04 5.117071672162e-01 
2.000000000000e-01 -4.805134347697e+04 5.071166247618e-01 
2.500000000000e-01 -4.874530205133e+04 4.042415360140e-01 
3.000000000000e-01 -4.938884159038e+04 3.028872877659e-01 
3.500000000000e-01 -5.000238289213e+04 2.025784199135e-01 
4.000000000000e-01 -5.495161408320e+04 1.017615394598e-01 
4.500000000000e-01 -5.970238492054e+04 9.937480501578e-02 
5.000000000000e-01 -6.417451122767e+04 9.710546463583e-02 
5.500000000000e-01 -6.831297848989e+04 9.498678464014e-02 
6.000000000000e-01 -7.207822004463e+04 9.304203720463e-02 
6.500000000000e-01 -7.544309130220e+04 9.128763696952e-02 
7.000000000000e-01 -7.839271842964e+04 8.973392277974e-02 
7.500000000000e-01 -8.092519466951e+04 8.838502358423e-02 
8.000000000000e-01 -8.305173331103e+04 8.723864946387e-02 
8.500000000000e-01 -8.479533806101e+04 8.628638115415e-02 
9.000000000000e-01 -8.618765641782e+04 8.551477145026e-02 
9.500000000000e-01 -8.726438875342e+04 8.490724906888e-02 
1.000000000000e+00 -8.806016581174e+04 9.079526394966e-02 
1.050000000000e+00 -8.881331032961e+04 9.682825622111e-02 
1.100000000000e+00 -8.930247101838e+04 9.663038650803e-02 
1.150000000000e+00 -8.960945164207e+04 9.650358010632e-02 
1.200000000000e+00 -8.979671343618e+04 9.642485902806e-02 
1.250000000000e+00 -8.990889930679e+04 9.637716412733e-02 
1.300000000000e+00 -8.997648853942e+04 9.634853022327e-02 
1.350000000000e+00 -9.001974217550e+04 9.633087558695e-02 
1.400000000000e+00 -9.005208359612e+04 9.631883508989e-02 
1.450000000000e+00 -9.008268813093e+04 9.630880929424e-02 
1.500000000000e+00 -9.011834713300e+04 9.629825508666e-02 
1.550000000000e+00 -9.016476138672e+04 9.628518276635e-02 
1.600000000000e+00 -9.022741424987e+04 9.626781096512e-02 
1.650000000000e+00 -9.031213713679e+04 9.624433750850e-02 
1.700000000000e+00 -9.042543700306e+04 9.621279718721e-02 
1.750000000000e+00 -9.057461923892e+04 9.617099002262e-02 
1.800000000000e+00 -9.076771515462e+04 9.611647324262e-02 
1.850000000000e+00 -9.101321462110e+04 9.604661541544e-02 
1.900000000000e+00 -9.131961469517e+04 9.595871092694e-02 
1.950000000000e+00 -9.169482620506e+04 9.585014639076e-02 
2.000000000000e+00 -9.214552937264e+04 9.579038410899e-02 
 TITLE = "Profiles along polylines"
 VARIABLES = "DIST" "PRESSURE1" "SATURATION1" 
 ZONE T="TIME=6.000000000000e+01"
0.000000000000e+00 -6.603312003383e+03 8.166842640473e-01 
5.000000000000e-02 -1.073325640114e+04 7.890443801216e-01 
1.000000000000e-01 -1.593949654399e+04 7.393376801775e-01 
1.500000000000e-01 -2.142560360591e+04 6.932596193422e-01 
2.000000000000e-01 -2.742108375270e+04 6.482770274336e-01 
2.500000000000e-01 -3.190139889699e+04 4.971701022422e-01 
3.000000000000e-01 -3.345486305665e+04 3.641174636648e-01 
3.500000000000e-01 -3.444877039737e+04 2.425891190327e-01 
4.000000000000e-01 -4.332020845742e+04 1.175169636745e-01 
4.500000000000e-01 -5.228410518898e+04 1.064562783348e-01 
5.000000000000e-01 -5.912533350900e+04 1.001731454506e-01 
5.500000000000e-01 -6.415646942611e+04 9.725189032367e-02 
6.000000000000e-01 -6.832818592674e+04 9.498748204988e-02 
6.500000000000e-01 -7.195377046414e+04 9.306891678529e-02 
7.000000000000e-01 -7.514801533915e+04 9.139086334638e-02 
7.500000000000e-01 -7.795293277727e+04 8.991473918823e-02 
8.000000000000e-01 -8.038322838021e+04 8.862658860327e-02 
8.500000000000e-01 -8.244554244423e+04 8.752115932558e-02 
9.000000000000e-01 -8.414713800623e+04 8.659503036989e-02 
9.500000000000e-01 -8.549920218429e+04 8.584366198248e-02 
1.000000000000e+00 -8.651686866983e+04 9.147540759133e-02 
1.050000000000e+00 -8.769545795138e+04 9.725211413398e-02 
1.100000000000e+00 -8.852516607973e+04 9.693224005621e-02 
1.150000000000e+00 -8.908856826545e+04 9.671035067132e-02 
1.200000000000e+00 -8.946009929156e+04 9.656143801653e-02 
1.250000000000e+00 -8.970037192609e+04 9.646399222451e-02 
1.300000000000e+00 -8.985527469286e+04 9.640105016900e-02 
1.350000000000e+00 -8.995790249176e+04 9.636003166657e-02 
1.400000000000e+00 -9.003151419776e+04 9.633196089935e-02 
1.450000000000e+00 -9.009243696538e+04 9.631053275307e-02 
1.500000000000e+00 -9.015246457287e+04 9.629126823104e-02 
1.550000000000e+00 -9.022065772479e+04 9.627084570947e-02 
1.600000000000e+00 -9.030460788595e+04 9.624661289329e-02 
1.650000000000e+00 -9.041126687635e+04 9.621625338266e-02 
1.700000000000e+00 -9.054743747675e+04 9.617757639636e-02 
1.750000000000e+00 -9.072000046018e+04 9.612840246927e-02 
1.800000000000e+00 -9.093593630404e+04 9.606652383343e-02 
1.850000000000e+00 -9.120219075237e+04 9.598972237251e-02 
1.900000000000e+00 -9.152543264074e+04 9.589582960737e-02 
1.950000000000e+00 -9.191175735104e+04 9.578281250131e-02 
2.000000000000e+00 -9.236639553683e+04 9.572128015066e-02 
 TITLE = "Profiles along polylines"
 VARIABLES = "DIST" "PRESSURE1" "SATURATION1" 
 ZONE T="TIME=7.000000000000e+01"
0.000000000000e+00 -1.550754699754e+04 7.209325282043e-01 
5.000000000000e-02 -1.653611016542e+04 7.165729301900e-01 
1.000000000000e-01 -1.759477913771e+04 7.077261297427e-01 
1.500000000000e-01 -1.867790960044e+04 6.986480440640e-01 
2.000000000000e-01 -1.977109957826e+04 6.894236399948e-01 
2.500000000000e-01 -2.084963192991e+04 5.660551171231e-01 
3.000000000000e-01 -2.142311638652e+04 4.432177233414e-01 
3.500000000000e-01 -2.198691522388e+04 3.062080274526e-01 
4.000000000000e-01 -2.529170760908e+04 1.550768529129e-01 
4.500000000000e-01 -3.229122225264e+04 1.319322024379e-01 
5.000000000000e-01 -3.876383238748e+04 1.224610652568e-01 
5.500000000000e-01 -4.567523067031e+04 1.124395822359e-01 
6.000000000000e-01 -5.459588776624e+04 1.038436344839e-01 
6.500000000000e-01 -6.194803472589e+04 9.890977980515e-02 
7.000000000000e-01 -6.763123118937e+04 9.570236778122e-02 
7.500000000000e-01 -7.215996633678e+04 9.318967048026e-02 
8.000000000000e-01 -7.581154416557e+04 9.117686319566e-02 
8.500000000000e-01 -7.875540976563e+04 8.955402106023e-02 
9.000000000000e-01 -8.110132701334e+04 8.825244329897e-02 
9.500000000000e-01 -8.292250873927e+04 8.722710756986e-02 
1.000000000000e+00 -8.426811707160e+04 9.246758873402e-02 
1.050000000000e+00 -8.601090805342e+04 9.787859564140e-02 
1.100000000000e+00 -8.729530346141e+04 9.739643674904e-02 
1.150000000000e+00 -8.821557735633e+04 9.704528529279e-02 
1.200000000000e+00 -8.885850553104e+04 9.679630433114e-02 
1.250000000000e+00 -8.929919409020e+04 9.662370992271e-02 
1.300000000000e+00 -8.959876277812e+04 9.650580452531e-02 
1.350000000000e+00 -8.980446883598e+04 9.642532625922e-02 
1.400000000000e+00 -8.995154344452e+04 9.636913667806e-02 
1.450000000000e+00 -9.006574249739e+04 9.632752198937e-02 
1.500000000000e+00 -9.016588364128e+04 9.629338268688e-02 
1.550000000000e+00 -9.026600024866e+04 9.626148638348e-02 
1.600000000000e+00 -9.037699910873e+04 9.622786070378e-02 
1.650000000000e+00 -9.050784342027e+04 9.618934083063e-02 
1.700000000000e+00 -9.066633528989e+04 9.614325644907e-02 
1.750000000000e+00 -9.085958222958e+04 9.608723281099e-02 
1.800000000000e+00 -9.109422574886e+04 9.601908002382e-02 
1.850000000000e+00 -9.137650002994e+04 9.593674729568e-02 
1.900000000000e+00 -9.171217988795e+04 9.583832187852e-02 
1.950000000000e+00 -9.210647055774e+04 9.572205491117e-02 
2.000000000000e+00 -9.256388621941e+04 9.565925377238e-02 
 TITLE = "Profiles along polylines"
 VARIABLES = "DIST" "PRESSURE1" "SATURATION1" 
 ZONE T="TIME=8.000000000000e+01"
0.000000000000e+00 -1.811820609547e+04 6.988018033742e-01 
5.000000000000e-02 -1.863208062977e+04 6.966237296600e-01 
1.000000000000e-01 -1.918611589121e+04 6.920973597001e-01 
1.500000000000e-01 -1.977435619730e+04 6.872557880285e-01 
2.000000000000e-01 -2.039060572896e+04 6.821505191749e-01 
2.500000000000e-01 -2.102834577149e+04 5.621509000843e-01 
3.000000000000e-01 -2.154464035284e+04 4.410699875361e-01 
3.500000000000e-01 -2.206494674176e+04 3.049483674498e-01 
4.000000000000e-01 -2.346272692398e+04 1.573927107067e-01 
4.500000000000e-01 -2.771178910063e+04 1.378578256199e-01 
5.000000000000e-01 -3.254324277635e+04 1.300536684156e-01 
5.500000000000e-01 -3.745841571335e+04 1.232016210051e-01 
6.000000000000e-01 -4.273440395427e+04 1.160370580918e-01 
6.500000000000e-01 -4.925119020945e+04 1.078384695985e-01 
7.000000000000e-01 -5.703474181083e+04 1.014338101212e-01 
7.500000000000e-01 -6.324082155942e+04 9.799159073771e-02 
8.000000000000e-01 -6.830938295348e+04 9.521740839417e-02 
8.500000000000e-01 -7.244905547216e+04 9.295167597637e-02 
9.000000000000e-01 -7.577893748713e+04 9.111375439295e-02 
9.500000000000e-01 -7.837288314617e+04 8.965616670289e-02 
1.000000000000e+00 -8.027779620971e+04 9.422261040613e-02 
1.050000000000e+00 -8.297287442241e+04 9.899804557975e-02 
1.100000000000e+00 -8.503467895815e+04 9.824038713995e-02 
1.150000000000e+00 -8.657226651034e+04 9.766708947049e-02 
1.200000000000e+00 -8.769145833259e+04 9.724392761803e-02 
1.250000000000e+00 -8.848993641842e+04 9.693848834878e-02 
1.300000000000e+00 -8.905247592304e+04 9.672171057253e-02 
1.350000000000e+00 -8.944850501295e+04 9.656903336264e-02 
1.400000000000e+00 -8.973227075463e+04 9.646075819196e-02 
1.450000000000e+00 -8.994477333898e+04 9.638171443463e-02 
1.500000000000e+00 -9.011643471605e+04 9.632052623996e-02 
1.550000000000e+00 -9.026975598299e+04 9.626876422352e-02 
1.600000000000e+00 -9.042158270445e+04 9.622016139662e-02 