 TITLE = "Profiles along polylines"
 VARIABLES = "DIST" "PRESSURE1" "SATURATION1" 
 ZONE T="TIME=0.000000000000e+00"
0.000000000000e+00 -9.000000000000e+04 3.601056880734e-01 
5.000000000000e-02 -9.000000000000e+04 3.601056880734e-01 
1.000000000000e-01 -9.000000000000e+04 3.601056880734e-01 
1.500000000000e-01 -9.000000000000e+04 3.601056880734e-01 
2.000000000000e-01 -9.000000000000e+04 3.601056880734e-01 
2.500000000000e-01 -9.000000000000e+04 3.601056880734e-01 
3.000000000000e-01 -9.000000000000e+04 3.601056880734e-01 
3.500000000000e-01 -9.000000000000e+04 3.601056880734e-01 
4.000000000000e-01 -9.000000000000e+04 3.601056880734e-01 
4.500000000000e-01 -9.000000000000e+04 3.601056880734e-01 
5.000000000000e-01 -9.000000000000e+04 3.601056880734e-01 
5.500000000000e-01 -9.000000000000e+04 3.601056880734e-01 
6.000000000000e-01 -9.000000000000e+04 3.601056880734e-01 
6.500000000000e-01 -9.000000000000e+04 3.601056880734e-01 
7.000000000000e-01 -9.000000000000e+04 3.601056880734e-01 
7.500000000000e-01 -9.000000000000e+04 2.217008899083e-01 
8.000000000000e-01 -9.000000000000e+04 8.329609174312e-02 
8.500000000000e-01 -9.000000000000e+04 8.329609174312e-02 
9.000000000000e-01 -9.000000000000e+04 8.329609174312e-02 
9.500000000000e-01 -9.000000000000e+04 8.329609174312e-02 
1.000000000000e+00 -9.000000000000e+04 8.329609174312e-02 
1.050000000000e+00 -9.000000000000e+04 8.329609174312e-02 
1.100000000000e+00 -9.000000000000e+04 8.329609174312e-02 
1.150000000000e+00 -9.000000000000e+04 8.329609174312e-02 
1.200000000000e+00 -9.000000000000e+04 8.329609174312e-02 
1.250000000000e+00 -9.000000000000e+04 8.329609174312e-02 
1.300000000000e+00 -9.000000000000e+04 8.329609174312e-02 
1.350000000000e+00 -9.000000000000e+04 8.329609174312e-02 
1.400000000000e+00 -9.000000000000e+04 8.329609174312e-02 
1.450000000000e+00 -9.000000000000e+04 8.329609174312e-02 
1.500000000000e+00 -9.000000000000e+04 8.329609174312e-02 
1.550000000000e+00 -9.000000000000e+04 8.329609174312e-02 
1.600000000000e+00 -9.000000000000e+04 8.329609174312e-02 
1.650000000000e+00 -9.000000000000e+04 8.329609174312e-02 
1.700000000000e+00 -9.000000000000e+04 8.329609174312e-02 
1.750000000000e+00 -9.000000000000e+04 8.329609174312e-02 
1.800000000000e+00 -9.000000000000e+04 8.329609174312e-02 
1.850000000000e+00 -9.000000000000e+04 8.329609174312e-02 
1.900000000000e+00 -9.000000000000e+04 8.329609174312e-02 
1.950000000000e+00 -9.000000000000e+04 8.329609174312e-02 
2.000000000000e+00 -9.000000000000e+04 8.329609174312e-02 
 TITLE = "Profiles along polylines"
 VARIABLES = "DIST" "PRESSURE1" "SATURATION1" 
 ZONE T="TIME=5.000000000000e-01"
0.000000000000e+00 -8.361924651779e+04 3.772121614085e-01 
5.000000000000e-02 -8.762672130270e+04 3.718180863620e-01 
1.000000000000e-01 -8.915648244817e+04 3.643844173887e-01 
1.500000000000e-01 -8.970598187850e+04 3.616150707780e-01 
2.000000000000e-01 -8.989826617585e+04 3.606303276312e-01 
2.500000000000e-01 -8.996489823816e+04 3.602870128441e-01 
3.000000000000e-01 -8.998792228431e+04 3.601681507813e-01 
3.500000000000e-01 -8.999591012586e+04 3.601269519672e-01 
4.000000000000e-01 -8.999879900795e+04 3.601122455039e-01 
4.500000000000e-01 -9.000017947890e+04 3.601057525248e-01 
5.000000000000e-01 -9.000174950197e+04 3.600994657421e-01 
5.500000000000e-01 -9.000540283037e+04 3.600857822828e-01 
6.000000000000e-01 -9.001551541358e+04 3.600482969955e-01 
6.500000000000e-01 -9.004420049286e+04 3.599420472228e-01 
7.000000000000e-01 -9.012592699156e+04 3.596388753854e-01 
7.500000000000e-01 -9.035983399722e+04 2.212913339745e-01 
8.000000000000e-01 -9.005903638912e+04 8.322174121442e-02 
8.500000000000e-01 -9.000973375853e+04 8.328388083335e-02 
9.000000000000e-01 -9.000160616588e+04 8.329407810384e-02 
9.500000000000e-01 -9.000026506825e+04 8.329575946365e-02 
1.000000000000e+00 -9.000004374561e+04 8.329603690623e-02 
1.050000000000e+00 -9.000000721960e+04 8.329608269309e-02 
1.100000000000e+00 -9.000000119149e+04 8.329609024954e-02 
1.150000000000e+00 -9.000000019664e+04 8.329609149662e-02 
1.200000000000e+00 -9.000000003245e+04 8.329609170244e-02 
1.250000000000e+00 -9.000000000536e+04 8.329609173641e-02 
1.300000000000e+00 -9.000000000089e+04 8.329609174201e-02 
1.350000000000e+00 -9.000000000016e+04 8.329609174293e-02 
1.400000000000e+00 -9.000000000011e+04 8.329609174302e-02 
1.450000000000e+00 -9.000000000053e+04 8.329609174272e-02 
1.500000000000e+00 -9.000000000310e+04 8.329609174076e-02 
1.550000000000e+00 -9.000000001839e+04 8.329609172914e-02 
1.600000000000e+00 -9.000000010911e+04 8.329609166016e-02 
1.650000000000e+00 -9.000000064734e+04 8.329609125092e-02 
1.700000000000e+00 -9.000000384080e+04 8.329608882284e-02 
1.750000000000e+00 -9.000002278815e+04 8.329607441654e-02 
1.800000000000e+00 -9.000013520640e+04 8.329598894058e-02 
1.850000000000e+00 -9.000080221356e+04 8.329548176565e-02 
1.900000000000e+00 -9.000476003200e+04 8.329247151613e-02 
1.950000000000e+00 -9.002825470979e+04 8.327457251052e-02 
2.000000000000e+00 -9.016808676343e+04 8.325924972704e-02 
 TITLE = "Profiles along polylines"
 VARIABLES = "DIST" "PRESSURE1" "SATURATION1" 
 ZONE T="TIME=1.000000000000e+00"
0.000000000000e+00 -8.530173524570e+04 3.739242223670e-01 
5.000000000000e-02 -8.717071588845e+04 3.710106541841e-01 
1.000000000000e-01 -8.858825674481e+04 3.660568227465e-01 
1.500000000000e-01 -8.936338111586e+04 3.629334175076e-01 
2.000000000000e-01 -8.972973101468e+04 3.613458400012e-01 
2.500000000000e-01 -8.988962004680e+04 3.606230574201e-01 
3.000000000000e-01 -8.995620284993e+04 3.603141532830e-01 
3.500000000000e-01 -8.998327622927e+04 3.601866142554e-01 
4.000000000000e-01 -8.999456830973e+04 3.601335012867e-01 
4.500000000000e-01 -9.000052767322e+04 3.601070949362e-01 
5.000000000000e-01 -9.000679094455e+04 3.600828255707e-01 
5.500000000000e-01 -9.001902657300e+04 3.600389058830e-01 
6.000000000000e-01 -9.004750817687e+04 3.599390811208e-01 
6.500000000000e-01 -9.011423008043e+04 3.597085548708e-01 
7.000000000000e-01 -9.026501287051e+04 3.591969971820e-01 
7.500000000000e-01 -9.058441205823e+04 2.209639178601e-01 
8.000000000000e-01 -9.013772899474e+04 8.316390745533e-02 
8.500000000000e-01 -9.002963178173e+04 8.326571310585e-02 
9.000000000000e-01 -9.000603497209e+04 8.328964890194e-02 
9.500000000000e-01 -9.000118517675e+04 8.329479156314e-02 
1.000000000000e+00 -9.000022683182e+04 8.329583802430e-02 
1.050000000000e+00 -9.000004259079e+04 8.329604340841e-02 
1.100000000000e+00 -9.000000787985e+04 8.329608269961e-02 
1.150000000000e+00 -9.000000144088e+04 8.329609007459e-02 
1.200000000000e+00 -9.000000026097e+04 8.329609143870e-02 
1.250000000000e+00 -9.000000004690e+04 8.329609168808e-02 
1.300000000000e+00 -9.000000000840e+04 8.329609173322e-02 
1.350000000000e+00 -9.000000000165e+04 8.329609174124e-02 
1.400000000000e+00 -9.000000000117e+04 8.329609174215e-02 
1.450000000000e+00 -9.000000000506e+04 8.329609173942e-02 
1.500000000000e+00 -9.000000002756e+04 8.329609172317e-02 
1.550000000000e+00 -9.000000015036e+04 8.329609163483e-02 
1.600000000000e+00 -9.000000081417e+04 8.329609115984e-02 
1.650000000000e+00 -9.000000436833e+04 8.329608863391e-02 
1.700000000000e+00 -9.000002317536e+04 8.329607538099e-02 
1.750000000000e+00 -9.000012123074e+04 8.329600703607e-02 
1.800000000000e+00 -9.000062273880e+04 8.329566255794e-02 
1.850000000000e+00 -9.000312211679e+04 8.329398054690e-02 
1.900000000000e+00 -9.001512870763e+04 8.328614308023e-02 
1.950000000000e+00 -9.006966765870e+04 8.325227681030e-02 
2.000000000000e+00 -9.029494852109e+04 8.322485325659e-02 
 TITLE = "Profiles along polylines"
 VARIABLES = "DIST" "PRESSURE1" "SATURATION1" 
 ZONE T="TIME=5.000000000000e+00"
0.000000000000e+00 -7.560365266605e+04 4.070627236853e-01 
5.000000000000e-02 -7.724791478397e+04 4.038266664340e-01 
1.000000000000e-01 -7.968553081427e+04 3.964352001264e-01 
1.500000000000e-01 -8.216321412924e+04 3.882575810045e-01 
2.000000000000e-01 -8.432506985571e+04 3.808184770833e-01 
2.500000000000e-01 -8.604748551728e+04 3.747255763882e-01 
3.000000000000e-01 -8.733779616669e+04 3.700668528972e-01 
3.500000000000e-01 -8.826555335832e+04 3.666662366945e-01 
4.000000000000e-01 -8.891898460945e+04 3.642481463310e-01 
4.500000000000e-01 -8.938194026537e+04 3.625307084638e-01 
5.000000000000e-01 -8.972518364479e+04 3.612669184861e-01 
5.500000000000e-01 -9.000579394091e+04 3.602539476384e-01 
6.000000000000e-01 -9.026990847560e+04 3.593274596164e-01 
6.500000000000e-01 -9.055574678566e+04 3.583525783569e-01 
7.000000000000e-01 -9.089503618368e+04 3.572188287357e-01 
7.500000000000e-01 -9.131163923824e+04 2.196771070581e-01 
8.000000000000e-01 -9.067950628380e+04 8.288666440460e-02 
8.500000000000e-01 -9.033010198963e+04 8.309080698726e-02 
9.000000000000e-01 -9.015359403494e+04 8.319845808013e-02 
9.500000000000e-01 -9.006940197696e+04 8.325129903603e-02 
1.000000000000e+00 -9.003073632056e+04 8.327604329062e-02 
1.050000000000e+00 -9.001342571110e+04 8.328726994931e-02 
1.100000000000e+00 -9.000580900914e+04 8.329225525617e-02 
1.150000000000e+00 -9.000249750988e+04 8.329443654472e-02 
1.200000000000e+00 -9.000107028267e+04 8.329538094387e-02 
1.250000000000e+00 -9.000046047651e+04 8.329578604155e-02 
1.300000000000e+00 -9.000020523905e+04 8.329595679604e-02 
1.350000000000e+00 -9.000010865781e+04 8.329602349682e-02 
1.400000000000e+00 -9.000009563417e+04 8.329603769905e-02 
1.450000000000e+00 -9.000015470838e+04 8.329601106156e-02 
1.500000000000e+00 -9.000032830788e+04 8.329592468589e-02 
1.550000000000e+00 -9.000074248712e+04 8.329571610292e-02 
1.600000000000e+00 -9.000169587609e+04 8.329523554492e-02 
1.650000000000e+00 -9.000386650306e+04 8.329414318858e-02 
1.700000000000e+00 -9.000876628281e+04 8.329168438958e-02 
1.750000000000e+00 -9.001970433511e+04 8.328621839719e-02 
1.800000000000e+00 -9.004373415008e+04 8.327428245476e-02 
1.850000000000e+00 -9.009529631031e+04 8.324889198427e-02 
1.900000000000e+00 -9.020212081305e+04 8.319693670088e-02 
1.950000000000e+00 -9.041198225614e+04 8.309663476182e-02 
2.000000000000e+00 -9.079166965488e+04 8.303106845038e-02 
 TITLE = "Profiles along polylines"
 VARIABLES = "DIST" "PRESSURE1" "SATURATION1" 
 ZONE T="TIME=1.000000000000e+01"
0.000000000000e+00 -7.953744284135e+04 3.948004121538e-01 
5.000000000000e-02 -8.022929512283e+04 3.934490981888e-01 
1.000000000000e-01 -8.123671429648e+04 3.902872303830e-01 
1.500000000000e-01 -8.242561570014e+04 3.864297439232e-01 
2.000000000000e-01 -8.366982028664e+04 3.822967103170e-01 
2.500000000000e-01 -8.487272617233e+04 3.782293965034e-01 
3.000000000000e-01 -8.597263190214e+04 3.744584435396e-01 
3.500000000000e-01 -8.693973075056e+04 3.711068220899e-01 
4.000000000000e-01 -8.776925160961e+04 3.682093018335e-01 
4.500000000000e-01 -8.847359698410e+04 3.657375676747e-01 
5.000000000000e-01 -8.907520458599e+04 3.636243894558e-01 
5.500000000000e-01 -8.960091872373e+04 3.617835213354e-01 
6.000000000000e-01 -9.007794138482e+04 3.601245259390e-01 
6.500000000000e-01 -9.053100516180e+04 3.585633350424e-01 
7.000000000000e-01 -9.098026538750e+04 3.570300362253e-01 
7.500000000000e-01 -9.143949954375e+04 2.194654495193e-01 
8.000000000000e-01 -9.094886833568e+04 8.277804642625e-02 
8.500000000000e-01 -9.059060838178e+04 8.296618019354e-02 
9.000000000000e-01 -9.035284969384e+04 8.309561208845e-02 
9.500000000000e-01 -9.020456104076e+04 8.317836730115e-02 
1.000000000000e+00 -9.011596023895e+04 8.322870251496e-02 
1.050000000000e+00 -9.006463320498e+04 8.325824889488e-02 
1.100000000000e+00 -9.003557481293e+04 8.327514369024e-02 
1.150000000000e+00 -9.001941605990e+04 8.328461157469e-02 
1.200000000000e+00 -9.001057292807e+04 8.328982701284e-02 
1.250000000000e+00 -9.000583115422e+04 8.329264365091e-02 
1.300000000000e+00 -9.000340117910e+04 8.329410654677e-02 
1.350000000000e+00 -9.000233844981e+04 8.329477665457e-02 
1.400000000000e+00 -9.000221636977e+04 8.329491917341e-02 
1.450000000000e+00 -9.000297042270e+04 8.329459796318e-02 
1.500000000000e+00 -9.000486874553e+04 8.329370128329e-02 
1.550000000000e+00 -9.000859834544e+04 8.329190711780e-02 
1.600000000000e+00 -9.001548807213e+04 8.328858029471e-02 
1.650000000000e+00 -9.002792162931e+04 8.328257795433e-02 
1.700000000000e+00 -9.005002440155e+04 8.327192597706e-02 
1.750000000000e+00 -9.008872207148e+04 8.325332420180e-02 
1.800000000000e+00 -9.015522368534e+04 8.322146366839e-02 
1.850000000000e+00 -9.026677967182e+04 8.316823984868e-02 
1.900000000000e+00 -9.044803425078e+04 8.308219521870e-02 
1.950000000000e+00 -9.073024854853e+04 8.294897680299e-02 
2.000000000000e+00 -9.114534787456e+04 8.286863754043e-02 
 TITLE = "Profiles along polylines"
 VARIABLES = "DIST" "PRESSURE1" "SATURATION1" 
 ZONE T="TIME=2.000000000000e+01"
0.000000000000e+00 -4.757550595469e+04 4.971133292572e-01 
5.000000000000e-02 -5.388374441906e+04 4.868141973750e-01 
1.000000000000e-01 -5.924044834754e+04 4.678510091850e-01 
1.500000000000e-01 -6.385791934703e+04 4.516964996752e-01 
2.000000000000e-01 -6.787718837093e+04 4.376784325963e-01 
2.500000000000e-01 -7.138913591724e+04 4.254474345763e-01 
3.000000000000e-01 -7.445726796072e+04 4.147659182774e-01 
3.500000000000e-01 -7.712971174711e+04 4.054581955003e-01 
4.000000000000e-01 -7.944595043576e+04 3.973834054363e-01 
4.500000000000e-01 -8.144053051406e+04 3.904206236298e-01 
5.000000000000e-01 -8.314481966987e+04 3.844614480528e-01 
5.500000000000e-01 -8.458743714158e+04 3.794075477719e-01 
6.000000000000e-01 -8.579378450931e+04 3.751715555068e-01 
6.500000000000e-01 -8.678501325644e+04 3.716800889214e-01 
7.000000000000e-01 -8.757671438679e+04 3.688778928612e-01 
7.500000000000e-01 -8.817758484181e+04 2.258477173292e-01 
8.000000000000e-01 -8.903693013838e+04 8.387194638809e-02 
8.500000000000e-01 -8.951299333500e+04 8.359311224887e-02 
9.000000000000e-01 -8.976576876450e+04 8.344224702034e-02 
9.500000000000e-01 -8.989472435003e+04 8.336388114751e-02 
1.000000000000e+00 -8.995777431150e+04 8.332481145276e-02 
1.050000000000e+00 -8.998706635748e+04 8.330621713557e-02 
1.100000000000e+00 -8.999979953310e+04 8.329786048304e-02 
1.150000000000e+00 -9.000490351220e+04 8.329435113246e-02 
1.200000000000e+00 -9.000691260775e+04 8.329292002262e-02 
1.250000000000e+00 -9.000812601754e+04 8.329215566251e-02 
1.300000000000e+00 -9.000978697640e+04 8.329130662652e-02 
1.350000000000e+00 -9.001272906142e+04 8.328989834600e-02 
1.400000000000e+00 -9.001775119919e+04 8.328751400676e-02 
1.450000000000e+00 -9.002587141860e+04 8.328365257257e-02 
1.500000000000e+00 -9.003854661093e+04 8.327761351013e-02 
1.550000000000e+00 -9.005791122214e+04 8.326837818342e-02 
1.600000000000e+00 -9.008706774333e+04 8.325446979194e-02 
1.650000000000e+00 -9.013044554260e+04 8.323378284236e-02 
1.700000000000e+00 -9.019422253691e+04 8.320338434873e-02 
1.750000000000e+00 -9.028676635877e+04 8.315930714523e-02 
1.800000000000e+00 -9.041898752442e+04 8.309638561464e-02 
1.850000000000e+00 -9.060440045911e+04 8.300822796314e-02 
1.900000000000e+00 -9.085857212163e+04 8.288746925405e-02 
1.950000000000e+00 -9.119756899303e+04 8.272647259865e-02 
2.000000000000e+00 -9.163516966658e+04 8.263497338689e-02 
 TITLE = "Profiles along polylines"
 VARIABLES = "DIST" "PRESSURE1" "SATURATION1" 
 ZONE T="TIME=3.000000000000e+01"
0.000000000000e+00 -4.583800140914e+04 5.109480585554e-01 
5.000000000000e-02 -4.941328566173e+04 5.021901678076e-01 
1.000000000000e-01 -5.321402770645e+04 4.870710314122e-01 
1.500000000000e-01 -5.686864386999e+04 4.746173960025e-01 
2.000000000000e-01 -6.033977654410e+04 4.627567798098e-01 
2.500000000000e-01 -6.360427549681e+04 4.515794861012e-01 
3.000000000000e-01 -6.664651676825e+04 4.411446210247e-01 
3.500000000000e-01 -6.945508552482e+04 4.314942478093e-01 
4.000000000000e-01 -7.202104412254e+04 4.226606152826e-01 
4.500000000000e-01 -7.433697148854e+04 4.146700754847e-01 
5.000000000000e-01 -7.639637670759e+04 4.075453946476e-01 
5.500000000000e-01 -7.819329026717e+04 4.013072880602e-01 
6.000000000000e-01 -7.972194723526e+04 3.959755545576e-01 
6.500000000000e-01 -8.097654777968e+04 3.915699128531e-01 
7.000000000000e-01 -8.195112938220e+04 3.881104626021e-01 
7.500000000000e-01 -8.263961331300e+04 2.365783516064e-01 
8.000000000000e-01 -8.496432537983e+04 8.601906603416e-02 
8.500000000000e-01 -8.662822254514e+04 8.513363326680e-02 
9.000000000000e-01 -8.778265184195e+04 8.451263606664e-02 
9.500000000000e-01 -8.856301199426e+04 8.408887119470e-02 
1.000000000000e+00 -8.907978111384e+04 8.380606630605e-02 
1.050000000000e+00 -8.941682200336e+04 8.362051735899e-02 
1.100000000000e+00 -8.963444691550e+04 8.350020461948e-02 
1.150000000000e+00 -8.977439069155e+04 8.342265675956e-02 
1.200000000000e+00 -8.986480358065e+04 8.337256496381e-02 
1.250000000000e+00 -8.992441625802e+04 8.333968046335e-02 
1.300000000000e+00 -8.996569322519e+04 8.331716984389e-02 
1.350000000000e+00 -8.999709530462e+04 8.330041134670e-02 
1.400000000000e+00 -9.002466132812e+04 8.328614415173e-02 
1.450000000000e+00 -9.005311035739e+04 8.327187354788e-02 
1.500000000000e+00 -9.008662404349e+04 8.325545038296e-02 
1.550000000000e+00 -9.012942261973e+04 8.323476476007e-02 
1.600000000000e+00 -9.018620677783e+04 8.320751457846e-02 
1.650000000000e+00 -9.026250209466e+04 8.317102765021e-02 
1.700000000000e+00 -9.036491082332e+04 8.312213224148e-02 
1.750000000000e+00 -9.050124607879e+04 8.305708565302e-02 
1.800000000000e+00 -9.068049647277e+04 8.297158351875e-02 
1.850000000000e+00 -9.091255046623e+04 8.286088137915e-02 
1.900000000000e+00 -9.120761177132e+04 8.272005900952e-02 
1.950000000000e+00 -9.157528164647e+04 8.254443743694e-02 
2.000000000000e+00 -9.202339677225e+04 8.244737242233e-02 
 TITLE = "Profiles along polylines"
 VARIABLES = "DIST" "PRESSURE1" "SATURATION1" 
 ZONE T="TIME=4.000000000000e+01"
0.000000000000e+00 -5.661854962881e+04 4.724183526148e-01 
5.000000000000e-02 -5.739536474392e+04 4.708583813344e-01 
1.000000000000e-01 -5.860207330536e+04 4.670823391098e-01 
1.500000000000e-01 -6.010995054784e+04 4.621974561764e-01 
2.000000000000e-01 -6.181660688820e+04 4.565689820496e-01 
2.500000000000e-01 -6.364035870393e+04 4.504883358153e-01 
3.000000000000e-01 -6.551537563350e+04 4.441899083681e-01 
3.500000000000e-01 -6.738776588449e+04 4.378648844508e-01 
4.000000000000e-01 -6.921256787923e+04 4.316720181619e-01 
4.500000000000e-01 -7.095153765100e+04 4.257456534402e-01 
5.000000000000e-01 -7.257161127253e+04 4.202013764394e-01 
5.500000000000e-01 -7.404394101194e+04 4.151396518912e-01 
6.000000000000e-01 -7.534342753367e+04 4.106477261807e-01 
6.500000000000e-01 -7.644868352939e+04 4.068000338125e-01 
7.000000000000e-01 -7.734235918930e+04 4.036573508550e-01 
7.500000000000e-01 -7.801173649034e+04 2.454941106843e-01 
8.000000000000e-01 -8.091582405347e+04 8.805013409411e-02 
8.500000000000e-01 -8.326589867790e+04 8.684432222721e-02 
9.000000000000e-01 -8.510923273126e+04 8.589010502357e-02 
9.500000000000e-01 -8.651327317868e+04 8.515682840058e-02 
1.000000000000e+00 -8.755488103464e+04 8.460825235794e-02 
1.050000000000e+00 -8.831043167792e+04 8.420733264268e-02 
1.100000000000e+00 -8.884873506117e+04 8.391988419892e-02 
1.150000000000e+00 -8.922740822996e+04 8.371669524409e-02 
1.200000000000e+00 -8.949214169720e+04 8.357421325150e-02 
1.250000000000e+00 -8.967779151180e+04 8.347423885823e-02 
1.300000000000e+00 -8.981030229986e+04 8.340310286748e-02 
1.350000000000e+00 -8.990878831453e+04 8.335068405488e-02 
1.400000000000e+00 -8.998741949669e+04 8.330947583474e-02 
1.450000000000e+00 -9.005698076596e+04 8.327379302175e-02 
1.500000000000e+00 -9.012609349946e+04 8.323913977162e-02 
1.550000000000e+00 -9.020213883022e+04 8.320172662233e-02 
1.600000000000e+00 -9.029193321798e+04 8.315811425524e-02 
1.650000000000e+00 -9.040219854456e+04 8.310496306318e-02 
1.700000000000e+00 -9.053985405041e+04 8.303887383894e-02 
1.750000000000e+00 -9.071214272328e+04 8.295631178766e-02 
1.800000000000e+00 -9.092659472989e+04 8.285361108001e-02 
1.850000000000e+00 -9.119082882903e+04 8.272705837618e-02 
1.900000000000e+00 -9.151220291184e+04 8.257304949851e-02 
1.950000000000e+00 -9.189734934039e+04 8.238830265632e-02 
2.000000000000e+00 -9.235166813066e+04 8.228786203130e-02 
 TITLE = "Profiles along polylines"
 VARIABLES = "DIST" "PRESSURE1" "SATURATION1" 
 ZONE T="TIME=5.000000000000e+01"
0.000000000000e+00 -5.735805555830e+04 4.695239247846e-01 
5.000000000000e-02 -5.847716971523e+04 4.675869815358e-01 
1.000000000000e-01 -5.966632474743e+04 4.635937512055e-01 
1.500000000000e-01 -6.092657461616e+04 4.593665060189e-01 
2.000000000000e-01 -6.224754295436e+04 4.549313589528e-01 
2.500000000000e-01 -6.361204453675e+04 4.503410301841e-01 
3.000000000000e-01 -6.499910044753e+04 4.456634203925e-01 
3.500000000000e-01 -6.638586895429e+04 4.409742307705e-01 
4.000000000000e-01 -6.774888130072e+04 4.363522201942e-01 
4.500000000000e-01 -6.906486492363e+04 4.318760673740e-01 
5.000000000000e-01 -7.031135457946e+04 4.276221009666e-01 
5.500000000000e-01 -7.146722905460e+04 4.236623884226e-01 
6.000000000000e-01 -7.251326052686e+04 4.200628564218e-01 
6.500000000000e-01 -7.343271891458e+04 4.168812728609e-01 
7.000000000000e-01 -7.421203093900e+04 4.141650658459e-01 
7.500000000000e-01 -7.484145349018e+04 2.516012989215e-01 
8.000000000000e-01 -7.777790631651e+04 8.958253058524e-02 
8.500000000000e-01 -8.033663650954e+04 8.829332345788e-02 
9.000000000000e-01 -8.250606118192e+04 8.719297148851e-02 
9.500000000000e-01 -8.429625123738e+04 8.627858311351e-02 
1.000000000000e+00 -8.573541482189e+04 8.553819169243e-02 
1.050000000000e+00 -8.686468768201e+04 8.495311108840e-02 
1.100000000000e+00 -8.773207502437e+04 8.450074626076e-02 
1.150000000000e+00 -8.838677736791e+04 8.415733637446e-02 
1.200000000000e+00 -8.887488419916e+04 8.390015437719e-02 
1.250000000000e+00 -8.923682319084e+04 8.370891967343e-02 
1.300000000000e+00 -8.950640135755e+04 8.356643783894e-02 
1.350000000000e+00 -8.971098350045e+04 8.345864642443e-02 
1.400000000000e+00 -8.987231610533e+04 8.337429426693e-02 
1.450000000000e+00 -9.000760872165e+04 8.330445089249e-02 
1.500000000000e+00 -9.013062358398e+04 8.324198189714e-02 
1.550000000000e+00 -9.025264035196e+04 8.318106852441e-02 
1.600000000000e+00 -9.038324014739e+04 8.311680803042e-02 
1.650000000000e+00 -9.053089646956e+04 8.304490637571e-02 
1.700000000000e+00 -9.070338119671e+04 8.296146191699e-02 
1.750000000000e+00 -9.090800206672e+04 8.286283310677e-02 
1.800000000000e+00 -9.115169129030e+04 8.274558081176e-02 
1.850000000000e+00 -9.144096802680e+04 8.260647413147e-02 
1.900000000000e+00 -9.178180278757e+04 8.244254612952e-02 
1.950000000000e+00 -9.217941977627e+04 8.225118234984e-02 
2.000000000000e+00 -9.263808183735e+04 8.214833986742e-02 
 TITLE = "Profiles along polylines"
 VARIABLES = "DIST" "PRESSURE1" "SATURATION1" 
 ZONE T="TIME=6.000000000000e+01"
0.000000000000e+00 -9.013687582337e+03 7.588192478005e-01 
5.000000000000e-02 -1.508730337345e+04 7.313754716685e-01 
1.000000000000e-01 -2.236456268989e+04 6.705930269882e-01 
1.500000000000e-01 -3.251916814699e+04 6.084058799159e-01 
2.000000000000e-01 -4.136464892980e+04 5.543290311658e-01 
2.500000000000e-01 -4.918271759652e+04 5.103500579089e-01 
3.000000000000e-01 -5.529673541014e+04 4.823375787581e-01 
3.500000000000e-01 -5.945740915067e+04 4.666649975789e-01 
4.000000000000e-01 -6.247967938838e+04 4.555324401453e-01 
4.500000000000e-01 -6.479036470508e+04 4.471611584486e-01 
5.000000000000e-01 -6.662658816480e+04 4.405903904164e-01 
5.500000000000e-01 -6.812339318331e+04 4.352792047155e-01 
6.000000000000e-01 -6.935857084141e+04 4.309178471918e-01 
6.500000000000e-01 -7.037676500682e+04 4.273287735102e-01 
7.000000000000e-01 -7.120262315685e+04 4.244130973249e-01 
7.500000000000e-01 -7.184789258705e+04 2.574198669930e-01 
8.000000000000e-01 -7.492145660168e+04 9.099769316119e-02 
8.500000000000e-01 -7.763888813384e+04 8.962925287387e-02 
9.000000000000e-01 -8.002402829536e+04 8.842751263216e-02 
9.500000000000e-01 -8.208583494185e+04 8.738564094552e-02 
1.000000000000e+00 -8.383304450523e+04 8.649873818269e-02 
1.050000000000e+00 -8.528127021209e+04 8.575950864468e-02 
1.100000000000e+00 -8.645515155343e+04 8.515666727923e-02 
1.150000000000e+00 -8.738713540367e+04 8.467514195474e-02 
1.200000000000e+00 -8.811436752030e+04 8.429733258768e-02 
1.250000000000e+00 -8.867510403032e+04 8.400475140309e-02 
1.300000000000e+00 -8.910569526919e+04 8.377951262412e-02 
1.350000000000e+00 -8.943864841046e+04 8.360537285524e-02 
1.400000000000e+00 -8.970178713616e+04 8.346825602790e-02 
1.450000000000e+00 -8.991824702329e+04 8.335635167453e-02 
1.500000000000e+00 -9.010697184751e+04 8.325993514038e-02 
1.550000000000e+00 -9.028342594765e+04 8.317105061661e-02 
1.600000000000e+00 -9.046032910960e+04 8.308316026991e-02 
1.650000000000e+00 -9.064830513608e+04 8.299082189765e-02 
1.700000000000e+00 -9.085639652425e+04 8.288942544430e-02 
1.750000000000e+00 -9.109243578947e+04 8.277499755007e-02 
1.800000000000e+00 -9.136328515825e+04 8.264407097095e-02 
1.850000000000e+00 -9.167496692462e+04 8.249360927143e-02 
1.900000000000e+00 -9.203271117078e+04 8.232097431576e-02 
1.950000000000e+00 -9.244094825164e+04 8.212392335746e-02 
2.000000000000e+00 -9.290327138641e+04 8.201903851498e-02 
 TITLE = "Profiles along polylines"
 VARIABLES = "DIST" "PRESSURE1" "SATURATION1" 
 ZONE T="TIME=7.000000000000e+01"
0.000000000000e+00 -2.578242482533e+04 6.330612464184e-01 
5.000000000000e-02 -2.778860387310e+04 6.268491059435e-01 
1.000000000000e-01 -3.005749493324e+04 6.136461042543e-01 
1.500000000000e-01 -3.258834580315e+04 5.989067238656e-01 
2.000000000000e-01 -3.536136378974e+04 5.827161877450e-01 
2.500000000000e-01 -3.835126032333e+04 5.652105405701e-01 
3.000000000000e-01 -4.153592835477e+04 5.465153609981e-01 
3.500000000000e-01 -4.490529047906e+04 5.266988474634e-01 
4.000000000000e-01 -4.846483588268e+04 5.067138291303e-01 
4.500000000000e-01 -5.203070588276e+04 4.911426872646e-01 
5.000000000000e-01 -5.511079318640e+04 4.804143542080e-01 
5.500000000000e-01 -5.772236762544e+04 4.712868722452e-01 
6.000000000000e-01 -5.987837122613e+04 4.637136877037e-01 
6.500000000000e-01 -6.158781406247e+04 4.576618927020e-01 
7.000000000000e-01 -6.285601171548e+04 4.531112008045e-01 
7.500000000000e-01 -6.368489374661e+04 2.733226044069e-01 
8.000000000000e-01 -6.862383907349e+04 9.429150050436e-02 
8.500000000000e-01 -7.269834238084e+04 9.220105637228e-02 
9.000000000000e-01 -7.608445974645e+04 9.046830687529e-02 
9.500000000000e-01 -7.890346514816e+04 8.902728039628e-02 
1.000000000000e+00 -8.124377642785e+04 8.783070829121e-02 
1.050000000000e+00 -8.317391002395e+04 8.684255448167e-02 
1.100000000000e+00 -8.475084699398e+04 8.603340766973e-02 
1.150000000000e+00 -8.602520541306e+04 8.537761803831e-02 
1.200000000000e+00 -8.704390160998e+04 8.485172680132e-02 
1.250000000000e+00 -8.785096920475e+04 8.443385016894e-02 
1.300000000000e+00 -8.848729046174e+04 8.410366488555e-02 
1.350000000000e+00 -8.898994048217e+04 8.384265877451e-02 
1.400000000000e+00 -8.939163718010e+04 8.363439100300e-02 
1.450000000000e+00 -8.972052971824e+04 8.346462212593e-02 
1.500000000000e+00 -9.000034770140e+04 8.332127797131e-02 
1.550000000000e+00 -9.025081704852e+04 8.319427728026e-02 
1.600000000000e+00 -9.048821547084e+04 8.307527885382e-02 
1.650000000000e+00 -9.072595717871e+04 8.295740237191e-02 
1.700000000000e+00 -9.097513169017e+04 8.283496277822e-02 
1.750000000000e+00 -9.124495647517e+04 8.270324158202e-02 
1.800000000000e+00 -9.154312978467e+04 8.255830475646e-02 
1.850000000000e+00 -9.187608713029e+04 8.239686758737e-02 
1.900000000000e+00 -9.224917400367e+04 8.221620151531e-02 
1.950000000000e+00 -9.266675057747e+04 8.201407584261e-02 
2.000000000000e+00 -9.313224289507e+04 8.190739904941e-02 
 TITLE = "Profiles along polylines"
 VARIABLES = "DIST" "PRESSURE1" "SATURATION1" 
 ZONE T="TIME=8.000000000000e+01"
0.000000000000e+00 -3.452998356716e+04 5.838400926722e-01 
5.000000000000e-02 -3.517785045536e+04 5.816438644546e-01 
1.000000000000e-01 -3.610277744690e+04 5.764588514890e-01 
1.500000000000e-01 -3.727495777722e+04 5.697732258905e-01 
2.000000000000e-01 -3.866856449915e+04 5.617454310345e-01 
2.500000000000e-01 -4.026048596071e+04 5.525160963508e-01 
3.000000000000e-01 -4.202951711107e+04 5.422138432401e-01 
3.500000000000e-01 -4.395544412154e+04 5.309614571843e-01 
4.000000000000e-01 -4.601716713687e+04 5.188876261531e-01 
4.500000000000e-01 -4.818829378543e+04 5.064310979646e-01 
5.000000000000e-01 -5.038266902421e+04 4.961985237143e-01 
5.500000000000e-01 -5.236801855334e+04 4.889830612171e-01 
6.000000000000e-01 -5.408460511192e+04 4.830255853689e-01 
6.500000000000e-01 -5.550578383654e+04 4.780504923484e-01 
7.000000000000e-01 -5.661240472789e+04 4.741272013799e-01 
7.500000000000e-01 -5.739237154567e+04 2.854529639710e-01 
8.000000000000e-01 -6.271028794581e+04 9.721955200912e-02 
8.500000000000e-01 -6.732408334033e+04 9.488415312968e-02 
9.000000000000e-01 -7.132096702522e+04 9.286135267669e-02 
9.500000000000e-01 -7.476550475387e+04 9.111658709378e-02 
1.000000000000e+00 -7.771099316199e+04 8.962222486003e-02 
1.050000000000e+00 -8.020530521848e+04 8.835398723735e-02 
1.100000000000e+00 -8.229424467932e+04 8.728901679197e-02 
1.150000000000e+00 -8.402334117114e+04 8.640483916640e-02 
1.200000000000e+00 -8.543841451753e+04 8.567896377162e-02 
1.250000000000e+00 -8.658516011113e+04 8.508897928557e-02 
1.300000000000e+00 -8.750809978955e+04 8.461298409746e-02 
1.350000000000e+00 -8.824931031708e+04 8.423016348977e-02 
1.400000000000e+00 -8.884729895681e+04 8.392133603075e-02 
1.450000000000e+00 -8.933625795948e+04 8.366934590767e-02 
1.500000000000e+00 -8.974576647009e+04 8.345925099852e-02 
1.550000000000e+00 -9.010088278728e+04 8.327831928481e-02 
1.600000000000e+00 -9.042250750731e+04 8.311588281446e-02 