VARIABLES  = "X","Y","Z", "PRESSURE1", "SATURATION1"
ZONE T="0.000000000000e+00s", N=205, E=200, F=FEPOINT, ET=QUADRILATERAL
STRANDID=1, SOLUTIONTIME=0.000000000000e+00
1.450053600000e+05 4.048208912500e+05 0.000000000000e+00 -9.000000000000e+04 3.601056880734e-01 
1.450053600000e+05 4.048208912500e+05 5.000000000000e-02 -9.000000000000e+04 3.601056880734e-01 
1.450053600000e+05 4.048208912500e+05 1.000000000000e-01 -9.000000000000e+04 3.601056880734e-01 
1.450053600000e+05 4.048208912500e+05 1.500000000000e-01 -9.000000000000e+04 3.601056880734e-01 
1.450053600000e+05 4.048208912500e+05 2.000000000000e-01 -9.000000000000e+04 3.601056880734e-01 
1.450053600000e+05 4.048208912500e+05 2.500000000000e-01 -9.000000000000e+04 2.147624357798e-01 
1.450053600000e+05 4.048208912500e+05 3.000000000000e-01 -9.000000000000e+04 1.684751605505e-01 
1.450053600000e+05 4.048208912500e+05 3.500000000000e-01 -9.000000000000e+04 2.675311376147e-01 
1.450053600000e+05 4.048208912500e+05 4.000000000000e-01 -9.000000000000e+04 2.675311376147e-01 
1.450053600000e+05 4.048208912500e+05 4.500000000000e-01 -9.000000000000e+04 2.675311376147e-01 
1.450053600000e+05 4.048208912500e+05 5.000000000000e-01 -9.000000000000e+04 2.675311376147e-01 
1.450053600000e+05 4.048208912500e+05 5.500000000000e-01 -9.000000000000e+04 2.675311376147e-01 
1.450053600000e+05 4.048208912500e+05 6.000000000000e-01 -9.000000000000e+04 2.675311376147e-01 
1.450053600000e+05 4.048208912500e+05 6.500000000000e-01 -9.000000000000e+04 2.675311376147e-01 
1.450053600000e+05 4.048208912500e+05 7.000000000000e-01 -9.000000000000e+04 1.754136146789e-01 
1.450053600000e+05 4.048208912500e+05 7.500000000000e-01 -9.000000000000e+04 8.329609174312e-02 
1.450053600000e+05 4.048208912500e+05 8.000000000000e-01 -9.000000000000e+04 8.329609174312e-02 
1.450053600000e+05 4.048208912500e+05 8.500000000000e-01 -9.000000000000e+04 8.329609174312e-02 
1.450053600000e+05 4.048208912500e+05 9.000000000000e-01 -9.000000000000e+04 8.329609174312e-02 
1.450053600000e+05 4.048208912500e+05 9.500000000000e-01 -9.000000000000e+04 8.329609174312e-02 
1.450053600000e+05 4.048208912500e+05 1.000000000000e+00 -9.000000000000e+04 8.329609174312e-02 
1.450053600000e+05 4.048208912500e+05 1.050000000000e+00 -9.000000000000e+04 8.329609174312e-02 
1.450053600000e+05 4.048208912500e+05 1.100000000000e+00 -9.000000000000e+04 8.329609174312e-02 
1.450053600000e+05 4.048208912500e+05 1.150000000000e+00 -9.000000000000e+04 8.329609174312e-02 
1.450053600000e+05 4.048208912500e+05 1.200000000000e+00 -9.000000000000e+04 8.329609174312e-02 
1.450053600000e+05 4.048208912500e+05 1.250000000000e+00 -9.000000000000e+04 8.329609174312e-02 
1.450053600000e+05 4.048208912500e+05 1.300000000000e+00 -9.000000000000e+04 8.329609174312e-02 
1.450053600000e+05 4.048208912500e+05 1.350000000000e+00 -9.000000000000e+04 8.329609174312e-02 
1.450053600000e+05 4.048208912500e+05 1.400000000000e+00 -9.000000000000e+04 8.329609174312e-02 
1.450053600000e+05 4.048208912500e+05 1.450000000000e+00 -9.000000000000e+04 8.329609174312e-02 
1.450053600000e+05 4.048208912500e+05 1.500000000000e+00 -9.000000000000e+04 8.329609174312e-02 
1.450053600000e+05 4.048208912500e+05 1.550000000000e+00 -9.000000000000e+04 8.329609174312e-02 
1.450053600000e+05 4.048208912500e+05 1.600000000000e+00 -9.000000000000e+04 8.329609174312e-02 
1.450053600000e+05 4.048208912500e+05 1.650000000000e+00 -9.000000000000e+04 8.329609174312e-02 
1.450053600000e+05 4.048208912500e+05 1.700000000000e+00 -9.000000000000e+04 8.329609174312e-02 
1.450053600000e+05 4.048208912500e+05 1.750000000000e+00 -9.000000000000e+04 8.329609174312e-02 
1.450053600000e+05 4.048208912500e+05 1.800000000000e+00 -9.000000000000e+04 8.329609174312e-02 
1.450053600000e+05 4.048208912500e+05 1.850000000000e+00 -9.000000000000e+04 8.329609174312e-02 
1.450053600000e+05 4.048208912500e+05 1.900000000000e+00 -9.000000000000e+04 8.329609174312e-02 
1.450053600000e+05 4.048208912500e+05 1.950000000000e+00 -9.000000000000e+04 8.329609174312e-02 
1.450053600000e+05 4.048208912500e+05 2.000000000000e+00 -9.000000000000e+04 8.329609174312e-02 
1.455686362500e+05 4.048675100000e+05 0.000000000000e+00 -9.000000000000e+04 3.601056880734e-01 
1.455686362500e+05 4.048675100000e+05 5.000000000000e-02 -9.000000000000e+04 3.601056880734e-01 
1.455686362500e+05 4.048675100000e+05 1.000000000000e-01 -9.000000000000e+04 3.601056880734e-01 
1.455686362500e+05 4.048675100000e+05 1.500000000000e-01 -9.000000000000e+04 3.601056880734e-01 
1.455686362500e+05 4.048675100000e+05 2.000000000000e-01 -9.000000000000e+04 3.601056880734e-01 
1.455686362500e+05 4.048675100000e+05 2.500000000000e-01 -9.000000000000e+04 3.601056880734e-01 
1.455686362500e+05 4.048675100000e+05 3.000000000000e-01 -9.000000000000e+04 3.601056880734e-01 
1.455686362500e+05 4.048675100000e+05 3.500000000000e-01 -9.000000000000e+04 3.601056880734e-01 
1.455686362500e+05 4.048675100000e+05 4.000000000000e-01 -9.000000000000e+04 3.601056880734e-01 
1.455686362500e+05 4.048675100000e+05 4.500000000000e-01 -9.000000000000e+04 3.601056880734e-01 
1.455686362500e+05 4.048675100000e+05 5.000000000000e-01 -9.000000000000e+04 3.601056880734e-01 
1.455686362500e+05 4.048675100000e+05 5.500000000000e-01 -9.000000000000e+04 3.601056880734e-01 
1.455686362500e+05 4.048675100000e+05 6.000000000000e-01 -9.000000000000e+04 3.601056880734e-01 
1.455686362500e+05 4.048675100000e+05 6.500000000000e-01 -9.000000000000e+04 3.601056880734e-01 
1.455686362500e+05 4.048675100000e+05 7.000000000000e-01 -9.000000000000e+04 3.601056880734e-01 
1.455686362500e+05 4.048675100000e+05 7.500000000000e-01 -9.000000000000e+04 2.217008899083e-01 
1.455686362500e+05 4.048675100000e+05 8.000000000000e-01 -9.000000000000e+04 8.329609174312e-02 
1.455686362500e+05 4.048675100000e+05 8.500000000000e-01 -9.000000000000e+04 8.329609174312e-02 
1.455686362500e+05 4.048675100000e+05 9.000000000000e-01 -9.000000000000e+04 8.329609174312e-02 
1.455686362500e+05 4.048675100000e+05 9.500000000000e-01 -9.000000000000e+04 8.329609174312e-02 
1.455686362500e+05 4.048675100000e+05 1.000000000000e+00 -9.000000000000e+04 8.329609174312e-02 
1.455686362500e+05 4.048675100000e+05 1.050000000000e+00 -9.000000000000e+04 8.329609174312e-02 
1.455686362500e+05 4.048675100000e+05 1.100000000000e+00 -9.000000000000e+04 8.329609174312e-02 
1.455686362500e+05 4.048675100000e+05 1.150000000000e+00 -9.000000000000e+04 8.329609174312e-02 
1.455686362500e+05 4.048675100000e+05 1.200000000000e+00 -9.000000000000e+04 8.329609174312e-02 
1.455686362500e+05 4.048675100000e+05 1.250000000000e+00 -9.000000000000e+04 8.329609174312e-02 
1.455686362500e+05 4.048675100000e+05 1.300000000000e+00 -9.000000000000e+04 8.329609174312e-02 
1.455686362500e+05 4.048675100000e+05 1.350000000000e+00 -9.000000000000e+04 8.329609174312e-02 
1.455686362500e+05 4.048675100000e+05 1.400000000000e+00 -9.000000000000e+04 8.329609174312e-02 
1.455686362500e+05 4.048675100000e+05 1.450000000000e+00 -9.000000000000e+04 8.329609174312e-02 
1.455686362500e+05 4.048675100000e+05 1.500000000000e+00 -9.000000000000e+04 8.329609174312e-02 
1.455686362500e+05 4.048675100000e+05 1.550000000000e+00 -9.000000000000e+04 8.329609174312e-02 
1.455686362500e+05 4.048675100000e+05 1.600000000000e+00 -9.000000000000e+04 8.329609174312e-02 
1.455686362500e+05 4.048675100000e+05 1.650000000000e+00 -9.000000000000e+04 8.329609174312e-02 
1.455686362500e+05 4.048675100000e+05 1.700000000000e+00 -9.000000000000e+04 8.329609174312e-02 
1.455686362500e+05 4.048675100000e+05 1.750000000000e+00 -9.000000000000e+04 8.329609174312e-02 
1.455686362500e+05 4.048675100000e+05 1.800000000000e+00 -9.000000000000e+04 8.329609174312e-02 
1.455686362500e+05 4.048675100000e+05 1.850000000000e+00 -9.000000000000e+04 8.329609174312e-02 
1.455686362500e+05 4.048675100000e+05 1.900000000000e+00 -9.000000000000e+04 8.329609174312e-02 
1.455686362500e+05 4.048675100000e+05 1.950000000000e+00 -9.000000000000e+04 8.329609174312e-02 
1.455686362500e+05 4.048675100000e+05 2.000000000000e+00 -9.000000000000e+04 8.329609174312e-02 
1.461663462500e+05 4.048616750000e+05 0.000000000000e+00 -9.000000000000e+04 3.601056880734e-01 
1.461663462500e+05 4.048616750000e+05 5.000000000000e-02 -9.000000000000e+04 3.601056880734e-01 
1.461663462500e+05 4.048616750000e+05 1.000000000000e-01 -9.000000000000e+04 3.601056880734e-01 
1.461663462500e+05 4.048616750000e+05 1.500000000000e-01 -9.000000000000e+04 3.601056880734e-01 
1.461663462500e+05 4.048616750000e+05 2.000000000000e-01 -9.000000000000e+04 3.601056880734e-01 
1.461663462500e+05 4.048616750000e+05 2.500000000000e-01 -9.000000000000e+04 2.217008899083e-01 
1.461663462500e+05 4.048616750000e+05 3.000000000000e-01 -9.000000000000e+04 8.329609174312e-02 
1.461663462500e+05 4.048616750000e+05 3.500000000000e-01 -9.000000000000e+04 8.329609174312e-02 
1.461663462500e+05 4.048616750000e+05 4.000000000000e-01 -9.000000000000e+04 8.329609174312e-02 
1.461663462500e+05 4.048616750000e+05 4.500000000000e-01 -9.000000000000e+04 8.329609174312e-02 
1.461663462500e+05 4.048616750000e+05 5.000000000000e-01 -9.000000000000e+04 8.329609174312e-02 
1.461663462500e+05 4.048616750000e+05 5.500000000000e-01 -9.000000000000e+04 8.329609174312e-02 
1.461663462500e+05 4.048616750000e+05 6.000000000000e-01 -9.000000000000e+04 8.329609174312e-02 
1.461663462500e+05 4.048616750000e+05 6.500000000000e-01 -9.000000000000e+04 8.329609174312e-02 
1.461663462500e+05 4.048616750000e+05 7.000000000000e-01 -9.000000000000e+04 8.329609174312e-02 
1.461663462500e+05 4.048616750000e+05 7.500000000000e-01 -9.000000000000e+04 8.329609174312e-02 
1.461663462500e+05 4.048616750000e+05 8.000000000000e-01 -9.000000000000e+04 8.329609174312e-02 
1.461663462500e+05 4.048616750000e+05 8.500000000000e-01 -9.000000000000e+04 8.329609174312e-02 
1.461663462500e+05 4.048616750000e+05 9.000000000000e-01 -9.000000000000e+04 8.329609174312e-02 
1.461663462500e+05 4.048616750000e+05 9.500000000000e-01 -9.000000000000e+04 8.329609174312e-02 
1.461663462500e+05 4.048616750000e+05 1.000000000000e+00 -9.000000000000e+04 8.329609174312e-02 
1.461663462500e+05 4.048616750000e+05 1.050000000000e+00 -9.000000000000e+04 8.329609174312e-02 
1.461663462500e+05 4.048616750000e+05 1.100000000000e+00 -9.000000000000e+04 8.329609174312e-02 
1.461663462500e+05 4.048616750000e+05 1.150000000000e+00 -9.000000000000e+04 8.329609174312e-02 
1.461663462500e+05 4.048616750000e+05 1.200000000000e+00 -9.000000000000e+04 8.329609174312e-02 
1.461663462500e+05 4.048616750000e+05 1.250000000000e+00 -9.000000000000e+04 8.329609174312e-02 
1.461663462500e+05 4.048616750000e+05 1.300000000000e+00 -9.000000000000e+04 8.329609174312e-02 
1.461663462500e+05 4.048616750000e+05 1.350000000000e+00 -9.000000000000e+04 8.329609174312e-02 
1.461663462500e+05 4.048616750000e+05 1.400000000000e+00 -9.000000000000e+04 8.329609174312e-02 
1.461663462500e+05 4.048616750000e+05 1.450000000000e+00 -9.000000000000e+04 8.329609174312e-02 
1.461663462500e+05 4.048616750000e+05 1.500000000000e+00 -9.000000000000e+04 8.329609174312e-02 
1.461663462500e+05 4.048616750000e+05 1.550000000000e+00 -9.000000000000e+04 8.329609174312e-02 
1.461663462500e+05 4.048616750000e+05 1.600000000000e+00 -9.000000000000e+04 8.329609174312e-02 
1.461663462500e+05 4.048616750000e+05 1.650000000000e+00 -9.000000000000e+04 8.329609174312e-02 
1.461663462500e+05 4.048616750000e+05 1.700000000000e+00 -9.000000000000e+04 8.329609174312e-02 
1.461663462500e+05 4.048616750000e+05 1.750000000000e+00 -9.000000000000e+04 8.329609174312e-02 
1.461663462500e+05 4.048616750000e+05 1.800000000000e+00 -9.000000000000e+04 8.329609174312e-02 
1.461663462500e+05 4.048616750000e+05 1.850000000000e+00 -9.000000000000e+04 8.329609174312e-02 
1.461663462500e+05 4.048616750000e+05 1.900000000000e+00 -9.000000000000e+04 8.329609174312e-02 
1.461663462500e+05 4.048616750000e+05 1.950000000000e+00 -9.000000000000e+04 8.329609174312e-02 
1.461663462500e+05 4.048616750000e+05 2.000000000000e+00 -9.000000000000e+04 8.329609174312e-02 
1.467941000000e+05 4.048667612500e+05 0.000000000000e+00 -9.000000000000e+04 3.601056880734e-01 
1.467941000000e+05 4.048667612500e+05 5.000000000000e-02 -9.000000000000e+04 3.601056880734e-01 
1.467941000000e+05 4.048667612500e+05 1.000000000000e-01 -9.000000000000e+04 3.601056880734e-01 
1.467941000000e+05 4.048667612500e+05 1.500000000000e-01 -9.000000000000e+04 3.601056880734e-01 
1.467941000000e+05 4.048667612500e+05 2.000000000000e-01 -9.000000000000e+04 3.601056880734e-01 
1.467941000000e+05 4.048667612500e+05 2.500000000000e-01 -9.000000000000e+04 3.039060458716e-01 
1.467941000000e+05 4.048667612500e+05 3.000000000000e-01 -9.000000000000e+04 2.477064036697e-01 
1.467941000000e+05 4.048667612500e+05 3.500000000000e-01 -9.000000000000e+04 1.655012477064e-01 
1.467941000000e+05 4.048667612500e+05 4.000000000000e-01 -9.000000000000e+04 8.329609174312e-02 
1.467941000000e+05 4.048667612500e+05 4.500000000000e-01 -9.000000000000e+04 8.329609174312e-02 
1.467941000000e+05 4.048667612500e+05 5.000000000000e-01 -9.000000000000e+04 8.329609174312e-02 
1.467941000000e+05 4.048667612500e+05 5.500000000000e-01 -9.000000000000e+04 8.329609174312e-02 
1.467941000000e+05 4.048667612500e+05 6.000000000000e-01 -9.000000000000e+04 8.329609174312e-02 
1.467941000000e+05 4.048667612500e+05 6.500000000000e-01 -9.000000000000e+04 8.329609174312e-02 
1.467941000000e+05 4.048667612500e+05 7.000000000000e-01 -9.000000000000e+04 8.329609174312e-02 
1.467941000000e+05 4.048667612500e+05 7.500000000000e-01 -9.000000000000e+04 8.329609174312e-02 
1.467941000000e+05 4.048667612500e+05 8.000000000000e-01 -9.000000000000e+04 8.329609174312e-02 
1.467941000000e+05 4.048667612500e+05 8.500000000000e-01 -9.000000000000e+04 8.329609174312e-02 
1.467941000000e+05 4.048667612500e+05 9.000000000000e-01 -9.000000000000e+04 8.329609174312e-02 
1.467941000000e+05 4.048667612500e+05 9.500000000000e-01 -9.000000000000e+04 8.329609174312e-02 
1.467941000000e+05 4.048667612500e+05 1.000000000000e+00 -9.000000000000e+04 8.981318348624e-02 
1.467941000000e+05 4.048667612500e+05 1.050000000000e+00 -9.000000000000e+04 9.633027522936e-02 
1.467941000000e+05 4.048667612500e+05 1.100000000000e+00 -9.000000000000e+04 9.633027522936e-02 
1.467941000000e+05 4.048667612500e+05 1.150000000000e+00 -9.000000000000e+04 9.633027522936e-02 
1.467941000000e+05 4.048667612500e+05 1.200000000000e+00 -9.000000000000e+04 9.633027522936e-02 
1.467941000000e+05 4.048667612500e+05 1.250000000000e+00 -9.000000000000e+04 9.633027522936e-02 
1.467941000000e+05 4.048667612500e+05 1.300000000000e+00 -9.000000000000e+04 9.633027522936e-02 
1.467941000000e+05 4.048667612500e+05 1.350000000000e+00 -9.000000000000e+04 9.633027522936e-02 
1.467941000000e+05 4.048667612500e+05 1.400000000000e+00 -9.000000000000e+04 9.633027522936e-02 
1.467941000000e+05 4.048667612500e+05 1.450000000000e+00 -9.000000000000e+04 9.633027522936e-02 
1.467941000000e+05 4.048667612500e+05 1.500000000000e+00 -9.000000000000e+04 9.633027522936e-02 
1.467941000000e+05 4.048667612500e+05 1.550000000000e+00 -9.000000000000e+04 9.633027522936e-02 
1.467941000000e+05 4.048667612500e+05 1.600000000000e+00 -9.000000000000e+04 9.633027522936e-02 
1.467941000000e+05 4.048667612500e+05 1.650000000000e+00 -9.000000000000e+04 9.633027522936e-02 
1.467941000000e+05 4.048667612500e+05 1.700000000000e+00 -9.000000000000e+04 9.633027522936e-02 
1.467941000000e+05 4.048667612500e+05 1.750000000000e+00 -9.000000000000e+04 9.633027522936e-02 
1.467941000000e+05 4.048667612500e+05 1.800000000000e+00 -9.000000000000e+04 9.633027522936e-02 
1.467941000000e+05 4.048667612500e+05 1.850000000000e+00 -9.000000000000e+04 9.633027522936e-02 
1.467941000000e+05 4.048667612500e+05 1.900000000000e+00 -9.000000000000e+04 9.633027522936e-02 
1.467941000000e+05 4.048667612500e+05 1.950000000000e+00 -9.000000000000e+04 9.633027522936e-02 
1.467941000000e+05 4.048667612500e+05 2.000000000000e+00 -9.000000000000e+04 9.633027522936e-02 
1.474515050000e+05 4.048154750000e+05 0.000000000000e+00 -9.000000000000e+04 3.601056880734e-01 
1.474515050000e+05 4.048154750000e+05 5.000000000000e-02 -9.000000000000e+04 3.601056880734e-01 
1.474515050000e+05 4.048154750000e+05 1.000000000000e-01 -9.000000000000e+04 3.601056880734e-01 
1.474515050000e+05 4.048154750000e+05 1.500000000000e-01 -9.000000000000e+04 3.601056880734e-01 
1.474515050000e+05 4.048154750000e+05 2.000000000000e-01 -9.000000000000e+04 3.601056880734e-01 
1.474515050000e+05 4.048154750000e+05 2.500000000000e-01 -9.000000000000e+04 3.601056880734e-01 
1.474515050000e+05 4.048154750000e+05 3.000000000000e-01 -9.000000000000e+04 3.601056880734e-01 
1.474515050000e+05 4.048154750000e+05 3.500000000000e-01 -9.000000000000e+04 3.601056880734e-01 
1.474515050000e+05 4.048154750000e+05 4.000000000000e-01 -9.000000000000e+04 2.217008899083e-01 
1.474515050000e+05 4.048154750000e+05 4.500000000000e-01 -9.000000000000e+04 8.329609174312e-02 
1.474515050000e+05 4.048154750000e+05 5.000000000000e-01 -9.000000000000e+04 8.329609174312e-02 
1.474515050000e+05 4.048154750000e+05 5.500000000000e-01 -9.000000000000e+04 8.329609174312e-02 
1.474515050000e+05 4.048154750000e+05 6.000000000000e-01 -9.000000000000e+04 9.913826605505e-02 
1.474515050000e+05 4.048154750000e+05 6.500000000000e-01 -9.000000000000e+04 1.149804403670e-01 
1.474515050000e+05 4.048154750000e+05 7.000000000000e-01 -9.000000000000e+04 1.149804403670e-01 
1.474515050000e+05 4.048154750000e+05 7.500000000000e-01 -9.000000000000e+04 1.149804403670e-01 
1.474515050000e+05 4.048154750000e+05 8.000000000000e-01 -9.000000000000e+04 1.149804403670e-01 
1.474515050000e+05 4.048154750000e+05 8.500000000000e-01 -9.000000000000e+04 1.149804403670e-01 
1.474515050000e+05 4.048154750000e+05 9.000000000000e-01 -9.000000000000e+04 1.149804403670e-01 
1.474515050000e+05 4.048154750000e+05 9.500000000000e-01 -9.000000000000e+04 1.149804403670e-01 
1.474515050000e+05 4.048154750000e+05 1.000000000000e+00 -9.000000000000e+04 1.149804403670e-01 
1.474515050000e+05 4.048154750000e+05 1.050000000000e+00 -9.000000000000e+04 1.149804403670e-01 
1.474515050000e+05 4.048154750000e+05 1.100000000000e+00 -9.000000000000e+04 9.913826605505e-02 
1.474515050000e+05 4.048154750000e+05 1.150000000000e+00 -9.000000000000e+04 8.329609174312e-02 
1.474515050000e+05 4.048154750000e+05 1.200000000000e+00 -9.000000000000e+04 8.329609174312e-02 
1.474515050000e+05 4.048154750000e+05 1.250000000000e+00 -9.000000000000e+04 8.329609174312e-02 
1.474515050000e+05 4.048154750000e+05 1.300000000000e+00 -9.000000000000e+04 8.329609174312e-02 
1.474515050000e+05 4.048154750000e+05 1.350000000000e+00 -9.000000000000e+04 8.329609174312e-02 
1.474515050000e+05 4.048154750000e+05 1.400000000000e+00 -9.000000000000e+04 8.329609174312e-02 
1.474515050000e+05 4.048154750000e+05 1.450000000000e+00 -9.000000000000e+04 8.329609174312e-02 
1.474515050000e+05 4.048154750000e+05 1.500000000000e+00 -9.000000000000e+04 8.329609174312e-02 
1.474515050000e+05 4.048154750000e+05 1.550000000000e+00 -9.000000000000e+04 8.329609174312e-02 
1.474515050000e+05 4.048154750000e+05 1.600000000000e+00 -9.000000000000e+04 8.329609174312e-02 
1.474515050000e+05 4.048154750000e+05 1.650000000000e+00 -9.000000000000e+04 8.329609174312e-02 
1.474515050000e+05 4.048154750000e+05 1.700000000000e+00 -9.000000000000e+04 8.329609174312e-02 
1.474515050000e+05 4.048154750000e+05 1.750000000000e+00 -9.000000000000e+04 8.329609174312e-02 
1.474515050000e+05 4.048154750000e+05 1.800000000000e+00 -9.000000000000e+04 8.329609174312e-02 
1.474515050000e+05 4.048154750000e+05 1.850000000000e+00 -9.000000000000e+04 8.329609174312e-02 
1.474515050000e+05 4.048154750000e+05 1.900000000000e+00 -9.000000000000e+04 8.329609174312e-02 
1.474515050000e+05 4.048154750000e+05 1.950000000000e+00 -9.000000000000e+04 8.329609174312e-02 
1.474515050000e+05 4.048154750000e+05 2.000000000000e+00 -9.000000000000e+04 8.329609174312e-02 
2  1  1  2
3  2  2  3
4  3  3  4
5  4  4  5
6  5  5  6
7  6  6  7
8  7  7  8
9  8  8  9
10  9  9  10
11  10  10  11
12  11  11  12
13  12  12  13
14  13  13  14
15  14  14  15
16  15  15  16
17  16  16  17
18  17  17  18
19  18  18  19
20  19  19  20
21  20  20  21
22  21  21  22
23  22  22  23
24  23  23  24
25  24  24  25
26  25  25  26
27  26  26  27
28  27  27  28
29  28  28  29
30  29  29  30
31  30  30  31
32  31  31  32
33  32  32  33
34  33  33  34
35  34  34  35
36  35  35  36
37  36  36  37
38  37  37  38
39  38  38  39
40  39  39  40
41  40  40  41
43  42  42  43
44  43  43  44
45  44  44  45
46  45  45  46
47  46  46  47
48  47  47  48
49  48  48  49
50  49  49  50
51  50  50  51
52  51  51  52
53  52  52  53
54  53  53  54
55  54  54  55
56  55  55  56
57  56  56  57
58  57  57  58
59  58  58  59
60  59  59  60
61  60  60  61
62  61  61  62
63  62  62  63
64  63  63  64
65  64  64  65
66  65  65  66
67  66  66  67
68  67  67  68
69  68  68  69
70  69  69  70
71  70  70  71
72  71  71  72
73  72  72  73
74  73  73  74
75  74  74  75
76  75  75  76
77  76  76  77
78  77  77  78
79  78  78  79
80  79  79  80
81  80  80  81
82  81  81  82
84  83  83  84
85  84  84  85
86  85  85  86
87  86  86  87
88  87  87  88
89  88  88  89
90  89  89  90
91  90  90  91
92  91  91  92
93  92  92  93
94  93  93  94
95  94  94  95
96  95  95  96
97  96  96  97
98  97  97  98
99  98  98  99
100  99  99  100
101  100  100  101
102  101  101  102
103  102  102  103
104  103  103  104
105  104  104  105
106  105  105  106
107  106  106  107
108  107  107  108
109  108  108  109
110  109  109  110
111  110  110  111
112  111  111  112
113  112  112  113
114  113  113  114
115  114  114  115
116  115  115  116
117  116  116  117
118  117  117  118
119  118  118  119
120  119  119  120
121  120  120  121
122  121  121  122
123  122  122  123
125  124  124  125
126  125  125  126
127  126  126  127
128  127  127  128
129  128  128  129
130  129  129  130
131  130  130  131
132  131  131  132
133  132  132  133
134  133  133  134
135  134  134  135
136  135  135  136
137  136  136  137
138  137  137  138
139  138  138  139
140  139  139  140
141  140  140  141
142  141  141  142
143  142  142  143
144  143  143  144
145  144  144  145
146  145  145  146
147  146  146  147
148  147  147  148
149  148  148  149
150  149  149  150
151  150  150  151
152  151  151  152
153  152  152  153
154  153  153  154
155  154  154  155
156  155  155  156
157  156  156  157
158  157  157  158
159  158  158  159
160  159  159  160
161  160  160  161
162  161  161  162
163  162  162  163
164  163  163  164
166  165  165  166
167  166  166  167
168  167  167  168
169  168  168  169
170  169  169  170
171  170  170  171
172  171  171  172
173  172  172  173
174  173  173  174
175  174  174  175
176  175  175  176
177  176  176  177
178  177  177  178
179  178  178  179
180  179  179  180
181  180  180  181
182  181  181  182
183  182  182  183
184  183  183  184
185  184  184  185
186  185  185  186
187  186  186  187
188  187  187  188
189  188  188  189
190  189  189  190
191  190  190  191
192  191  191  192
193  192  192  193
194  193  193  194
195  194  194  195
196  195  195  196
197  196  196  197
198  197  197  198
199  198  198  199
200  199  199  200
201  200  200  201
202  201  201  202
203  202  202  203
204  203  203  204
205  204  204  205
VARIABLES  = "X","Y","Z", "PRESSURE1", "SATURATION1"
ZONE T="3.650000000000e+02s", N=205, E=200, F=FEPOINT, ET=QUADRILATERAL
STRANDID=1, SOLUTIONTIME=3.650000000000e+02
1.450053600000e+05 4.048208912500e+05 0.000000000000e+00 4.914491101966e+01 1.000000000000e+00 
1.450053600000e+05 4.048208912500e+05 5.000000000000e-02 -4.611614184541e+02 9.908316877176e-01 
1.450053600000e+05 4.048208912500e+05 1.000000000000e-01 -9.860533274674e+02 9.678122166214e-01 
1.450053600000e+05 4.048208912500e+05 1.500000000000e-01 -1.546200980786e+03 9.453332595173e-01 
1.450053600000e+05 4.048208912500e+05 2.000000000000e-01 -2.142719330059e+03 9.244555070611e-01 
1.450053600000e+05 4.048208912500e+05 2.500000000000e-01 -2.784178125962e+03 7.328827363188e-01 
1.450053600000e+05 4.048208912500e+05 3.000000000000e-01 -3.485420197556e+03 7.256562616165e-01 
1.450053600000e+05 4.048208912500e+05 3.500000000000e-01 -4.582331470707e+03 8.936325636799e-01 
1.450053600000e+05 4.048208912500e+05 4.000000000000e-01 -6.741613249277e+03 8.796734159143e-01 
1.450053600000e+05 4.048208912500e+05 4.500000000000e-01 -1.081576051135e+04 8.589413507391e-01 
1.450053600000e+05 4.048208912500e+05 5.000000000000e-01 -2.009493291457e+04 8.272307830486e-01 
1.450053600000e+05 4.048208912500e+05 5.500000000000e-01 -4.217326833000e+04 7.475028435689e-01 
1.450053600000e+05 4.048208912500e+05 6.000000000000e-01 -6.607299792355e+04 5.835012036349e-01 
1.450053600000e+05 4.048208912500e+05 6.500000000000e-01 -7.925221868333e+04 4.219176945975e-01 
1.450053600000e+05 4.048208912500e+05 7.000000000000e-01 -8.411937442597e+04 2.247141647213e-01 
1.450053600000e+05 4.048208912500e+05 7.500000000000e-01 -8.530107710347e+04 8.589924302734e-02 
1.450053600000e+05 4.048208912500e+05 8.000000000000e-01 -8.631958701935e+04 8.535786961675e-02 
1.450053600000e+05 4.048208912500e+05 8.500000000000e-01 -8.719959297580e+04 8.489073020670e-02 
1.450053600000e+05 4.048208912500e+05 9.000000000000e-01 -8.796312944249e+04 8.448632830038e-02 
1.450053600000e+05 4.048208912500e+05 9.500000000000e-01 -8.862968143790e+04 8.413444781824e-02 
1.450053600000e+05 4.048208912500e+05 1.000000000000e+00 -8.921632484586e+04 8.382609276577e-02 
1.450053600000e+05 4.048208912500e+05 1.050000000000e+00 -8.973790279287e+04 8.355340930944e-02 
1.450053600000e+05 4.048208912500e+05 1.100000000000e+00 -9.020722865724e+04 8.330959242668e-02 
1.450053600000e+05 4.048208912500e+05 1.150000000000e+00 -9.063530290482e+04 8.308878260097e-02 
1.450053600000e+05 4.048208912500e+05 1.200000000000e+00 -9.103153154074e+04 8.288595871716e-02 
1.450053600000e+05 4.048208912500e+05 1.250000000000e+00 -9.140393647540e+04 8.269683254869e-02 
1.450053600000e+05 4.048208912500e+05 1.300000000000e+00 -9.175935115970e+04 8.251774885896e-02 
1.450053600000e+05 4.048208912500e+05 1.350000000000e+00 -9.210359767444e+04 8.234559369053e-02 
1.450053600000e+05 4.048208912500e+05 1.400000000000e+00 -9.244164372013e+04 8.217771216328e-02 
1.450053600000e+05 4.048208912500e+05 1.450000000000e+00 -9.277773957325e+04 8.201183614745e-02 
1.450053600000e+05 4.048208912500e+05 1.500000000000e+00 -9.311553611936e+04 8.184602152224e-02 
1.450053600000e+05 4.048208912500e+05 1.550000000000e+00 -9.345818566393e+04 8.167859432818e-02 
1.450053600000e+05 4.048208912500e+05 1.600000000000e+00 -9.380842748322e+04 8.150810491187e-02 
1.450053600000e+05 4.048208912500e+05 1.650000000000e+00 -9.416866011867e+04 8.133328908732e-02 
1.450053600000e+05 4.048208912500e+05 1.700000000000e+00 -9.454100232025e+04 8.115303535218e-02 
1.450053600000e+05 4.048208912500e+05 1.750000000000e+00 -9.492734436549e+04 8.096635726503e-02 
1.450053600000e+05 4.048208912500e+05 1.800000000000e+00 -9.532939125666e+04 8.077237018912e-02 
1.450053600000e+05 4.048208912500e+05 1.850000000000e+00 -9.574869904698e+04 8.057027172529e-02 
1.450053600000e+05 4.048208912500e+05 1.900000000000e+00 -9.618670527013e+04 8.035932528638e-02 
1.450053600000e+05 4.048208912500e+05 1.950000000000e+00 -9.664475413434e+04 8.013884641075e-02 
1.450053600000e+05 4.048208912500e+05 2.000000000000e+00 -9.712411676107e+04 8.002614117646e-02 
1.455686362500e+05 4.048675100000e+05 0.000000000000e+00 -9.551433919715e+02 9.573273465705e-01 
1.455686362500e+05 4.048675100000e+05 5.000000000000e-02 -1.530658735403e+03 9.462162245465e-01 
1.455686362500e+05 4.048675100000e+05 1.000000000000e-01 -2.148489263951e+03 9.246766581852e-01 
1.455686362500e+05 4.048675100000e+05 1.500000000000e-01 -2.817320691204e+03 9.059847438501e-01 
1.455686362500e+05 4.048675100000e+05 2.000000000000e-01 -3.552261594811e+03 8.879648216639e-01 
1.455686362500e+05 4.048675100000e+05 2.500000000000e-01 -4.307733165888e+03 8.680420776722e-01 
1.455686362500e+05 4.048675100000e+05 3.000000000000e-01 -5.096632254490e+03 8.485144738725e-01 
1.455686362500e+05 4.048675100000e+05 3.500000000000e-01 -5.891715801422e+03 8.332556843743e-01 
1.455686362500e+05 4.048675100000e+05 4.000000000000e-01 -6.678303582848e+03 8.215237461268e-01 
1.455686362500e+05 4.048675100000e+05 4.500000000000e-01 -7.461444195181e+03 8.098803937749e-01 
1.455686362500e+05 4.048675100000e+05 5.000000000000e-01 -8.246995079045e+03 7.982447325393e-01 
1.455686362500e+05 4.048675100000e+05 5.500000000000e-01 -9.043089920734e+03 7.865129841989e-01 
1.455686362500e+05 4.048675100000e+05 6.000000000000e-01 -9.863575331017e+03 7.746924219831e-01 
1.455686362500e+05 4.048675100000e+05 6.500000000000e-01 -1.068505214267e+04 7.652949826345e-01 
1.455686362500e+05 4.048675100000e+05 7.000000000000e-01 -1.147974209781e+04 7.584448078982e-01 
1.455686362500e+05 4.048675100000e+05 7.500000000000e-01 -1.224967681234e+04 5.328009766319e-01 
1.455686362500e+05 4.048675100000e+05 8.000000000000e-01 -1.322669051762e+04 3.036569217986e-01 
1.455686362500e+05 4.048675100000e+05 8.500000000000e-01 -1.417492285020e+04 2.901221739394e-01 
1.455686362500e+05 4.048675100000e+05 9.000000000000e-01 -1.510582090315e+04 2.769116255407e-01 
1.455686362500e+05 4.048675100000e+05 9.500000000000e-01 -1.602850212174e+04 2.638807050329e-01 
1.455686362500e+05 4.048675100000e+05 1.000000000000e+00 -1.695112799843e+04 2.509079390767e-01 
1.455686362500e+05 4.048675100000e+05 1.050000000000e+00 -1.788203684536e+04 2.378773317470e-01 
1.455686362500e+05 4.048675100000e+05 1.100000000000e+00 -1.883109579981e+04 2.246608961981e-01 
1.455686362500e+05 4.048675100000e+05 1.150000000000e+00 -1.981198276595e+04 2.110931075086e-01 