 TITLE = "Profiles along polylines"
 VARIABLES = "DIST" "PRESSURE1" "SATURATION1" 
 ZONE T="TIME=0.000000000000e+00"
0.000000000000e+00 -9.000000000000e+04 3.601056880734e-01 
5.000000000000e-02 -9.000000000000e+04 3.601056880734e-01 
1.000000000000e-01 -9.000000000000e+04 3.601056880734e-01 
1.500000000000e-01 -9.000000000000e+04 3.601056880734e-01 
2.000000000000e-01 -9.000000000000e+04 3.601056880734e-01 
2.500000000000e-01 -9.000000000000e+04 3.601056880734e-01 
3.000000000000e-01 -9.000000000000e+04 3.601056880734e-01 
3.500000000000e-01 -9.000000000000e+04 3.601056880734e-01 
4.000000000000e-01 -9.000000000000e+04 2.217008899083e-01 
4.500000000000e-01 -9.000000000000e+04 8.329609174312e-02 
5.000000000000e-01 -9.000000000000e+04 8.329609174312e-02 
5.500000000000e-01 -9.000000000000e+04 8.329609174312e-02 
6.000000000000e-01 -9.000000000000e+04 9.913826605505e-02 
6.500000000000e-01 -9.000000000000e+04 1.149804403670e-01 
7.000000000000e-01 -9.000000000000e+04 1.149804403670e-01 
7.500000000000e-01 -9.000000000000e+04 1.149804403670e-01 
8.000000000000e-01 -9.000000000000e+04 1.149804403670e-01 
8.500000000000e-01 -9.000000000000e+04 1.149804403670e-01 
9.000000000000e-01 -9.000000000000e+04 1.149804403670e-01 
9.500000000000e-01 -9.000000000000e+04 1.149804403670e-01 
1.000000000000e+00 -9.000000000000e+04 1.149804403670e-01 
1.050000000000e+00 -9.000000000000e+04 1.149804403670e-01 
1.100000000000e+00 -9.000000000000e+04 9.913826605505e-02 
1.150000000000e+00 -9.000000000000e+04 8.329609174312e-02 
1.200000000000e+00 -9.000000000000e+04 8.329609174312e-02 
1.250000000000e+00 -9.000000000000e+04 8.329609174312e-02 
1.300000000000e+00 -9.000000000000e+04 8.329609174312e-02 
1.350000000000e+00 -9.000000000000e+04 8.329609174312e-02 
1.400000000000e+00 -9.000000000000e+04 8.329609174312e-02 
1.450000000000e+00 -9.000000000000e+04 8.329609174312e-02 
1.500000000000e+00 -9.000000000000e+04 8.329609174312e-02 
1.550000000000e+00 -9.000000000000e+04 8.329609174312e-02 
1.600000000000e+00 -9.000000000000e+04 8.329609174312e-02 
1.650000000000e+00 -9.000000000000e+04 8.329609174312e-02 
1.700000000000e+00 -9.000000000000e+04 8.329609174312e-02 
1.750000000000e+00 -9.000000000000e+04 8.329609174312e-02 
1.800000000000e+00 -9.000000000000e+04 8.329609174312e-02 
1.850000000000e+00 -9.000000000000e+04 8.329609174312e-02 
1.900000000000e+00 -9.000000000000e+04 8.329609174312e-02 
1.950000000000e+00 -9.000000000000e+04 8.329609174312e-02 
2.000000000000e+00 -9.000000000000e+04 8.329609174312e-02 
 TITLE = "Profiles along polylines"
 VARIABLES = "DIST" "PRESSURE1" "SATURATION1" 
 ZONE T="TIME=5.000000000000e-01"
0.000000000000e+00 -8.354771555276e+04 3.774057334660e-01 
5.000000000000e-02 -8.759852224034e+04 3.719522543013e-01 
1.000000000000e-01 -8.914673401041e+04 3.644338212921e-01 
1.500000000000e-01 -8.970420607184e+04 3.616267587897e-01 
2.000000000000e-01 -8.990240876248e+04 3.606168301443e-01 
2.500000000000e-01 -8.997990563177e+04 3.602321078897e-01 
3.000000000000e-01 -9.003176817758e+04 3.600060286188e-01 
3.500000000000e-01 -9.012122966727e+04 3.596624602449e-01 
4.000000000000e-01 -9.035705765119e+04 2.212986924258e-01 
4.500000000000e-01 -9.005873472784e+04 8.322220162744e-02 
5.000000000000e-01 -9.001057789762e+04 8.328327643115e-02 
5.500000000000e-01 -9.000704618082e+04 8.328994684892e-02 
6.000000000000e-01 -9.003262663179e+04 9.911240056144e-02 
6.500000000000e-01 -9.000045659520e+04 1.149580983357e-01 
7.000000000000e-01 -9.000000639239e+04 1.149801276976e-01 
7.500000000000e-01 -9.000000008949e+04 1.149804359896e-01 
8.000000000000e-01 -9.000000000125e+04 1.149804403057e-01 
8.500000000000e-01 -9.000000000000e+04 1.149804403666e-01 
9.000000000000e-01 -8.999999999866e+04 1.149804403998e-01 
9.500000000000e-01 -8.999999990611e+04 1.149804426736e-01 
1.000000000000e+00 -8.999999340541e+04 1.149806023711e-01 
1.050000000000e+00 -8.999953683526e+04 1.149918143489e-01 
1.100000000000e+00 -8.996748266712e+04 9.915525472987e-02 
1.150000000000e+00 -8.999463062955e+04 8.330281962574e-02 
1.200000000000e+00 -8.999911378317e+04 8.329720257102e-02 
1.250000000000e+00 -8.999985374022e+04 8.329627508293e-02 
1.300000000000e+00 -8.999997586182e+04 8.329612200115e-02 
1.350000000000e+00 -8.999999601634e+04 8.329609673678e-02 
1.400000000000e+00 -8.999999934264e+04 8.329609256719e-02 
1.450000000000e+00 -8.999999989202e+04 8.329609187873e-02 
1.500000000000e+00 -8.999999998519e+04 8.329609176321e-02 
1.550000000000e+00 -9.000000001543e+04 8.329609173284e-02 
1.600000000000e+00 -9.000000010862e+04 8.329609166077e-02 
1.650000000000e+00 -9.000000064726e+04 8.329609125102e-02 
1.700000000000e+00 -9.000000384079e+04 8.329608882285e-02 
1.750000000000e+00 -9.000002278815e+04 8.329607441654e-02 
1.800000000000e+00 -9.000013520640e+04 8.329598894058e-02 
1.850000000000e+00 -9.000080221356e+04 8.329548176565e-02 
1.900000000000e+00 -9.000476003200e+04 8.329247151613e-02 
1.950000000000e+00 -9.002825470979e+04 8.327457251052e-02 
2.000000000000e+00 -9.016808676343e+04 8.325924972704e-02 
 TITLE = "Profiles along polylines"
 VARIABLES = "DIST" "PRESSURE1" "SATURATION1" 
 ZONE T="TIME=1.000000000000e+00"
0.000000000000e+00 -8.528561131322e+04 3.739815371373e-01 
5.000000000000e-02 -8.715225506868e+04 3.710653799459e-01 
1.000000000000e-01 -8.857905089956e+04 3.660924678861e-01 
1.500000000000e-01 -8.936484691090e+04 3.629321064938e-01 
2.000000000000e-01 -8.974606513336e+04 3.612905398192e-01 
2.500000000000e-01 -8.993553869539e+04 3.604631092908e-01 
3.000000000000e-01 -9.006880376571e+04 3.599233072258e-01 
3.500000000000e-01 -9.024523066909e+04 3.592891099280e-01 
4.000000000000e-01 -9.057161958225e+04 2.209957518302e-01 
4.500000000000e-01 -9.013594045615e+04 8.316623135057e-02 
5.000000000000e-01 -9.003224850375e+04 8.326419728864e-02 
5.500000000000e-01 -9.002024332347e+04 8.328066168369e-02 
6.000000000000e-01 -9.006290238195e+04 9.908715778556e-02 
6.500000000000e-01 -9.000132384185e+04 1.149369157812e-01 
7.000000000000e-01 -9.000002474816e+04 1.149795275109e-01 
7.500000000000e-01 -9.000000043348e+04 1.149804233315e-01 
8.000000000000e-01 -9.000000000728e+04 1.149804400689e-01 
8.500000000000e-01 -8.999999999999e+04 1.149804403647e-01 
9.000000000000e-01 -8.999999999224e+04 1.149804405270e-01 
9.500000000000e-01 -8.999999954606e+04 1.149804493699e-01 
1.000000000000e+00 -8.999997452850e+04 1.149809151791e-01 
1.050000000000e+00 -8.999866131553e+04 1.150027113220e-01 
1.100000000000e+00 -8.993764952181e+04 9.917145808507e-02 
1.150000000000e+00 -8.998586566056e+04 8.331004060506e-02 
1.200000000000e+00 -8.999703395768e+04 8.329918881966e-02 
1.250000000000e+00 -8.999940602918e+04 8.329673388623e-02 
1.300000000000e+00 -8.999988473547e+04 8.329621933108e-02 
1.350000000000e+00 -8.999997813259e+04 8.329611636575e-02 
1.400000000000e+00 -8.999999592249e+04 8.329609639462e-02 
1.450000000000e+00 -8.999999925445e+04 8.329609260438e-02 
1.500000000000e+00 -8.999999989090e+04 8.329609188195e-02 
1.550000000000e+00 -9.000000012569e+04 8.329609166368e-02 
1.600000000000e+00 -9.000000080975e+04 8.329609116504e-02 
1.650000000000e+00 -9.000000436754e+04 8.329608863484e-02 
1.700000000000e+00 -9.000002317522e+04 8.329607538116e-02 
1.750000000000e+00 -9.000012123072e+04 8.329600703610e-02 
1.800000000000e+00 -9.000062273879e+04 8.329566255795e-02 
1.850000000000e+00 -9.000312211678e+04 8.329398054690e-02 
1.900000000000e+00 -9.001512870763e+04 8.328614308023e-02 
1.950000000000e+00 -9.006966765870e+04 8.325227681030e-02 
2.000000000000e+00 -9.029494852109e+04 8.322485325659e-02 
 TITLE = "Profiles along polylines"
 VARIABLES = "DIST" "PRESSURE1" "SATURATION1" 
 ZONE T="TIME=5.000000000000e+00"
0.000000000000e+00 -7.562044322746e+04 4.069999323891e-01 
5.000000000000e-02 -7.726988764888e+04 4.037496998772e-01 
1.000000000000e-01 -7.972222191962e+04 3.963131933798e-01 
1.500000000000e-01 -8.222508364463e+04 3.880555612446e-01 
2.000000000000e-01 -8.442354912854e+04 3.804991996003e-01 
2.500000000000e-01 -8.619326395438e+04 3.742550418385e-01 
3.000000000000e-01 -8.753610402922e+04 3.694298635754e-01 
3.500000000000e-01 -8.850621309252e+04 3.658989133959e-01 
4.000000000000e-01 -8.915815331087e+04 2.240239143030e-01 
4.500000000000e-01 -8.974662895190e+04 8.349905591879e-02 
5.000000000000e-01 -8.996918737848e+04 8.333766985081e-02 
5.500000000000e-01 -9.009224330101e+04 8.325969080839e-02 
6.000000000000e-01 -9.022870986852e+04 9.894411428515e-02 
6.500000000000e-01 -9.002052126126e+04 1.148058838064e-01 
7.000000000000e-01 -9.000158714686e+04 1.149650429741e-01 
7.500000000000e-01 -9.000011485575e+04 1.149792577443e-01 
8.000000000000e-01 -9.000000801107e+04 1.149803552997e-01 
8.500000000000e-01 -8.999999994678e+04 1.149804379462e-01 
9.000000000000e-01 -8.999999135681e+04 1.149804899609e-01 
9.500000000000e-01 -8.999987813460e+04 1.149811251961e-01 
1.000000000000e+00 -8.999834055340e+04 1.149892985893e-01 
1.050000000000e+00 -8.997880466913e+04 1.150814374333e-01 
1.100000000000e+00 -8.976570675224e+04 9.927904785266e-02 
1.150000000000e+00 -8.988329326028e+04 8.336776529574e-02 
1.200000000000e+00 -8.994483454060e+04 8.333087406666e-02 
1.250000000000e+00 -8.997483007396e+04 8.331225333508e-02 
1.300000000000e+00 -8.998879220431e+04 8.330337967379e-02 
1.350000000000e+00 -8.999510591882e+04 8.329930453866e-02 
1.400000000000e+00 -8.999792616673e+04 8.329746873746e-02 
1.450000000000e+00 -8.999922080493e+04 8.329662953192e-02 
1.500000000000e+00 -8.999992831891e+04 8.329619030138e-02 
1.550000000000e+00 -9.000057177225e+04 8.329582968253e-02 
1.600000000000e+00 -9.000162319135e+04 8.329528396689e-02 
1.650000000000e+00 -9.000383560731e+04 8.329416378959e-02 
1.700000000000e+00 -9.000875316397e+04 8.329169314225e-02 
1.750000000000e+00 -9.001969876723e+04 8.328622211311e-02 
1.800000000000e+00 -9.004373178549e+04 8.327428403265e-02 
1.850000000000e+00 -9.009529530159e+04 8.324889265645e-02 
1.900000000000e+00 -9.020212037290e+04 8.319693699220e-02 
1.950000000000e+00 -9.041198204212e+04 8.309663489929e-02 
2.000000000000e+00 -9.079166950108e+04 8.303106854582e-02 
 TITLE = "Profiles along polylines"
 VARIABLES = "DIST" "PRESSURE1" "SATURATION1" 
 ZONE T="TIME=1.000000000000e+01"
0.000000000000e+00 -7.951451083739e+04 3.948805256465e-01 
5.000000000000e-02 -8.020427949838e+04 3.935356211288e-01 
1.000000000000e-01 -8.120452452093e+04 3.903967432494e-01 
1.500000000000e-01 -8.237843539206e+04 3.865885165117e-01 
2.000000000000e-01 -8.359479575970e+04 3.825472361698e-01 
2.500000000000e-01 -8.474885975318e+04 3.786405354439e-01 
3.000000000000e-01 -8.576677786743e+04 3.751383656883e-01 
3.500000000000e-01 -8.660191669609e+04 3.722180196717e-01 
4.000000000000e-01 -8.722815936814e+04 2.276862243436e-01 
4.500000000000e-01 -8.849533590744e+04 8.417982966410e-02 
5.000000000000e-01 -8.928279284929e+04 8.373627058773e-02 
5.500000000000e-01 -8.979411584950e+04 8.344953106420e-02 
6.000000000000e-01 -9.018127413564e+04 9.902329401742e-02 
6.500000000000e-01 -9.003670529400e+04 1.148201354762e-01 
7.000000000000e-01 -9.000540452409e+04 1.149501525038e-01 
7.500000000000e-01 -9.000070170963e+04 1.149760818628e-01 
8.000000000000e-01 -9.000008395612e+04 1.149798870075e-01 
8.500000000000e-01 -8.999999496676e+04 1.149804315547e-01 
9.000000000000e-01 -8.999987346795e+04 1.149809233657e-01 
9.500000000000e-01 -8.999894924150e+04 1.149843653221e-01 
1.000000000000e+00 -8.999170015643e+04 1.150098533405e-01 
1.050000000000e+00 -8.993928431440e+04 1.151746330107e-01 
1.100000000000e+00 -8.961961643873e+04 9.938816512910e-02 
1.150000000000e+00 -8.976548198299e+04 8.342761705097e-02 
1.200000000000e+00 -8.986071283397e+04 8.337541983618e-02 
1.250000000000e+00 -8.991969818719e+04 8.334239827241e-02 
1.300000000000e+00 -8.995489233286e+04 8.332237741215e-02 
1.350000000000e+00 -8.997544140062e+04 8.331056070209e-02 
1.400000000000e+00 -8.998747988768e+04 8.330361339567e-02 
1.450000000000e+00 -8.999497058626e+04 8.329933734637e-02 
1.500000000000e+00 -9.000055679317e+04 8.329626410310e-02 
1.550000000000e+00 -9.000628696719e+04 8.329328435185e-02 
1.600000000000e+00 -9.001425433184e+04 8.328931685352e-02 
1.650000000000e+00 -9.002726519160e+04 8.328297043797e-02 
1.700000000000e+00 -9.004967588027e+04 8.327213457767e-02 
1.750000000000e+00 -9.008853716989e+04 8.325343493170e-02 
1.800000000000e+00 -9.015512537015e+04 8.322152252400e-02 
1.850000000000e+00 -9.026672682986e+04 8.316827139695e-02 
1.900000000000e+00 -9.044800475809e+04 8.308221265958e-02 
1.950000000000e+00 -9.073023006440e+04 8.294898743853e-02 
2.000000000000e+00 -9.114533263958e+04 8.286864610368e-02 
 TITLE = "Profiles along polylines"
 VARIABLES = "DIST" "PRESSURE1" "SATURATION1" 
 ZONE T="TIME=2.000000000000e+01"
0.000000000000e+00 -4.693845277580e+04 5.008907810760e-01 
5.000000000000e-02 -5.302820271339e+04 4.902618059878e-01 
1.000000000000e-01 -5.819311918315e+04 4.713601833358e-01 
1.500000000000e-01 -6.250157495234e+04 4.562000472356e-01 
2.000000000000e-01 -6.607194020717e+04 4.436425823503e-01 
2.500000000000e-01 -6.896412239298e+04 4.334377064387e-01 
3.000000000000e-01 -7.120417445509e+04 4.254700392114e-01 
3.500000000000e-01 -7.279828584153e+04 4.197020777620e-01 
4.000000000000e-01 -7.374214297988e+04 2.539224549758e-01 
4.500000000000e-01 -7.873322907377e+04 8.935159343170e-02 
5.000000000000e-01 -8.248496596261e+04 8.737942958681e-02 
5.500000000000e-01 -8.529298121711e+04 8.589835163229e-02 
6.000000000000e-01 -8.742334725121e+04 1.020093134170e-01 
6.500000000000e-01 -8.952404486968e+04 1.172163066810e-01 
7.000000000000e-01 -8.991326670747e+04 1.153922249766e-01 
7.500000000000e-01 -8.998406698412e+04 1.150556433996e-01 
8.000000000000e-01 -8.999699166211e+04 1.149944373784e-01 
8.500000000000e-01 -8.999914850894e+04 1.149838575604e-01 
9.000000000000e-01 -8.999838023627e+04 1.149851461078e-01 
9.500000000000e-01 -8.999252859494e+04 1.150008212448e-01 
1.000000000000e+00 -8.996487294396e+04 1.150723028802e-01 
1.050000000000e+00 -8.984636733234e+04 1.153542851097e-01 
1.100000000000e+00 -8.941625499102e+04 9.956703075923e-02 
1.150000000000e+00 -8.958256220191e+04 8.351842155004e-02 
1.200000000000e+00 -8.970907086700e+04 8.345235190046e-02 
1.250000000000e+00 -8.980247763163e+04 8.340306164910e-02 
1.300000000000e+00 -8.987020615949e+04 8.336704861767e-02 
1.350000000000e+00 -8.991929210549e+04 8.334085853440e-02 
1.400000000000e+00 -8.995589701897e+04 8.332138902033e-02 
1.450000000000e+00 -8.998529036797e+04 8.330595214486e-02 
1.500000000000e+00 -9.001211295779e+04 8.329217864440e-02 
1.550000000000e+00 -9.004079043096e+04 8.327783249485e-02 
1.600000000000e+00 -9.007602673573e+04 8.326057719327e-02 
1.650000000000e+00 -9.012334630597e+04 8.323771472574e-02 
1.700000000000e+00 -9.018966319164e+04 8.320591132126e-02 
1.750000000000e+00 -9.028383302372e+04 8.316093278734e-02 
1.800000000000e+00 -9.041708575136e+04 8.309743795419e-02 
1.850000000000e+00 -9.060314191021e+04 8.300892125306e-02 
1.900000000000e+00 -9.085769845081e+04 8.288794555676e-02 
1.950000000000e+00 -9.119689983311e+04 8.272683014915e-02 
2.000000000000e+00 -9.163456509153e+04 8.263529209295e-02 
 TITLE = "Profiles along polylines"
 VARIABLES = "DIST" "PRESSURE1" "SATURATION1" 
 ZONE T="TIME=3.000000000000e+01"
0.000000000000e+00 -4.381504343617e+04 5.238686389252e-01 
5.000000000000e-02 -4.692704213167e+04 5.145086293035e-01 
1.000000000000e-01 -5.031673073290e+04 4.980942406708e-01 
1.500000000000e-01 -5.352380378660e+04 4.858189850810e-01 
2.000000000000e-01 -5.634789707978e+04 4.760521517345e-01 
2.500000000000e-01 -5.874369243653e+04 4.677083559900e-01 
3.000000000000e-01 -6.067230380834e+04 4.609229237637e-01 
3.500000000000e-01 -6.210156911999e+04 4.558074125915e-01 
4.000000000000e-01 -6.300834780789e+04 2.746172471647e-01 
4.500000000000e-01 -6.925058833237e+04 9.410247348353e-02 
5.000000000000e-01 -7.447587834626e+04 9.143595189282e-02 
5.500000000000e-01 -7.882680839523e+04 8.921237075091e-02 
6.000000000000e-01 -8.243421500663e+04 1.072896394782e-01 
6.500000000000e-01 -8.813865034054e+04 1.220667943631e-01 
7.000000000000e-01 -8.958236553930e+04 1.166790610993e-01 
7.500000000000e-01 -8.990989720130e+04 1.153576234550e-01 
8.000000000000e-01 -8.998072442542e+04 1.150619556080e-01 
8.500000000000e-01 -8.999493379027e+04 1.150003000229e-01 
9.000000000000e-01 -8.999452339164e+04 1.149957320228e-01 
9.500000000000e-01 -8.998095875959e+04 1.150273491504e-01 
1.000000000000e+00 -8.992818338935e+04 1.151487187092e-01 
1.050000000000e+00 -8.975168483869e+04 1.155264757708e-01 
1.100000000000e+00 -8.926016660861e+04 9.972042785392e-02 
1.150000000000e+00 -8.943678699761e+04 8.359037687585e-02 
1.200000000000e+00 -8.958126558108e+04 8.351632640125e-02 
1.250000000000e+00 -8.969744159527e+04 8.345643184283e-02 
1.300000000000e+00 -8.979021442466e+04 8.340841543316e-02 
1.350000000000e+00 -8.986497888060e+04 8.336969409750e-02 
1.400000000000e+00 -8.992724562435e+04 8.333757900607e-02 
1.450000000000e+00 -8.998247632088e+04 8.330937667136e-02 
1.500000000000e+00 -9.003610471281e+04 8.328239804317e-02 
1.550000000000e+00 -9.009369220135e+04 8.325389744193e-02 
1.600000000000e+00 -9.016116350386e+04 8.322096743349e-02 
1.650000000000e+00 -9.024507024780e+04 8.318041575692e-02 
1.700000000000e+00 -9.035282941841e+04 8.312865086943e-02 
1.750000000000e+00 -9.049287630865e+04 8.306160558833e-02 
1.800000000000e+00 -9.067465976199e+04 8.297473318237e-02 
1.850000000000e+00 -9.090839819976e+04 8.286311387280e-02 
1.900000000000e+00 -9.120452255067e+04 8.272170545792e-02 
1.950000000000e+00 -9.157277969415e+04 8.254574947259e-02 
2.000000000000e+00 -9.202108421533e+04 8.244857259052e-02 
 TITLE = "Profiles along polylines"
 VARIABLES = "DIST" "PRESSURE1" "SATURATION1" 
 ZONE T="TIME=4.000000000000e+01"
0.000000000000e+00 -5.121984284665e+04 4.908027603199e-01 
5.000000000000e-02 -5.192735266006e+04 4.894362906715e-01 
1.000000000000e-01 -5.293027445651e+04 4.862794819835e-01 
1.500000000000e-01 -5.409240091754e+04 4.824932554813e-01 
2.000000000000e-01 -5.529983197939e+04 4.784747159607e-01 
2.500000000000e-01 -5.646401327029e+04 4.745406421212e-01 
3.000000000000e-01 -5.751787429508e+04 4.709319002404e-01 
3.500000000000e-01 -5.841352709681e+04 4.678222930247e-01 
4.000000000000e-01 -5.912123603346e+04 2.820151039719e-01 
4.500000000000e-01 -6.443493163243e+04 9.634749693093e-02 
5.000000000000e-01 -6.932486217768e+04 9.391085854363e-02 
5.500000000000e-01 -7.373613395427e+04 9.170301177695e-02 
6.000000000000e-01 -7.764139462214e+04 1.124026836788e-01 
6.500000000000e-01 -8.613859930066e+04 1.275029662810e-01 
7.000000000000e-01 -8.895615550191e+04 1.187076142311e-01 
7.500000000000e-01 -8.973898419573e+04 1.159641958694e-01 
8.000000000000e-01 -8.993693514072e+04 1.152246788672e-01 
8.500000000000e-01 -8.998284680767e+04 1.150444241698e-01 
9.000000000000e-01 -8.998677383243e+04 1.150172550085e-01 
9.500000000000e-01 -8.996419455662e+04 1.150639238525e-01 
1.000000000000e+00 -8.988490034429e+04 1.152341492014e-01 
1.050000000000e+00 -8.966028760547e+04 1.156897657499e-01 
1.100000000000e+00 -8.913395345222e+04 9.985448647952e-02 
1.150000000000e+00 -8.931804149570e+04 8.364896935092e-02 
1.200000000000e+00 -8.947554587353e+04 8.356905350833e-02 
1.250000000000e+00 -8.960922207167e+04 8.350100974001e-02 
1.300000000000e+00 -8.972280113622e+04 8.344310391021e-02 
1.350000000000e+00 -8.982072222281e+04 8.339322807674e-02 
1.400000000000e+00 -8.990790663356e+04 8.334901199226e-02 
1.450000000000e+00 -8.998961113955e+04 8.330790115648e-02 
1.500000000000e+00 -9.007136829678e+04 8.326719450323e-02 
1.550000000000e+00 -9.015899935713e+04 8.322404627818e-02 
1.600000000000e+00 -9.025867201049e+04 8.317544413890e-02 
1.650000000000e+00 -9.037696834818e+04 8.311817961279e-02 
1.700000000000e+00 -9.052092567780e+04 8.304882883739e-02 
1.750000000000e+00 -9.069801297320e+04 8.296376162348e-02 
1.800000000000e+00 -9.091600939373e+04 8.285919518639e-02 
1.850000000000e+00 -9.118276071392e+04 8.273130446207e-02 
1.900000000000e+00 -9.150580797840e+04 8.257639234664e-02 
1.950000000000e+00 -9.189191305037e+04 8.239110931327e-02 
2.000000000000e+00 -9.234654700095e+04 8.229048558662e-02 
 TITLE = "Profiles along polylines"
 VARIABLES = "DIST" "PRESSURE1" "SATURATION1" 
 ZONE T="TIME=5.000000000000e+01"
0.000000000000e+00 -5.033768757727e+04 4.934434645808e-01 
5.000000000000e-02 -5.135532582508e+04 4.917325698543e-01 
1.000000000000e-01 -5.234744421891e+04 4.883542645100e-01 
1.500000000000e-01 -5.331365803740e+04 4.850696030463e-01 
2.000000000000e-01 -5.424292426740e+04 4.819065570619e-01 
2.500000000000e-01 -5.511964619199e+04 4.789131094186e-01 
3.000000000000e-01 -5.592779524911e+04 4.761417959612e-01 
3.500000000000e-01 -5.665368940490e+04 4.736393081494e-01 
4.000000000000e-01 -5.728781225646e+04 2.855580967063e-01 
4.500000000000e-01 -6.178910583713e+04 9.756308090924e-02 
5.000000000000e-01 -6.610830863486e+04 9.542913860569e-02 
5.500000000000e-01 -7.016597785512e+04 9.341603706517e-02 
6.000000000000e-01 -7.389909121150e+04 1.165473100019e-01 
6.500000000000e-01 -8.392478539176e+04 1.325375486544e-01 
7.000000000000e-01 -8.806783908195e+04 1.211833637587e-01 
7.500000000000e-01 -8.944826625125e+04 1.168811883267e-01 
8.000000000000e-01 -8.985102439400e+04 1.155147397946e-01 
8.500000000000e-01 -8.995698179108e+04 1.151326435078e-01 
9.000000000000e-01 -8.997309857568e+04 1.150557003095e-01 
9.500000000000e-01 -8.994229700087e+04 1.151110157073e-01 
1.000000000000e+00 -8.983750401237e+04 1.153253523207e-01 
1.050000000000e+00 -8.957428154177e+04 1.158431572930e-01 
1.100000000000e+00 -8.902931293585e+04 9.997243446938e-02 
1.150000000000e+00 -8.922030024334e+04 8.369728189764e-02 
1.200000000000e+00 -8.938900507128e+04 8.361224137916e-02 
1.250000000000e+00 -8.953776345733e+04 8.353713948049e-02 
1.300000000000e+00 -8.966975056227e+04 8.347049328523e-02 
1.350000000000e+00 -8.978884912893e+04 8.341046109348e-02 
1.400000000000e+00 -8.989951533774e+04 8.335490631465e-02 
1.450000000000e+00 -9.000666531545e+04 8.330145413946e-02 
1.500000000000e+00 -9.011559293064e+04 8.324753469349e-02 
1.550000000000e+00 -9.023191724489e+04 8.319041224099e-02 
1.600000000000e+00 -9.036154850378e+04 8.312720483012e-02 
1.650000000000e+00 -9.051065573899e+04 8.305490193046e-02 
1.700000000000e+00 -9.068561693657e+04 8.297038897616e-02 
1.750000000000e+00 -9.089293408800e+04 8.287048735356e-02 
1.800000000000e+00 -9.113910015611e+04 8.275201632742e-02 
1.850000000000e+00 -9.143041304601e+04 8.261187972312e-02 
1.900000000000e+00 -9.177274289646e+04 8.244717499108e-02 
1.950000000000e+00 -9.217127250857e+04 8.225531601205e-02 
2.000000000000e+00 -9.263024418549e+04 8.215229843171e-02 
 TITLE = "Profiles along polylines"
 VARIABLES = "DIST" "PRESSURE1" "SATURATION1" 
 ZONE T="TIME=6.000000000000e+01"
0.000000000000e+00 -7.827200841875e+03 7.764894658354e-01 
5.000000000000e-02 -1.284405144480e+04 7.514508876758e-01 
1.000000000000e-01 -1.889526484651e+04 6.985938613077e-01 
1.500000000000e-01 -2.656175905801e+04 6.439553989179e-01 
2.000000000000e-01 -3.428145208272e+04 5.957957501012e-01 
2.500000000000e-01 -4.041909935695e+04 5.577139311421e-01 
3.000000000000e-01 -4.507224220811e+04 5.286523626902e-01 
3.500000000000e-01 -4.822239104208e+04 5.086765278180e-01 
4.000000000000e-01 -4.977062075126e+04 3.014640846744e-01 
4.500000000000e-01 -5.699633915048e+04 1.002925073307e-01 
5.000000000000e-01 -6.224275010072e+04 9.745708893295e-02 
5.500000000000e-01 -6.662261796380e+04 9.520133041142e-02 
6.000000000000e-01 -7.049328854190e+04 1.204523364222e-01 
6.500000000000e-01 -8.165709957415e+04 1.374482330053e-01 
7.000000000000e-01 -8.703763133296e+04 1.238634464502e-01 
7.500000000000e-01 -8.908159427624e+04 1.179794005897e-01 
8.000000000000e-01 -8.973631629091e+04 1.158879995810e-01 
8.500000000000e-01 -8.992129741024e+04 1.152514202405e-01 
9.000000000000e-01 -8.995534644530e+04 1.151058382165e-01 
9.500000000000e-01 -8.991739856312e+04 1.151644783867e-01 
1.000000000000e+00 -8.978826470507e+04 1.154192419441e-01 
1.050000000000e+00 -8.949179435134e+04 1.159905341750e-01 
1.100000000000e+00 -8.893573895135e+04 1.000815900814e-01 
1.150000000000e+00 -8.913360987795e+04 8.374020166774e-02 
1.200000000000e+00 -8.931292940046e+04 8.365026025706e-02 
1.250000000000e+00 -8.947583007188e+04 8.356851574295e-02 
1.300000000000e+00 -8.962515031433e+04 8.349363405143e-02 
1.350000000000e+00 -8.976437531077e+04 8.342395951674e-02 
1.400000000000e+00 -8.989755919690e+04 8.335755078692e-02 
1.450000000000e+00 -9.002923892706e+04 8.329222192375e-02 
1.500000000000e+00 -9.016434718649e+04 8.322558492065e-02 
1.550000000000e+00 -9.030812752704e+04 8.315509172148e-02 
1.600000000000e+00 -9.046605082656e+04 8.307807575262e-02 
1.650000000000e+00 -9.064372926319e+04 8.299179445898e-02 
1.700000000000e+00 -9.084682285829e+04 8.289347502738e-02 
1.750000000000e+00 -9.108093442178e+04 8.278036527408e-02 
1.800000000000e+00 -9.135149118865e+04 8.264979064670e-02 
1.850000000000e+00 -9.166361503004e+04 8.249921667509e-02 
1.900000000000e+00 -9.202198712046e+04 8.232631434164e-02 
1.950000000000e+00 -9.243071649364e+04 8.212902412628e-02 
2.000000000000e+00 -9.289322417927e+04 8.202404339323e-02 
 TITLE = "Profiles along polylines"
 VARIABLES = "DIST" "PRESSURE1" "SATURATION1" 
 ZONE T="TIME=7.000000000000e+01"
0.000000000000e+00 -2.002229001216e+04 6.789536685191e-01 
5.000000000000e-02 -2.133421585693e+04 6.731670995793e-01 
1.000000000000e-01 -2.280605257279e+04 6.608159370110e-01 
1.500000000000e-01 -2.450874735863e+04 6.475951457582e-01 
2.000000000000e-01 -2.635328910924e+04 6.355574067352e-01 
2.500000000000e-01 -2.810561545746e+04 6.251589968250e-01 
3.000000000000e-01 -2.967364281878e+04 6.157609957946e-01 
3.500000000000e-01 -3.096745973962e+04 6.078850564179e-01 
4.000000000000e-01 -3.191351170459e+04 3.645582759884e-01 
4.500000000000e-01 -3.792231248661e+04 1.204059146613e-01 
5.000000000000e-01 -4.434118855525e+04 1.112905744508e-01 
5.500000000000e-01 -5.276107496110e+04 1.034032383947e-01 
6.000000000000e-01 -6.075250485984e+04 1.312330977338e-01 
6.500000000000e-01 -7.815140286801e+04 1.479932154680e-01 
7.000000000000e-01 -8.558855322758e+04 1.278569583762e-01 
7.500000000000e-01 -8.853058559137e+04 1.195687902440e-01 
8.000000000000e-01 -8.954754704173e+04 1.164685090997e-01 
8.500000000000e-01 -8.985840012721e+04 1.154508998353e-01 
9.000000000000e-01 -8.992667949706e+04 1.151872441988e-01 
9.500000000000e-01 -8.988642127939e+04 1.152320558776e-01 
1.000000000000e+00 -8.973699772635e+04 1.155167288686e-01 
1.050000000000e+00 -8.941681982911e+04 1.161256785365e-01 
1.100000000000e+00 -8.886016269518e+04 1.001752146773e-01 
1.150000000000e+00 -8.906527528203e+04 8.377418026762e-02 
1.200000000000e+00 -8.925480523211e+04 8.367946287116e-02 
1.250000000000e+00 -8.943082199950e+04 8.359151625385e-02 
1.300000000000e+00 -8.959599158317e+04 8.350908060634e-02 
1.350000000000e+00 -8.975353716972e+04 8.343062024927e-02 
1.400000000000e+00 -8.990718080879e+04 8.335435033877e-02 
1.450000000000e+00 -9.006107149748e+04 8.327827074566e-02 
1.500000000000e+00 -9.021970450777e+04 8.320020474556e-02 
1.550000000000e+00 -9.038783551012e+04 8.311784068474e-02 
1.600000000000e+00 -9.057039154176e+04 8.302877546879e-02 
1.650000000000e+00 -9.077237962320e+04 8.293055932817e-02 
1.700000000000e+00 -9.099879317320e+04 8.282074167400e-02 
1.750000000000e+00 -9.125451643920e+04 8.269691788963e-02 
1.800000000000e+00 -9.154422787406e+04 8.255677662430e-02 
1.850000000000e+00 -9.187230452304e+04 8.239814665742e-02 
1.900000000000e+00 -9.224273072098e+04 8.221904183042e-02 
1.950000000000e+00 -9.265901539993e+04 8.201770205513e-02 
2.000000000000e+00 -9.312412278233e+04 8.191126875184e-02 
 TITLE = "Profiles along polylines"
 VARIABLES = "DIST" "PRESSURE1" "SATURATION1" 
 ZONE T="TIME=8.000000000000e+01"
0.000000000000e+00 -2.394641701503e+04 6.478378852530e-01 
5.000000000000e-02 -2.449771631871e+04 6.455941296750e-01 
1.000000000000e-01 -2.515622491886e+04 6.413169950811e-01 
1.500000000000e-01 -2.589520762358e+04 6.370404074657e-01 
2.000000000000e-01 -2.668540601034e+04 6.324347442943e-01 
2.500000000000e-01 -2.749374559019e+04 6.276863700918e-01 
3.000000000000e-01 -2.828952888634e+04 6.229778078790e-01 
3.500000000000e-01 -2.904644375807e+04 6.184671644285e-01 
4.000000000000e-01 -2.974495590608e+04 3.724605569847e-01 
4.500000000000e-01 -3.390476233525e+04 1.256540488478e-01 
5.000000000000e-01 -3.833548195378e+04 1.194351693863e-01 
5.500000000000e-01 -4.326165974400e+04 1.123855208511e-01 
6.000000000000e-01 -4.970479423125e+04 1.444802811753e-01 
6.500000000000e-01 -7.305116565502e+04 1.612907933080e-01 
7.000000000000e-01 -8.332803298523e+04 1.338496493375e-01 
7.500000000000e-01 -8.764093992581e+04 1.220871273025e-01 
8.000000000000e-01 -8.922722299182e+04 1.174249935252e-01 
8.500000000000e-01 -8.974619140963e+04 1.157945675710e-01 
9.000000000000e-01 -8.987905189494e+04 1.153234234335e-01 
9.500000000000e-01 -8.984760149349e+04 1.153205374553e-01 
1.000000000000e+00 -8.968483842509e+04 1.156177365742e-01 
1.050000000000e+00 -8.934970744228e+04 1.162484455242e-01 
1.100000000000e+00 -8.879969705561e+04 1.002547539240e-01 
1.150000000000e+00 -8.901239052142e+04 8.380062869426e-02 
1.200000000000e+00 -8.921192116187e+04 8.370119246196e-02 
1.250000000000e+00 -8.940030800467e+04 8.360736416483e-02 
1.300000000000e+00 -8.958007773755e+04 8.351794468920e-02 
1.350000000000e+00 -8.975423230793e+04 8.343149975636e-02 
1.400000000000e+00 -8.992619978867e+04 8.334638244325e-02 
1.450000000000e+00 -9.009977200085e+04 8.326076249615e-02 
1.500000000000e+00 -9.027903250959e+04 8.317266070734e-02 
1.550000000000e+00 -9.046827825703e+04 8.307998674037e-02 
1.600000000000e+00 -9.067193749162e+04 8.298057904699e-02 