 TITLE = "Profiles along polylines"
 VARIABLES = "DIST" "PRESSURE1" "SATURATION1" 
 ZONE T="TIME=0.000000000000e+00"
0.000000000000e+00 -9.000000000000e+04 3.601056880734e-01 
5.000000000000e-02 -9.000000000000e+04 3.601056880734e-01 
1.000000000000e-01 -9.000000000000e+04 3.601056880734e-01 
1.500000000000e-01 -9.000000000000e+04 3.601056880734e-01 
2.000000000000e-01 -9.000000000000e+04 3.601056880734e-01 
2.500000000000e-01 -9.000000000000e+04 2.147624357798e-01 
3.000000000000e-01 -9.000000000000e+04 1.684751605505e-01 
3.500000000000e-01 -9.000000000000e+04 2.675311376147e-01 
4.000000000000e-01 -9.000000000000e+04 2.675311376147e-01 
4.500000000000e-01 -9.000000000000e+04 2.675311376147e-01 
5.000000000000e-01 -9.000000000000e+04 2.675311376147e-01 
5.500000000000e-01 -9.000000000000e+04 2.675311376147e-01 
6.000000000000e-01 -9.000000000000e+04 2.675311376147e-01 
6.500000000000e-01 -9.000000000000e+04 2.675311376147e-01 
7.000000000000e-01 -9.000000000000e+04 1.754136146789e-01 
7.500000000000e-01 -9.000000000000e+04 8.329609174312e-02 
8.000000000000e-01 -9.000000000000e+04 8.329609174312e-02 
8.500000000000e-01 -9.000000000000e+04 8.329609174312e-02 
9.000000000000e-01 -9.000000000000e+04 8.329609174312e-02 
9.500000000000e-01 -9.000000000000e+04 8.329609174312e-02 
1.000000000000e+00 -9.000000000000e+04 8.329609174312e-02 
1.050000000000e+00 -9.000000000000e+04 8.329609174312e-02 
1.100000000000e+00 -9.000000000000e+04 8.329609174312e-02 
1.150000000000e+00 -9.000000000000e+04 8.329609174312e-02 
1.200000000000e+00 -9.000000000000e+04 8.329609174312e-02 
1.250000000000e+00 -9.000000000000e+04 8.329609174312e-02 
1.300000000000e+00 -9.000000000000e+04 8.329609174312e-02 
1.350000000000e+00 -9.000000000000e+04 8.329609174312e-02 
1.400000000000e+00 -9.000000000000e+04 8.329609174312e-02 
1.450000000000e+00 -9.000000000000e+04 8.329609174312e-02 
1.500000000000e+00 -9.000000000000e+04 8.329609174312e-02 
1.550000000000e+00 -9.000000000000e+04 8.329609174312e-02 
1.600000000000e+00 -9.000000000000e+04 8.329609174312e-02 
1.650000000000e+00 -9.000000000000e+04 8.329609174312e-02 
1.700000000000e+00 -9.000000000000e+04 8.329609174312e-02 
1.750000000000e+00 -9.000000000000e+04 8.329609174312e-02 
1.800000000000e+00 -9.000000000000e+04 8.329609174312e-02 
1.850000000000e+00 -9.000000000000e+04 8.329609174312e-02 
1.900000000000e+00 -9.000000000000e+04 8.329609174312e-02 
1.950000000000e+00 -9.000000000000e+04 8.329609174312e-02 
2.000000000000e+00 -9.000000000000e+04 8.329609174312e-02 
 TITLE = "Profiles along polylines"
 VARIABLES = "DIST" "PRESSURE1" "SATURATION1" 
 ZONE T="TIME=5.000000000000e-01"
0.000000000000e+00 -8.364370621316e+04 3.816587723268e-01 
5.000000000000e-02 -8.764051591728e+04 3.748825298192e-01 
1.000000000000e-01 -8.917390730330e+04 3.655065558609e-01 
1.500000000000e-01 -8.974813505155e+04 3.619332713103e-01 
2.000000000000e-01 -9.001629869051e+04 3.605050701327e-01 
2.500000000000e-01 -9.030194466744e+04 2.146835060343e-01 
3.000000000000e-01 -8.999848310221e+04 1.684306176740e-01 
3.500000000000e-01 -8.999999276478e+04 2.675379236888e-01 
4.000000000000e-01 -8.999999996549e+04 2.675311699825e-01 
4.500000000000e-01 -8.999999999984e+04 2.675311377691e-01 
5.000000000000e-01 -9.000000000000e+04 2.675311376154e-01 
5.500000000000e-01 -8.999999999993e+04 2.675311376150e-01 
6.000000000000e-01 -8.999999998517e+04 2.675311376810e-01 
6.500000000000e-01 -8.999999704519e+04 2.675311508367e-01 
7.000000000000e-01 -8.999941109121e+04 1.754137727389e-01 
7.500000000000e-01 -8.999990280792e+04 8.329626056170e-02 
8.000000000000e-01 -8.999998395978e+04 8.329611960450e-02 
8.500000000000e-01 -8.999999735279e+04 8.329609634126e-02 
9.000000000000e-01 -8.999999956311e+04 8.329609250198e-02 
9.500000000000e-01 -8.999999992790e+04 8.329609186836e-02 
1.000000000000e+00 -8.999999998810e+04 8.329609176379e-02 
1.050000000000e+00 -8.999999999804e+04 8.329609174653e-02 
1.100000000000e+00 -8.999999999968e+04 8.329609174368e-02 
1.150000000000e+00 -8.999999999995e+04 8.329609174321e-02 
1.200000000000e+00 -8.999999999999e+04 8.329609174313e-02 
1.250000000000e+00 -9.000000000000e+04 8.329609174312e-02 
1.300000000000e+00 -9.000000000000e+04 8.329609174312e-02 
1.350000000000e+00 -9.000000000001e+04 8.329609174312e-02 
1.400000000000e+00 -9.000000000009e+04 8.329609174309e-02 
1.450000000000e+00 -9.000000000052e+04 8.329609174297e-02 
1.500000000000e+00 -9.000000000310e+04 8.329609174223e-02 
1.550000000000e+00 -9.000000001839e+04 8.329609173783e-02 
1.600000000000e+00 -9.000000010911e+04 8.329609171175e-02 
1.650000000000e+00 -9.000000064734e+04 8.329609155699e-02 
1.700000000000e+00 -9.000000384080e+04 8.329609063879e-02 
1.750000000000e+00 -9.000002278815e+04 8.329608519093e-02 
1.800000000000e+00 -9.000013520640e+04 8.329605286776e-02 
1.850000000000e+00 -9.000080221356e+04 8.329586108621e-02 
1.900000000000e+00 -9.000476003200e+04 8.329472312453e-02 
1.950000000000e+00 -9.002825470979e+04 8.328796829931e-02 
2.000000000000e+00 -9.016808676343e+04 8.328218731529e-02 
 TITLE = "Profiles along polylines"
 VARIABLES = "DIST" "PRESSURE1" "SATURATION1" 
 ZONE T="TIME=1.000000000000e+00"
0.000000000000e+00 -8.532026217644e+04 3.759738632990e-01 
5.000000000000e-02 -8.719583505519e+04 3.727939929504e-01 
1.000000000000e-01 -8.863407339750e+04 3.671757148435e-01 
1.500000000000e-01 -8.946510300788e+04 3.633283688099e-01 
2.000000000000e-01 -8.996051359627e+04 3.610795050601e-01 
2.500000000000e-01 -9.038738171975e+04 2.147635700808e-01 
3.000000000000e-01 -8.999732243662e+04 1.684212707212e-01 
3.500000000000e-01 -8.999998006321e+04 2.675431480074e-01 
4.000000000000e-01 -8.999999987074e+04 2.675312269571e-01 
4.500000000000e-01 -8.999999999922e+04 2.675311381937e-01 
5.000000000000e-01 -8.999999999999e+04 2.675311376182e-01 
5.500000000000e-01 -8.999999999963e+04 2.675311376163e-01 
6.000000000000e-01 -8.999999994124e+04 2.675311378779e-01 
6.500000000000e-01 -8.999999121487e+04 2.675311769913e-01 
7.000000000000e-01 -8.999883228232e+04 1.754139411168e-01 
7.500000000000e-01 -8.999973787625e+04 8.329644356282e-02 
8.000000000000e-01 -8.999994528566e+04 8.329616970273e-02 
8.500000000000e-01 -8.999998907978e+04 8.329610789283e-02 
9.000000000000e-01 -8.999999788579e+04 8.329609495031e-02 
9.500000000000e-01 -8.999999959959e+04 8.329609236185e-02 
1.000000000000e+00 -8.999999992542e+04 8.329609185999e-02 
1.050000000000e+00 -8.999999998629e+04 8.329609176484e-02 
1.100000000000e+00 -8.999999999751e+04 8.329609174711e-02 
1.150000000000e+00 -8.999999999955e+04 8.329609174384e-02 
1.200000000000e+00 -8.999999999992e+04 8.329609174325e-02 
1.250000000000e+00 -8.999999999999e+04 8.329609174314e-02 
1.300000000000e+00 -9.000000000003e+04 8.329609174311e-02 
1.350000000000e+00 -9.000000000016e+04 8.329609174307e-02 
1.400000000000e+00 -9.000000000091e+04 8.329609174286e-02 
1.450000000000e+00 -9.000000000502e+04 8.329609174166e-02 
1.500000000000e+00 -9.000000002755e+04 8.329609173510e-02 
1.550000000000e+00 -9.000000015035e+04 8.329609169934e-02 
1.600000000000e+00 -9.000000081417e+04 8.329609150579e-02 
1.650000000000e+00 -9.000000436833e+04 8.329609046794e-02 
1.700000000000e+00 -9.000002317536e+04 8.329608496586e-02 
1.750000000000e+00 -9.000012123074e+04 8.329605621127e-02 
1.800000000000e+00 -9.000062273880e+04 8.329590868566e-02 
1.850000000000e+00 -9.000312211679e+04 8.329517030251e-02 
1.900000000000e+00 -9.001512870763e+04 8.329160103568e-02 
1.950000000000e+00 -9.006966765870e+04 8.327522716931e-02 
2.000000000000e+00 -9.029494852109e+04 8.326180758521e-02 
 TITLE = "Profiles along polylines"
 VARIABLES = "DIST" "PRESSURE1" "SATURATION1" 
 ZONE T="TIME=5.000000000000e+00"
0.000000000000e+00 -7.518204303803e+04 4.103507971848e-01 
5.000000000000e-02 -7.678298165697e+04 4.076365452877e-01 
1.000000000000e-01 -7.907743079228e+04 4.010322548567e-01 
1.500000000000e-01 -8.127189665984e+04 3.934216907050e-01 
2.000000000000e-01 -8.294770212554e+04 3.868599829767e-01 
2.500000000000e-01 -8.390135267780e+04 2.277550783767e-01 
3.000000000000e-01 -8.981834426200e+04 1.703200536476e-01 
3.500000000000e-01 -8.999506718910e+04 2.683619074370e-01 
4.000000000000e-01 -8.999987263410e+04 2.675536676263e-01 
4.500000000000e-01 -8.999999677482e+04 2.675317190605e-01 
5.000000000000e-01 -8.999999991517e+04 2.675311523522e-01 
5.500000000000e-01 -8.999999985216e+04 2.675311386506e-01 
6.000000000000e-01 -8.999999470864e+04 2.675311618323e-01 
6.500000000000e-01 -8.999981892471e+04 2.675319673965e-01 
7.000000000000e-01 -8.999458509680e+04 1.754157532657e-01 
7.500000000000e-01 -8.999736118583e+04 8.329807340092e-02 
8.000000000000e-01 -8.999876959889e+04 8.329704378306e-02 
8.500000000000e-01 -8.999944339386e+04 8.329653144527e-02 
9.000000000000e-01 -8.999975335503e+04 8.329628938711e-02 
9.500000000000e-01 -8.999989225822e+04 8.329617894177e-02 
1.000000000000e+00 -8.999995343808e+04 8.329612971032e-02 
1.050000000000e+00 -8.999998012598e+04 8.329610809002e-02 
1.100000000000e+00 -8.999999182173e+04 8.329609864553e-02 
1.150000000000e+00 -8.999999726429e+04 8.329609442856e-02 
1.200000000000e+00 -9.000000057574e+04 8.329609227459e-02 
1.250000000000e+00 -9.000000426701e+04 8.329609055154e-02 
1.300000000000e+00 -9.000001110579e+04 8.329608796056e-02 
1.350000000000e+00 -9.000002617518e+04 8.329608256995e-02 
1.400000000000e+00 -9.000006062721e+04 8.329607038495e-02 
1.450000000000e+00 -9.000013986210e+04 8.329604241171e-02 
1.500000000000e+00 -9.000032201497e+04 8.329597809593e-02 
1.550000000000e+00 -9.000073982071e+04 8.329583047309e-02 
1.600000000000e+00 -9.000169474656e+04 8.329549270556e-02 
1.650000000000e+00 -9.000386602463e+04 8.329472348731e-02 
1.700000000000e+00 -9.000876608017e+04 8.329298354999e-02 
1.750000000000e+00 -9.001970424925e+04 8.328908647491e-02 
1.800000000000e+00 -9.004373411366e+04 8.328048241382e-02 
1.850000000000e+00 -9.009529629478e+04 8.326188260959e-02 
1.900000000000e+00 -9.020212080628e+04 8.322291076467e-02 
1.950000000000e+00 -9.041198225285e+04 8.314498858674e-02 
2.000000000000e+00 -9.079166965251e+04 8.309335111887e-02 
 TITLE = "Profiles along polylines"
 VARIABLES = "DIST" "PRESSURE1" "SATURATION1" 
 ZONE T="TIME=1.000000000000e+01"
0.000000000000e+00 -7.808241097825e+04 4.005161550683e-01 
5.000000000000e-02 -7.871924614118e+04 3.994364565535e-01 
1.000000000000e-01 -7.955723259259e+04 3.969360250459e-01 
1.500000000000e-01 -8.045354552767e+04 3.939956715906e-01 
2.000000000000e-01 -8.127487300658e+04 3.910835619713e-01 
2.500000000000e-01 -8.192776956243e+04 2.309265021816e-01 
3.000000000000e-01 -8.948577518265e+04 1.721360773358e-01 
3.500000000000e-01 -8.997234529080e+04 2.699438106358e-01 
4.000000000000e-01 -8.999866745089e+04 2.676602009446e-01 
4.500000000000e-01 -8.999993852090e+04 2.675373444081e-01 
5.000000000000e-01 -8.999999714385e+04 2.675314240620e-01 
5.500000000000e-01 -8.999999817432e+04 2.675311584601e-01 
6.000000000000e-01 -8.999996603926e+04 2.675312969507e-01 
6.500000000000e-01 -8.999936967717e+04 2.675340952814e-01 
7.000000000000e-01 -8.998994087281e+04 1.754188962373e-01 
7.500000000000e-01 -8.999394861516e+04 8.330005581590e-02 
8.000000000000e-01 -8.999646799351e+04 8.329844978491e-02 
8.500000000000e-01 -8.999798716881e+04 8.329745607841e-02 
9.000000000000e-01 -8.999887499965e+04 8.329686382240e-02 
9.500000000000e-01 -8.999938258817e+04 8.329652047243e-02 
1.000000000000e+00 -8.999966968862e+04 8.329632493520e-02 
1.050000000000e+00 -8.999983394001e+04 8.329621387780e-02 
1.100000000000e+00 -8.999993455962e+04 8.329614870495e-02 
1.150000000000e+00 -9.000000949906e+04 8.329610550777e-02 
1.200000000000e+00 -9.000008791860e+04 8.329606777301e-02 
1.250000000000e+00 -9.000020068326e+04 8.329602073117e-02 
1.300000000000e+00 -9.000039200675e+04 8.329594590875e-02 
1.350000000000e+00 -9.000073624698e+04 8.329581413060e-02 
1.400000000000e+00 -9.000136581862e+04 8.329557451927e-02 
1.450000000000e+00 -9.000251995132e+04 8.329513562982e-02 
1.500000000000e+00 -9.000463060412e+04 8.329433231287e-02 
1.550000000000e+00 -9.000847263171e+04 8.329286762583e-02 
1.600000000000e+00 -9.001542177903e+04 8.329021240279e-02 
1.650000000000e+00 -9.002788669500e+04 8.328543547455e-02 
1.700000000000e+00 -9.005000599592e+04 8.327692585348e-02 
1.750000000000e+00 -9.008871236659e+04 8.326195939007e-02 
1.800000000000e+00 -9.015521855064e+04 8.323607131009e-02 
1.850000000000e+00 -9.026677692327e+04 8.319225762743e-02 
1.900000000000e+00 -9.044803272200e+04 8.312020922306e-02 
1.950000000000e+00 -9.073024759306e+04 8.300616992615e-02 
2.000000000000e+00 -9.114534708802e+04 8.293672953310e-02 
 TITLE = "Profiles along polylines"
 VARIABLES = "DIST" "PRESSURE1" "SATURATION1" 
 ZONE T="TIME=2.000000000000e+01"
0.000000000000e+00 -4.464327584679e+04 5.251094382361e-01 
5.000000000000e-02 -4.994602119136e+04 5.105155932817e-01 
1.000000000000e-01 -5.446030393497e+04 4.882681753822e-01 
1.500000000000e-01 -5.779578945775e+04 4.749595774406e-01 
2.000000000000e-01 -6.004715208888e+04 4.654875633228e-01 
2.500000000000e-01 -6.124779424654e+04 2.704295298233e-01 
3.000000000000e-01 -8.685035845597e+04 1.873833256266e-01 
3.500000000000e-01 -8.968351906038e+04 2.829637564796e-01 
4.000000000000e-01 -8.997285280220e+04 2.690611129981e-01 
4.500000000000e-01 -8.999774656044e+04 2.676620414800e-01 
5.000000000000e-01 -8.999981348750e+04 2.675420012961e-01 
5.500000000000e-01 -8.999996615861e+04 2.675321187219e-01 
6.000000000000e-01 -8.999979535073e+04 2.675321994743e-01 
6.500000000000e-01 -8.999794877674e+04 2.675411816974e-01 
7.000000000000e-01 -8.998218599659e+04 1.754271308034e-01 
7.500000000000e-01 -8.998754648126e+04 8.330353921967e-02 
8.000000000000e-01 -8.999147825859e+04 8.330125281172e-02 
8.500000000000e-01 -8.999430129728e+04 8.329959075515e-02 
9.000000000000e-01 -8.999630684240e+04 8.329840265774e-02 
9.500000000000e-01 -8.999774191363e+04 8.329755607673e-02 
1.000000000000e+00 -8.999880930730e+04 8.329694033261e-02 
1.050000000000e+00 -8.999967733559e+04 8.329646411227e-02 
1.100000000000e+00 -9.000049507594e+04 8.329604932039e-02 
1.150000000000e+00 -9.000141126916e+04 8.329562267729e-02 
1.200000000000e+00 -9.000259714652e+04 8.329510545221e-02 
1.250000000000e+00 -9.000427523973e+04 8.329440075780e-02 
1.300000000000e+00 -9.000675783569e+04 8.329337699924e-02 
1.350000000000e+00 -9.001050043340e+04 8.329184525893e-02 
1.400000000000e+00 -9.001617752509e+04 8.328952749682e-02 
1.450000000000e+00 -9.002479028441e+04 8.328601140687e-02 
1.500000000000e+00 -9.003781804808e+04 8.328068664700e-02 
1.550000000000e+00 -9.005742707196e+04 8.327265620074e-02 
1.600000000000e+00 -9.008674928686e+04 8.326061642254e-02 
1.650000000000e+00 -9.013023758630e+04 8.324270102809e-02 
1.700000000000e+00 -9.019408732995e+04 8.321628996097e-02 
1.750000000000e+00 -9.028667850456e+04 8.317779688365e-02 
1.800000000000e+00 -9.041893009981e+04 8.312247318560e-02 
1.850000000000e+00 -9.060436219620e+04 8.304430551028e-02 
1.900000000000e+00 -9.085854540762e+04 8.293613594556e-02 
1.950000000000e+00 -9.119754844547e+04 8.279017947578e-02 
2.000000000000e+00 -9.163515107118e+04 8.270676606775e-02 
 TITLE = "Profiles along polylines"
 VARIABLES = "DIST" "PRESSURE1" "SATURATION1" 
 ZONE T="TIME=3.000000000000e+01"
0.000000000000e+00 -3.959787554028e+04 5.550487716513e-01 
5.000000000000e-02 -4.203248226406e+04 5.478253108742e-01 
1.000000000000e-01 -4.436516372244e+04 5.336808008550e-01 
1.500000000000e-01 -4.644845475175e+04 5.205786419945e-01 
2.000000000000e-01 -4.811504428295e+04 5.094527731291e-01 
2.500000000000e-01 -4.918454255001e+04 2.938976497939e-01 
3.000000000000e-01 -8.334784476595e+04 2.050273734077e-01 
3.500000000000e-01 -8.903064400449e+04 3.014652754115e-01 
4.000000000000e-01 -8.989487476990e+04 2.723151749101e-01 
4.500000000000e-01 -8.998953492358e+04 2.680457937336e-01 
5.000000000000e-01 -8.999898924104e+04 2.675822328066e-01 
5.500000000000e-01 -8.999984758438e+04 2.675363165517e-01 
6.000000000000e-01 -8.999949345229e+04 2.675340715935e-01 
6.500000000000e-01 -8.999617826156e+04 2.675504089448e-01 
7.000000000000e-01 -8.997558134761e+04 1.754366389806e-01 
7.500000000000e-01 -8.998186100133e+04 8.330656326790e-02 
8.000000000000e-01 -8.998684099760e+04 8.330379277421e-02 
8.500000000000e-01 -8.999076350788e+04 8.330160226755e-02 
9.000000000000e-01 -8.999387649317e+04 8.329987114837e-02 
9.500000000000e-01 -8.999642458934e+04 8.329847821071e-02 
1.000000000000e+00 -8.999864862278e+04 8.329730400414e-02 
1.050000000000e+00 -9.000079348188e+04 8.329622901608e-02 
1.100000000000e+00 -9.000312378860e+04 8.329512787895e-02 
1.150000000000e+00 -9.000594730038e+04 8.329385975590e-02 
1.200000000000e+00 -9.000964682491e+04 8.329225472991e-02 
1.250000000000e+00 -9.001472237917e+04 8.329009557749e-02 
1.300000000000e+00 -9.002184620548e+04 8.328709385834e-02 
1.350000000000e+00 -9.003193394000e+04 8.328285886696e-02 
1.400000000000e+00 -9.004623553610e+04 8.327685774909e-02 
1.450000000000e+00 -9.006644919110e+04 8.326836509740e-02 
1.500000000000e+00 -9.009486005685e+04 8.325640078872e-02 
1.550000000000e+00 -9.013450228275e+04 8.323965598213e-02 
1.600000000000e+00 -9.018933710109e+04 8.321640942867e-02 
1.650000000000e+00 -9.026443031090e+04 8.318443998175e-02 
1.700000000000e+00 -9.036609898642e+04 8.314094682794e-02 
1.750000000000e+00 -9.050197981332e+04 8.308249657423e-02 
1.800000000000e+00 -9.068095262995e+04 8.300502524653e-02 
1.850000000000e+00 -9.091283925995e+04 8.290393120654e-02 
1.900000000000e+00 -9.120780319509e+04 8.277429696657e-02 
1.950000000000e+00 -9.157542238848e+04 8.261126504448e-02 
2.000000000000e+00 -9.202352168450e+04 8.252081048699e-02 
 TITLE = "Profiles along polylines"
 VARIABLES = "DIST" "PRESSURE1" "SATURATION1" 
 ZONE T="TIME=4.000000000000e+01"
0.000000000000e+00 -4.394085360342e+04 5.292776018039e-01 
5.000000000000e-02 -4.453474266940e+04 5.275155371829e-01 
1.000000000000e-01 -4.525641040388e+04 5.236122895432e-01 
1.500000000000e-01 -4.603531752005e+04 5.191600946688e-01 
2.000000000000e-01 -4.680798331141e+04 5.145565889235e-01 
2.500000000000e-01 -4.752363227431e+04 2.980578588780e-01 
3.000000000000e-01 -8.058977108444e+04 2.175896330348e-01 
3.500000000000e-01 -8.810851165964e+04 3.178510832465e-01 
4.000000000000e-01 -8.974408159260e+04 2.770922855668e-01 
4.500000000000e-01 -8.997014881981e+04 2.688035026708e-01 
5.000000000000e-01 -8.999671171293e+04 2.676786883057e-01 
5.500000000000e-01 -8.999952755149e+04 2.675478819736e-01 
6.000000000000e-01 -8.999904660494e+04 2.675374860633e-01 
6.500000000000e-01 -8.999418130480e+04 2.675612897770e-01 
7.000000000000e-01 -8.996988895700e+04 1.754469309040e-01 
7.500000000000e-01 -8.997700164907e+04 8.330915957748e-02 
8.000000000000e-01 -8.998296804153e+04 8.330594140274e-02 
8.500000000000e-01 -8.998801432837e+04 8.330323167743e-02 
9.000000000000e-01 -8.999239055490e+04 8.330091322047e-02 
9.500000000000e-01 -8.999637049822e+04 8.329885714271e-02 
1.000000000000e+00 -9.000025713951e+04 8.329692152987e-02 
1.050000000000e+00 -9.000439485106e+04 8.329494709737e-02 
1.100000000000e+00 -9.000918906505e+04 8.329274935202e-02 
1.150000000000e+00 -9.001513412156e+04 8.329010690032e-02 
1.200000000000e+00 -9.002285009730e+04 8.328674553441e-02 
1.250000000000e+00 -9.003312954141e+04 8.328231767055e-02 
1.300000000000e+00 -9.004699503430e+04 8.327637668697e-02 
1.350000000000e+00 -9.006576817687e+04 8.326834578602e-02 
1.400000000000e+00 -9.009114983850e+04 8.325748127365e-02 
1.450000000000e+00 -9.012531006114e+04 8.324283069258e-02 
1.500000000000e+00 -9.017098375842e+04 8.322318715376e-02 
1.550000000000e+00 -9.023156513602e+04 8.319704255643e-02 
1.600000000000e+00 -9.031118959153e+04 8.316254420373e-02 
1.650000000000e+00 -9.041478698001e+04 8.311746154451e-02 
1.700000000000e+00 -9.054808522560e+04 8.305917217840e-02 
1.750000000000e+00 -9.071753962263e+04 8.298467836303e-02 
1.800000000000e+00 -9.093016293210e+04 8.289066621543e-02 
1.850000000000e+00 -9.119323756300e+04 8.277361833689e-02 
1.900000000000e+00 -9.151390729933e+04 8.262998508984e-02 
1.950000000000e+00 -9.189867499523e+04 8.245640865009e-02 
2.000000000000e+00 -9.235287335560e+04 8.236173461703e-02 
 TITLE = "Profiles along polylines"
 VARIABLES = "DIST" "PRESSURE1" "SATURATION1" 
 ZONE T="TIME=5.000000000000e+01"
0.000000000000e+00 -4.278628237704e+04 5.361288109842e-01 
5.000000000000e-02 -4.359776305111e+04 5.337211536146e-01 
1.000000000000e-01 -4.438021914747e+04 5.289919545904e-01 
1.500000000000e-01 -4.513384822072e+04 5.244344008530e-01 
2.000000000000e-01 -4.585452058360e+04 5.200601590120e-01 
2.500000000000e-01 -4.653620128482e+04 3.010545285350e-01 
3.000000000000e-01 -7.845150853351e+04 2.272778197666e-01 
3.500000000000e-01 -8.702620504684e+04 3.321903966050e-01 
4.000000000000e-01 -8.950903808523e+04 2.829576761905e-01 
4.500000000000e-01 -8.993397978237e+04 2.700110537182e-01 
5.000000000000e-01 -8.999182749281e+04 2.678614744825e-01 
5.500000000000e-01 -8.999881558572e+04 2.675727985206e-01 
6.000000000000e-01 -8.999843557038e+04 2.675433766110e-01 
6.500000000000e-01 -8.999204721226e+04 2.675735122246e-01 
7.000000000000e-01 -8.996496601120e+04 1.754576440872e-01 
7.500000000000e-01 -8.997305687756e+04 8.331134152407e-02 
8.000000000000e-01 -8.998017010015e+04 8.330760048127e-02 
8.500000000000e-01 -8.998656137738e+04 8.330427763094e-02 
9.000000000000e-01 -8.999252219186e+04 8.330123833645e-02 
9.500000000000e-01 -8.999838757609e+04 8.329832844058e-02 
1.000000000000e+00 -9.000454783388e+04 8.329536947068e-02 
1.050000000000e+00 -9.001146544602e+04 8.329215159480e-02 
1.100000000000e+00 -9.001969806372e+04 8.328842380430e-02 
1.150000000000e+00 -9.002992821322e+04 8.328388094727e-02 
1.200000000000e+00 -9.004300006317e+04 8.327814737273e-02 
1.250000000000e+00 -9.005996327199e+04 8.327075709496e-02 
1.300000000000e+00 -9.008212345485e+04 8.326113058703e-02 
1.350000000000e+00 -9.011109810588e+04 8.324854860313e-02 
1.400000000000e+00 -9.014887581871e+04 8.323212384718e-02 
1.450000000000e+00 -9.019787533472e+04 8.321077187216e-02 
1.500000000000e+00 -9.026099933962e+04 8.318318331408e-02 
1.550000000000e+00 -9.034167613328e+04 8.314780040199e-02 
1.600000000000e+00 -9.044388053784e+04 8.310280156037e-02 
1.650000000000e+00 -9.057212405354e+04 8.304609868678e-02 
1.700000000000e+00 -9.073140384591e+04 8.297535212603e-02 
1.750000000000e+00 -9.092710132730e+04 8.288800817665e-02 
1.800000000000e+00 -9.116482462855e+04 8.278136280609e-02 
1.850000000000e+00 -9.145019580405e+04 8.265265277062e-02 
1.900000000000e+00 -9.178859343284e+04 8.249917130887e-02 
1.950000000000e+00 -9.218487372567e+04 8.231840009916e-02 
2.000000000000e+00 -9.264310612605e+04 8.222089333353e-02 
 TITLE = "Profiles along polylines"
 VARIABLES = "DIST" "PRESSURE1" "SATURATION1" 
 ZONE T="TIME=6.000000000000e+01"
0.000000000000e+00 -5.978288514172e+03 8.260739125925e-01 
5.000000000000e-02 -9.475732846681e+03 7.990692583590e-01 
1.000000000000e-01 -1.419339561924e+04 7.520686389793e-01 
1.500000000000e-01 -1.869365037652e+04 7.129981995409e-01 
2.000000000000e-01 -2.254767469793e+04 6.775883194092e-01 
2.500000000000e-01 -2.477880832926e+04 3.834547922419e-01 
3.000000000000e-01 -7.440097031635e+04 2.560472720857e-01 
3.500000000000e-01 -8.576624058535e+04 3.558349631798e-01 
4.000000000000e-01 -8.921622510499e+04 2.898712871645e-01 
4.500000000000e-01 -8.988605217590e+04 2.715281725249e-01 
5.000000000000e-01 -8.998505362920e+04 2.681050281777e-01 
5.500000000000e-01 -8.999781380896e+04 2.676074189055e-01 
6.000000000000e-01 -8.999772215205e+04 2.675510133729e-01 
6.500000000000e-01 -8.998985336958e+04 2.675864565597e-01 
7.000000000000e-01 -8.996046499066e+04 1.754685194861e-01 
7.500000000000e-01 -8.996967224138e+04 8.331328182969e-02 
8.000000000000e-01 -8.997807853990e+04 8.330894792703e-02 
8.500000000000e-01 -8.998599218701e+04 8.330493232206e-02 
9.000000000000e-01 -8.999376678875e+04 8.330107214927e-02 
9.500000000000e-01 -9.000181584870e+04 8.329717865746e-02 
1.000000000000e+00 -9.001063002167e+04 8.329302937391e-02 
1.050000000000e+00 -9.002079799350e+04 8.328835872140e-02 
1.100000000000e+00 -9.003303162423e+04 8.328284669406e-02 
1.150000000000e+00 -9.004819559543e+04 8.327610537586e-02 
1.200000000000e+00 -9.006734133055e+04 8.326766329950e-02 
1.250000000000e+00 -9.009174439716e+04 8.325694789709e-02 
1.300000000000e+00 -9.012294394606e+04 8.324326659298e-02 
1.350000000000e+00 -9.016278200048e+04 8.322578743224e-02 
1.400000000000e+00 -9.021343961544e+04 8.320352051616e-02 
1.450000000000e+00 -9.027746615282e+04 8.317530190179e-02 
1.500000000000e+00 -9.035779727590e+04 8.313978197102e-02 
1.550000000000e+00 -9.045775690832e+04 8.309542052091e-02 
1.600000000000e+00 -9.058103850425e+04 8.304049089023e-02 
1.650000000000e+00 -9.073166171380e+04 8.297309523075e-02 
1.700000000000e+00 -9.091390203819e+04 8.289119247864e-02 
1.750000000000e+00 -9.113219340475e+04 8.279263963505e-02 
1.800000000000e+00 -9.139100667205e+04 8.267524563248e-02 
1.850000000000e+00 -9.169471064911e+04 8.253683542611e-02 
1.900000000000e+00 -9.204742584635e+04 8.237532017607e-02 
1.950000000000e+00 -9.245288428845e+04 8.218876772646e-02 
2.000000000000e+00 -9.291431067685e+04 8.208900263089e-02 
 TITLE = "Profiles along polylines"
 VARIABLES = "DIST" "PRESSURE1" "SATURATION1" 
 ZONE T="TIME=7.000000000000e+01"
0.000000000000e+00 -1.023168751470e+04 7.656563278570e-01 
5.000000000000e-02 -1.109429656814e+04 7.620001316856e-01 
1.000000000000e-01 -1.193710508285e+04 7.547716645618e-01 
1.500000000000e-01 -1.275304993498e+04 7.477409851538e-01 
2.000000000000e-01 -1.353300996470e+04 7.409766910674e-01 
2.500000000000e-01 -1.426843183128e+04 4.340356881991e-01 
3.000000000000e-01 -5.643247446039e+04 3.484224387962e-01 
3.500000000000e-01 -8.161358429129e+04 4.543275327862e-01 
4.000000000000e-01 -8.854358420898e+04 3.113555171061e-01 
4.500000000000e-01 -8.979188346882e+04 2.749423277957e-01 
5.000000000000e-01 -8.997197019148e+04 2.685825593328e-01 
5.500000000000e-01 -8.999587823006e+04 2.676742898139e-01 
6.000000000000e-01 -8.999676754157e+04 2.675638816980e-01 
6.500000000000e-01 -8.998760418993e+04 2.676007211659e-01 
7.000000000000e-01 -8.995673333147e+04 1.754794519629e-01 
7.500000000000e-01 -8.996749295373e+04 8.331473624799e-02 
8.000000000000e-01 -8.997764126017e+04 8.330959174663e-02 
8.500000000000e-01 -8.998757284879e+04 8.330465098714e-02 
9.000000000000e-01 -8.999773303186e+04 8.329970730533e-02 
9.500000000000e-01 -9.000863667629e+04 8.329452444429e-02 
1.000000000000e+00 -9.002088846071e+04 8.328882693418e-02 
1.050000000000e+00 -9.003520508126e+04 8.328228964408e-02 
1.100000000000e+00 -9.005243961744e+04 8.327452632276e-02 
1.150000000000e+00 -9.007360788431e+04 8.326507711929e-02 
1.200000000000e+00 -9.009991616007e+04 8.325339527642e-02 
1.250000000000e+00 -9.013278920405e+04 8.323883341408e-02 
1.300000000000e+00 -9.017389699739e+04 8.322063005576e-02 
1.350000000000e+00 -9.022517818184e+04 8.319789728159e-02 
1.400000000000e+00 -9.028885779410e+04 8.316961059748e-02 
1.450000000000e+00 -9.036745665484e+04 8.313460226128e-02 
1.500000000000e+00 -9.046378974285e+04 8.309155937260e-02 
1.550000000000e+00 -9.058095113328e+04 8.303902797892e-02 
1.600000000000e+00 -9.072228365665e+04 8.297542424710e-02 
1.650000000000e+00 -9.089133236703e+04 8.289905337840e-02 
1.700000000000e+00 -9.109178217486e+04 8.280813640355e-02 
1.750000000000e+00 -9.132738153428e+04 8.270084430570e-02 
1.800000000000e+00 -9.160185575405e+04 8.257533812777e-02 
1.850000000000e+00 -9.191881515892e+04 8.242981290013e-02 
1.900000000000e+00 -9.228166477347e+04 8.226254246067e-02 
1.950000000000e+00 -9.269352324824e+04 8.207192162622e-02 
2.000000000000e+00 -9.315715926453e+04 8.197058177032e-02 
 TITLE = "Profiles along polylines"
 VARIABLES = "DIST" "PRESSURE1" "SATURATION1" 
 ZONE T="TIME=8.000000000000e+01"
0.000000000000e+00 -1.349261918594e+04 7.380132006623e-01 
5.000000000000e-02 -1.400680769026e+04 7.358337961761e-01 
1.000000000000e-01 -1.456521496942e+04 7.312875645066e-01 
1.500000000000e-01 -1.516623578969e+04 7.263732912779e-01 
2.000000000000e-01 -1.580964337070e+04 7.210987415404e-01 
2.500000000000e-01 -1.649692964612e+04 4.245908325216e-01 
3.000000000000e-01 -4.616439729863e+04 3.943449169522e-01 
3.500000000000e-01 -7.537805829154e+04 5.278084379451e-01 
4.000000000000e-01 -8.687140419989e+04 3.465639130893e-01 
4.500000000000e-01 -8.953298614695e+04 2.835402872123e-01 
5.000000000000e-01 -8.993745389963e+04 2.698889587724e-01 
5.500000000000e-01 -8.999111942799e+04 2.678491588666e-01 
6.000000000000e-01 -8.999534708173e+04 2.675913943420e-01 
6.500000000000e-01 -8.998535920480e+04 2.676170412514e-01 
7.000000000000e-01 -8.995379088619e+04 1.754901715739e-01 
7.500000000000e-01 -8.996673600399e+04 8.331564650280e-02 
8.000000000000e-01 -8.997926318794e+04 8.330937891443e-02 
8.500000000000e-01 -8.999187044664e+04 8.330319445799e-02 
9.000000000000e-01 -9.000510741479e+04 8.329683535556e-02 
9.500000000000e-01 -9.001959594541e+04 8.329001335669e-02 
1.000000000000e+00 -9.003605101695e+04 8.328239952724e-02 
1.050000000000e+00 -9.005530215940e+04 8.327361383312e-02 
1.100000000000e+00 -9.007831534339e+04 8.326321448234e-02 
1.150000000000e+00 -9.010621497535e+04 8.325068712708e-02 
1.200000000000e+00 -9.014030531959e+04 8.323543418064e-02 
1.250000000000e+00 -9.018209034829e+04 8.321676466227e-02 
1.300000000000e+00 -9.023329073059e+04 8.319388513270e-02 
1.350000000000e+00 -9.029585644578e+04 8.316589241037e-02 
1.400000000000e+00 -9.037197337876e+04 8.313176884501e-02 
1.450000000000e+00 -9.046406226385e+04 8.309038095473e-02 
1.500000000000e+00 -9.057476851789e+04 8.304048218747e-02 
1.550000000000e+00 -9.070694186610e+04 8.298072043579e-02 
1.600000000000e+00 -9.086360522048e+04 8.290965070769e-02 