 TITLE = "Profiles along polylines"
 VARIABLES = "DIST" "PRESSURE1" "SATURATION1" 
 ZONE T="TIME=0.000000000000e+00"
0.000000000000e+00 -9.000000000000e+04 3.601056880734e-01 
5.000000000000e-02 -9.000000000000e+04 3.601056880734e-01 
1.000000000000e-01 -9.000000000000e+04 3.601056880734e-01 
1.500000000000e-01 -9.000000000000e+04 3.601056880734e-01 
2.000000000000e-01 -9.000000000000e+04 3.601056880734e-01 
2.500000000000e-01 -9.000000000000e+04 3.039060458716e-01 
3.000000000000e-01 -9.000000000000e+04 2.477064036697e-01 
3.500000000000e-01 -9.000000000000e+04 1.655012477064e-01 
4.000000000000e-01 -9.000000000000e+04 8.329609174312e-02 
4.500000000000e-01 -9.000000000000e+04 8.329609174312e-02 
5.000000000000e-01 -9.000000000000e+04 8.329609174312e-02 
5.500000000000e-01 -9.000000000000e+04 8.329609174312e-02 
6.000000000000e-01 -9.000000000000e+04 8.329609174312e-02 
6.500000000000e-01 -9.000000000000e+04 8.329609174312e-02 
7.000000000000e-01 -9.000000000000e+04 8.329609174312e-02 
7.500000000000e-01 -9.000000000000e+04 8.329609174312e-02 
8.000000000000e-01 -9.000000000000e+04 8.329609174312e-02 
8.500000000000e-01 -9.000000000000e+04 8.329609174312e-02 
9.000000000000e-01 -9.000000000000e+04 8.329609174312e-02 
9.500000000000e-01 -9.000000000000e+04 8.329609174312e-02 
1.000000000000e+00 -9.000000000000e+04 8.981318348624e-02 
1.050000000000e+00 -9.000000000000e+04 9.633027522936e-02 
1.100000000000e+00 -9.000000000000e+04 9.633027522936e-02 
1.150000000000e+00 -9.000000000000e+04 9.633027522936e-02 
1.200000000000e+00 -9.000000000000e+04 9.633027522936e-02 
1.250000000000e+00 -9.000000000000e+04 9.633027522936e-02 
1.300000000000e+00 -9.000000000000e+04 9.633027522936e-02 
1.350000000000e+00 -9.000000000000e+04 9.633027522936e-02 
1.400000000000e+00 -9.000000000000e+04 9.633027522936e-02 
1.450000000000e+00 -9.000000000000e+04 9.633027522936e-02 
1.500000000000e+00 -9.000000000000e+04 9.633027522936e-02 
1.550000000000e+00 -9.000000000000e+04 9.633027522936e-02 
1.600000000000e+00 -9.000000000000e+04 9.633027522936e-02 
1.650000000000e+00 -9.000000000000e+04 9.633027522936e-02 
1.700000000000e+00 -9.000000000000e+04 9.633027522936e-02 
1.750000000000e+00 -9.000000000000e+04 9.633027522936e-02 
1.800000000000e+00 -9.000000000000e+04 9.633027522936e-02 
1.850000000000e+00 -9.000000000000e+04 9.633027522936e-02 
1.900000000000e+00 -9.000000000000e+04 9.633027522936e-02 
1.950000000000e+00 -9.000000000000e+04 9.633027522936e-02 
2.000000000000e+00 -9.000000000000e+04 9.633027522936e-02 
 TITLE = "Profiles along polylines"
 VARIABLES = "DIST" "PRESSURE1" "SATURATION1" 
 ZONE T="TIME=5.000000000000e-01"
0.000000000000e+00 -8.357359221141e+04 3.773341556157e-01 
5.000000000000e-02 -8.761009672886e+04 3.718987654191e-01 
1.000000000000e-01 -8.915490476264e+04 3.643987908448e-01 
1.500000000000e-01 -8.971853053217e+04 3.615718741767e-01 
2.000000000000e-01 -8.994021113042e+04 3.604761595776e-01 
2.500000000000e-01 -9.008676343466e+04 3.038260888549e-01 
3.000000000000e-01 -9.026710278736e+04 2.473613791678e-01 
3.500000000000e-01 -9.056857122743e+04 1.651538337551e-01 
4.000000000000e-01 -9.009296111887e+04 8.317869523091e-02 
4.500000000000e-01 -9.001531868866e+04 8.327686616574e-02 
5.000000000000e-01 -9.000252750551e+04 8.329292279911e-02 
5.500000000000e-01 -9.000041711919e+04 8.329556885571e-02 
6.000000000000e-01 -9.000006888063e+04 8.329600541932e-02 
6.500000000000e-01 -9.000001161353e+04 8.329607730981e-02 
7.000000000000e-01 -9.000000337475e+04 8.329608825246e-02 
7.500000000000e-01 -9.000000920814e+04 8.329608458926e-02 
8.000000000000e-01 -9.000005284873e+04 8.329605153524e-02 
8.500000000000e-01 -9.000031326784e+04 8.329585354706e-02 
9.000000000000e-01 -9.000185867919e+04 8.329467837371e-02 
9.500000000000e-01 -9.001102978311e+04 8.328769994419e-02 
1.000000000000e+00 -9.006550940897e+04 8.979862479144e-02 
1.050000000000e+00 -9.000791775531e+04 9.632200718798e-02 
1.100000000000e+00 -9.000095812911e+04 9.632927572533e-02 
1.150000000000e+00 -9.000011596026e+04 9.633015427637e-02 
1.200000000000e+00 -9.000001403466e+04 9.633026059064e-02 
1.250000000000e+00 -9.000000169862e+04 9.633027345763e-02 
1.300000000000e+00 -9.000000020558e+04 9.633027501493e-02 
1.350000000000e+00 -9.000000002488e+04 9.633027520340e-02 
1.400000000000e+00 -9.000000000301e+04 9.633027522622e-02 
1.450000000000e+00 -9.000000000038e+04 9.633027522897e-02 
1.500000000000e+00 -9.000000000015e+04 9.633027522925e-02 
1.550000000000e+00 -9.000000000086e+04 9.633027522884e-02 
1.600000000000e+00 -9.000000000685e+04 9.633027522525e-02 
1.650000000000e+00 -9.000000005516e+04 9.633027519625e-02 
1.700000000000e+00 -9.000000044440e+04 9.633027496262e-02 
1.750000000000e+00 -9.000000358050e+04 9.633027308030e-02 
1.800000000000e+00 -9.000002884768e+04 9.633025791458e-02 
1.850000000000e+00 -9.000023242320e+04 9.633013572245e-02 
1.900000000000e+00 -9.000187267549e+04 9.632915098381e-02 
1.950000000000e+00 -9.001509251679e+04 9.632120061925e-02 
2.000000000000e+00 -9.012189919486e+04 9.631412629243e-02 
 TITLE = "Profiles along polylines"
 VARIABLES = "DIST" "PRESSURE1" "SATURATION1" 
 ZONE T="TIME=1.000000000000e+00"
0.000000000000e+00 -8.529566441632e+04 3.739436924317e-01 
5.000000000000e-02 -8.716563159713e+04 3.710205374929e-01 
1.000000000000e-01 -8.859816295512e+04 3.660233435870e-01 
1.500000000000e-01 -8.940307178812e+04 3.627967999285e-01 
2.000000000000e-01 -8.983258872210e+04 3.609910063781e-01 
2.500000000000e-01 -9.012953676378e+04 3.038660869274e-01 
3.000000000000e-01 -9.043864725375e+04 2.471697946057e-01 
3.500000000000e-01 -9.082541103029e+04 1.649687402683e-01 
4.000000000000e-01 -9.020086166206e+04 8.310766354041e-02 
4.500000000000e-01 -9.004398379169e+04 8.325157764207e-02 
5.000000000000e-01 -9.000905874765e+04 8.328650080069e-02 
5.500000000000e-01 -9.000179272005e+04 8.329413634559e-02 
6.000000000000e-01 -9.000034532116e+04 8.329570722757e-02 
6.500000000000e-01 -9.000006676141e+04 8.329601693558e-02 
7.000000000000e-01 -9.000002115645e+04 8.329607150623e-02 
7.500000000000e-01 -9.000004974398e+04 8.329605596258e-02 
8.000000000000e-01 -9.000024470554e+04 8.329592282633e-02 
8.500000000000e-01 -9.000122589542e+04 8.329526225574e-02 
9.000000000000e-01 -9.000594633945e+04 8.329217882070e-02 
9.500000000000e-01 -9.002741708165e+04 8.327884449663e-02 
1.000000000000e+00 -9.011614129621e+04 8.978575489569e-02 
1.050000000000e+00 -9.002021203531e+04 9.631455398192e-02 
1.100000000000e+00 -9.000319414132e+04 9.632759494494e-02 
1.150000000000e+00 -9.000047719854e+04 9.632985640700e-02 
1.200000000000e+00 -9.000006872459e+04 9.633021310014e-02 
1.250000000000e+00 -9.000000964541e+04 9.633026632510e-02 
1.300000000000e+00 -9.000000132807e+04 9.633027398407e-02 
1.350000000000e+00 -9.000000018019e+04 9.633027505835e-02 
1.400000000000e+00 -9.000000002418e+04 9.633027520620e-02 
1.450000000000e+00 -9.000000000335e+04 9.633027522618e-02 
1.500000000000e+00 -9.000000000144e+04 9.633027522837e-02 
1.550000000000e+00 -9.000000000756e+04 9.633027522507e-02 
1.600000000000e+00 -9.000000005514e+04 9.633027519848e-02 
1.650000000000e+00 -9.000000040107e+04 9.633027500650e-02 
1.700000000000e+00 -9.000000288403e+04 9.633027364233e-02 
1.750000000000e+00 -9.000002043768e+04 9.633026412263e-02 
1.800000000000e+00 -9.000014211643e+04 9.633019927621e-02 
1.850000000000e+00 -9.000096336806e+04 9.632977227712e-02 
1.900000000000e+00 -9.000629886897e+04 9.632709980687e-02 
1.950000000000e+00 -9.003898637452e+04 9.631171564261e-02 
2.000000000000e+00 -9.022001666681e+04 9.629863347181e-02 
 TITLE = "Profiles along polylines"
 VARIABLES = "DIST" "PRESSURE1" "SATURATION1" 
 ZONE T="TIME=5.000000000000e+00"
0.000000000000e+00 -7.537571478290e+04 4.078584405302e-01 
5.000000000000e-02 -7.699978782229e+04 4.046841396913e-01 
1.000000000000e-01 -7.936850524092e+04 3.975116046862e-01 
1.500000000000e-01 -8.170586787298e+04 3.897904851235e-01 
2.000000000000e-01 -8.361871579441e+04 3.831643846538e-01 
2.500000000000e-01 -8.493020246721e+04 3.171794675577e-01 
3.000000000000e-01 -8.584427817177e+04 2.535378938532e-01 
3.500000000000e-01 -8.652061431211e+04 1.688324938980e-01 
4.000000000000e-01 -8.847973037801e+04 8.429368430387e-02 
4.500000000000e-01 -8.935653895295e+04 8.372587744297e-02 
5.000000000000e-01 -8.973080591040e+04 8.347708154250e-02 
5.500000000000e-01 -8.988780546660e+04 8.337165903468e-02 
6.000000000000e-01 -8.995362560710e+04 8.332739688870e-02 
6.500000000000e-01 -8.998182758455e+04 8.330856009515e-02 
7.000000000000e-01 -8.999524697492e+04 8.329987553875e-02 
7.500000000000e-01 -9.000447038000e+04 8.329444210144e-02 
8.000000000000e-01 -9.001620799104e+04 8.328826069198e-02 
8.500000000000e-01 -9.003791452568e+04 8.327742234940e-02 
9.000000000000e-01 -9.008146503987e+04 8.325618572694e-02 
9.500000000000e-01 -9.016632569073e+04 8.321564061421e-02 
1.000000000000e+00 -9.031898468828e+04 8.971847682227e-02 
1.050000000000e+00 -9.013918132773e+04 9.627125156490e-02 
1.100000000000e+00 -9.005620916498e+04 9.630539511691e-02 
1.150000000000e+00 -9.002163174356e+04 9.632043257353e-02 
1.200000000000e+00 -9.000807483042e+04 9.632653520123e-02 
1.250000000000e+00 -9.000295619938e+04 9.632889018657e-02 
1.300000000000e+00 -9.000106929894e+04 9.632977056338e-02 
1.350000000000e+00 -9.000038518908e+04 9.633009277979e-02 
1.400000000000e+00 -9.000014230897e+04 9.633020825452e-02 
1.450000000000e+00 -9.000006417941e+04 9.633024669848e-02 
1.500000000000e+00 -9.000006022865e+04 9.633025221803e-02 
1.550000000000e+00 -9.000012437822e+04 9.633023167725e-02 
1.600000000000e+00 -9.000032672078e+04 9.633016282084e-02 
1.650000000000e+00 -9.000088831814e+04 9.632997084573e-02 
1.700000000000e+00 -9.000241473058e+04 9.632945034818e-02 
1.750000000000e+00 -9.000651597397e+04 9.632805878158e-02 
1.800000000000e+00 -9.001736985412e+04 9.632440447407e-02 
1.850000000000e+00 -9.004543533977e+04 9.631506695556e-02 
1.900000000000e+00 -9.011540515116e+04 9.629220709514e-02 
1.950000000000e+00 -9.027993478867e+04 9.623992876708e-02 
2.000000000000e+00 -9.063107901799e+04 9.620381534623e-02 
 TITLE = "Profiles along polylines"
 VARIABLES = "DIST" "PRESSURE1" "SATURATION1" 
 ZONE T="TIME=1.000000000000e+01"
0.000000000000e+00 -7.862645501451e+04 3.979306735615e-01 
5.000000000000e-02 -7.928180248556e+04 3.966847477829e-01 
1.000000000000e-01 -8.017574893747e+04 3.938693405685e-01 
1.500000000000e-01 -8.116502285984e+04 3.906465284464e-01 
2.000000000000e-01 -8.211201145701e+04 3.874713057696e-01 
2.500000000000e-01 -8.291099249234e+04 3.214314455678e-01 
3.000000000000e-01 -8.358490218689e+04 2.564806108732e-01 
3.500000000000e-01 -8.417343491789e+04 1.709251028855e-01 
4.000000000000e-01 -8.637380742824e+04 8.531996895035e-02 
4.500000000000e-01 -8.785580009561e+04 8.451878436218e-02 
5.000000000000e-01 -8.877743502702e+04 8.400429511446e-02 
5.500000000000e-01 -8.932140037913e+04 8.369374413389e-02 
6.000000000000e-01 -8.963259429022e+04 8.351348111761e-02 
6.500000000000e-01 -8.980891952326e+04 8.341062969725e-02 
7.000000000000e-01 -8.991156101533e+04 8.335100224488e-02 
7.500000000000e-01 -8.997798744978e+04 8.331336727688e-02 
8.000000000000e-01 -9.003228551042e+04 8.328419500559e-02 
8.500000000000e-01 -9.009221827730e+04 8.325387215613e-02 
9.000000000000e-01 -9.017353197518e+04 8.321434488705e-02 
9.500000000000e-01 -9.029165737579e+04 8.315811863986e-02 
1.000000000000e+00 -9.046018632224e+04 8.966502526613e-02 
1.050000000000e+00 -9.025818321211e+04 9.623300856121e-02 
1.100000000000e+00 -9.013711486713e+04 9.627730645131e-02 
1.150000000000e+00 -9.006996650261e+04 9.630273024125e-02 
1.200000000000e+00 -9.003468611799e+04 9.631642670538e-02 
1.250000000000e+00 -9.001684835959e+04 9.632347926169e-02 
1.300000000000e+00 -9.000808609555e+04 9.632699134072e-02 
1.350000000000e+00 -9.000389769342e+04 9.632868999063e-02 
1.400000000000e+00 -9.000199301707e+04 9.632947575347e-02 
1.450000000000e+00 -9.000128385017e+04 9.632978749968e-02 
1.500000000000e+00 -9.000134890143e+04 9.632980663196e-02 
1.550000000000e+00 -9.000221172104e+04 9.632954887683e-02 
1.600000000000e+00 -9.000434802919e+04 9.632887391598e-02 
1.650000000000e+00 -9.000892648820e+04 9.632741587178e-02 
1.700000000000e+00 -9.001838104886e+04 9.632440765363e-02 
1.750000000000e+00 -9.003752083945e+04 9.631833971853e-02 
1.800000000000e+00 -9.007548311752e+04 9.630636830392e-02 
1.850000000000e+00 -9.014880069058e+04 9.628341227507e-02 
1.900000000000e+00 -9.028530480978e+04 9.624107043346e-02 
1.950000000000e+00 -9.052667436123e+04 9.616708212948e-02 
2.000000000000e+00 -9.092314197149e+04 9.612040321378e-02 
 TITLE = "Profiles along polylines"
 VARIABLES = "DIST" "PRESSURE1" "SATURATION1" 
 ZONE T="TIME=2.000000000000e+01"
0.000000000000e+00 -4.542690957099e+04 5.098345746783e-01 
5.000000000000e-02 -5.101048031210e+04 4.983977421742e-01 
1.000000000000e-01 -5.574511767096e+04 4.795388982309e-01 
1.500000000000e-01 -5.940894761014e+04 4.664544504265e-01 
2.000000000000e-01 -6.210085857297e+04 4.567558534436e-01 
2.500000000000e-01 -6.385894423370e+04 3.674868610422e-01 
3.000000000000e-01 -6.501074650189e+04 2.815536462583e-01 
3.500000000000e-01 -6.584018219854e+04 1.874667032933e-01 
4.000000000000e-01 -7.257793410467e+04 9.255739855073e-02 
4.500000000000e-01 -7.766833418050e+04 8.988915204342e-02 
5.000000000000e-01 -8.145394214260e+04 8.789726902976e-02 
5.500000000000e-01 -8.420214008328e+04 8.644058621483e-02 
6.000000000000e-01 -8.614678076512e+04 8.540089057386e-02 
6.500000000000e-01 -8.749284145861e+04 8.467532584638e-02 
7.000000000000e-01 -8.841174885287e+04 8.417698300212e-02 
7.500000000000e-01 -8.903889745578e+04 8.383607644842e-02 
8.000000000000e-01 -8.947610378844e+04 8.359927868529e-02 
8.500000000000e-01 -8.979731914851e+04 8.342738834834e-02 
9.000000000000e-01 -9.005501507058e+04 8.329239145264e-02 
9.500000000000e-01 -9.028543188972e+04 8.317484638973e-02 
1.000000000000e+00 -9.051194527690e+04 8.965108290808e-02 
1.050000000000e+00 -9.035654817580e+04 9.620654518981e-02 
1.100000000000e+00 -9.023694495969e+04 9.624660024460e-02 
1.150000000000e+00 -9.015210384218e+04 9.627583164853e-02 
1.200000000000e+00 -9.009525428760e+04 9.629583152943e-02 
1.250000000000e+00 -9.005878342964e+04 9.630887073569e-02 
1.300000000000e+00 -9.003629905510e+04 9.631702258511e-02 
1.350000000000e+00 -9.002315218029e+04 9.632186709732e-02 
1.400000000000e+00 -9.001631419756e+04 9.632447021848e-02 
1.450000000000e+00 -9.001409158769e+04 9.632545438314e-02 
1.500000000000e+00 -9.001589844447e+04 9.632506930950e-02 
1.550000000000e+00 -9.002217603292e+04 9.632322337118e-02 
1.600000000000e+00 -9.003449817149e+04 9.631945844946e-02 
1.650000000000e+00 -9.005588963244e+04 9.631285852111e-02 
1.700000000000e+00 -9.009138194292e+04 9.630188506226e-02 
1.750000000000e+00 -9.014880938175e+04 9.628414013172e-02 
1.800000000000e+00 -9.023977176001e+04 9.625608204644e-02 
1.850000000000e+00 -9.038050939530e+04 9.621277342585e-02 
1.900000000000e+00 -9.059209826354e+04 9.614783926657e-02 
1.950000000000e+00 -9.089890426499e+04 9.605393720611e-02 
2.000000000000e+00 -9.132397261350e+04 9.599879150277e-02 
 TITLE = "Profiles along polylines"
 VARIABLES = "DIST" "PRESSURE1" "SATURATION1" 
 ZONE T="TIME=3.000000000000e+01"
0.000000000000e+00 -4.101847922017e+04 5.414076448420e-01 
5.000000000000e-02 -4.365310883569e+04 5.336002420046e-01 
1.000000000000e-01 -4.627810806179e+04 5.181304834433e-01 
1.500000000000e-01 -4.877570733633e+04 5.039802015007e-01 
2.000000000000e-01 -5.089714047550e+04 4.942533457840e-01 
2.500000000000e-01 -5.238549684800e+04 3.943531248392e-01 
3.000000000000e-01 -5.342848975583e+04 2.970470110909e-01 
3.500000000000e-01 -5.422700315508e+04 1.980323285406e-01 
4.000000000000e-01 -6.177334023310e+04 9.791175801597e-02 
4.500000000000e-01 -6.802601507772e+04 9.471176312847e-02 
5.000000000000e-01 -7.319091400951e+04 9.207041395127e-02 
5.500000000000e-01 -7.739523668758e+04 8.991371273544e-02 
6.000000000000e-01 -8.074782118419e+04 8.818488218955e-02 
6.500000000000e-01 -8.336000505654e+04 8.682899343249e-02 
7.000000000000e-01 -8.534981403458e+04 8.578889659001e-02 
7.500000000000e-01 -8.683728958286e+04 8.500635153458e-02 
8.000000000000e-01 -8.793634241392e+04 8.442540749142e-02 
8.500000000000e-01 -8.874733133692e+04 8.399593320453e-02 
9.000000000000e-01 -8.935257851106e+04 8.367605296381e-02 
9.500000000000e-01 -8.981496498592e+04 8.343317476467e-02 
1.000000000000e+00 -9.017857784686e+04 8.979900865225e-02 
1.050000000000e+00 -9.020565338876e+04 9.626873790769e-02 
1.100000000000e+00 -9.018495190104e+04 9.627109067173e-02 
1.150000000000e+00 -9.014859049922e+04 9.628101700201e-02 
1.200000000000e+00 -9.011211326407e+04 9.629229451423e-02 
1.250000000000e+00 -9.008185357499e+04 9.630217110389e-02 
1.300000000000e+00 -9.005955957088e+04 9.630970451914e-02 
1.350000000000e+00 -9.004506757850e+04 9.631476851421e-02 
1.400000000000e+00 -9.003775020387e+04 9.631749817019e-02 
1.450000000000e+00 -9.003727269626e+04 9.631799372300e-02 
1.500000000000e+00 -9.004400613202e+04 9.631615952670e-02 
1.550000000000e+00 -9.005930829404e+04 9.631160128200e-02 
1.600000000000e+00 -9.008579038714e+04 9.630353739915e-02 
1.650000000000e+00 -9.012762463007e+04 9.629070294307e-02 
1.700000000000e+00 -9.019089726219e+04 9.627124216101e-02 
1.750000000000e+00 -9.028395860229e+04 9.624260287273e-02 
1.800000000000e+00 -9.041765604028e+04 9.620146630252e-02 
1.850000000000e+00 -9.060525657336e+04 9.614376935765e-02 
1.900000000000e+00 -9.086179359413e+04 9.606489629646e-02 
1.950000000000e+00 -9.120257134782e+04 9.596011404820e-02 
2.000000000000e+00 -9.164075864772e+04 9.590066457024e-02 
 TITLE = "Profiles along polylines"
 VARIABLES = "DIST" "PRESSURE1" "SATURATION1" 
 ZONE T="TIME=4.000000000000e+01"
0.000000000000e+00 -4.606565967392e+04 5.154349615267e-01 
5.000000000000e-02 -4.668955974785e+04 5.134107562979e-01 
1.000000000000e-01 -4.748848366163e+04 5.089260338847e-01 
1.500000000000e-01 -4.837852572479e+04 5.038288687255e-01 
2.000000000000e-01 -4.927383108846e+04 4.992408027641e-01 
2.500000000000e-01 -5.008039836905e+04 3.991105527456e-01 
3.000000000000e-01 -5.079215351206e+04 3.004677383233e-01 
3.500000000000e-01 -5.144418688806e+04 2.006530017199e-01 
4.000000000000e-01 -5.734255585098e+04 9.988734230062e-02 
4.500000000000e-01 -6.279689930099e+04 9.717353697917e-02 
5.000000000000e-01 -6.772491402715e+04 9.470834025326e-02 
5.500000000000e-01 -7.208883206761e+04 9.251567666064e-02 
6.000000000000e-01 -7.587486634585e+04 9.060464042274e-02 
6.500000000000e-01 -7.908903368641e+04 8.897393261017e-02 
7.000000000000e-01 -8.175669482757e+04 8.761276269151e-02 
7.500000000000e-01 -8.392129631289e+04 8.650154423837e-02 
8.000000000000e-01 -8.564058248204e+04 8.561354591514e-02 
8.500000000000e-01 -8.698034619764e+04 8.491765727617e-02 
9.000000000000e-01 -8.800703099533e+04 8.438179743517e-02 
9.500000000000e-01 -8.878086333977e+04 8.397624079305e-02 
1.000000000000e+00 -8.935070297410e+04 9.015126102456e-02 
1.050000000000e+00 -8.970061347532e+04 9.645271026415e-02 
1.100000000000e+00 -8.989066525852e+04 9.638021399372e-02 
1.150000000000e+00 -8.998617065924e+04 9.634253628244e-02 
1.200000000000e+00 -9.002921811828e+04 9.632467369575e-02 
1.250000000000e+00 -9.004551033245e+04 9.631726331315e-02 
1.300000000000e+00 -9.005011481020e+04 9.631471733091e-02 
1.350000000000e+00 -9.005167103330e+04 9.631379104122e-02 
1.400000000000e+00 -9.005524026016e+04 9.631258390331e-02 
1.450000000000e+00 -9.006415681736e+04 9.630987904221e-02 
1.500000000000e+00 -9.008121529175e+04 9.630471643369e-02 
1.550000000000e+00 -9.010944551824e+04 9.629611530828e-02 
1.600000000000e+00 -9.015264180728e+04 9.628288754055e-02 
1.650000000000e+00 -9.021574013790e+04 9.626350759130e-02 
1.700000000000e+00 -9.030507778802e+04 9.623602430046e-02 
1.750000000000e+00 -9.042852145618e+04 9.619801585024e-02 
1.800000000000e+00 -9.059541191307e+04 9.614660161550e-02 
1.850000000000e+00 -9.081625060019e+04 9.607853197567e-02 
1.900000000000e+00 -9.110205890524e+04 9.599037589371e-02 
1.950000000000e+00 -9.146339405064e+04 9.587881058963e-02 
2.000000000000e+00 -9.190912681972e+04 9.581677763751e-02 
 TITLE = "Profiles along polylines"
 VARIABLES = "DIST" "PRESSURE1" "SATURATION1" 
 ZONE T="TIME=5.000000000000e+01"
0.000000000000e+00 -4.481408810297e+04 5.223931201933e-01 
5.000000000000e-02 -4.567491957283e+04 5.198703028702e-01 
1.000000000000e-01 -4.650413973766e+04 5.149206482564e-01 
1.500000000000e-01 -4.729953472377e+04 5.101769863981e-01 
2.000000000000e-01 -4.805134347697e+04 5.056867643137e-01 
2.500000000000e-01 -4.874530205133e+04 4.032937758337e-01 
3.000000000000e-01 -4.938884159038e+04 3.024886954019e-01 
3.500000000000e-01 -5.000238289213e+04 2.020353365811e-01 
4.000000000000e-01 -5.495161408320e+04 1.009659613118e-01 
4.500000000000e-01 -5.970238492054e+04 9.861835822246e-02 
5.000000000000e-01 -6.417451122767e+04 9.639923797060e-02 
5.500000000000e-01 -6.831297848989e+04 9.433853549497e-02 
6.000000000000e-01 -7.207822004463e+04 9.245723712626e-02 
6.500000000000e-01 -7.544309130220e+04 9.076973223960e-02 
7.000000000000e-01 -7.839271842964e+04 8.928428971457e-02 
7.500000000000e-01 -8.092519466951e+04 8.800289887744e-02 
8.000000000000e-01 -8.305173331103e+04 8.692122669396e-02 
8.500000000000e-01 -8.479533806101e+04 8.602917791952e-02 
9.000000000000e-01 -8.618765641782e+04 8.531226398980e-02 
9.500000000000e-01 -8.726438875342e+04 8.475366894060e-02 
1.000000000000e+00 -8.806016581174e+04 9.069000961828e-02 
1.050000000000e+00 -8.881331032961e+04 9.676229965009e-02 
1.100000000000e+00 -8.930247101838e+04 9.658811770746e-02 
1.150000000000e+00 -8.960945164207e+04 9.647733974690e-02 
1.200000000000e+00 -8.979671343618e+04 9.640896072782e-02 
1.250000000000e+00 -8.990889930679e+04 9.636761949264e-02 
1.300000000000e+00 -8.997648853942e+04 9.634264534450e-02 
1.350000000000e+00 -9.001974217550e+04 9.632686208793e-02 
1.400000000000e+00 -9.005208359612e+04 9.631549315801e-02 
1.450000000000e+00 -9.008268813093e+04 9.630529122505e-02 
1.500000000000e+00 -9.011834713300e+04 9.629389764656e-02 
1.550000000000e+00 -9.016476138672e+04 9.627939216594e-02 
1.600000000000e+00 -9.022741424987e+04 9.625998647958e-02 
1.650000000000e+00 -9.031213713679e+04 9.623382406807e-02 
1.700000000000e+00 -9.042543700306e+04 9.619886146568e-02 
1.750000000000e+00 -9.057461923892e+04 9.615281776262e-02 
1.800000000000e+00 -9.076771515462e+04 9.609318730023e-02 
1.850000000000e+00 -9.101321462110e+04 9.601731391927e-02 
1.900000000000e+00 -9.131961469517e+04 9.592252274822e-02 
1.950000000000e+00 -9.169482620506e+04 9.580629686023e-02 
2.000000000000e+00 -9.214552937264e+04 9.574252656911e-02 
 TITLE = "Profiles along polylines"
 VARIABLES = "DIST" "PRESSURE1" "SATURATION1" 
 ZONE T="TIME=6.000000000000e+01"
0.000000000000e+00 -6.603312004564e+03 7.964472345863e-01 
5.000000000000e-02 -1.073325640304e+04 7.715702600425e-01 
1.000000000000e-01 -1.593949654666e+04 7.242310611685e-01 
1.500000000000e-01 -2.142560360998e+04 6.782338803784e-01 
2.000000000000e-01 -2.742108375848e+04 6.365712810918e-01 
2.500000000000e-01 -3.190139890287e+04 4.917667277001e-01 
3.000000000000e-01 -3.345486306260e+04 3.625229977775e-01 
3.500000000000e-01 -3.444877040335e+04 2.398880817476e-01 
4.000000000000e-01 -4.332020846345e+04 1.136909258832e-01 
4.500000000000e-01 -5.228410519415e+04 1.041480591945e-01 
5.000000000000e-01 -5.912533351145e+04 9.919939374010e-02 
5.500000000000e-01 -6.415646942730e+04 9.649708756500e-02 
6.000000000000e-01 -6.832818592732e+04 9.434796029465e-02 
6.500000000000e-01 -7.195377046443e+04 9.250956563881e-02 
7.000000000000e-01 -7.514801533929e+04 9.089882196025e-02 
7.500000000000e-01 -7.795293277734e+04 8.948535565987e-02 
8.000000000000e-01 -8.038322838024e+04 8.825811217735e-02 
8.500000000000e-01 -8.244554244425e+04 8.721244967368e-02 
9.000000000000e-01 -8.414713800624e+04 8.634457424075e-02 
9.500000000000e-01 -8.549920218430e+04 8.564930058676e-02 
1.000000000000e+00 -8.651686866983e+04 9.132936650688e-02 
1.050000000000e+00 -8.769545795138e+04 9.714548944139e-02 
1.100000000000e+00 -8.852516607973e+04 9.685827692791e-02 
1.150000000000e+00 -8.908856826545e+04 9.666071311972e-02 
1.200000000000e+00 -8.946009929156e+04 9.652895608586e-02 
1.250000000000e+00 -8.970037192609e+04 9.644301153934e-02 
1.300000000000e+00 -8.985527469286e+04 9.638737733486e-02 
1.350000000000e+00 -8.995790249176e+04 9.635067474416e-02 
1.400000000000e+00 -9.003151419776e+04 9.632481818392e-02 
1.450000000000e+00 -9.009243696538e+04 9.630411124572e-02 
1.500000000000e+00 -9.015246457287e+04 9.628446072385e-02 
1.550000000000e+00 -9.022065772479e+04 9.626276810408e-02 
1.600000000000e+00 -9.030460788595e+04 9.623649305642e-02 
1.650000000000e+00 -9.041126687635e+04 9.620336105389e-02 
1.700000000000e+00 -9.054743747675e+04 9.616118508733e-02 
1.750000000000e+00 -9.072000046018e+04 9.610777625732e-02 
1.800000000000e+00 -9.093593630404e+04 9.604092334645e-02 
1.850000000000e+00 -9.120219075237e+04 9.595842478413e-02 
1.900000000000e+00 -9.152543264074e+04 9.585815723868e-02 
1.950000000000e+00 -9.191175735104e+04 9.573816402951e-02 
2.000000000000e+00 -9.236639553683e+04 9.567300477416e-02 
 TITLE = "Profiles along polylines"
 VARIABLES = "DIST" "PRESSURE1" "SATURATION1" 
 ZONE T="TIME=7.000000000000e+01"
0.000000000000e+00 -1.550754698708e+04 7.180261296175e-01 
5.000000000000e-02 -1.653611015471e+04 7.136239967978e-01 
1.000000000000e-01 -1.759477912691e+04 7.047001012744e-01 
1.500000000000e-01 -1.867790958965e+04 6.955732427990e-01 
2.000000000000e-01 -1.977109956754e+04 6.863553351433e-01 
2.500000000000e-01 -2.084963191928e+04 5.631638553321e-01 
3.000000000000e-01 -2.142311637580e+04 4.405058908662e-01 
3.500000000000e-01 -2.198691521309e+04 2.973688561082e-01 
4.000000000000e-01 -2.529170759055e+04 1.459417901901e-01 
4.500000000000e-01 -3.229122224041e+04 1.287751567303e-01 
5.000000000000e-01 -3.876383237817e+04 1.193246686535e-01 
5.500000000000e-01 -4.567523066204e+04 1.096953132782e-01 
6.000000000000e-01 -5.459588775774e+04 1.021159654900e-01 
6.500000000000e-01 -6.194803472080e+04 9.784064246674e-02 
7.000000000000e-01 -6.763123118623e+04 9.486480201600e-02 
7.500000000000e-01 -7.215996633484e+04 9.251873471982e-02 
8.000000000000e-01 -7.581154416437e+04 9.063591581786e-02 
8.500000000000e-01 -7.875540976490e+04 8.912016180689e-02 
9.000000000000e-01 -8.110132701289e+04 8.791066472286e-02 
9.500000000000e-01 -8.292250873899e+04 8.696737267901e-02 
1.000000000000e+00 -8.426811707140e+04 9.226469575750e-02 
1.050000000000e+00 -8.601090805331e+04 9.771787601066e-02 
1.100000000000e+00 -8.729530346135e+04 9.727938626365e-02 
1.150000000000e+00 -8.821557735630e+04 9.696229163892e-02 
1.200000000000e+00 -8.885850553102e+04 9.673877286167e-02 
1.250000000000e+00 -8.929919409019e+04 9.658440812358e-02 
1.300000000000e+00 -8.959876277812e+04 9.647897843661e-02 
1.350000000000e+00 -8.980446883597e+04 9.640659639883e-02 
1.400000000000e+00 -8.995154344452e+04 9.635526511516e-02 
1.450000000000e+00 -9.006574249739e+04 9.631614222188e-02 
1.500000000000e+00 -9.016588364128e+04 9.628275058575e-02 
1.550000000000e+00 -9.026600024866e+04 9.625027782358e-02 
1.600000000000e+00 -9.037699910873e+04 9.621502074606e-02 
1.650000000000e+00 -9.050784342027e+04 9.617397937011e-02 
1.700000000000e+00 -9.066633528989e+04 9.612458190304e-02 
1.750000000000e+00 -9.085958222958e+04 9.606451521527e-02 
1.800000000000e+00 -9.109422574886e+04 9.599163578111e-02 
1.850000000000e+00 -9.137650002994e+04 9.590393882329e-02 
1.900000000000e+00 -9.171217988795e+04 9.579956622274e-02 
1.950000000000e+00 -9.210647055774e+04 9.567683604801e-02 
2.000000000000e+00 -9.256388621941e+04 9.561068347191e-02 
 TITLE = "Profiles along polylines"
 VARIABLES = "DIST" "PRESSURE1" "SATURATION1" 
 ZONE T="TIME=8.000000000000e+01"
0.000000000000e+00 -1.811820608820e+04 6.973497542930e-01 
5.000000000000e-02 -1.863208062251e+04 6.951149397348e-01 
1.000000000000e-01 -1.918611588402e+04 6.904835025372e-01 
1.500000000000e-01 -1.977435619023e+04 6.855540318040e-01 
2.000000000000e-01 -2.039060572208e+04 6.803788275414e-01 
2.500000000000e-01 -2.102834576488e+04 5.600187773158e-01 
3.000000000000e-01 -2.154464034628e+04 4.385982302866e-01 
3.500000000000e-01 -2.206494673524e+04 3.004321760211e-01 
4.000000000000e-01 -2.346272691854e+04 1.525211290807e-01 
4.500000000000e-01 -2.771178905948e+04 1.351295752279e-01 
5.000000000000e-01 -3.254324274410e+04 1.277696526604e-01 
5.500000000000e-01 -3.745841568650e+04 1.208134334070e-01 
6.000000000000e-01 -4.273440393013e+04 1.132735498521e-01 
6.500000000000e-01 -4.925119017655e+04 1.056729376865e-01 
7.000000000000e-01 -5.703474178883e+04 1.002864036721e-01 
7.500000000000e-01 -6.324082154392e+04 9.706686329819e-02 
8.000000000000e-01 -6.830938294239e+04 9.446216426083e-02 
8.500000000000e-01 -7.244905546416e+04 9.233903545283e-02 
9.000000000000e-01 -7.577893748129e+04 9.062789183270e-02 
9.500000000000e-01 -7.837288314181e+04 8.928717774208e-02 
1.000000000000e+00 -8.027779620625e+04 9.392328526796e-02 
1.050000000000e+00 -8.297287442016e+04 9.874549276728e-02 
1.100000000000e+00 -8.503467895671e+04 9.804928791731e-02 
1.150000000000e+00 -8.657226650945e+04 9.752603551999e-02 
1.200000000000e+00 -8.769145833204e+04 9.714211452848e-02 
1.250000000000e+00 -8.848993641809e+04 9.686622909015e-02 
1.300000000000e+00 -8.905247592285e+04 9.667081816930e-02 
1.350000000000e+00 -8.944850501283e+04 9.653294163912e-02 
1.400000000000e+00 -8.973227075457e+04 9.643441027288e-02 
1.450000000000e+00 -8.994477333894e+04 9.636131836975e-02 
1.500000000000e+00 -9.011643471603e+04 9.630327223449e-02 
1.550000000000e+00 -9.026975598298e+04 9.625256328123e-02 
1.600000000000e+00 -9.042158270445e+04 9.620343188302e-02 