 TITLE = "Profiles along polylines"
 VARIABLES = "DIST" "PRESSURE1" "SATURATION1" 
 ZONE T="TIME=0.000000000000e+00"
0.000000000000e+00 -9.000000000000e+04 3.601056880734e-01 
5.000000000000e-02 -9.000000000000e+04 3.601056880734e-01 
1.000000000000e-01 -9.000000000000e+04 3.601056880734e-01 
1.500000000000e-01 -9.000000000000e+04 3.601056880734e-01 
2.000000000000e-01 -9.000000000000e+04 3.601056880734e-01 
2.500000000000e-01 -9.000000000000e+04 2.217008899083e-01 
3.000000000000e-01 -9.000000000000e+04 8.329609174312e-02 
3.500000000000e-01 -9.000000000000e+04 8.329609174312e-02 
4.000000000000e-01 -9.000000000000e+04 8.329609174312e-02 
4.500000000000e-01 -9.000000000000e+04 8.329609174312e-02 
5.000000000000e-01 -9.000000000000e+04 8.329609174312e-02 
5.500000000000e-01 -9.000000000000e+04 8.329609174312e-02 
6.000000000000e-01 -9.000000000000e+04 8.329609174312e-02 
6.500000000000e-01 -9.000000000000e+04 8.329609174312e-02 
7.000000000000e-01 -9.000000000000e+04 8.329609174312e-02 
7.500000000000e-01 -9.000000000000e+04 8.329609174312e-02 
8.000000000000e-01 -9.000000000000e+04 8.329609174312e-02 
8.500000000000e-01 -9.000000000000e+04 8.329609174312e-02 
9.000000000000e-01 -9.000000000000e+04 8.329609174312e-02 
9.500000000000e-01 -9.000000000000e+04 8.329609174312e-02 
1.000000000000e+00 -9.000000000000e+04 8.329609174312e-02 
1.050000000000e+00 -9.000000000000e+04 8.329609174312e-02 
1.100000000000e+00 -9.000000000000e+04 8.329609174312e-02 
1.150000000000e+00 -9.000000000000e+04 8.329609174312e-02 
1.200000000000e+00 -9.000000000000e+04 8.329609174312e-02 
1.250000000000e+00 -9.000000000000e+04 8.329609174312e-02 
1.300000000000e+00 -9.000000000000e+04 8.329609174312e-02 
1.350000000000e+00 -9.000000000000e+04 8.329609174312e-02 
1.400000000000e+00 -9.000000000000e+04 8.329609174312e-02 
1.450000000000e+00 -9.000000000000e+04 8.329609174312e-02 
1.500000000000e+00 -9.000000000000e+04 8.329609174312e-02 
1.550000000000e+00 -9.000000000000e+04 8.329609174312e-02 
1.600000000000e+00 -9.000000000000e+04 8.329609174312e-02 
1.650000000000e+00 -9.000000000000e+04 8.329609174312e-02 
1.700000000000e+00 -9.000000000000e+04 8.329609174312e-02 
1.750000000000e+00 -9.000000000000e+04 8.329609174312e-02 
1.800000000000e+00 -9.000000000000e+04 8.329609174312e-02 
1.850000000000e+00 -9.000000000000e+04 8.329609174312e-02 
1.900000000000e+00 -9.000000000000e+04 8.329609174312e-02 
1.950000000000e+00 -9.000000000000e+04 8.329609174312e-02 
2.000000000000e+00 -9.000000000000e+04 8.329609174312e-02 
 TITLE = "Profiles along polylines"
 VARIABLES = "DIST" "PRESSURE1" "SATURATION1" 
 ZONE T="TIME=5.000000000000e-01"
0.000000000000e+00 -8.359928385493e+04 3.772617362862e-01 
5.000000000000e-02 -8.762278573823e+04 3.718413288508e-01 
1.000000000000e-01 -8.916708733626e+04 3.643489685935e-01 
1.500000000000e-01 -8.974476429578e+04 3.614728585134e-01 
2.000000000000e-01 -9.001235097979e+04 3.602078808550e-01 
2.500000000000e-01 -9.029259033272e+04 2.214696389727e-01 
3.000000000000e-01 -9.004805722842e+04 8.323562147531e-02 
3.500000000000e-01 -9.000792496376e+04 8.328615135846e-02 
4.000000000000e-01 -9.000130773548e+04 8.329445228222e-02 
4.500000000000e-01 -9.000021581883e+04 8.329582120189e-02 
5.000000000000e-01 -9.000003561775e+04 8.329604709486e-02 
5.500000000000e-01 -9.000000587821e+04 8.329608437457e-02 
6.000000000000e-01 -9.000000097012e+04 8.329609052704e-02 
6.500000000000e-01 -9.000000016010e+04 8.329609154242e-02 
7.000000000000e-01 -9.000000002642e+04 8.329609171000e-02 
7.500000000000e-01 -9.000000000436e+04 8.329609173765e-02 
8.000000000000e-01 -9.000000000072e+04 8.329609174222e-02 
8.500000000000e-01 -9.000000000012e+04 8.329609174297e-02 
9.000000000000e-01 -9.000000000002e+04 8.329609174309e-02 
9.500000000000e-01 -9.000000000000e+04 8.329609174312e-02 
1.000000000000e+00 -9.000000000000e+04 8.329609174312e-02 
1.050000000000e+00 -9.000000000000e+04 8.329609174312e-02 
1.100000000000e+00 -9.000000000000e+04 8.329609174312e-02 
1.150000000000e+00 -9.000000000000e+04 8.329609174312e-02 
1.200000000000e+00 -9.000000000000e+04 8.329609174312e-02 
1.250000000000e+00 -9.000000000000e+04 8.329609174312e-02 
1.300000000000e+00 -9.000000000000e+04 8.329609174312e-02 
1.350000000000e+00 -9.000000000001e+04 8.329609174311e-02 
1.400000000000e+00 -9.000000000009e+04 8.329609174305e-02 
1.450000000000e+00 -9.000000000052e+04 8.329609174272e-02 
1.500000000000e+00 -9.000000000310e+04 8.329609174076e-02 
1.550000000000e+00 -9.000000001839e+04 8.329609172914e-02 
1.600000000000e+00 -9.000000010911e+04 8.329609166016e-02 
1.650000000000e+00 -9.000000064734e+04 8.329609125092e-02 
1.700000000000e+00 -9.000000384080e+04 8.329608882284e-02 
1.750000000000e+00 -9.000002278815e+04 8.329607441654e-02 
1.800000000000e+00 -9.000013520640e+04 8.329598894058e-02 
1.850000000000e+00 -9.000080221356e+04 8.329548176565e-02 
1.900000000000e+00 -9.000476003200e+04 8.329247151613e-02 
1.950000000000e+00 -9.002825470979e+04 8.327457251052e-02 
2.000000000000e+00 -9.016808676343e+04 8.325924972704e-02 
 TITLE = "Profiles along polylines"
 VARIABLES = "DIST" "PRESSURE1" "SATURATION1" 
 ZONE T="TIME=1.000000000000e+00"
0.000000000000e+00 -8.530873683628e+04 3.738946796179e-01 
5.000000000000e-02 -8.718285036682e+04 3.709612447434e-01 
1.000000000000e-01 -8.862527917132e+04 3.659265731985e-01 
1.500000000000e-01 -8.945851891739e+04 3.626044641372e-01 
2.000000000000e-01 -8.995234933765e+04 3.605880166653e-01 
2.500000000000e-01 -9.037244310496e+04 2.214753449640e-01 
3.000000000000e-01 -9.009543428874e+04 8.320976129105e-02 
3.500000000000e-01 -9.002138578697e+04 8.327480896406e-02 
4.000000000000e-01 -9.000446208370e+04 8.329141273632e-02 
4.500000000000e-01 -9.000089046817e+04 8.329512655417e-02 
5.000000000000e-01 -9.000017239181e+04 8.329590057802e-02 
5.500000000000e-01 -9.000003264840e+04 8.329605493249e-02 
6.000000000000e-01 -9.000000608092e+04 8.329608479966e-02 
6.500000000000e-01 -9.000000111790e+04 8.329609045388e-02 
7.000000000000e-01 -9.000000020336e+04 8.329609150670e-02 
7.500000000000e-01 -9.000000003668e+04 8.329609170020e-02 
8.000000000000e-01 -9.000000000657e+04 8.329609173539e-02 
8.500000000000e-01 -9.000000000117e+04 8.329609174174e-02 
9.000000000000e-01 -9.000000000021e+04 8.329609174287e-02 
9.500000000000e-01 -9.000000000004e+04 8.329609174308e-02 
1.000000000000e+00 -9.000000000001e+04 8.329609174311e-02 
1.050000000000e+00 -9.000000000000e+04 8.329609174312e-02 
1.100000000000e+00 -9.000000000000e+04 8.329609174312e-02 
1.150000000000e+00 -9.000000000000e+04 8.329609174312e-02 
1.200000000000e+00 -9.000000000000e+04 8.329609174312e-02 
1.250000000000e+00 -9.000000000001e+04 8.329609174312e-02 
1.300000000000e+00 -9.000000000003e+04 8.329609174310e-02 
1.350000000000e+00 -9.000000000016e+04 8.329609174300e-02 
1.400000000000e+00 -9.000000000091e+04 8.329609174246e-02 
1.450000000000e+00 -9.000000000502e+04 8.329609173948e-02 
1.500000000000e+00 -9.000000002755e+04 8.329609172318e-02 
1.550000000000e+00 -9.000000015035e+04 8.329609163483e-02 
1.600000000000e+00 -9.000000081417e+04 8.329609115984e-02 
1.650000000000e+00 -9.000000436833e+04 8.329608863391e-02 
1.700000000000e+00 -9.000002317536e+04 8.329607538099e-02 
1.750000000000e+00 -9.000012123074e+04 8.329600703607e-02 
1.800000000000e+00 -9.000062273880e+04 8.329566255794e-02 
1.850000000000e+00 -9.000312211679e+04 8.329398054690e-02 
1.900000000000e+00 -9.001512870763e+04 8.328614308023e-02 
1.950000000000e+00 -9.006966765870e+04 8.325227681030e-02 
2.000000000000e+00 -9.029494852109e+04 8.322485325659e-02 
 TITLE = "Profiles along polylines"
 VARIABLES = "DIST" "PRESSURE1" "SATURATION1" 
 ZONE T="TIME=5.000000000000e+00"
0.000000000000e+00 -7.517261335635e+04 4.085711259975e-01 
5.000000000000e-02 -7.677544914987e+04 4.054600100475e-01 
1.000000000000e-01 -7.907483663025e+04 3.985051724524e-01 
1.500000000000e-01 -8.127745224269e+04 3.912180090991e-01 
2.000000000000e-01 -8.296532404055e+04 3.853182609761e-01 
2.500000000000e-01 -8.393596679562e+04 2.343155216111e-01 
3.000000000000e-01 -8.705219034401e+04 8.512697941653e-02 
3.500000000000e-01 -8.864859197605e+04 8.416127750927e-02 
4.000000000000e-01 -8.940115786807e+04 8.368647897559e-02 
4.500000000000e-01 -8.973958759584e+04 8.346759111605e-02 
5.000000000000e-01 -8.988793359608e+04 8.337031532674e-02 
5.500000000000e-01 -8.995206086402e+04 8.332794635204e-02 
6.000000000000e-01 -8.997956628147e+04 8.330969609530e-02 
6.500000000000e-01 -8.999130980919e+04 8.330188457177e-02 
7.000000000000e-01 -8.999630956171e+04 8.329855371906e-02 
7.500000000000e-01 -8.999843431637e+04 8.329713679915e-02 
8.000000000000e-01 -8.999933619287e+04 8.329653497788e-02 
8.500000000000e-01 -8.999971869586e+04 8.329627962166e-02 
9.000000000000e-01 -8.999988083754e+04 8.329617134530e-02 
9.500000000000e-01 -8.999994955455e+04 8.329612544966e-02 
1.000000000000e+00 -8.999997869783e+04 8.329610598780e-02 
1.050000000000e+00 -8.999999112067e+04 8.329609770389e-02 
1.100000000000e+00 -8.999999656630e+04 8.329609410197e-02 
1.150000000000e+00 -8.999999929974e+04 8.329609236012e-02 
1.200000000000e+00 -9.000000144544e+04 8.329609112196e-02 
1.250000000000e+00 -9.000000463758e+04 8.329608944111e-02 
1.300000000000e+00 -9.000001126337e+04 8.329608605864e-02 
1.350000000000e+00 -9.000002624211e+04 8.329607846364e-02 
1.400000000000e+00 -9.000006065560e+04 8.329606104159e-02 
1.450000000000e+00 -9.000013987414e+04 8.329602096508e-02 
1.500000000000e+00 -9.000032202008e+04 8.329592888491e-02 
1.550000000000e+00 -9.000073982287e+04 8.329571788247e-02 
1.600000000000e+00 -9.000169474747e+04 8.329523629886e-02 
1.650000000000e+00 -9.000386602502e+04 8.329414350794e-02 
1.700000000000e+00 -9.000876608033e+04 8.329168452486e-02 
1.750000000000e+00 -9.001970424932e+04 8.328621845450e-02 
1.800000000000e+00 -9.004373411369e+04 8.327428247906e-02 
1.850000000000e+00 -9.009529629480e+04 8.324889199461e-02 
1.900000000000e+00 -9.020212080629e+04 8.319693670536e-02 
1.950000000000e+00 -9.041198225285e+04 8.309663476393e-02 
2.000000000000e+00 -9.079166965252e+04 8.303106845184e-02 
 TITLE = "Profiles along polylines"
 VARIABLES = "DIST" "PRESSURE1" "SATURATION1" 
 ZONE T="TIME=1.000000000000e+01"
0.000000000000e+00 -7.808220757755e+04 3.997965195653e-01 
5.000000000000e-02 -7.871950828146e+04 3.986018934439e-01 
1.000000000000e-01 -7.955877452353e+04 3.959511321614e-01 
1.500000000000e-01 -8.045684484069e+04 3.930148726287e-01 
2.000000000000e-01 -8.127975544827e+04 3.902354996413e-01 
2.500000000000e-01 -8.193292934886e+04 2.378754480225e-01 
3.000000000000e-01 -8.468434783844e+04 8.619751501509e-02 
3.500000000000e-01 -8.670580286025e+04 8.513850864059e-02 
4.000000000000e-01 -8.805042350252e+04 8.440768914977e-02 
4.500000000000e-01 -8.888409051413e+04 8.394163409014e-02 
5.000000000000e-01 -8.937617498436e+04 8.366077029071e-02 
5.500000000000e-01 -8.965698957936e+04 8.349811082954e-02 
6.000000000000e-01 -8.981358504945e+04 8.340646646544e-02 
6.500000000000e-01 -8.989953361986e+04 8.335580473168e-02 
7.000000000000e-01 -8.994618477387e+04 8.332816694961e-02 
7.500000000000e-01 -8.997130489199e+04 8.331323056483e-02 
8.000000000000e-01 -8.998475251376e+04 8.330521319420e-02 
8.500000000000e-01 -8.999192035174e+04 8.330093123886e-02 
9.000000000000e-01 -8.999572887966e+04 8.329865269592e-02 
9.500000000000e-01 -8.999774851269e+04 8.329744316310e-02 
1.000000000000e+00 -8.999881965813e+04 8.329680143609e-02 
1.050000000000e+00 -8.999939114412e+04 8.329645948341e-02 
1.100000000000e+00 -8.999970361697e+04 8.329627365467e-02 
1.150000000000e+00 -8.999988892364e+04 8.329616564858e-02 
1.200000000000e+00 -9.000002491070e+04 8.329609007707e-02 
1.250000000000e+00 -9.000016773378e+04 8.329601564745e-02 
1.300000000000e+00 -9.000037476567e+04 8.329591237018e-02 
1.350000000000e+00 -9.000072722096e+04 8.329573969695e-02 
1.400000000000e+00 -9.000136109137e+04 8.329543106968e-02 
1.450000000000e+00 -9.000251747464e+04 8.329486934880e-02 
1.500000000000e+00 -9.000462930615e+04 8.329384486530e-02 
1.550000000000e+00 -9.000847195129e+04 8.329198296108e-02 
1.600000000000e+00 -9.001542142223e+04 8.328862030814e-02 
1.650000000000e+00 -9.002788650783e+04 8.328259904684e-02 
1.700000000000e+00 -9.005000589766e+04 8.327193709146e-02 
1.750000000000e+00 -9.008871231493e+04 8.325333006114e-02 
1.800000000000e+00 -9.015521852337e+04 8.322146676558e-02 
1.850000000000e+00 -9.026677690870e+04 8.316824150136e-02 
1.900000000000e+00 -9.044803271391e+04 8.308219612889e-02 
1.950000000000e+00 -9.073024758801e+04 8.294897735629e-02 
2.000000000000e+00 -9.114534708387e+04 8.286863798526e-02 
 TITLE = "Profiles along polylines"
 VARIABLES = "DIST" "PRESSURE1" "SATURATION1" 
 ZONE T="TIME=2.000000000000e+01"
0.000000000000e+00 -4.459813561975e+04 5.148852826923e-01 
5.000000000000e-02 -4.990250480074e+04 5.029179238742e-01 
1.000000000000e-01 -5.443125995115e+04 4.839391550094e-01 
1.500000000000e-01 -5.778030314202e+04 4.718624622869e-01 
2.000000000000e-01 -6.004513578080e+04 4.635509551959e-01 
2.500000000000e-01 -6.125960136777e+04 2.782364543938e-01 
3.000000000000e-01 -6.901002529866e+04 9.441335344945e-02 
3.500000000000e-01 -7.490468937858e+04 9.132628978829e-02 
4.000000000000e-01 -7.935854492204e+04 8.899317625121e-02 
4.500000000000e-01 -8.265388900669e+04 8.725705075163e-02 
5.000000000000e-01 -8.502767133181e+04 8.599596206066e-02 
5.500000000000e-01 -8.669132604360e+04 8.510394461292e-02 
6.000000000000e-01 -8.782862520016e+04 8.448874581980e-02 
6.500000000000e-01 -8.859016421853e+04 8.407365408858e-02 
7.000000000000e-01 -8.909191067393e+04 8.379848873573e-02 
7.500000000000e-01 -8.941851759550e+04 8.361853575567e-02 
8.000000000000e-01 -8.962926150687e+04 8.350202176188e-02 
8.500000000000e-01 -8.976440041754e+04 8.342712310798e-02 
9.000000000000e-01 -8.985068974151e+04 8.337921595032e-02 
9.500000000000e-01 -8.990564687727e+04 8.334866981246e-02 
1.000000000000e+00 -8.994062736187e+04 8.332921685278e-02 
1.050000000000e+00 -8.996294978038e+04 8.331680722895e-02 
1.100000000000e+00 -8.997732457541e+04 8.330883136735e-02 
1.150000000000e+00 -8.998680019833e+04 8.330360163211e-02 
1.200000000000e+00 -8.999338673076e+04 8.330000964928e-02 
1.250000000000e+00 -8.999847075655e+04 8.329729854220e-02 
1.300000000000e+00 -9.000310049925e+04 8.329490745565e-02 
1.350000000000e+00 -9.000819628823e+04 8.329235860722e-02 
1.400000000000e+00 -9.001472599958e+04 8.328916558452e-02 
1.450000000000e+00 -9.002387587752e+04 8.328474683516e-02 
1.500000000000e+00 -9.003724195303e+04 8.327833135459e-02 
1.550000000000e+00 -9.005706403578e+04 8.326884554158e-02 
1.600000000000e+00 -9.008652040361e+04 8.325477234049e-02 
1.650000000000e+00 -9.013009314342e+04 8.323397791644e-02 
1.700000000000e+00 -9.019399599385e+04 8.320350986023e-02 
1.750000000000e+00 -9.028662050057e+04 8.315938795620e-02 
1.800000000000e+00 -9.041889290590e+04 8.309643796012e-02 
1.850000000000e+00 -9.060433781432e+04 8.300826246618e-02 
1.900000000000e+00 -9.085852861848e+04 8.288749296781e-02 
1.950000000000e+00 -9.119753566448e+04 8.272649040539e-02 
2.000000000000e+00 -9.163513955173e+04 8.263498926104e-02 
 TITLE = "Profiles along polylines"
 VARIABLES = "DIST" "PRESSURE1" "SATURATION1" 
 ZONE T="TIME=3.000000000000e+01"
0.000000000000e+00 -3.950246015748e+04 5.507958583072e-01 
5.000000000000e-02 -4.193881933531e+04 5.436700490870e-01 
1.000000000000e-01 -4.427118324223e+04 5.298735816148e-01 
1.500000000000e-01 -4.635132326952e+04 5.174467493283e-01 
2.000000000000e-01 -4.801125340496e+04 5.073596449795e-01 
2.500000000000e-01 -4.907050408477e+04 3.025359762066e-01 
3.000000000000e-01 -5.757269907098e+04 1.000778541013e-01 
3.500000000000e-01 -6.453104036279e+04 9.649860834637e-02 
4.000000000000e-01 -7.029120003656e+04 9.355207974818e-02 
4.500000000000e-01 -7.501927525516e+04 9.113116385035e-02 
5.000000000000e-01 -7.883149007993e+04 8.917123524844e-02 
5.500000000000e-01 -8.183491637745e+04 8.761773632664e-02 
6.000000000000e-01 -8.414107835836e+04 8.641611134802e-02 
6.500000000000e-01 -8.586642468297e+04 8.550996671788e-02 
7.000000000000e-01 -8.712613385975e+04 8.484315914518e-02 
7.500000000000e-01 -8.802629415266e+04 8.436321787337e-02 
8.000000000000e-01 -8.865802787652e+04 8.402427874254e-02 
8.500000000000e-01 -8.909498545470e+04 8.378862518178e-02 
9.000000000000e-01 -8.939382627057e+04 8.362679376281e-02 
9.500000000000e-01 -8.959650104557e+04 8.351669236439e-02 
1.000000000000e+00 -8.973319468916e+04 8.344226707056e-02 
1.050000000000e+00 -8.982518669468e+04 8.339211639988e-02 
1.100000000000e+00 -8.988728011400e+04 8.335826785599e-02 
1.150000000000e+00 -8.992971061960e+04 8.333519224513e-02 
1.200000000000e+00 -8.995957919738e+04 8.331905201437e-02 
1.250000000000e+00 -8.998190050125e+04 8.330714584329e-02 
1.300000000000e+00 -9.000036415985e+04 8.329750350740e-02 
1.350000000000e+00 -9.001789373199e+04 8.328858869690e-02 
1.400000000000e+00 -9.003707057810e+04 8.327907521007e-02 
1.450000000000e+00 -9.006047307269e+04 8.326767016146e-02 
1.500000000000e+00 -9.009096673994e+04 8.325296535462e-02 
1.550000000000e+00 -9.013196754376e+04 8.323330477035e-02 
1.600000000000e+00 -9.018768738228e+04 8.320666274754e-02 
1.650000000000e+00 -9.026335629115e+04 8.317053458053e-02 
1.700000000000e+00 -9.036539872467e+04 8.312184949096e-02 
1.750000000000e+00 -9.050152138749e+04 8.305692532045e-02 
1.800000000000e+00 -9.068064958177e+04 8.297149380015e-02 
1.850000000000e+00 -9.091263440629e+04 8.286083183066e-02 
1.900000000000e+00 -9.120765784777e+04 8.272003166067e-02 
1.950000000000e+00 -9.157530898493e+04 8.254442137573e-02 
2.000000000000e+00 -9.202341842864e+04 8.244735990087e-02 
 TITLE = "Profiles along polylines"
 VARIABLES = "DIST" "PRESSURE1" "SATURATION1" 
 ZONE T="TIME=4.000000000000e+01"
0.000000000000e+00 -4.369318246971e+04 5.295818822490e-01 
5.000000000000e-02 -4.428236312216e+04 5.277168526009e-01 
1.000000000000e-01 -4.498977950534e+04 5.237067428896e-01 
1.500000000000e-01 -4.574389034057e+04 5.193423115028e-01 
2.000000000000e-01 -4.647970978360e+04 5.150099397685e-01 
2.500000000000e-01 -4.714459819012e+04 3.083657099393e-01 
3.000000000000e-01 -5.322809854551e+04 1.021250380120e-01 
3.500000000000e-01 -5.918005962794e+04 9.899821305722e-02 
4.000000000000e-01 -6.455717847290e+04 9.630690198602e-02 
4.500000000000e-01 -6.933542401935e+04 9.390711374344e-02 
5.000000000000e-01 -7.350561282669e+04 9.180473344671e-02 
5.500000000000e-01 -7.707160367233e+04 8.999875063742e-02 
6.000000000000e-01 -8.005250701207e+04 8.848087494661e-02 
6.500000000000e-01 -8.248435336628e+04 8.723483376038e-02 
7.000000000000e-01 -8.441923237796e+04 8.623663003909e-02 
7.500000000000e-01 -8.592139543330e+04 8.545614053709e-02 
8.000000000000e-01 -8.706118355909e+04 8.485978486803e-02 
8.500000000000e-01 -8.790849619489e+04 8.441356567272e-02 
9.000000000000e-01 -8.852746215778e+04 8.408571638985e-02 
9.500000000000e-01 -8.897320654027e+04 8.384846388422e-02 
1.000000000000e+00 -8.929071743056e+04 8.367880340345e-02 
1.050000000000e+00 -8.951526337768e+04 8.355847622371e-02 
1.100000000000e+00 -8.967368010825e+04 8.347345301915e-02 
1.150000000000e+00 -8.978597440903e+04 8.341319889894e-02 
1.200000000000e+00 -8.986690000329e+04 8.336990934974e-02 
1.250000000000e+00 -8.992733784752e+04 8.333781913409e-02 
1.300000000000e+00 -8.997542967054e+04 8.331262332549e-02 
1.350000000000e+00 -9.001747573203e+04 8.329101316883e-02 
1.400000000000e+00 -9.005863344016e+04 8.327031254664e-02 
1.450000000000e+00 -9.010345832916e+04 8.324819587671e-02 
1.500000000000e+00 -9.015632339375e+04 8.322246963999e-02 
1.550000000000e+00 -9.022174282951e+04 8.319090402057e-02 
1.600000000000e+00 -9.030461485355e+04 8.315110649481e-02 
1.650000000000e+00 -9.041038701366e+04 8.310043467214e-02 
1.700000000000e+00 -9.054513729852e+04 8.303595064929e-02 
1.750000000000e+00 -9.071555672006e+04 8.295442294075e-02 
1.800000000000e+00 -9.092881580854e+04 8.285238376968e-02 
1.850000000000e+00 -9.119230145024e+04 8.272624785565e-02 
1.900000000000e+00 -9.151322507633e+04 8.257249231436e-02 
1.950000000000e+00 -9.189813101313e+04 8.238788478517e-02 
2.000000000000e+00 -9.235237363312e+04 8.228748985698e-02 
 TITLE = "Profiles along polylines"
 VARIABLES = "DIST" "PRESSURE1" "SATURATION1" 
 ZONE T="TIME=5.000000000000e+01"
0.000000000000e+00 -4.231263999852e+04 5.373531707125e-01 
5.000000000000e-02 -4.311457690512e+04 5.350133763102e-01 
1.000000000000e-01 -4.387652718639e+04 5.304534628044e-01 
1.500000000000e-01 -4.459744405852e+04 5.261402912774e-01 
2.000000000000e-01 -4.527194748035e+04 5.220990524065e-01 
2.500000000000e-01 -4.589280022491e+04 3.129804653340e-01 
3.000000000000e-01 -5.053091393235e+04 1.038316102647e-01 
3.500000000000e-01 -5.581065622757e+04 1.005836818058e-01 
4.000000000000e-01 -6.072909866117e+04 9.813566629933e-02 
4.500000000000e-01 -6.526145569702e+04 9.587552407006e-02 
5.000000000000e-01 -6.938404368096e+04 9.381475114181e-02 
5.500000000000e-01 -7.307732059922e+04 9.196306347421e-02 
6.000000000000e-01 -7.632881899602e+04 9.032693623137e-02 
6.500000000000e-01 -7.913607751601e+04 8.890821124785e-02 
7.000000000000e-01 -8.150895876463e+04 8.770297069568e-02 
7.500000000000e-01 -8.347056533756e+04 8.670101694321e-02 
8.000000000000e-01 -8.505619777682e+04 8.588622290999e-02 
8.500000000000e-01 -8.631037697996e+04 8.523778279407e-02 
9.000000000000e-01 -8.728261169962e+04 8.473210545875e-02 
9.500000000000e-01 -8.802296630991e+04 8.434490026827e-02 
1.000000000000e+00 -8.857839117874e+04 8.405300226597e-02 
1.050000000000e+00 -8.899034272643e+04 8.383564596549e-02 
1.100000000000e+00 -8.929373194216e+04 8.367511496631e-02 
1.150000000000e+00 -8.951691834841e+04 8.355686253832e-02 
1.200000000000e+00 -8.968236086048e+04 8.346927346614e-02 
1.250000000000e+00 -8.980758096680e+04 8.340323544558e-02 
1.300000000000e+00 -8.990619717189e+04 8.335164726823e-02 
1.350000000000e+00 -8.998889171443e+04 8.330894275741e-02 
1.400000000000e+00 -9.006424588675e+04 8.327067037804e-02 
1.450000000000e+00 -9.013942620326e+04 8.323314288933e-02 
1.500000000000e+00 -9.022072682733e+04 8.319315748055e-02 
1.550000000000e+00 -9.031398216965e+04 8.314778090430e-02 
1.600000000000e+00 -9.042486397859e+04 8.309419288547e-02 
1.650000000000e+00 -9.055907409225e+04 8.302958210001e-02 
1.700000000000e+00 -9.072244026923e+04 8.295109065581e-02 
1.750000000000e+00 -9.092092010362e+04 8.285580419563e-02 
1.800000000000e+00 -9.116051828672e+04 8.274078476412e-02 
1.850000000000e+00 -9.144712626493e+04 8.260314198464e-02 
1.900000000000e+00 -9.178630092640e+04 8.244013473092e-02 
1.950000000000e+00 -9.218300960473e+04 8.224929067695e-02 
2.000000000000e+00 -9.264138009503e+04 8.214662110491e-02 
 TITLE = "Profiles along polylines"
 VARIABLES = "DIST" "PRESSURE1" "SATURATION1" 
 ZONE T="TIME=6.000000000000e+01"
0.000000000000e+00 -5.892433228796e+03 8.104281446470e-01 
5.000000000000e-02 -9.313985552574e+03 7.853124332621e-01 
1.000000000000e-01 -1.399922472398e+04 7.406116352047e-01 
1.500000000000e-01 -1.849091811701e+04 7.027830560276e-01 
2.000000000000e-01 -2.242013316846e+04 6.698682733829e-01 
2.500000000000e-01 -2.494592790518e+04 3.936688275161e-01 
3.000000000000e-01 -3.603773625188e+04 1.250293633773e-01 
3.500000000000e-01 -4.420034908809e+04 1.122334312787e-01 
4.000000000000e-01 -5.299208873759e+04 1.034752731117e-01 
4.500000000000e-01 -5.973643154160e+04 9.887907722764e-02 
5.000000000000e-01 -6.481263329014e+04 9.617847161316e-02 
5.500000000000e-01 -6.902218941389e+04 9.401260345737e-02 
6.000000000000e-01 -7.264823488130e+04 9.217095200518e-02 
6.500000000000e-01 -7.580512586120e+04 9.057478076002e-02 
7.000000000000e-01 -7.854351027769e+04 8.919062418738e-02 
7.500000000000e-01 -8.089075699432e+04 8.800161167599e-02 
8.000000000000e-01 -8.286915670743e+04 8.699566370324e-02 
8.500000000000e-01 -8.450437789653e+04 8.616018074888e-02 
9.000000000000e-01 -8.582845204234e+04 8.547996307269e-02 
9.500000000000e-01 -8.687926896100e+04 8.493705066270e-02 
1.000000000000e+00 -8.769807178018e+04 8.451168124832e-02 
1.050000000000e+00 -8.832630086863e+04 8.418370477503e-02 
1.100000000000e+00 -8.880282626343e+04 8.393393199977e-02 
1.150000000000e+00 -8.916211992264e+04 8.374510407922e-02 
1.200000000000e+00 -8.943345251118e+04 8.360238879799e-02 
1.250000000000e+00 -8.964090832803e+04 8.349346518417e-02 
1.300000000000e+00 -8.980391528726e+04 8.340832729714e-02 
1.350000000000e+00 -8.993801741644e+04 8.333893974825e-02 
1.400000000000e+00 -9.005569742681e+04 8.327884626372e-02 
1.450000000000e+00 -9.016713656166e+04 8.322279501152e-02 
1.500000000000e+00 -9.028085807264e+04 8.316641378126e-02 
1.550000000000e+00 -9.040423742865e+04 8.310594774424e-02 
1.600000000000e+00 -9.054388206967e+04 8.303806090050e-02 
1.650000000000e+00 -9.070589256300e+04 8.295969658034e-02 
1.700000000000e+00 -9.089602044712e+04 8.286798995094e-02 
1.750000000000e+00 -9.111973914196e+04 8.276022460094e-02 
1.800000000000e+00 -9.138224486757e+04 8.263382489535e-02 
1.850000000000e+00 -9.168840527971e+04 8.248637543149e-02 
1.900000000000e+00 -9.204267451154e+04 8.231565849813e-02 
1.950000000000e+00 -9.244899406070e+04 8.211970010715e-02 
2.000000000000e+00 -9.291069880829e+04 8.201518052933e-02 
 TITLE = "Profiles along polylines"
 VARIABLES = "DIST" "PRESSURE1" "SATURATION1" 
 ZONE T="TIME=7.000000000000e+01"
0.000000000000e+00 -1.297443760761e+04 7.397381208285e-01 
5.000000000000e-02 -1.391853981625e+04 7.357110233361e-01 
1.000000000000e-01 -1.488068362412e+04 7.275862843440e-01 
1.500000000000e-01 -1.585667473214e+04 7.193435466809e-01 
2.000000000000e-01 -1.683855928122e+04 7.110427039010e-01 
2.500000000000e-01 -1.781619525565e+04 4.655613504748e-01 
3.000000000000e-01 -1.952802199306e+04 2.114667037389e-01 
3.500000000000e-01 -2.155335296491e+04 1.812526375885e-01 
4.000000000000e-01 -2.494707815759e+04 1.486464980803e-01 
4.500000000000e-01 -3.316627530605e+04 1.278766846678e-01 
5.000000000000e-01 -4.066199996483e+04 1.167981444436e-01 
5.500000000000e-01 -4.901210938754e+04 1.066021764047e-01 
6.000000000000e-01 -5.870870727151e+04 9.970850540131e-02 
6.500000000000e-01 -6.574304993134e+04 9.594486468031e-02 
7.000000000000e-01 -7.113461573518e+04 9.311825496621e-02 
7.500000000000e-01 -7.535437157648e+04 9.092244248427e-02 
8.000000000000e-01 -7.868418279512e+04 8.919512099545e-02 
8.500000000000e-01 -8.131542115698e+04 8.783144686147e-02 
9.000000000000e-01 -8.338853560323e+04 8.675653319034e-02 
9.500000000000e-01 -8.501248625135e+04 8.591331428307e-02 
1.000000000000e+00 -8.627526233765e+04 8.525629205374e-02 
1.050000000000e+00 -8.724970649581e+04 8.474811397365e-02 
1.100000000000e+00 -8.799672908911e+04 8.435767418818e-02 
1.150000000000e+00 -8.856716858766e+04 8.405902353683e-02 
1.200000000000e+00 -8.900307123614e+04 8.383065841577e-02 
1.250000000000e+00 -8.933880176521e+04 8.365494750477e-02 
1.300000000000e+00 -8.960214149163e+04 8.351758946201e-02 
1.350000000000e+00 -8.981538459436e+04 8.340707711981e-02 
1.400000000000e+00 -8.999638582214e+04 8.331418214321e-02 
1.450000000000e+00 -9.015950806409e+04 8.323148332256e-02 
1.500000000000e+00 -9.031643546559e+04 8.315295651716e-02 
1.550000000000e+00 -9.047683850741e+04 8.307363500276e-02 
1.600000000000e+00 -9.064889371428e+04 8.298934074388e-02 
1.650000000000e+00 -9.083967080396e+04 8.289648152858e-02 
1.700000000000e+00 -9.105540523618e+04 8.279190581819e-02 
1.750000000000e+00 -9.130167599643e+04 8.267280585574e-02 
1.800000000000e+00 -9.158350848740e+04 8.253665933299e-02 
1.850000000000e+00 -9.190542150514e+04 8.238120024481e-02 
1.900000000000e+00 -9.227143588288e+04 8.220441019646e-02 
1.950000000000e+00 -9.268506059232e+04 8.200452228672e-02 
2.000000000000e+00 -9.314926980706e+04 8.189859898228e-02 
 TITLE = "Profiles along polylines"
 VARIABLES = "DIST" "PRESSURE1" "SATURATION1" 
 ZONE T="TIME=8.000000000000e+01"
0.000000000000e+00 -1.593118197456e+04 7.158886228375e-01 
5.000000000000e-02 -1.644529550124e+04 7.136493292303e-01 
1.000000000000e-01 -1.700202301398e+04 7.089952343640e-01 
1.500000000000e-01 -1.759774550313e+04 7.040047946802e-01 
2.000000000000e-01 -1.822931733184e+04 6.987052282029e-01 
2.500000000000e-01 -1.889414872478e+04 4.541352612063e-01 
3.000000000000e-01 -1.992110893729e+04 2.047180304689e-01 
3.500000000000e-01 -2.109807404210e+04 1.882486370717e-01 
4.000000000000e-01 -2.254130966651e+04 1.661848729087e-01 
4.500000000000e-01 -2.545017234249e+04 1.434512304286e-01 
5.000000000000e-01 -3.131139012263e+04 1.298042916003e-01 
5.500000000000e-01 -3.699475128194e+04 1.216765934068e-01 
6.000000000000e-01 -4.290572234494e+04 1.130625262256e-01 
6.500000000000e-01 -5.056506911041e+04 1.049265288820e-01 
7.000000000000e-01 -5.877457216415e+04 9.947790730965e-02 
7.500000000000e-01 -6.525107853603e+04 9.610774192092e-02 
8.000000000000e-01 -7.049293668776e+04 9.340595013858e-02 
8.500000000000e-01 -7.475565869180e+04 9.121413497234e-02 
9.000000000000e-01 -7.820724987957e+04 8.943843816667e-02 
9.500000000000e-01 -8.097702691868e+04 8.801047926672e-02 
1.000000000000e+00 -8.317475057292e+04 8.687402355189e-02 
1.050000000000e+00 -8.489814107073e+04 8.597981246735e-02 
1.100000000000e+00 -8.623509589465e+04 8.528378763359e-02 
1.150000000000e+00 -8.726365925049e+04 8.474677959886e-02 
1.200000000000e+00 -8.805147293400e+04 8.433466251831e-02 
1.250000000000e+00 -8.865559888320e+04 8.401844924627e-02 
1.300000000000e+00 -8.912299038585e+04 8.377412050403e-02 
1.350000000000e+00 -8.949151620588e+04 8.358218607067e-02 
1.400000000000e+00 -8.979129592355e+04 8.342707257582e-02 
1.450000000000e+00 -9.004610993341e+04 8.329644938001e-02 
1.500000000000e+00 -9.027471790288e+04 8.318057952655e-02 
1.550000000000e+00 -9.049199685026e+04 8.307174734682e-02 
1.600000000000e+00 -9.070986885558e+04 8.296378417031e-02 