 TITLE = "Profiles along polylines"
 VARIABLES = "DIST" "PRESSURE1" "SATURATION1" 
 ZONE T="TIME=0.000000000000e+00"
0.000000000000e+00 -9.000000000000e+04 3.601056880734e-01 
5.000000000000e-02 -9.000000000000e+04 3.601056880734e-01 
1.000000000000e-01 -9.000000000000e+04 3.601056880734e-01 
1.500000000000e-01 -9.000000000000e+04 3.601056880734e-01 
2.000000000000e-01 -9.000000000000e+04 3.601056880734e-01 
2.500000000000e-01 -9.000000000000e+04 2.217008899083e-01 
3.000000000000e-01 -9.000000000000e+04 8.329609174312e-02 
3.500000000000e-01 -9.000000000000e+04 8.329609174312e-02 
4.000000000000e-01 -9.000000000000e+04 8.329609174312e-02 
4.500000000000e-01 -9.000000000000e+04 8.329609174312e-02 
5.000000000000e-01 -9.000000000000e+04 8.329609174312e-02 
5.500000000000e-01 -9.000000000000e+04 8.329609174312e-02 
6.000000000000e-01 -9.000000000000e+04 8.329609174312e-02 
6.500000000000e-01 -9.000000000000e+04 8.329609174312e-02 
7.000000000000e-01 -9.000000000000e+04 8.329609174312e-02 
7.500000000000e-01 -9.000000000000e+04 8.329609174312e-02 
8.000000000000e-01 -9.000000000000e+04 8.329609174312e-02 
8.500000000000e-01 -9.000000000000e+04 8.329609174312e-02 
9.000000000000e-01 -9.000000000000e+04 8.329609174312e-02 
9.500000000000e-01 -9.000000000000e+04 8.329609174312e-02 
1.000000000000e+00 -9.000000000000e+04 8.329609174312e-02 
1.050000000000e+00 -9.000000000000e+04 8.329609174312e-02 
1.100000000000e+00 -9.000000000000e+04 8.329609174312e-02 
1.150000000000e+00 -9.000000000000e+04 8.329609174312e-02 
1.200000000000e+00 -9.000000000000e+04 8.329609174312e-02 
1.250000000000e+00 -9.000000000000e+04 8.329609174312e-02 
1.300000000000e+00 -9.000000000000e+04 8.329609174312e-02 
1.350000000000e+00 -9.000000000000e+04 8.329609174312e-02 
1.400000000000e+00 -9.000000000000e+04 8.329609174312e-02 
1.450000000000e+00 -9.000000000000e+04 8.329609174312e-02 
1.500000000000e+00 -9.000000000000e+04 8.329609174312e-02 
1.550000000000e+00 -9.000000000000e+04 8.329609174312e-02 
1.600000000000e+00 -9.000000000000e+04 8.329609174312e-02 
1.650000000000e+00 -9.000000000000e+04 8.329609174312e-02 
1.700000000000e+00 -9.000000000000e+04 8.329609174312e-02 
1.750000000000e+00 -9.000000000000e+04 8.329609174312e-02 
1.800000000000e+00 -9.000000000000e+04 8.329609174312e-02 
1.850000000000e+00 -9.000000000000e+04 8.329609174312e-02 
1.900000000000e+00 -9.000000000000e+04 8.329609174312e-02 
1.950000000000e+00 -9.000000000000e+04 8.329609174312e-02 
2.000000000000e+00 -9.000000000000e+04 8.329609174312e-02 
 TITLE = "Profiles along polylines"
 VARIABLES = "DIST" "PRESSURE1" "SATURATION1" 
 ZONE T="TIME=5.000000000000e-01"
0.000000000000e+00 -8.359928385493e+04 3.818094008002e-01 
5.000000000000e-02 -8.762278573823e+04 3.749879040292e-01 
1.000000000000e-01 -8.916708733626e+04 3.655481784939e-01 
1.500000000000e-01 -8.974476429578e+04 3.619505487927e-01 
2.000000000000e-01 -9.001235097979e+04 3.605174779548e-01 
2.500000000000e-01 -9.029259033272e+04 2.216079565707e-01 
3.000000000000e-01 -9.004805722842e+04 8.321227369184e-02 
3.500000000000e-01 -9.000792496376e+04 8.328231704225e-02 
4.000000000000e-01 -9.000130773548e+04 8.329381999088e-02 
4.500000000000e-01 -9.000021581883e+04 8.329571686490e-02 
5.000000000000e-01 -9.000003561775e+04 8.329602987588e-02 
5.500000000000e-01 -9.000000587821e+04 8.329608153283e-02 
6.000000000000e-01 -9.000000097012e+04 8.329609005805e-02 
6.500000000000e-01 -9.000000016010e+04 8.329609146502e-02 
7.000000000000e-01 -9.000000002642e+04 8.329609169722e-02 
7.500000000000e-01 -9.000000000436e+04 8.329609173554e-02 
8.000000000000e-01 -9.000000000072e+04 8.329609174187e-02 
8.500000000000e-01 -9.000000000012e+04 8.329609174291e-02 
9.000000000000e-01 -9.000000000002e+04 8.329609174309e-02 
9.500000000000e-01 -9.000000000000e+04 8.329609174311e-02 
1.000000000000e+00 -9.000000000000e+04 8.329609174312e-02 
1.050000000000e+00 -9.000000000000e+04 8.329609174312e-02 
1.100000000000e+00 -9.000000000000e+04 8.329609174312e-02 
1.150000000000e+00 -9.000000000000e+04 8.329609174312e-02 
1.200000000000e+00 -9.000000000000e+04 8.329609174312e-02 
1.250000000000e+00 -9.000000000000e+04 8.329609174312e-02 
1.300000000000e+00 -9.000000000000e+04 8.329609174312e-02 
1.350000000000e+00 -9.000000000001e+04 8.329609174312e-02 
1.400000000000e+00 -9.000000000009e+04 8.329609174309e-02 
1.450000000000e+00 -9.000000000052e+04 8.329609174297e-02 
1.500000000000e+00 -9.000000000310e+04 8.329609174223e-02 
1.550000000000e+00 -9.000000001839e+04 8.329609173783e-02 
1.600000000000e+00 -9.000000010911e+04 8.329609171175e-02 
1.650000000000e+00 -9.000000064734e+04 8.329609155699e-02 
1.700000000000e+00 -9.000000384080e+04 8.329609063879e-02 
1.750000000000e+00 -9.000002278815e+04 8.329608519093e-02 
1.800000000000e+00 -9.000013520640e+04 8.329605286776e-02 
1.850000000000e+00 -9.000080221356e+04 8.329586108621e-02 
1.900000000000e+00 -9.000476003200e+04 8.329472312453e-02 
1.950000000000e+00 -9.002825470979e+04 8.328796829931e-02 
2.000000000000e+00 -9.016808676343e+04 8.328218731529e-02 
 TITLE = "Profiles along polylines"
 VARIABLES = "DIST" "PRESSURE1" "SATURATION1" 
 ZONE T="TIME=1.000000000000e+00"
0.000000000000e+00 -8.530873683628e+04 3.760129437185e-01 
5.000000000000e-02 -8.718285036682e+04 3.728355475676e-01 
1.000000000000e-01 -8.862527917132e+04 3.672126390950e-01 
1.500000000000e-01 -8.945851891739e+04 3.633544414056e-01 
2.000000000000e-01 -8.995234933765e+04 3.611045096006e-01 
2.500000000000e-01 -9.037244310496e+04 2.216900359480e-01 
3.000000000000e-01 -9.009543428874e+04 8.318096814955e-02 
3.500000000000e-01 -9.002138578697e+04 8.326734757403e-02 
4.000000000000e-01 -9.000446208370e+04 8.328973174412e-02 
4.500000000000e-01 -9.000089046817e+04 8.329477472072e-02 
5.000000000000e-01 -9.000017239181e+04 8.329583022106e-02 
5.500000000000e-01 -9.000003264840e+04 8.329604129194e-02 
6.000000000000e-01 -9.000000608092e+04 8.329608221358e-02 
6.500000000000e-01 -9.000000111790e+04 8.329608997181e-02 
7.000000000000e-01 -9.000000020336e+04 8.329609141802e-02 
7.500000000000e-01 -9.000000003668e+04 8.329609168406e-02 
8.000000000000e-01 -9.000000000657e+04 8.329609173248e-02 
8.500000000000e-01 -9.000000000117e+04 8.329609174122e-02 
9.000000000000e-01 -9.000000000021e+04 8.329609174278e-02 
9.500000000000e-01 -9.000000000004e+04 8.329609174306e-02 
1.000000000000e+00 -9.000000000001e+04 8.329609174311e-02 
1.050000000000e+00 -9.000000000000e+04 8.329609174312e-02 
1.100000000000e+00 -9.000000000000e+04 8.329609174312e-02 
1.150000000000e+00 -9.000000000000e+04 8.329609174312e-02 
1.200000000000e+00 -9.000000000000e+04 8.329609174312e-02 
1.250000000000e+00 -9.000000000001e+04 8.329609174312e-02 
1.300000000000e+00 -9.000000000003e+04 8.329609174311e-02 
1.350000000000e+00 -9.000000000016e+04 8.329609174307e-02 
1.400000000000e+00 -9.000000000091e+04 8.329609174286e-02 
1.450000000000e+00 -9.000000000502e+04 8.329609174166e-02 
1.500000000000e+00 -9.000000002755e+04 8.329609173510e-02 
1.550000000000e+00 -9.000000015035e+04 8.329609169934e-02 
1.600000000000e+00 -9.000000081417e+04 8.329609150579e-02 
1.650000000000e+00 -9.000000436833e+04 8.329609046794e-02 
1.700000000000e+00 -9.000002317536e+04 8.329608496586e-02 
1.750000000000e+00 -9.000012123074e+04 8.329605621127e-02 
1.800000000000e+00 -9.000062273880e+04 8.329590868566e-02 
1.850000000000e+00 -9.000312211679e+04 8.329517030251e-02 
1.900000000000e+00 -9.001512870763e+04 8.329160103568e-02 
1.950000000000e+00 -9.006966765870e+04 8.327522716931e-02 
2.000000000000e+00 -9.029494852109e+04 8.326180758521e-02 
 TITLE = "Profiles along polylines"
 VARIABLES = "DIST" "PRESSURE1" "SATURATION1" 
 ZONE T="TIME=5.000000000000e+00"
0.000000000000e+00 -7.517261335635e+04 4.103827715917e-01 
5.000000000000e-02 -7.677544914987e+04 4.076653032005e-01 
1.000000000000e-01 -7.907483663025e+04 4.010494237416e-01 
1.500000000000e-01 -8.127745224269e+04 3.934166698741e-01 
2.000000000000e-01 -8.296532404055e+04 3.868206875491e-01 
2.500000000000e-01 -8.393596679562e+04 2.351196558518e-01 
3.000000000000e-01 -8.705219034401e+04 8.551350115151e-02 
3.500000000000e-01 -8.864859197605e+04 8.435393594657e-02 
4.000000000000e-01 -8.940115786807e+04 8.377596063469e-02 
4.500000000000e-01 -8.973958759584e+04 8.350751565741e-02 
5.000000000000e-01 -8.988793359608e+04 8.338774203333e-02 
5.500000000000e-01 -8.995206086402e+04 8.333546191358e-02 
6.000000000000e-01 -8.997956628147e+04 8.331291522897e-02 
6.500000000000e-01 -8.999130980919e+04 8.330325782797e-02 
7.000000000000e-01 -8.999630956171e+04 8.329913805938e-02 
7.500000000000e-01 -8.999843431637e+04 8.329738503844e-02 
8.000000000000e-01 -8.999933619287e+04 8.329664032057e-02 
8.500000000000e-01 -8.999971869586e+04 8.329632429251e-02 
9.000000000000e-01 -8.999988083754e+04 8.329619027995e-02 
9.500000000000e-01 -8.999994955455e+04 8.329613347600e-02 
1.000000000000e+00 -8.999997869783e+04 8.329610939698e-02 
1.050000000000e+00 -8.999999112067e+04 8.329609916943e-02 
1.100000000000e+00 -8.999999656630e+04 8.329609477280e-02 
1.150000000000e+00 -8.999999929974e+04 8.329609276030e-02 
1.200000000000e+00 -9.000000144544e+04 8.329609155976e-02 
1.250000000000e+00 -9.000000463758e+04 8.329609024636e-02 
1.300000000000e+00 -9.000001126337e+04 8.329608783061e-02 
1.350000000000e+00 -9.000002624211e+04 8.329608251471e-02 
1.400000000000e+00 -9.000006065560e+04 8.329607036150e-02 
1.450000000000e+00 -9.000013987414e+04 8.329604240176e-02 
1.500000000000e+00 -9.000032202008e+04 8.329597809172e-02 
1.550000000000e+00 -9.000073982287e+04 8.329583047130e-02 
1.600000000000e+00 -9.000169474747e+04 8.329549270480e-02 
1.650000000000e+00 -9.000386602502e+04 8.329472348699e-02 
1.700000000000e+00 -9.000876608033e+04 8.329298354986e-02 
1.750000000000e+00 -9.001970424932e+04 8.328908647485e-02 
1.800000000000e+00 -9.004373411369e+04 8.328048241380e-02 
1.850000000000e+00 -9.009529629480e+04 8.326188260958e-02 
1.900000000000e+00 -9.020212080629e+04 8.322291076467e-02 
1.950000000000e+00 -9.041198225285e+04 8.314498858673e-02 
2.000000000000e+00 -9.079166965252e+04 8.309335111887e-02 
 TITLE = "Profiles along polylines"
 VARIABLES = "DIST" "PRESSURE1" "SATURATION1" 
 ZONE T="TIME=1.000000000000e+01"
0.000000000000e+00 -7.808220757755e+04 4.005168447646e-01 
5.000000000000e-02 -7.871950828146e+04 3.994363569656e-01 
1.000000000000e-01 -7.955877452353e+04 3.969329664003e-01 
1.500000000000e-01 -8.045684484069e+04 3.939874636834e-01 
2.000000000000e-01 -8.127975544827e+04 3.910696905193e-01 
2.500000000000e-01 -8.193292934886e+04 2.384702479635e-01 
3.000000000000e-01 -8.468434783844e+04 8.658897821868e-02 
3.500000000000e-01 -8.670580286025e+04 8.541458860790e-02 
4.000000000000e-01 -8.805042350252e+04 8.458634870597e-02 
4.500000000000e-01 -8.888409051413e+04 8.405037003737e-02 
5.000000000000e-01 -8.937617498436e+04 8.372416219569e-02 
5.500000000000e-01 -8.965698957936e+04 8.353398648075e-02 
6.000000000000e-01 -8.981358504945e+04 8.342635952711e-02 
6.500000000000e-01 -8.989953361986e+04 8.336668034210e-02 
7.000000000000e-01 -8.994618477387e+04 8.333405351083e-02 
7.500000000000e-01 -8.997130489199e+04 8.331639382717e-02 
8.000000000000e-01 -8.998475251376e+04 8.330690404016e-02 
8.500000000000e-01 -8.999192035174e+04 8.330183150227e-02 
9.000000000000e-01 -8.999572887966e+04 8.329913071205e-02 
9.500000000000e-01 -8.999774851269e+04 8.329769666364e-02 
1.000000000000e+00 -8.999881965813e+04 8.329693616200e-02 
1.050000000000e+00 -8.999939114412e+04 8.329653198425e-02 
1.100000000000e+00 -8.999970361697e+04 8.329631448172e-02 
1.150000000000e+00 -8.999988892364e+04 8.329619200056e-02 
1.200000000000e+00 -9.000002491070e+04 8.329611294461e-02 
1.250000000000e+00 -9.000016773378e+04 8.329604434197e-02 
1.300000000000e+00 -9.000037476567e+04 8.329595825839e-02 
1.350000000000e+00 -9.000072722096e+04 8.329582059375e-02 
1.400000000000e+00 -9.000136109137e+04 8.329557790333e-02 
1.450000000000e+00 -9.000251747464e+04 8.329513740238e-02 
1.500000000000e+00 -9.000462930615e+04 8.329433324164e-02 
1.550000000000e+00 -9.000847195129e+04 8.329286811262e-02 
1.600000000000e+00 -9.001542142223e+04 8.329021265800e-02 
1.650000000000e+00 -9.002788650783e+04 8.328543560840e-02 
1.700000000000e+00 -9.005000589766e+04 8.327692592371e-02 
1.750000000000e+00 -9.008871231493e+04 8.326195942696e-02 
1.800000000000e+00 -9.015521852337e+04 8.323607132951e-02 
1.850000000000e+00 -9.026677690870e+04 8.319225763772e-02 
1.900000000000e+00 -9.044803271391e+04 8.312020922864e-02 
1.950000000000e+00 -9.073024758801e+04 8.300616992938e-02 
2.000000000000e+00 -9.114534708387e+04 8.293672953559e-02 
 TITLE = "Profiles along polylines"
 VARIABLES = "DIST" "PRESSURE1" "SATURATION1" 
 ZONE T="TIME=2.000000000000e+01"
0.000000000000e+00 -4.459813561975e+04 5.253772996991e-01 
5.000000000000e-02 -4.990250480074e+04 5.107233022608e-01 
1.000000000000e-01 -5.443125995115e+04 4.883911951729e-01 
1.500000000000e-01 -5.778030314202e+04 4.750350746824e-01 
2.000000000000e-01 -6.004513578080e+04 4.655172374960e-01 
2.500000000000e-01 -6.125960136777e+04 2.795584715507e-01 
3.000000000000e-01 -6.901002529866e+04 9.553250103492e-02 
3.500000000000e-01 -7.490468937858e+04 9.217505827850e-02 
4.000000000000e-01 -7.935854492204e+04 8.962875280787e-02 
4.500000000000e-01 -8.265388900669e+04 8.772202313790e-02 
5.000000000000e-01 -8.502767133181e+04 8.632710597910e-02 
5.500000000000e-01 -8.669132604360e+04 8.533367422377e-02 
6.000000000000e-01 -8.782862520016e+04 8.464448539121e-02 
6.500000000000e-01 -8.859016421853e+04 8.417726667698e-02 
7.000000000000e-01 -8.909191067393e+04 8.386642891178e-02 
7.500000000000e-01 -8.941851759550e+04 8.366260838361e-02 
8.000000000000e-01 -8.962926150687e+04 8.353039049977e-02 
8.500000000000e-01 -8.976440041754e+04 8.344528428612e-02 
9.000000000000e-01 -8.985068974151e+04 8.339080075169e-02 
9.500000000000e-01 -8.990564687727e+04 8.335604634756e-02 
1.000000000000e+00 -8.994062736187e+04 8.333391674226e-02 
1.050000000000e+00 -8.996294978038e+04 8.331981707381e-02 
1.100000000000e+00 -8.997732457541e+04 8.331078753925e-02 
1.150000000000e+00 -8.998680019833e+04 8.330491902356e-02 
1.200000000000e+00 -8.999338673076e+04 8.330096684919e-02 
1.250000000000e+00 -8.999847075655e+04 8.329809524945e-02 
1.300000000000e+00 -9.000310049925e+04 8.329570512770e-02 
1.350000000000e+00 -9.000819628823e+04 8.329331211156e-02 
1.400000000000e+00 -9.001472599958e+04 8.329045159854e-02 
1.450000000000e+00 -9.002387587752e+04 8.328659355648e-02 
1.500000000000e+00 -9.003724195303e+04 8.328105339252e-02 
1.550000000000e+00 -9.005706403578e+04 8.327288727872e-02 
1.600000000000e+00 -9.008652040361e+04 8.326076206730e-02 
1.650000000000e+00 -9.013009314342e+04 8.324279288687e-02 
1.700000000000e+00 -9.019399599385e+04 8.321634797558e-02 
1.750000000000e+00 -9.028662050057e+04 8.317783362954e-02 
1.800000000000e+00 -9.041889290590e+04 8.312249660953e-02 
1.850000000000e+00 -9.060433781432e+04 8.304432066132e-02 
1.900000000000e+00 -9.085852861848e+04 8.293614607589e-02 
1.950000000000e+00 -9.119753566448e+04 8.279018675166e-02 
2.000000000000e+00 -9.163513955173e+04 8.270677235740e-02 
 TITLE = "Profiles along polylines"
 VARIABLES = "DIST" "PRESSURE1" "SATURATION1" 
 ZONE T="TIME=3.000000000000e+01"
0.000000000000e+00 -3.950246015748e+04 5.556149651711e-01 
5.000000000000e-02 -4.193881933531e+04 5.483863048753e-01 
1.000000000000e-01 -4.427118324223e+04 5.342375375104e-01 
1.500000000000e-01 -4.635132326952e+04 5.211456698234e-01 
2.000000000000e-01 -4.801125340496e+04 5.100489083382e-01 
2.500000000000e-01 -4.907050408477e+04 3.042809086019e-01 
3.000000000000e-01 -5.757269907098e+04 1.013459017556e-01 
3.500000000000e-01 -6.453104036279e+04 9.754175879254e-02 
4.000000000000e-01 -7.029120003656e+04 9.441230745403e-02 
4.500000000000e-01 -7.501927525516e+04 9.183162433648e-02 
5.000000000000e-01 -7.883149007993e+04 8.973024287810e-02 
5.500000000000e-01 -8.183491637745e+04 8.805321998911e-02 
6.000000000000e-01 -8.414107835836e+04 8.674676900170e-02 
6.500000000000e-01 -8.586642468297e+04 8.575479604066e-02 
7.000000000000e-01 -8.712613385975e+04 8.502030807233e-02 
7.500000000000e-01 -8.802629415266e+04 8.448886129089e-02 
8.000000000000e-01 -8.865802787652e+04 8.411193103832e-02 
8.500000000000e-01 -8.909498545470e+04 8.384897415098e-02 
9.000000000000e-01 -8.939382627057e+04 8.366792724338e-02 
9.500000000000e-01 -8.959650104557e+04 8.354452680166e-02 
1.000000000000e+00 -8.973319468916e+04 8.346102348986e-02 
1.050000000000e+00 -8.982518669468e+04 8.340475423198e-02 
1.100000000000e+00 -8.988728011400e+04 8.336684073570e-02 
1.150000000000e+00 -8.992971061960e+04 8.334112209656e-02 
1.200000000000e+00 -8.995957919738e+04 8.332333254228e-02 
1.250000000000e+00 -8.998190050125e+04 8.331049095856e-02 
1.300000000000e+00 -9.000036415985e+04 8.330045561275e-02 
1.350000000000e+00 -9.001789373199e+04 8.329159929671e-02 
1.400000000000e+00 -9.003707057810e+04 8.328256749728e-02 
1.450000000000e+00 -9.006047307269e+04 8.327209063565e-02 
1.500000000000e+00 -9.009096673994e+04 8.325882921308e-02 
1.550000000000e+00 -9.013196754376e+04 8.324123763772e-02 
1.600000000000e+00 -9.018768738228e+04 8.321743903563e-02 
1.650000000000e+00 -9.026335629115e+04 8.318511017136e-02 
1.700000000000e+00 -9.036539872467e+04 8.314138339886e-02 
1.750000000000e+00 -9.050152138749e+04 8.308278167516e-02 
1.800000000000e+00 -9.068064958177e+04 8.300521261105e-02 
1.850000000000e+00 -9.091263440629e+04 8.290405617835e-02 
1.900000000000e+00 -9.120765784777e+04 8.277438313529e-02 
1.950000000000e+00 -9.157530898493e+04 8.261132871144e-02 
2.000000000000e+00 -9.202341842864e+04 8.252086629402e-02 
 TITLE = "Profiles along polylines"
 VARIABLES = "DIST" "PRESSURE1" "SATURATION1" 
 ZONE T="TIME=4.000000000000e+01"
0.000000000000e+00 -4.369318246971e+04 5.307472787768e-01 
5.000000000000e-02 -4.428236312216e+04 5.289991839851e-01 
1.000000000000e-01 -4.498977950534e+04 5.251521898324e-01 
1.500000000000e-01 -4.574389034057e+04 5.208158490042e-01 
2.000000000000e-01 -4.647970978360e+04 5.163952365001e-01 
2.500000000000e-01 -4.714459819012e+04 3.096857636284e-01 
3.000000000000e-01 -5.322809854551e+04 1.032756886676e-01 
3.500000000000e-01 -5.918005962794e+04 9.992740548429e-02 
4.000000000000e-01 -6.455717847290e+04 9.713982820308e-02 
4.500000000000e-01 -6.933542401935e+04 9.464104955191e-02 
5.000000000000e-01 -7.350561282669e+04 9.243924212651e-02 
5.500000000000e-01 -7.707160367233e+04 9.053571608712e-02 
6.000000000000e-01 -8.005250701207e+04 8.892481973802e-02 
6.500000000000e-01 -8.248435336628e+04 8.759298536379e-02 
7.000000000000e-01 -8.441923237796e+04 8.651853055357e-02 
7.500000000000e-01 -8.592139543330e+04 8.567282901011e-02 
8.000000000000e-01 -8.706118355909e+04 8.502276359105e-02 
8.500000000000e-01 -8.790849619489e+04 8.453382742200e-02 
9.000000000000e-01 -8.852746215778e+04 8.417304217414e-02 
9.500000000000e-01 -8.897320654027e+04 8.391106482127e-02 
1.000000000000e+00 -8.929071743056e+04 8.372326201011e-02 
1.050000000000e+00 -8.951526337768e+04 8.358988619012e-02 
1.100000000000e+00 -8.967368010825e+04 8.349565629089e-02 
1.150000000000e+00 -8.978597440903e+04 8.342904647566e-02 
1.200000000000e+00 -8.986690000329e+04 8.338150374552e-02 
1.250000000000e+00 -8.992733784752e+04 8.334672055818e-02 
1.300000000000e+00 -8.997542967054e+04 8.332001628593e-02 
1.350000000000e+00 -9.001747573203e+04 8.329783740462e-02 
1.400000000000e+00 -9.005863344016e+04 8.327736469726e-02 
1.450000000000e+00 -9.010345832916e+04 8.325620824538e-02 
1.500000000000e+00 -9.015632339375e+04 8.323217113937e-02 
1.550000000000e+00 -9.022174282951e+04 8.320306664121e-02 
1.600000000000e+00 -9.030461485355e+04 8.316657877927e-02 
1.650000000000e+00 -9.041038701366e+04 8.312016192589e-02 
1.700000000000e+00 -9.054513729852e+04 8.306098016465e-02 
1.750000000000e+00 -9.071555672006e+04 8.298589161855e-02 
1.800000000000e+00 -9.092881580854e+04 8.289148558517e-02 
1.850000000000e+00 -9.119230145024e+04 8.277418013871e-02 
1.900000000000e+00 -9.151322507633e+04 8.263038328952e-02 
1.950000000000e+00 -9.189813101313e+04 8.245671036404e-02 
2.000000000000e+00 -9.235237363312e+04 8.236200231611e-02 
 TITLE = "Profiles along polylines"
 VARIABLES = "DIST" "PRESSURE1" "SATURATION1" 
 ZONE T="TIME=5.000000000000e+01"
0.000000000000e+00 -4.231263999852e+04 5.389393980989e-01 
5.000000000000e-02 -4.311457690512e+04 5.365600570193e-01 
1.000000000000e-01 -4.387652718639e+04 5.319200148921e-01 
1.500000000000e-01 -4.459744405852e+04 5.275203586291e-01 
2.000000000000e-01 -4.527194748036e+04 5.233801565740e-01 
2.500000000000e-01 -4.589280022491e+04 3.145492631355e-01 
3.000000000000e-01 -5.053091393235e+04 1.052194219227e-01 
3.500000000000e-01 -5.581065622757e+04 1.014201200762e-01 
4.000000000000e-01 -6.072909866117e+04 9.891080526499e-02 
4.500000000000e-01 -6.526145569702e+04 9.658538836801e-02 
5.000000000000e-01 -6.938404368096e+04 9.445579547415e-02 
5.500000000000e-01 -7.307732059922e+04 9.253266247712e-02 
6.000000000000e-01 -7.632881899602e+04 9.082386546840e-02 
6.500000000000e-01 -7.913607751601e+04 8.933307775731e-02 
7.000000000000e-01 -8.150895876463e+04 8.805847822893e-02 
7.500000000000e-01 -8.347056533756e+04 8.699195562917e-02 
8.000000000000e-01 -8.505619777682e+04 8.611913957131e-02 
8.500000000000e-01 -8.631037697996e+04 8.542038958737e-02 
9.000000000000e-01 -8.728261169962e+04 8.487256920747e-02 
9.500000000000e-01 -8.802296630991e+04 8.445117796133e-02 
1.000000000000e+00 -8.857839117874e+04 8.413234488215e-02 
1.050000000000e+00 -8.899034272643e+04 8.389431703361e-02 
1.100000000000e+00 -8.929373194216e+04 8.371830382925e-02 
1.150000000000e+00 -8.951691834841e+04 8.358873724043e-02 
1.200000000000e+00 -8.968236086048e+04 8.349311313411e-02 
1.250000000000e+00 -8.980758096680e+04 8.342159413020e-02 
1.300000000000e+00 -8.990619717189e+04 8.336651807633e-02 
1.350000000000e+00 -8.998889171443e+04 8.332190565201e-02 
1.400000000000e+00 -9.006424588675e+04 8.328301696822e-02 
1.450000000000e+00 -9.013942620326e+04 8.324597719767e-02 
1.500000000000e+00 -9.022072682733e+04 8.320747427266e-02 
1.550000000000e+00 -9.031398216965e+04 8.316452389634e-02 
1.600000000000e+00 -9.042486397859e+04 8.311429492022e-02 
1.650000000000e+00 -9.055907409225e+04 8.305398881596e-02 
1.700000000000e+00 -9.072244026923e+04 8.298076866812e-02 
1.750000000000e+00 -9.092092010362e+04 8.289173463119e-02 
1.800000000000e+00 -9.116051828672e+04 8.278394332450e-02 
1.850000000000e+00 -9.144712626493e+04 8.265446764335e-02 
1.900000000000e+00 -9.178630092640e+04 8.250049066723e-02 
1.950000000000e+00 -9.218300960473e+04 8.231942285830e-02 
2.000000000000e+00 -9.264138009503e+04 8.222181068626e-02 
 TITLE = "Profiles along polylines"
 VARIABLES = "DIST" "PRESSURE1" "SATURATION1" 
 ZONE T="TIME=6.000000000000e+01"
0.000000000000e+00 -5.892433227479e+03 8.273475639556e-01 
5.000000000000e-02 -9.313985550222e+03 8.003916551503e-01 
1.000000000000e-01 -1.399922472084e+04 7.535772096768e-01 
1.500000000000e-01 -1.849091811273e+04 7.146804863384e-01 
2.000000000000e-01 -2.242013316263e+04 6.789881955118e-01 
2.500000000000e-01 -2.494592789783e+04 3.998366260711e-01 
3.000000000000e-01 -3.603773624622e+04 1.295414273052e-01 
3.500000000000e-01 -4.420034908244e+04 1.156566367556e-01 
4.000000000000e-01 -5.299208873274e+04 1.055388190199e-01 
4.500000000000e-01 -5.973643153930e+04 9.984857877343e-02 
5.000000000000e-01 -6.481263328902e+04 9.694007414041e-02 
5.500000000000e-01 -6.902218941334e+04 9.465526656076e-02 
6.000000000000e-01 -7.264823488103e+04 9.272727725161e-02 
6.500000000000e-01 -7.580512586107e+04 9.105830151282e-02 
7.000000000000e-01 -7.854351027763e+04 8.960773925468e-02 
7.500000000000e-01 -8.089075699429e+04 8.835639405291e-02 
8.000000000000e-01 -8.286915670742e+04 8.729204692220e-02 
8.500000000000e-01 -8.450437789653e+04 8.640289726534e-02 
9.000000000000e-01 -8.582845204234e+04 8.567474771596e-02 
9.500000000000e-01 -8.687926896100e+04 8.509039378615e-02 
1.000000000000e+00 -8.769807178018e+04 8.463036441579e-02 
1.050000000000e+00 -8.832630086863e+04 8.427431491338e-02 
1.100000000000e+00 -8.880282626343e+04 8.400248449833e-02 
1.150000000000e+00 -8.916211992264e+04 8.379682700266e-02 
1.200000000000e+00 -8.943345251118e+04 8.364165823234e-02 
1.250000000000e+00 -8.964090832803e+04 8.352384992929e-02 
1.300000000000e+00 -8.980391528726e+04 8.343269569393e-02 
1.350000000000e+00 -8.993801741644e+04 8.335959050355e-02 
1.400000000000e+00 -9.005569742681e+04 8.329763823765e-02 
1.450000000000e+00 -9.016713656166e+04 8.324126231587e-02 
1.500000000000e+00 -9.028085807264e+04 8.318586040283e-02 
1.550000000000e+00 -9.040423742865e+04 8.312752053812e-02 
1.600000000000e+00 -9.054388206967e+04 8.306280215647e-02 
1.650000000000e+00 -9.070589256300e+04 8.298857838855e-02 
1.700000000000e+00 -9.089602044712e+04 8.290193296393e-02 
1.750000000000e+00 -9.111973914196e+04 8.280010392496e-02 
1.800000000000e+00 -9.138224486757e+04 8.268046595288e-02 
1.850000000000e+00 -9.168840527971e+04 8.254054278027e-02 
1.900000000000e+00 -9.204267451154e+04 8.237804073393e-02 
1.950000000000e+00 -9.244899406070e+04 8.219089402654e-02 
2.000000000000e+00 -9.291069880829e+04 8.209091705123e-02 
 TITLE = "Profiles along polylines"
 VARIABLES = "DIST" "PRESSURE1" "SATURATION1" 
 ZONE T="TIME=7.000000000000e+01"
0.000000000000e+00 -1.297443761599e+04 7.424058591085e-01 
5.000000000000e-02 -1.391853982473e+04 7.384042515815e-01 
1.000000000000e-01 -1.488068363251e+04 7.303245666308e-01 
1.500000000000e-01 -1.585667474030e+04 7.221097195574e-01 
2.000000000000e-01 -1.683855928904e+04 7.138112007197e-01 
2.500000000000e-01 -1.781619526303e+04 4.709540576945e-01 
3.000000000000e-01 -1.952802199982e+04 2.202242834172e-01 
3.500000000000e-01 -2.155335297121e+04 1.939515440917e-01 
4.000000000000e-01 -2.494707818696e+04 1.585253643236e-01 
4.500000000000e-01 -3.316627532556e+04 1.315593054195e-01 
5.000000000000e-01 -4.066199998074e+04 1.205114430706e-01 
5.500000000000e-01 -4.901210940809e+04 1.093542325427e-01 
6.000000000000e-01 -5.870870728358e+04 1.010807495076e-01 
6.500000000000e-01 -6.574304993896e+04 9.696401716781e-02 
7.000000000000e-01 -7.113461574004e+04 9.390655969256e-02 
7.500000000000e-01 -7.535437157957e+04 9.154164550540e-02 
8.000000000000e-01 -7.868418279706e+04 8.968403643687e-02 
8.500000000000e-01 -8.131542115818e+04 8.821729010936e-02 
9.000000000000e-01 -8.338853560395e+04 8.705976036367e-02 
9.500000000000e-01 -8.501248625179e+04 8.615007884247e-02 
1.000000000000e+00 -8.627526233791e+04 8.543978516353e-02 
1.050000000000e+00 -8.724970649596e+04 8.488930583372e-02 
1.100000000000e+00 -8.799672908919e+04 8.446573025327e-02 
1.150000000000e+00 -8.856716858771e+04 8.414156205785e-02 
1.200000000000e+00 -8.900307123616e+04 8.389394649471e-02 
1.250000000000e+00 -8.933880176522e+04 8.370408225782e-02 
1.300000000000e+00 -8.960214149164e+04 8.355667799863e-02 
1.350000000000e+00 -8.981538459436e+04 8.343941238875e-02 
1.400000000000e+00 -8.999638582215e+04 8.334240658192e-02 
1.450000000000e+00 -9.015950806409e+04 8.325773326579e-02 
1.500000000000e+00 -9.031643546559e+04 8.317898343609e-02 
1.550000000000e+00 -9.047683850741e+04 8.310090267930e-02 
1.600000000000e+00 -9.064889371428e+04 8.301909964967e-02 
1.650000000000e+00 -9.083967080396e+04 8.292982293230e-02 
1.700000000000e+00 -9.105540523618e+04 8.282979872113e-02 
1.750000000000e+00 -9.130167599643e+04 8.271612001231e-02 
1.800000000000e+00 -9.158350848740e+04 8.258617754260e-02 
1.850000000000e+00 -9.190542150514e+04 8.243762291376e-02 
1.900000000000e+00 -9.227143588288e+04 8.226835490691e-02 
1.950000000000e+00 -9.268506059232e+04 8.207652077555e-02 
2.000000000000e+00 -9.314926980706e+04 8.197474632870e-02 
 TITLE = "Profiles along polylines"
 VARIABLES = "DIST" "PRESSURE1" "SATURATION1" 
 ZONE T="TIME=8.000000000000e+01"
0.000000000000e+00 -1.593118198173e+04 7.173413472374e-01 
5.000000000000e-02 -1.644529550841e+04 7.151622605464e-01 
1.000000000000e-01 -1.700202302114e+04 7.106234664160e-01 
1.500000000000e-01 -1.759774551028e+04 7.057387700778e-01 
2.000000000000e-01 -1.822931733896e+04 7.005368437032e-01 
2.500000000000e-01 -1.889414873189e+04 4.574811219829e-01 
3.000000000000e-01 -1.992110894473e+04 2.098826643724e-01 
3.500000000000e-01 -2.109807405032e+04 1.943887623470e-01 
4.000000000000e-01 -2.254130967710e+04 1.752494019142e-01 
4.500000000000e-01 -2.545017236409e+04 1.505072228660e-01 
5.000000000000e-01 -3.131139014042e+04 1.325096379237e-01 
5.500000000000e-01 -3.699475129805e+04 1.243935988742e-01 
6.000000000000e-01 -4.290572235981e+04 1.162425824028e-01 
6.500000000000e-01 -5.056506913576e+04 1.073947432511e-01 
7.000000000000e-01 -5.877457218180e+04 1.006824295400e-01 
7.500000000000e-01 -6.525107854886e+04 9.706886282022e-02 
8.000000000000e-01 -7.049293669716e+04 9.418550010185e-02 
8.500000000000e-01 -7.475565869864e+04 9.184685019711e-02 
9.000000000000e-01 -7.820724988451e+04 8.994870451192e-02 
9.500000000000e-01 -8.097702692219e+04 8.841790546830e-02 
1.000000000000e+00 -8.317475057537e+04 8.719562685794e-02 
1.050000000000e+00 -8.489814107242e+04 8.623081693584e-02 
1.100000000000e+00 -8.623509589579e+04 8.547780352764e-02 
1.150000000000e+00 -8.726365925125e+04 8.489575584364e-02 
1.200000000000e+00 -8.805147293450e+04 8.444882710806e-02 
1.250000000000e+00 -8.865559888353e+04 8.410633333798e-02 
1.300000000000e+00 -8.912299038606e+04 8.384268106229e-02 
1.350000000000e+00 -8.949151620601e+04 8.363699938716e-02 
1.400000000000e+00 -8.979129592364e+04 8.347255943746e-02 
1.450000000000e+00 -9.004610993347e+04 8.333609885241e-02 
1.500000000000e+00 -9.027471790291e+04 8.321715043512e-02 
1.550000000000e+00 -9.049199685028e+04 8.310743770935e-02 
1.600000000000e+00 -9.070986885559e+04 8.300036662173e-02 