VARIABLES  = "X","Y","Z", "PRESSURE1", "SATURATION1"
ZONE T="0.000000000000e+00s", N=205, E=200, F=FEPOINT, ET=QUADRILATERAL
STRANDID=1, SOLUTIONTIME=0.000000000000e+00
1.450053600000e+05 4.048208912500e+05 0.000000000000e+00 -9.000000000000e+04 3.601056880734e-01 
1.450053600000e+05 4.048208912500e+05 5.000000000000e-02 -9.000000000000e+04 3.601056880734e-01 
1.450053600000e+05 4.048208912500e+05 1.000000000000e-01 -9.000000000000e+04 3.601056880734e-01 
1.450053600000e+05 4.048208912500e+05 1.500000000000e-01 -9.000000000000e+04 3.601056880734e-01 
1.450053600000e+05 4.048208912500e+05 2.000000000000e-01 -9.000000000000e+04 3.601056880734e-01 
1.450053600000e+05 4.048208912500e+05 2.500000000000e-01 -9.000000000000e+04 2.147624357798e-01 
1.450053600000e+05 4.048208912500e+05 3.000000000000e-01 -9.000000000000e+04 1.684751605505e-01 
1.450053600000e+05 4.048208912500e+05 3.500000000000e-01 -9.000000000000e+04 2.675311376147e-01 
1.450053600000e+05 4.048208912500e+05 4.000000000000e-01 -9.000000000000e+04 2.675311376147e-01 
1.450053600000e+05 4.048208912500e+05 4.500000000000e-01 -9.000000000000e+04 2.675311376147e-01 
1.450053600000e+05 4.048208912500e+05 5.000000000000e-01 -9.000000000000e+04 2.675311376147e-01 
1.450053600000e+05 4.048208912500e+05 5.500000000000e-01 -9.000000000000e+04 2.675311376147e-01 
1.450053600000e+05 4.048208912500e+05 6.000000000000e-01 -9.000000000000e+04 2.675311376147e-01 
1.450053600000e+05 4.048208912500e+05 6.500000000000e-01 -9.000000000000e+04 2.675311376147e-01 
1.450053600000e+05 4.048208912500e+05 7.000000000000e-01 -9.000000000000e+04 1.754136146789e-01 
1.450053600000e+05 4.048208912500e+05 7.500000000000e-01 -9.000000000000e+04 8.329609174312e-02 
1.450053600000e+05 4.048208912500e+05 8.000000000000e-01 -9.000000000000e+04 8.329609174312e-02 
1.450053600000e+05 4.048208912500e+05 8.500000000000e-01 -9.000000000000e+04 8.329609174312e-02 
1.450053600000e+05 4.048208912500e+05 9.000000000000e-01 -9.000000000000e+04 8.329609174312e-02 
1.450053600000e+05 4.048208912500e+05 9.500000000000e-01 -9.000000000000e+04 8.329609174312e-02 
1.450053600000e+05 4.048208912500e+05 1.000000000000e+00 -9.000000000000e+04 8.329609174312e-02 
1.450053600000e+05 4.048208912500e+05 1.050000000000e+00 -9.000000000000e+04 8.329609174312e-02 
1.450053600000e+05 4.048208912500e+05 1.100000000000e+00 -9.000000000000e+04 8.329609174312e-02 
1.450053600000e+05 4.048208912500e+05 1.150000000000e+00 -9.000000000000e+04 8.329609174312e-02 
1.450053600000e+05 4.048208912500e+05 1.200000000000e+00 -9.000000000000e+04 8.329609174312e-02 
1.450053600000e+05 4.048208912500e+05 1.250000000000e+00 -9.000000000000e+04 8.329609174312e-02 
1.450053600000e+05 4.048208912500e+05 1.300000000000e+00 -9.000000000000e+04 8.329609174312e-02 
1.450053600000e+05 4.048208912500e+05 1.350000000000e+00 -9.000000000000e+04 8.329609174312e-02 
1.450053600000e+05 4.048208912500e+05 1.400000000000e+00 -9.000000000000e+04 8.329609174312e-02 
1.450053600000e+05 4.048208912500e+05 1.450000000000e+00 -9.000000000000e+04 8.329609174312e-02 
1.450053600000e+05 4.048208912500e+05 1.500000000000e+00 -9.000000000000e+04 8.329609174312e-02 
1.450053600000e+05 4.048208912500e+05 1.550000000000e+00 -9.000000000000e+04 8.329609174312e-02 
1.450053600000e+05 4.048208912500e+05 1.600000000000e+00 -9.000000000000e+04 8.329609174312e-02 
1.450053600000e+05 4.048208912500e+05 1.650000000000e+00 -9.000000000000e+04 8.329609174312e-02 
1.450053600000e+05 4.048208912500e+05 1.700000000000e+00 -9.000000000000e+04 8.329609174312e-02 
1.450053600000e+05 4.048208912500e+05 1.750000000000e+00 -9.000000000000e+04 8.329609174312e-02 
1.450053600000e+05 4.048208912500e+05 1.800000000000e+00 -9.000000000000e+04 8.329609174312e-02 
1.450053600000e+05 4.048208912500e+05 1.850000000000e+00 -9.000000000000e+04 8.329609174312e-02 
1.450053600000e+05 4.048208912500e+05 1.900000000000e+00 -9.000000000000e+04 8.329609174312e-02 
1.450053600000e+05 4.048208912500e+05 1.950000000000e+00 -9.000000000000e+04 8.329609174312e-02 
1.450053600000e+05 4.048208912500e+05 2.000000000000e+00 -9.000000000000e+04 8.329609174312e-02 
1.455686362500e+05 4.048675100000e+05 0.000000000000e+00 -9.000000000000e+04 3.601056880734e-01 
1.455686362500e+05 4.048675100000e+05 5.000000000000e-02 -9.000000000000e+04 3.601056880734e-01 
1.455686362500e+05 4.048675100000e+05 1.000000000000e-01 -9.000000000000e+04 3.601056880734e-01 
1.455686362500e+05 4.048675100000e+05 1.500000000000e-01 -9.000000000000e+04 3.601056880734e-01 
1.455686362500e+05 4.048675100000e+05 2.000000000000e-01 -9.000000000000e+04 3.601056880734e-01 
1.455686362500e+05 4.048675100000e+05 2.500000000000e-01 -9.000000000000e+04 3.601056880734e-01 
1.455686362500e+05 4.048675100000e+05 3.000000000000e-01 -9.000000000000e+04 3.601056880734e-01 
1.455686362500e+05 4.048675100000e+05 3.500000000000e-01 -9.000000000000e+04 3.601056880734e-01 
1.455686362500e+05 4.048675100000e+05 4.000000000000e-01 -9.000000000000e+04 3.601056880734e-01 
1.455686362500e+05 4.048675100000e+05 4.500000000000e-01 -9.000000000000e+04 3.601056880734e-01 
1.455686362500e+05 4.048675100000e+05 5.000000000000e-01 -9.000000000000e+04 3.601056880734e-01 
1.455686362500e+05 4.048675100000e+05 5.500000000000e-01 -9.000000000000e+04 3.601056880734e-01 
1.455686362500e+05 4.048675100000e+05 6.000000000000e-01 -9.000000000000e+04 3.601056880734e-01 
1.455686362500e+05 4.048675100000e+05 6.500000000000e-01 -9.000000000000e+04 3.601056880734e-01 
1.455686362500e+05 4.048675100000e+05 7.000000000000e-01 -9.000000000000e+04 3.601056880734e-01 
1.455686362500e+05 4.048675100000e+05 7.500000000000e-01 -9.000000000000e+04 2.217008899083e-01 
1.455686362500e+05 4.048675100000e+05 8.000000000000e-01 -9.000000000000e+04 8.329609174312e-02 
1.455686362500e+05 4.048675100000e+05 8.500000000000e-01 -9.000000000000e+04 8.329609174312e-02 
1.455686362500e+05 4.048675100000e+05 9.000000000000e-01 -9.000000000000e+04 8.329609174312e-02 
1.455686362500e+05 4.048675100000e+05 9.500000000000e-01 -9.000000000000e+04 8.329609174312e-02 
1.455686362500e+05 4.048675100000e+05 1.000000000000e+00 -9.000000000000e+04 8.329609174312e-02 
1.455686362500e+05 4.048675100000e+05 1.050000000000e+00 -9.000000000000e+04 8.329609174312e-02 
1.455686362500e+05 4.048675100000e+05 1.100000000000e+00 -9.000000000000e+04 8.329609174312e-02 
1.455686362500e+05 4.048675100000e+05 1.150000000000e+00 -9.000000000000e+04 8.329609174312e-02 
1.455686362500e+05 4.048675100000e+05 1.200000000000e+00 -9.000000000000e+04 8.329609174312e-02 
1.455686362500e+05 4.048675100000e+05 1.250000000000e+00 -9.000000000000e+04 8.329609174312e-02 
1.455686362500e+05 4.048675100000e+05 1.300000000000e+00 -9.000000000000e+04 8.329609174312e-02 
1.455686362500e+05 4.048675100000e+05 1.350000000000e+00 -9.000000000000e+04 8.329609174312e-02 
1.455686362500e+05 4.048675100000e+05 1.400000000000e+00 -9.000000000000e+04 8.329609174312e-02 
1.455686362500e+05 4.048675100000e+05 1.450000000000e+00 -9.000000000000e+04 8.329609174312e-02 
1.455686362500e+05 4.048675100000e+05 1.500000000000e+00 -9.000000000000e+04 8.329609174312e-02 
1.455686362500e+05 4.048675100000e+05 1.550000000000e+00 -9.000000000000e+04 8.329609174312e-02 
1.455686362500e+05 4.048675100000e+05 1.600000000000e+00 -9.000000000000e+04 8.329609174312e-02 
1.455686362500e+05 4.048675100000e+05 1.650000000000e+00 -9.000000000000e+04 8.329609174312e-02 
1.455686362500e+05 4.048675100000e+05 1.700000000000e+00 -9.000000000000e+04 8.329609174312e-02 
1.455686362500e+05 4.048675100000e+05 1.750000000000e+00 -9.000000000000e+04 8.329609174312e-02 
1.455686362500e+05 4.048675100000e+05 1.800000000000e+00 -9.000000000000e+04 8.329609174312e-02 
1.455686362500e+05 4.048675100000e+05 1.850000000000e+00 -9.000000000000e+04 8.329609174312e-02 
1.455686362500e+05 4.048675100000e+05 1.900000000000e+00 -9.000000000000e+04 8.329609174312e-02 
1.455686362500e+05 4.048675100000e+05 1.950000000000e+00 -9.000000000000e+04 8.329609174312e-02 
1.455686362500e+05 4.048675100000e+05 2.000000000000e+00 -9.000000000000e+04 8.329609174312e-02 
1.461663462500e+05 4.048616750000e+05 0.000000000000e+00 -9.000000000000e+04 3.601056880734e-01 
1.461663462500e+05 4.048616750000e+05 5.000000000000e-02 -9.000000000000e+04 3.601056880734e-01 
1.461663462500e+05 4.048616750000e+05 1.000000000000e-01 -9.000000000000e+04 3.601056880734e-01 
1.461663462500e+05 4.048616750000e+05 1.500000000000e-01 -9.000000000000e+04 3.601056880734e-01 
1.461663462500e+05 4.048616750000e+05 2.000000000000e-01 -9.000000000000e+04 3.601056880734e-01 
1.461663462500e+05 4.048616750000e+05 2.500000000000e-01 -9.000000000000e+04 2.217008899083e-01 
1.461663462500e+05 4.048616750000e+05 3.000000000000e-01 -9.000000000000e+04 8.329609174312e-02 
1.461663462500e+05 4.048616750000e+05 3.500000000000e-01 -9.000000000000e+04 8.329609174312e-02 
1.461663462500e+05 4.048616750000e+05 4.000000000000e-01 -9.000000000000e+04 8.329609174312e-02 
1.461663462500e+05 4.048616750000e+05 4.500000000000e-01 -9.000000000000e+04 8.329609174312e-02 
1.461663462500e+05 4.048616750000e+05 5.000000000000e-01 -9.000000000000e+04 8.329609174312e-02 
1.461663462500e+05 4.048616750000e+05 5.500000000000e-01 -9.000000000000e+04 8.329609174312e-02 
1.461663462500e+05 4.048616750000e+05 6.000000000000e-01 -9.000000000000e+04 8.329609174312e-02 
1.461663462500e+05 4.048616750000e+05 6.500000000000e-01 -9.000000000000e+04 8.329609174312e-02 
1.461663462500e+05 4.048616750000e+05 7.000000000000e-01 -9.000000000000e+04 8.329609174312e-02 
1.461663462500e+05 4.048616750000e+05 7.500000000000e-01 -9.000000000000e+04 8.329609174312e-02 
1.461663462500e+05 4.048616750000e+05 8.000000000000e-01 -9.000000000000e+04 8.329609174312e-02 
1.461663462500e+05 4.048616750000e+05 8.500000000000e-01 -9.000000000000e+04 8.329609174312e-02 
1.461663462500e+05 4.048616750000e+05 9.000000000000e-01 -9.000000000000e+04 8.329609174312e-02 
1.461663462500e+05 4.048616750000e+05 9.500000000000e-01 -9.000000000000e+04 8.329609174312e-02 
1.461663462500e+05 4.048616750000e+05 1.000000000000e+00 -9.000000000000e+04 8.329609174312e-02 
1.461663462500e+05 4.048616750000e+05 1.050000000000e+00 -9.000000000000e+04 8.329609174312e-02 
1.461663462500e+05 4.048616750000e+05 1.100000000000e+00 -9.000000000000e+04 8.329609174312e-02 
1.461663462500e+05 4.048616750000e+05 1.150000000000e+00 -9.000000000000e+04 8.329609174312e-02 
1.461663462500e+05 4.048616750000e+05 1.200000000000e+00 -9.000000000000e+04 8.329609174312e-02 
1.461663462500e+05 4.048616750000e+05 1.250000000000e+00 -9.000000000000e+04 8.329609174312e-02 
1.461663462500e+05 4.048616750000e+05 1.300000000000e+00 -9.000000000000e+04 8.329609174312e-02 
1.461663462500e+05 4.048616750000e+05 1.350000000000e+00 -9.000000000000e+04 8.329609174312e-02 
1.461663462500e+05 4.048616750000e+05 1.400000000000e+00 -9.000000000000e+04 8.329609174312e-02 
1.461663462500e+05 4.048616750000e+05 1.450000000000e+00 -9.000000000000e+04 8.329609174312e-02 
1.461663462500e+05 4.048616750000e+05 1.500000000000e+00 -9.000000000000e+04 8.329609174312e-02 
1.461663462500e+05 4.048616750000e+05 1.550000000000e+00 -9.000000000000e+04 8.329609174312e-02 
1.461663462500e+05 4.048616750000e+05 1.600000000000e+00 -9.000000000000e+04 8.329609174312e-02 
1.461663462500e+05 4.048616750000e+05 1.650000000000e+00 -9.000000000000e+04 8.329609174312e-02 
1.461663462500e+05 4.048616750000e+05 1.700000000000e+00 -9.000000000000e+04 8.329609174312e-02 
1.461663462500e+05 4.048616750000e+05 1.750000000000e+00 -9.000000000000e+04 8.329609174312e-02 
1.461663462500e+05 4.048616750000e+05 1.800000000000e+00 -9.000000000000e+04 8.329609174312e-02 
1.461663462500e+05 4.048616750000e+05 1.850000000000e+00 -9.000000000000e+04 8.329609174312e-02 
1.461663462500e+05 4.048616750000e+05 1.900000000000e+00 -9.000000000000e+04 8.329609174312e-02 
1.461663462500e+05 4.048616750000e+05 1.950000000000e+00 -9.000000000000e+04 8.329609174312e-02 
1.461663462500e+05 4.048616750000e+05 2.000000000000e+00 -9.000000000000e+04 8.329609174312e-02 
1.467941000000e+05 4.048667612500e+05 0.000000000000e+00 -9.000000000000e+04 3.601056880734e-01 
1.467941000000e+05 4.048667612500e+05 5.000000000000e-02 -9.000000000000e+04 3.601056880734e-01 
1.467941000000e+05 4.048667612500e+05 1.000000000000e-01 -9.000000000000e+04 3.601056880734e-01 
1.467941000000e+05 4.048667612500e+05 1.500000000000e-01 -9.000000000000e+04 3.601056880734e-01 
1.467941000000e+05 4.048667612500e+05 2.000000000000e-01 -9.000000000000e+04 3.601056880734e-01 
1.467941000000e+05 4.048667612500e+05 2.500000000000e-01 -9.000000000000e+04 3.039060458716e-01 
1.467941000000e+05 4.048667612500e+05 3.000000000000e-01 -9.000000000000e+04 2.477064036697e-01 
1.467941000000e+05 4.048667612500e+05 3.500000000000e-01 -9.000000000000e+04 1.655012477064e-01 
1.467941000000e+05 4.048667612500e+05 4.000000000000e-01 -9.000000000000e+04 8.329609174312e-02 
1.467941000000e+05 4.048667612500e+05 4.500000000000e-01 -9.000000000000e+04 8.329609174312e-02 
1.467941000000e+05 4.048667612500e+05 5.000000000000e-01 -9.000000000000e+04 8.329609174312e-02 
1.467941000000e+05 4.048667612500e+05 5.500000000000e-01 -9.000000000000e+04 8.329609174312e-02 
1.467941000000e+05 4.048667612500e+05 6.000000000000e-01 -9.000000000000e+04 8.329609174312e-02 
1.467941000000e+05 4.048667612500e+05 6.500000000000e-01 -9.000000000000e+04 8.329609174312e-02 
1.467941000000e+05 4.048667612500e+05 7.000000000000e-01 -9.000000000000e+04 8.329609174312e-02 
1.467941000000e+05 4.048667612500e+05 7.500000000000e-01 -9.000000000000e+04 8.329609174312e-02 
1.467941000000e+05 4.048667612500e+05 8.000000000000e-01 -9.000000000000e+04 8.329609174312e-02 
1.467941000000e+05 4.048667612500e+05 8.500000000000e-01 -9.000000000000e+04 8.329609174312e-02 
1.467941000000e+05 4.048667612500e+05 9.000000000000e-01 -9.000000000000e+04 8.329609174312e-02 
1.467941000000e+05 4.048667612500e+05 9.500000000000e-01 -9.000000000000e+04 8.329609174312e-02 
1.467941000000e+05 4.048667612500e+05 1.000000000000e+00 -9.000000000000e+04 8.981318348624e-02 
1.467941000000e+05 4.048667612500e+05 1.050000000000e+00 -9.000000000000e+04 9.633027522936e-02 
1.467941000000e+05 4.048667612500e+05 1.100000000000e+00 -9.000000000000e+04 9.633027522936e-02 
1.467941000000e+05 4.048667612500e+05 1.150000000000e+00 -9.000000000000e+04 9.633027522936e-02 
1.467941000000e+05 4.048667612500e+05 1.200000000000e+00 -9.000000000000e+04 9.633027522936e-02 
1.467941000000e+05 4.048667612500e+05 1.250000000000e+00 -9.000000000000e+04 9.633027522936e-02 
1.467941000000e+05 4.048667612500e+05 1.300000000000e+00 -9.000000000000e+04 9.633027522936e-02 
1.467941000000e+05 4.048667612500e+05 1.350000000000e+00 -9.000000000000e+04 9.633027522936e-02 
1.467941000000e+05 4.048667612500e+05 1.400000000000e+00 -9.000000000000e+04 9.633027522936e-02 
1.467941000000e+05 4.048667612500e+05 1.450000000000e+00 -9.000000000000e+04 9.633027522936e-02 
1.467941000000e+05 4.048667612500e+05 1.500000000000e+00 -9.000000000000e+04 9.633027522936e-02 
1.467941000000e+05 4.048667612500e+05 1.550000000000e+00 -9.000000000000e+04 9.633027522936e-02 
1.467941000000e+05 4.048667612500e+05 1.600000000000e+00 -9.000000000000e+04 9.633027522936e-02 
1.467941000000e+05 4.048667612500e+05 1.650000000000e+00 -9.000000000000e+04 9.633027522936e-02 
1.467941000000e+05 4.048667612500e+05 1.700000000000e+00 -9.000000000000e+04 9.633027522936e-02 
1.467941000000e+05 4.048667612500e+05 1.750000000000e+00 -9.000000000000e+04 9.633027522936e-02 
1.467941000000e+05 4.048667612500e+05 1.800000000000e+00 -9.000000000000e+04 9.633027522936e-02 
1.467941000000e+05 4.048667612500e+05 1.850000000000e+00 -9.000000000000e+04 9.633027522936e-02 
1.467941000000e+05 4.048667612500e+05 1.900000000000e+00 -9.000000000000e+04 9.633027522936e-02 
1.467941000000e+05 4.048667612500e+05 1.950000000000e+00 -9.000000000000e+04 9.633027522936e-02 
1.467941000000e+05 4.048667612500e+05 2.000000000000e+00 -9.000000000000e+04 9.633027522936e-02 
1.474515050000e+05 4.048154750000e+05 0.000000000000e+00 -9.000000000000e+04 3.601056880734e-01 
1.474515050000e+05 4.048154750000e+05 5.000000000000e-02 -9.000000000000e+04 3.601056880734e-01 
1.474515050000e+05 4.048154750000e+05 1.000000000000e-01 -9.000000000000e+04 3.601056880734e-01 
1.474515050000e+05 4.048154750000e+05 1.500000000000e-01 -9.000000000000e+04 3.601056880734e-01 
1.474515050000e+05 4.048154750000e+05 2.000000000000e-01 -9.000000000000e+04 3.601056880734e-01 
1.474515050000e+05 4.048154750000e+05 2.500000000000e-01 -9.000000000000e+04 3.601056880734e-01 
1.474515050000e+05 4.048154750000e+05 3.000000000000e-01 -9.000000000000e+04 3.601056880734e-01 
1.474515050000e+05 4.048154750000e+05 3.500000000000e-01 -9.000000000000e+04 3.601056880734e-01 
1.474515050000e+05 4.048154750000e+05 4.000000000000e-01 -9.000000000000e+04 2.217008899083e-01 
1.474515050000e+05 4.048154750000e+05 4.500000000000e-01 -9.000000000000e+04 8.329609174312e-02 
1.474515050000e+05 4.048154750000e+05 5.000000000000e-01 -9.000000000000e+04 8.329609174312e-02 
1.474515050000e+05 4.048154750000e+05 5.500000000000e-01 -9.000000000000e+04 8.329609174312e-02 
1.474515050000e+05 4.048154750000e+05 6.000000000000e-01 -9.000000000000e+04 9.913826605505e-02 
1.474515050000e+05 4.048154750000e+05 6.500000000000e-01 -9.000000000000e+04 1.149804403670e-01 
1.474515050000e+05 4.048154750000e+05 7.000000000000e-01 -9.000000000000e+04 1.149804403670e-01 
1.474515050000e+05 4.048154750000e+05 7.500000000000e-01 -9.000000000000e+04 1.149804403670e-01 
1.474515050000e+05 4.048154750000e+05 8.000000000000e-01 -9.000000000000e+04 1.149804403670e-01 
1.474515050000e+05 4.048154750000e+05 8.500000000000e-01 -9.000000000000e+04 1.149804403670e-01 
1.474515050000e+05 4.048154750000e+05 9.000000000000e-01 -9.000000000000e+04 1.149804403670e-01 
1.474515050000e+05 4.048154750000e+05 9.500000000000e-01 -9.000000000000e+04 1.149804403670e-01 
1.474515050000e+05 4.048154750000e+05 1.000000000000e+00 -9.000000000000e+04 1.149804403670e-01 
1.474515050000e+05 4.048154750000e+05 1.050000000000e+00 -9.000000000000e+04 1.149804403670e-01 
1.474515050000e+05 4.048154750000e+05 1.100000000000e+00 -9.000000000000e+04 9.913826605505e-02 
1.474515050000e+05 4.048154750000e+05 1.150000000000e+00 -9.000000000000e+04 8.329609174312e-02 
1.474515050000e+05 4.048154750000e+05 1.200000000000e+00 -9.000000000000e+04 8.329609174312e-02 
1.474515050000e+05 4.048154750000e+05 1.250000000000e+00 -9.000000000000e+04 8.329609174312e-02 
1.474515050000e+05 4.048154750000e+05 1.300000000000e+00 -9.000000000000e+04 8.329609174312e-02 
1.474515050000e+05 4.048154750000e+05 1.350000000000e+00 -9.000000000000e+04 8.329609174312e-02 
1.474515050000e+05 4.048154750000e+05 1.400000000000e+00 -9.000000000000e+04 8.329609174312e-02 
1.474515050000e+05 4.048154750000e+05 1.450000000000e+00 -9.000000000000e+04 8.329609174312e-02 
1.474515050000e+05 4.048154750000e+05 1.500000000000e+00 -9.000000000000e+04 8.329609174312e-02 
1.474515050000e+05 4.048154750000e+05 1.550000000000e+00 -9.000000000000e+04 8.329609174312e-02 
1.474515050000e+05 4.048154750000e+05 1.600000000000e+00 -9.000000000000e+04 8.329609174312e-02 
1.474515050000e+05 4.048154750000e+05 1.650000000000e+00 -9.000000000000e+04 8.329609174312e-02 
1.474515050000e+05 4.048154750000e+05 1.700000000000e+00 -9.000000000000e+04 8.329609174312e-02 
1.474515050000e+05 4.048154750000e+05 1.750000000000e+00 -9.000000000000e+04 8.329609174312e-02 
1.474515050000e+05 4.048154750000e+05 1.800000000000e+00 -9.000000000000e+04 8.329609174312e-02 
1.474515050000e+05 4.048154750000e+05 1.850000000000e+00 -9.000000000000e+04 8.329609174312e-02 
1.474515050000e+05 4.048154750000e+05 1.900000000000e+00 -9.000000000000e+04 8.329609174312e-02 
1.474515050000e+05 4.048154750000e+05 1.950000000000e+00 -9.000000000000e+04 8.329609174312e-02 
1.474515050000e+05 4.048154750000e+05 2.000000000000e+00 -9.000000000000e+04 8.329609174312e-02 
2  1  1  2
3  2  2  3
4  3  3  4
5  4  4  5
6  5  5  6
7  6  6  7
8  7  7  8
9  8  8  9
10  9  9  10
11  10  10  11
12  11  11  12
13  12  12  13
14  13  13  14
15  14  14  15
16  15  15  16
17  16  16  17
18  17  17  18
19  18  18  19
20  19  19  20
21  20  20  21
22  21  21  22
23  22  22  23
24  23  23  24
25  24  24  25
26  25  25  26
27  26  26  27
28  27  27  28
29  28  28  29
30  29  29  30
31  30  30  31
32  31  31  32
33  32  32  33
34  33  33  34
35  34  34  35
36  35  35  36
37  36  36  37
38  37  37  38
39  38  38  39
40  39  39  40
41  40  40  41
43  42  42  43
44  43  43  44
45  44  44  45
46  45  45  46
47  46  46  47
48  47  47  48
49  48  48  49
50  49  49  50
51  50  50  51
52  51  51  52
53  52  52  53
54  53  53  54
55  54  54  55
56  55  55  56
57  56  56  57
58  57  57  58
59  58  58  59
60  59  59  60
61  60  60  61
62  61  61  62
63  62  62  63
64  63  63  64
65  64  64  65
66  65  65  66
67  66  66  67
68  67  67  68
69  68  68  69
70  69  69  70
71  70  70  71
72  71  71  72
73  72  72  73
74  73  73  74
75  74  74  75
76  75  75  76
77  76  76  77
78  77  77  78
79  78  78  79
80  79  79  80
81  80  80  81
82  81  81  82
84  83  83  84
85  84  84  85
86  85  85  86
87  86  86  87
88  87  87  88
89  88  88  89
90  89  89  90
91  90  90  91
92  91  91  92
93  92  92  93
94  93  93  94
95  94  94  95
96  95  95  96
97  96  96  97
98  97  97  98
99  98  98  99
100  99  99  100
101  100  100  101
102  101  101  102
103  102  102  103
104  103  103  104
105  104  104  105
106  105  105  106
107  106  106  107
108  107  107  108
109  108  108  109
110  109  109  110
111  110  110  111
112  111  111  112
113  112  112  113
114  113  113  114
115  114  114  115
116  115  115  116
117  116  116  117
118  117  117  118
119  118  118  119
120  119  119  120
121  120  120  121
122  121  121  122
123  122  122  123
125  124  124  125
126  125  125  126
127  126  126  127
128  127  127  128
129  128  128  129
130  129  129  130
131  130  130  131
132  131  131  132
133  132  132  133
134  133  133  134
135  134  134  135
136  135  135  136
137  136  136  137
138  137  137  138
139  138  138  139
140  139  139  140
141  140  140  141
142  141  141  142
143  142  142  143
144  143  143  144
145  144  144  145
146  145  145  146
147  146  146  147
148  147  147  148
149  148  148  149
150  149  149  150
151  150  150  151
152  151  151  152
153  152  152  153
154  153  153  154
155  154  154  155
156  155  155  156
157  156  156  157
158  157  157  158
159  158  158  159
160  159  159  160
161  160  160  161
162  161  161  162
163  162  162  163
164  163  163  164
166  165  165  166
167  166  166  167
168  167  167  168
169  168  168  169
170  169  169  170
171  170  170  171
172  171  171  172
173  172  172  173
174  173  173  174
175  174  174  175
176  175  175  176
177  176  176  177
178  177  177  178
179  178  178  179
180  179  179  180
181  180  180  181
182  181  181  182
183  182  182  183
184  183  183  184
185  184  184  185
186  185  185  186
187  186  186  187
188  187  187  188
189  188  188  189
190  189  189  190
191  190  190  191
192  191  191  192
193  192  192  193
194  193  193  194
195  194  194  195
196  195  195  196
197  196  196  197
198  197  197  198
199  198  198  199
200  199  199  200
201  200  200  201
202  201  201  202
203  202  202  203
204  203  203  204
205  204  204  205
VARIABLES  = "X","Y","Z", "PRESSURE1", "SATURATION1"
ZONE T="3.650000000000e+02s", N=205, E=200, F=FEPOINT, ET=QUADRILATERAL
STRANDID=1, SOLUTIONTIME=3.650000000000e+02
1.450053600000e+05 4.048208912500e+05 0.000000000000e+00 4.031441848891e+01 1.000000000000e+00 
1.450053600000e+05 4.048208912500e+05 5.000000000000e-02 -4.701506681750e+02 9.904351575815e-01 
1.450053600000e+05 4.048208912500e+05 1.000000000000e-01 -9.955814890443e+02 9.674304508130e-01 
1.450053600000e+05 4.048208912500e+05 1.500000000000e-01 -1.556054468603e+03 9.449390680348e-01 
1.450053600000e+05 4.048208912500e+05 2.000000000000e-01 -2.153044842593e+03 9.241137442328e-01 
1.450053600000e+05 4.048208912500e+05 2.500000000000e-01 -2.794674401480e+03 7.307084180922e-01 
1.450053600000e+05 4.048208912500e+05 3.000000000000e-01 -3.504550815618e+03 7.235109670752e-01 
1.450053600000e+05 4.048208912500e+05 3.500000000000e-01 -4.611046499249e+03 8.934313487486e-01 
1.450053600000e+05 4.048208912500e+05 4.000000000000e-01 -6.777462589487e+03 8.794212532228e-01 
1.450053600000e+05 4.048208912500e+05 4.500000000000e-01 -1.088072354781e+04 8.586378871325e-01 
1.450053600000e+05 4.048208912500e+05 5.000000000000e-01 -2.018783107831e+04 8.267955460237e-01 
1.450053600000e+05 4.048208912500e+05 5.500000000000e-01 -4.224652460333e+04 7.470170525302e-01 
1.450053600000e+05 4.048208912500e+05 6.000000000000e-01 -6.610357680440e+04 5.831622659244e-01 
1.450053600000e+05 4.048208912500e+05 6.500000000000e-01 -7.925986153302e+04 4.217475155566e-01 
1.450053600000e+05 4.048208912500e+05 7.000000000000e-01 -8.412179292696e+04 2.246795404915e-01 
1.450053600000e+05 4.048208912500e+05 7.500000000000e-01 -8.530280269753e+04 8.589822335184e-02 
1.450053600000e+05 4.048208912500e+05 8.000000000000e-01 -8.632081271868e+04 8.535714343612e-02 
1.450053600000e+05 4.048208912500e+05 8.500000000000e-01 -8.720046049198e+04 8.489021516046e-02 
1.450053600000e+05 4.048208912500e+05 9.000000000000e-01 -8.796374188451e+04 8.448596414920e-02 
1.450053600000e+05 4.048208912500e+05 9.500000000000e-01 -8.863011317703e+04 8.413419089220e-02 
1.450053600000e+05 4.048208912500e+05 1.000000000000e+00 -8.921662910105e+04 8.382591167066e-02 
1.450053600000e+05 4.048208912500e+05 1.050000000000e+00 -8.973811738485e+04 8.355328164448e-02 
1.450053600000e+05 4.048208912500e+05 1.100000000000e+00 -9.020738031010e+04 8.330950231029e-02 
1.450053600000e+05 4.048208912500e+05 1.150000000000e+00 -9.063541041666e+04 8.308871883219e-02 
1.450053600000e+05 4.048208912500e+05 1.200000000000e+00 -9.103160809071e+04 8.288591342782e-02 
1.450053600000e+05 4.048208912500e+05 1.250000000000e+00 -9.140399128341e+04 8.269680022740e-02 
1.450053600000e+05 4.048208912500e+05 1.300000000000e+00 -9.175939066915e+04 8.251772565167e-02 
1.450053600000e+05 4.048208912500e+05 1.350000000000e+00 -9.210362638840e+04 8.234557690382e-02 
1.450053600000e+05 4.048208912500e+05 1.400000000000e+00 -9.244166478881e+04 8.217769991401e-02 
1.450053600000e+05 4.048208912500e+05 1.450000000000e+00 -9.277775520485e+04 8.201182711716e-02 
1.450053600000e+05 4.048208912500e+05 1.500000000000e+00 -9.311554786634e+04 8.184601478560e-02 
1.450053600000e+05 4.048208912500e+05 1.550000000000e+00 -9.345819462210e+04 8.167858923358e-02 
1.450053600000e+05 4.048208912500e+05 1.600000000000e+00 -9.380843443008e+04 8.150810099835e-02 
1.450053600000e+05 4.048208912500e+05 1.650000000000e+00 -9.416866560952e+04 8.133328602695e-02 
1.450053600000e+05 4.048208912500e+05 1.700000000000e+00 -9.454100675513e+04 8.115303290991e-02 
1.450053600000e+05 4.048208912500e+05 1.750000000000e+00 -9.492734803599e+04 8.096635527066e-02 
1.450053600000e+05 4.048208912500e+05 1.800000000000e+00 -9.532939437891e+04 8.077236851773e-02 
1.450053600000e+05 4.048208912500e+05 1.850000000000e+00 -9.574870178518e+04 8.057027028329e-02 
1.450053600000e+05 4.048208912500e+05 1.900000000000e+00 -9.618670775386e+04 8.035932400150e-02 
1.450053600000e+05 4.048208912500e+05 1.950000000000e+00 -9.664475647180e+04 8.013884522448e-02 
1.450053600000e+05 4.048208912500e+05 2.000000000000e+00 -9.712411905014e+04 8.002614002617e-02 
1.455686362500e+05 4.048675100000e+05 0.000000000000e+00 -9.682737059360e+02 9.568264672543e-01 
1.455686362500e+05 4.048675100000e+05 5.000000000000e-02 -1.544626925068e+03 9.456631209925e-01 
1.455686362500e+05 4.048675100000e+05 1.000000000000e-01 -2.163913064236e+03 9.241808430288e-01 
1.455686362500e+05 4.048675100000e+05 1.500000000000e-01 -2.834401318078e+03 9.055836877205e-01 
1.455686362500e+05 4.048675100000e+05 2.000000000000e-01 -3.571778455642e+03 8.874956867696e-01 
1.455686362500e+05 4.048675100000e+05 2.500000000000e-01 -4.328405608042e+03 8.674571702613e-01 
1.455686362500e+05 4.048675100000e+05 3.000000000000e-01 -5.118365205155e+03 8.480295938206e-01 
1.455686362500e+05 4.048675100000e+05 3.500000000000e-01 -5.913741290869e+03 8.329311091556e-01 
1.455686362500e+05 4.048675100000e+05 4.000000000000e-01 -6.700697167027e+03 8.211942707045e-01 
1.455686362500e+05 4.048675100000e+05 4.500000000000e-01 -7.484301316122e+03 8.095447497833e-01 
1.455686362500e+05 4.048675100000e+05 5.000000000000e-01 -8.270455221896e+03 7.979011774221e-01 
1.455686362500e+05 4.048675100000e+05 5.500000000000e-01 -9.067413098413e+03 7.861585547067e-01 
1.455686362500e+05 4.048675100000e+05 6.000000000000e-01 -9.889303018760e+03 7.744029588557e-01 
1.455686362500e+05 4.048675100000e+05 6.500000000000e-01 -1.071018468502e+04 7.650794099161e-01 
1.455686362500e+05 4.048675100000e+05 7.000000000000e-01 -1.150424547375e+04 7.582344244647e-01 
1.455686362500e+05 4.048675100000e+05 7.500000000000e-01 -1.227351447878e+04 5.325295361702e-01 
1.455686362500e+05 4.048675100000e+05 8.000000000000e-01 -1.324957876282e+04 3.033284321303e-01 
1.455686362500e+05 4.048675100000e+05 8.500000000000e-01 -1.419695749992e+04 2.898063597298e-01 
1.455686362500e+05 4.048675100000e+05 9.000000000000e-01 -1.512705735696e+04 2.766074236547e-01 
1.455686362500e+05 4.048675100000e+05 9.500000000000e-01 -1.604897775373e+04 2.635874632587e-01 
1.455686362500e+05 4.048675100000e+05 1.000000000000e+00 -1.697087475880e+04 2.506251700549e-01 
1.455686362500e+05 4.048675100000e+05 1.050000000000e+00 -1.790109082694e+04 2.376045571256e-01 
1.455686362500e+05 4.048675100000e+05 1.100000000000e+00 -1.884950868234e+04 2.243974989238e-01 
1.455686362500e+05 4.048675100000e+05 1.150000000000e+00 -1.982984321678e+04 2.108381009218e-01 