VARIABLES  = "X","Y","Z", "PRESSURE1", "SorbFr", "ConsTracer"
ZONE T="0.000000000000e+00s", N=101, E=100, F=FEPOINT, ET=QUADRILATERAL
STRANDID=1, SOLUTIONTIME=0.000000000000e+00
0.000000000000e+00 0.000000000000e+00 0.000000000000e+00 0.000000000000e+00 0.000000000000e+00 0.000000000000e+00 
1.000000000000e+00 0.000000000000e+00 0.000000000000e+00 0.000000000000e+00 0.000000000000e+00 0.000000000000e+00 
2.000000000000e+00 0.000000000000e+00 0.000000000000e+00 0.000000000000e+00 0.000000000000e+00 0.000000000000e+00 
3.000000000000e+00 0.000000000000e+00 0.000000000000e+00 0.000000000000e+00 0.000000000000e+00 0.000000000000e+00 
4.000000000000e+00 0.000000000000e+00 0.000000000000e+00 0.000000000000e+00 0.000000000000e+00 0.000000000000e+00 
5.000000000000e+00 0.000000000000e+00 0.000000000000e+00 0.000000000000e+00 0.000000000000e+00 0.000000000000e+00 
6.000000000000e+00 0.000000000000e+00 0.000000000000e+00 0.000000000000e+00 0.000000000000e+00 0.000000000000e+00 
7.000000000000e+00 0.000000000000e+00 0.000000000000e+00 0.000000000000e+00 0.000000000000e+00 0.000000000000e+00 
8.000000000000e+00 0.000000000000e+00 0.000000000000e+00 0.000000000000e+00 0.000000000000e+00 0.000000000000e+00 
9.000000000000e+00 0.000000000000e+00 0.000000000000e+00 0.000000000000e+00 0.000000000000e+00 0.000000000000e+00 
1.000000000000e+01 0.000000000000e+00 0.000000000000e+00 0.000000000000e+00 0.000000000000e+00 0.000000000000e+00 
1.100000000000e+01 0.000000000000e+00 0.000000000000e+00 0.000000000000e+00 0.000000000000e+00 0.000000000000e+00 
1.200000000000e+01 0.000000000000e+00 0.000000000000e+00 0.000000000000e+00 0.000000000000e+00 0.000000000000e+00 
1.300000000000e+01 0.000000000000e+00 0.000000000000e+00 0.000000000000e+00 0.000000000000e+00 0.000000000000e+00 
1.400000000000e+01 0.000000000000e+00 0.000000000000e+00 0.000000000000e+00 0.000000000000e+00 0.000000000000e+00 
1.500000000000e+01 0.000000000000e+00 0.000000000000e+00 0.000000000000e+00 0.000000000000e+00 0.000000000000e+00 
1.600000000000e+01 0.000000000000e+00 0.000000000000e+00 0.000000000000e+00 0.000000000000e+00 0.000000000000e+00 
1.700000000000e+01 0.000000000000e+00 0.000000000000e+00 0.000000000000e+00 0.000000000000e+00 0.000000000000e+00 
1.800000000000e+01 0.000000000000e+00 0.000000000000e+00 0.000000000000e+00 0.000000000000e+00 0.000000000000e+00 
1.900000000000e+01 0.000000000000e+00 0.000000000000e+00 0.000000000000e+00 0.000000000000e+00 0.000000000000e+00 
2.000000000000e+01 0.000000000000e+00 0.000000000000e+00 0.000000000000e+00 0.000000000000e+00 0.000000000000e+00 
2.100000000000e+01 0.000000000000e+00 0.000000000000e+00 0.000000000000e+00 0.000000000000e+00 0.000000000000e+00 
2.200000000000e+01 0.000000000000e+00 0.000000000000e+00 0.000000000000e+00 0.000000000000e+00 0.000000000000e+00 
2.300000000000e+01 0.000000000000e+00 0.000000000000e+00 0.000000000000e+00 0.000000000000e+00 0.000000000000e+00 
2.400000000000e+01 0.000000000000e+00 0.000000000000e+00 0.000000000000e+00 0.000000000000e+00 0.000000000000e+00 
2.500000000000e+01 0.000000000000e+00 0.000000000000e+00 0.000000000000e+00 0.000000000000e+00 0.000000000000e+00 
2.600000000000e+01 0.000000000000e+00 0.000000000000e+00 0.000000000000e+00 0.000000000000e+00 0.000000000000e+00 
2.700000000000e+01 0.000000000000e+00 0.000000000000e+00 0.000000000000e+00 0.000000000000e+00 0.000000000000e+00 
2.800000000000e+01 0.000000000000e+00 0.000000000000e+00 0.000000000000e+00 0.000000000000e+00 0.000000000000e+00 
2.900000000000e+01 0.000000000000e+00 0.000000000000e+00 0.000000000000e+00 0.000000000000e+00 0.000000000000e+00 
3.000000000000e+01 0.000000000000e+00 0.000000000000e+00 0.000000000000e+00 0.000000000000e+00 0.000000000000e+00 
3.100000000000e+01 0.000000000000e+00 0.000000000000e+00 0.000000000000e+00 0.000000000000e+00 0.000000000000e+00 
3.200000000000e+01 0.000000000000e+00 0.000000000000e+00 0.000000000000e+00 0.000000000000e+00 0.000000000000e+00 
3.300000000000e+01 0.000000000000e+00 0.000000000000e+00 0.000000000000e+00 0.000000000000e+00 0.000000000000e+00 
3.400000000000e+01 0.000000000000e+00 0.000000000000e+00 0.000000000000e+00 0.000000000000e+00 0.000000000000e+00 
3.500000000000e+01 0.000000000000e+00 0.000000000000e+00 0.000000000000e+00 0.000000000000e+00 0.000000000000e+00 
3.600000000000e+01 0.000000000000e+00 0.000000000000e+00 0.000000000000e+00 0.000000000000e+00 0.000000000000e+00 
3.700000000000e+01 0.000000000000e+00 0.000000000000e+00 0.000000000000e+00 0.000000000000e+00 0.000000000000e+00 
3.800000000000e+01 0.000000000000e+00 0.000000000000e+00 0.000000000000e+00 0.000000000000e+00 0.000000000000e+00 
3.900000000000e+01 0.000000000000e+00 0.000000000000e+00 0.000000000000e+00 0.000000000000e+00 0.000000000000e+00 
4.000000000000e+01 0.000000000000e+00 0.000000000000e+00 0.000000000000e+00 0.000000000000e+00 0.000000000000e+00 
4.100000000000e+01 0.000000000000e+00 0.000000000000e+00 0.000000000000e+00 0.000000000000e+00 0.000000000000e+00 
4.200000000000e+01 0.000000000000e+00 0.000000000000e+00 0.000000000000e+00 0.000000000000e+00 0.000000000000e+00 
4.300000000000e+01 0.000000000000e+00 0.000000000000e+00 0.000000000000e+00 0.000000000000e+00 0.000000000000e+00 
4.400000000000e+01 0.000000000000e+00 0.000000000000e+00 0.000000000000e+00 0.000000000000e+00 0.000000000000e+00 
4.500000000000e+01 0.000000000000e+00 0.000000000000e+00 0.000000000000e+00 0.000000000000e+00 0.000000000000e+00 
4.600000000000e+01 0.000000000000e+00 0.000000000000e+00 0.000000000000e+00 0.000000000000e+00 0.000000000000e+00 
4.700000000000e+01 0.000000000000e+00 0.000000000000e+00 0.000000000000e+00 0.000000000000e+00 0.000000000000e+00 
4.800000000000e+01 0.000000000000e+00 0.000000000000e+00 0.000000000000e+00 0.000000000000e+00 0.000000000000e+00 
4.900000000000e+01 0.000000000000e+00 0.000000000000e+00 0.000000000000e+00 0.000000000000e+00 0.000000000000e+00 
5.000000000000e+01 0.000000000000e+00 0.000000000000e+00 0.000000000000e+00 0.000000000000e+00 0.000000000000e+00 
5.100000000000e+01 0.000000000000e+00 0.000000000000e+00 0.000000000000e+00 0.000000000000e+00 0.000000000000e+00 
5.200000000000e+01 0.000000000000e+00 0.000000000000e+00 0.000000000000e+00 0.000000000000e+00 0.000000000000e+00 
5.300000000000e+01 0.000000000000e+00 0.000000000000e+00 0.000000000000e+00 0.000000000000e+00 0.000000000000e+00 
5.400000000000e+01 0.000000000000e+00 0.000000000000e+00 0.000000000000e+00 0.000000000000e+00 0.000000000000e+00 
5.500000000000e+01 0.000000000000e+00 0.000000000000e+00 0.000000000000e+00 0.000000000000e+00 0.000000000000e+00 
5.600000000000e+01 0.000000000000e+00 0.000000000000e+00 0.000000000000e+00 0.000000000000e+00 0.000000000000e+00 
5.700000000000e+01 0.000000000000e+00 0.000000000000e+00 0.000000000000e+00 0.000000000000e+00 0.000000000000e+00 
5.800000000000e+01 0.000000000000e+00 0.000000000000e+00 0.000000000000e+00 0.000000000000e+00 0.000000000000e+00 
5.900000000000e+01 0.000000000000e+00 0.000000000000e+00 0.000000000000e+00 0.000000000000e+00 0.000000000000e+00 
6.000000000000e+01 0.000000000000e+00 0.000000000000e+00 0.000000000000e+00 0.000000000000e+00 0.000000000000e+00 
6.100000000000e+01 0.000000000000e+00 0.000000000000e+00 0.000000000000e+00 0.000000000000e+00 0.000000000000e+00 
6.200000000000e+01 0.000000000000e+00 0.000000000000e+00 0.000000000000e+00 0.000000000000e+00 0.000000000000e+00 
6.300000000000e+01 0.000000000000e+00 0.000000000000e+00 0.000000000000e+00 0.000000000000e+00 0.000000000000e+00 
6.400000000000e+01 0.000000000000e+00 0.000000000000e+00 0.000000000000e+00 0.000000000000e+00 0.000000000000e+00 
6.500000000000e+01 0.000000000000e+00 0.000000000000e+00 0.000000000000e+00 0.000000000000e+00 0.000000000000e+00 
6.600000000000e+01 0.000000000000e+00 0.000000000000e+00 0.000000000000e+00 0.000000000000e+00 0.000000000000e+00 
6.700000000000e+01 0.000000000000e+00 0.000000000000e+00 0.000000000000e+00 0.000000000000e+00 0.000000000000e+00 
6.800000000000e+01 0.000000000000e+00 0.000000000000e+00 0.000000000000e+00 0.000000000000e+00 0.000000000000e+00 
6.900000000000e+01 0.000000000000e+00 0.000000000000e+00 0.000000000000e+00 0.000000000000e+00 0.000000000000e+00 
7.000000000000e+01 0.000000000000e+00 0.000000000000e+00 0.000000000000e+00 0.000000000000e+00 0.000000000000e+00 
7.100000000000e+01 0.000000000000e+00 0.000000000000e+00 0.000000000000e+00 0.000000000000e+00 0.000000000000e+00 
7.200000000000e+01 0.000000000000e+00 0.000000000000e+00 0.000000000000e+00 0.000000000000e+00 0.000000000000e+00 
7.300000000000e+01 0.000000000000e+00 0.000000000000e+00 0.000000000000e+00 0.000000000000e+00 0.000000000000e+00 
7.400000000000e+01 0.000000000000e+00 0.000000000000e+00 0.000000000000e+00 0.000000000000e+00 0.000000000000e+00 
7.500000000000e+01 0.000000000000e+00 0.000000000000e+00 0.000000000000e+00 0.000000000000e+00 0.000000000000e+00 
7.600000000000e+01 0.000000000000e+00 0.000000000000e+00 0.000000000000e+00 0.000000000000e+00 0.000000000000e+00 
7.700000000000e+01 0.000000000000e+00 0.000000000000e+00 0.000000000000e+00 0.000000000000e+00 0.000000000000e+00 
7.800000000000e+01 0.000000000000e+00 0.000000000000e+00 0.000000000000e+00 0.000000000000e+00 0.000000000000e+00 
7.900000000000e+01 0.000000000000e+00 0.000000000000e+00 0.000000000000e+00 0.000000000000e+00 0.000000000000e+00 
8.000000000000e+01 0.000000000000e+00 0.000000000000e+00 0.000000000000e+00 0.000000000000e+00 0.000000000000e+00 
8.100000000000e+01 0.000000000000e+00 0.000000000000e+00 0.000000000000e+00 0.000000000000e+00 0.000000000000e+00 
8.200000000000e+01 0.000000000000e+00 0.000000000000e+00 0.000000000000e+00 0.000000000000e+00 0.000000000000e+00 
8.300000000000e+01 0.000000000000e+00 0.000000000000e+00 0.000000000000e+00 0.000000000000e+00 0.000000000000e+00 
8.400000000000e+01 0.000000000000e+00 0.000000000000e+00 0.000000000000e+00 0.000000000000e+00 0.000000000000e+00 
8.500000000000e+01 0.000000000000e+00 0.000000000000e+00 0.000000000000e+00 0.000000000000e+00 0.000000000000e+00 
8.600000000000e+01 0.000000000000e+00 0.000000000000e+00 0.000000000000e+00 0.000000000000e+00 0.000000000000e+00 
8.700000000000e+01 0.000000000000e+00 0.000000000000e+00 0.000000000000e+00 0.000000000000e+00 0.000000000000e+00 
8.800000000000e+01 0.000000000000e+00 0.000000000000e+00 0.000000000000e+00 0.000000000000e+00 0.000000000000e+00 
8.900000000000e+01 0.000000000000e+00 0.000000000000e+00 0.000000000000e+00 0.000000000000e+00 0.000000000000e+00 
9.000000000000e+01 0.000000000000e+00 0.000000000000e+00 0.000000000000e+00 0.000000000000e+00 0.000000000000e+00 
9.100000000000e+01 0.000000000000e+00 0.000000000000e+00 0.000000000000e+00 0.000000000000e+00 0.000000000000e+00 
9.200000000000e+01 0.000000000000e+00 0.000000000000e+00 0.000000000000e+00 0.000000000000e+00 0.000000000000e+00 
9.300000000000e+01 0.000000000000e+00 0.000000000000e+00 0.000000000000e+00 0.000000000000e+00 0.000000000000e+00 
9.400000000000e+01 0.000000000000e+00 0.000000000000e+00 0.000000000000e+00 0.000000000000e+00 0.000000000000e+00 
9.500000000000e+01 0.000000000000e+00 0.000000000000e+00 0.000000000000e+00 0.000000000000e+00 0.000000000000e+00 
9.600000000000e+01 0.000000000000e+00 0.000000000000e+00 0.000000000000e+00 0.000000000000e+00 0.000000000000e+00 
9.700000000000e+01 0.000000000000e+00 0.000000000000e+00 0.000000000000e+00 0.000000000000e+00 0.000000000000e+00 
9.800000000000e+01 0.000000000000e+00 0.000000000000e+00 0.000000000000e+00 0.000000000000e+00 0.000000000000e+00 
9.900000000000e+01 0.000000000000e+00 0.000000000000e+00 0.000000000000e+00 0.000000000000e+00 0.000000000000e+00 
1.000000000000e+02 0.000000000000e+00 0.000000000000e+00 0.000000000000e+00 0.000000000000e+00 0.000000000000e+00 
1  2  2  1
2  3  3  2
3  4  4  3
4  5  5  4
5  6  6  5
6  7  7  6
7  8  8  7
8  9  9  8
9  10  10  9
10  11  11  10
11  12  12  11
12  13  13  12
13  14  14  13
14  15  15  14
15  16  16  15
16  17  17  16
17  18  18  17
18  19  19  18
19  20  20  19
20  21  21  20
21  22  22  21
22  23  23  22
23  24  24  23
24  25  25  24
25  26  26  25
26  27  27  26
27  28  28  27
28  29  29  28
29  30  30  29
30  31  31  30
31  32  32  31
32  33  33  32
33  34  34  33
34  35  35  34
35  36  36  35
36  37  37  36
37  38  38  37
38  39  39  38
39  40  40  39
40  41  41  40
41  42  42  41
42  43  43  42
43  44  44  43
44  45  45  44
45  46  46  45
46  47  47  46
47  48  48  47
48  49  49  48
49  50  50  49
50  51  51  50
51  52  52  51
52  53  53  52
53  54  54  53
54  55  55  54
55  56  56  55
56  57  57  56
57  58  58  57
58  59  59  58
59  60  60  59
60  61  61  60
61  62  62  61
62  63  63  62
63  64  64  63
64  65  65  64
65  66  66  65
66  67  67  66
67  68  68  67
68  69  69  68
69  70  70  69
70  71  71  70
71  72  72  71
72  73  73  72
73  74  74  73
74  75  75  74
75  76  76  75
76  77  77  76
77  78  78  77
78  79  79  78
79  80  80  79
80  81  81  80
81  82  82  81
82  83  83  82
83  84  84  83
84  85  85  84
85  86  86  85
86  87  87  86
87  88  88  87
88  89  89  88
89  90  90  89
90  91  91  90
91  92  92  91
92  93  93  92
93  94  94  93
94  95  95  94
95  96  96  95
96  97  97  96
97  98  98  97
98  99  99  98
99  100  100  99
100  101  101  100
VARIABLES  = "X","Y","Z", "PRESSURE1", "SorbFr", "ConsTracer"
ZONE T="8.640000000000e+04s", N=101, E=100, F=FEPOINT, ET=QUADRILATERAL
STRANDID=1, SOLUTIONTIME=8.640000000000e+04
0.000000000000e+00 0.000000000000e+00 0.000000000000e+00 1.400000000000e+05 1.000000000000e+00 1.000000000000e+00 
1.000000000000e+00 0.000000000000e+00 0.000000000000e+00 1.388000000000e+05 5.119731939436e-02 4.478735292643e-01 
2.000000000000e+00 0.000000000000e+00 0.000000000000e+00 1.376000000000e+05 2.621165513165e-03 2.005906982156e-01 
3.000000000000e+00 0.000000000000e+00 0.000000000000e+00 1.364000000000e+05 1.341966479629e-04 8.983926394743e-02 
4.000000000000e+00 0.000000000000e+00 0.000000000000e+00 1.352000000000e+05 6.870508647399e-06 4.023662821064e-02 
5.000000000000e+00 0.000000000000e+00 0.000000000000e+00 1.340000000000e+05 3.517516256202e-07 1.802092068240e-02 
6.000000000000e+00 0.000000000000e+00 0.000000000000e+00 1.328000000000e+05 1.800874025301e-08 8.071093346615e-03 
7.000000000000e+00 0.000000000000e+00 0.000000000000e+00 1.316000000000e+05 9.219992162142e-10 3.614829062170e-03 
8.000000000000e+00 0.000000000000e+00 0.000000000000e+00 1.304000000000e+05 4.720363352863e-11 1.618986249761e-03 
9.000000000000e+00 0.000000000000e+00 0.000000000000e+00 1.292000000000e+05 2.416677045891e-12 7.251010855109e-04 
1.000000000000e+01 0.000000000000e+00 0.000000000000e+00 1.280000000000e+05 1.232735582649e-13 3.247535822411e-04 
1.100000000000e+01 0.000000000000e+00 0.000000000000e+00 1.268000000000e+05 6.292656606295e-15 1.454485330195e-04 
1.200000000000e+01 0.000000000000e+00 0.000000000000e+00 1.256000000000e+05 0.000000000000e+00 6.514254780976e-05 
1.300000000000e+01 0.000000000000e+00 0.000000000000e+00 1.244000000000e+05 0.000000000000e+00 2.917562279280e-05 
1.400000000000e+01 0.000000000000e+00 0.000000000000e+00 1.232000000000e+05 0.000000000000e+00 1.306698914865e-05 
1.500000000000e+01 0.000000000000e+00 0.000000000000e+00 1.220000000000e+05 0.000000000000e+00 5.852358546789e-06 
1.600000000000e+01 0.000000000000e+00 0.000000000000e+00 1.208000000000e+05 0.000000000000e+00 2.621116476721e-06 
1.700000000000e+01 0.000000000000e+00 0.000000000000e+00 1.196000000000e+05 0.000000000000e+00 1.173928686846e-06 
1.800000000000e+01 0.000000000000e+00 0.000000000000e+00 1.184000000000e+05 0.000000000000e+00 5.257715837000e-07 
1.900000000000e+01 0.000000000000e+00 0.000000000000e+00 1.172000000000e+05 0.000000000000e+00 2.354791743247e-07 
2.000000000000e+01 0.000000000000e+00 0.000000000000e+00 1.160000000000e+05 0.000000000000e+00 1.054648880375e-07 
2.100000000000e+01 0.000000000000e+00 0.000000000000e+00 1.148000000000e+05 0.000000000000e+00 4.723493071694e-08 
2.200000000000e+01 0.000000000000e+00 0.000000000000e+00 1.136000000000e+05 0.000000000000e+00 2.115527355490e-08 
2.300000000000e+01 0.000000000000e+00 0.000000000000e+00 1.124000000000e+05 0.000000000000e+00 9.474885486100e-09 
2.400000000000e+01 0.000000000000e+00 0.000000000000e+00 1.112000000000e+05 0.000000000000e+00 4.243547858048e-09 
2.500000000000e+01 0.000000000000e+00 0.000000000000e+00 1.100000000000e+05 0.000000000000e+00 1.900570476072e-09 
2.600000000000e+01 0.000000000000e+00 0.000000000000e+00 1.088000000000e+05 0.000000000000e+00 8.512116443057e-10 
2.700000000000e+01 0.000000000000e+00 0.000000000000e+00 1.076000000000e+05 0.000000000000e+00 3.812322554436e-10 
2.800000000000e+01 0.000000000000e+00 0.000000000000e+00 1.064000000000e+05 0.000000000000e+00 1.707395227663e-10 
2.900000000000e+01 0.000000000000e+00 0.000000000000e+00 1.052000000000e+05 0.000000000000e+00 7.646651217287e-11 
3.000000000000e+01 0.000000000000e+00 0.000000000000e+00 1.040000000000e+05 0.000000000000e+00 3.424281669037e-11 
3.100000000000e+01 0.000000000000e+00 0.000000000000e+00 1.028000000000e+05 0.000000000000e+00 1.533341896741e-11 
3.200000000000e+01 0.000000000000e+00 0.000000000000e+00 1.016000000000e+05 0.000000000000e+00 6.863369641051e-12 
3.300000000000e+01 0.000000000000e+00 0.000000000000e+00 1.004000000000e+05 0.000000000000e+00 3.071459187461e-12 
3.400000000000e+01 0.000000000000e+00 0.000000000000e+00 9.920000000002e+04 0.000000000000e+00 1.372486033342e-12 
3.500000000000e+01 0.000000000000e+00 0.000000000000e+00 9.800000000002e+04 0.000000000000e+00 6.129970944053e-13 
3.600000000000e+01 0.000000000000e+00 0.000000000000e+00 9.680000000002e+04 0.000000000000e+00 2.724783227965e-13 
3.700000000000e+01 0.000000000000e+00 0.000000000000e+00 9.560000000002e+04 0.000000000000e+00 1.210417745342e-13 
3.800000000000e+01 0.000000000000e+00 0.000000000000e+00 9.440000000003e+04 0.000000000000e+00 5.306260178309e-14 
3.900000000000e+01 0.000000000000e+00 0.000000000000e+00 9.320000000003e+04 0.000000000000e+00 2.328189658658e-14 
4.000000000000e+01 0.000000000000e+00 0.000000000000e+00 9.200000000003e+04 0.000000000000e+00 9.895213384542e-15 
4.100000000000e+01 0.000000000000e+00 0.000000000000e+00 9.080000000003e+04 0.000000000000e+00 4.239386695665e-15 
4.200000000000e+01 0.000000000000e+00 0.000000000000e+00 8.960000000003e+04 0.000000000000e+00 1.696975355448e-15 
4.300000000000e+01 0.000000000000e+00 0.000000000000e+00 8.840000000003e+04 0.000000000000e+00 6.989419632299e-16 
4.400000000000e+01 0.000000000000e+00 0.000000000000e+00 8.720000000003e+04 0.000000000000e+00 2.520427222304e-16 
4.500000000000e+01 0.000000000000e+00 0.000000000000e+00 8.600000000003e+04 0.000000000000e+00 9.799858098600e-17 
4.600000000000e+01 0.000000000000e+00 0.000000000000e+00 8.480000000003e+04 0.000000000000e+00 2.974121609619e-17 
4.700000000000e+01 0.000000000000e+00 0.000000000000e+00 8.360000000003e+04 0.000000000000e+00 1.070533038626e-17 
4.800000000000e+01 0.000000000000e+00 0.000000000000e+00 8.240000000003e+04 0.000000000000e+00 2.428984671236e-18 
4.900000000000e+01 0.000000000000e+00 0.000000000000e+00 8.120000000003e+04 0.000000000000e+00 7.928719398727e-19 
5.000000000000e+01 0.000000000000e+00 0.000000000000e+00 8.000000000003e+04 0.000000000000e+00 1.012967078723e-19 
5.100000000000e+01 0.000000000000e+00 0.000000000000e+00 7.880000000003e+04 0.000000000000e+00 2.931070911772e-20 
5.200000000000e+01 0.000000000000e+00 0.000000000000e+00 7.760000000003e+04 0.000000000000e+00 0.000000000000e+00 
5.300000000000e+01 0.000000000000e+00 0.000000000000e+00 7.640000000003e+04 0.000000000000e+00 0.000000000000e+00 
5.400000000000e+01 0.000000000000e+00 0.000000000000e+00 7.520000000003e+04 0.000000000000e+00 0.000000000000e+00 
5.500000000000e+01 0.000000000000e+00 0.000000000000e+00 7.400000000003e+04 0.000000000000e+00 0.000000000000e+00 
5.600000000000e+01 0.000000000000e+00 0.000000000000e+00 7.280000000003e+04 0.000000000000e+00 0.000000000000e+00 
5.700000000000e+01 0.000000000000e+00 0.000000000000e+00 7.160000000003e+04 0.000000000000e+00 0.000000000000e+00 
5.800000000000e+01 0.000000000000e+00 0.000000000000e+00 7.040000000003e+04 0.000000000000e+00 0.000000000000e+00 
5.900000000000e+01 0.000000000000e+00 0.000000000000e+00 6.920000000003e+04 0.000000000000e+00 0.000000000000e+00 
6.000000000000e+01 0.000000000000e+00 0.000000000000e+00 6.800000000003e+04 0.000000000000e+00 0.000000000000e+00 
6.100000000000e+01 0.000000000000e+00 0.000000000000e+00 6.680000000004e+04 0.000000000000e+00 0.000000000000e+00 
6.200000000000e+01 0.000000000000e+00 0.000000000000e+00 6.560000000003e+04 0.000000000000e+00 0.000000000000e+00 
6.300000000000e+01 0.000000000000e+00 0.000000000000e+00 6.440000000003e+04 0.000000000000e+00 0.000000000000e+00 
6.400000000000e+01 0.000000000000e+00 0.000000000000e+00 6.320000000003e+04 0.000000000000e+00 0.000000000000e+00 
6.500000000000e+01 0.000000000000e+00 0.000000000000e+00 6.200000000003e+04 0.000000000000e+00 0.000000000000e+00 
6.600000000000e+01 0.000000000000e+00 0.000000000000e+00 6.080000000003e+04 0.000000000000e+00 0.000000000000e+00 
6.700000000000e+01 0.000000000000e+00 0.000000000000e+00 5.960000000003e+04 0.000000000000e+00 0.000000000000e+00 
6.800000000000e+01 0.000000000000e+00 0.000000000000e+00 5.840000000003e+04 0.000000000000e+00 0.000000000000e+00 
6.900000000000e+01 0.000000000000e+00 0.000000000000e+00 5.720000000003e+04 0.000000000000e+00 0.000000000000e+00 
7.000000000000e+01 0.000000000000e+00 0.000000000000e+00 5.600000000003e+04 0.000000000000e+00 0.000000000000e+00 
7.100000000000e+01 0.000000000000e+00 0.000000000000e+00 5.480000000003e+04 0.000000000000e+00 0.000000000000e+00 
7.200000000000e+01 0.000000000000e+00 0.000000000000e+00 5.360000000003e+04 0.000000000000e+00 0.000000000000e+00 
7.300000000000e+01 0.000000000000e+00 0.000000000000e+00 5.240000000003e+04 0.000000000000e+00 0.000000000000e+00 
7.400000000000e+01 0.000000000000e+00 0.000000000000e+00 5.120000000003e+04 0.000000000000e+00 0.000000000000e+00 
7.500000000000e+01 0.000000000000e+00 0.000000000000e+00 5.000000000003e+04 0.000000000000e+00 0.000000000000e+00 
7.600000000000e+01 0.000000000000e+00 0.000000000000e+00 4.880000000003e+04 0.000000000000e+00 0.000000000000e+00 
7.700000000000e+01 0.000000000000e+00 0.000000000000e+00 4.760000000003e+04 0.000000000000e+00 0.000000000000e+00 
7.800000000000e+01 0.000000000000e+00 0.000000000000e+00 4.640000000003e+04 0.000000000000e+00 0.000000000000e+00 
7.900000000000e+01 0.000000000000e+00 0.000000000000e+00 4.520000000003e+04 0.000000000000e+00 0.000000000000e+00 
8.000000000000e+01 0.000000000000e+00 0.000000000000e+00 4.400000000003e+04 0.000000000000e+00 0.000000000000e+00 
8.100000000000e+01 0.000000000000e+00 0.000000000000e+00 4.280000000003e+04 0.000000000000e+00 0.000000000000e+00 
8.200000000000e+01 0.000000000000e+00 0.000000000000e+00 4.160000000002e+04 0.000000000000e+00 0.000000000000e+00 
8.300000000000e+01 0.000000000000e+00 0.000000000000e+00 4.040000000002e+04 0.000000000000e+00 0.000000000000e+00 
8.400000000000e+01 0.000000000000e+00 0.000000000000e+00 3.920000000002e+04 0.000000000000e+00 0.000000000000e+00 
8.500000000000e+01 0.000000000000e+00 0.000000000000e+00 3.800000000002e+04 0.000000000000e+00 0.000000000000e+00 
8.600000000000e+01 0.000000000000e+00 0.000000000000e+00 3.680000000002e+04 0.000000000000e+00 0.000000000000e+00 
8.700000000000e+01 0.000000000000e+00 0.000000000000e+00 3.560000000002e+04 0.000000000000e+00 0.000000000000e+00 
8.800000000000e+01 0.000000000000e+00 0.000000000000e+00 3.440000000002e+04 0.000000000000e+00 0.000000000000e+00 
8.900000000000e+01 0.000000000000e+00 0.000000000000e+00 3.320000000002e+04 0.000000000000e+00 0.000000000000e+00 
9.000000000000e+01 0.000000000000e+00 0.000000000000e+00 3.200000000001e+04 0.000000000000e+00 0.000000000000e+00 
9.100000000000e+01 0.000000000000e+00 0.000000000000e+00 3.080000000001e+04 0.000000000000e+00 0.000000000000e+00 
9.200000000000e+01 0.000000000000e+00 0.000000000000e+00 2.960000000001e+04 0.000000000000e+00 0.000000000000e+00 
9.300000000000e+01 0.000000000000e+00 0.000000000000e+00 2.840000000001e+04 0.000000000000e+00 0.000000000000e+00 
9.400000000000e+01 0.000000000000e+00 0.000000000000e+00 2.720000000001e+04 0.000000000000e+00 0.000000000000e+00 
9.500000000000e+01 0.000000000000e+00 0.000000000000e+00 2.600000000001e+04 0.000000000000e+00 0.000000000000e+00 
9.600000000000e+01 0.000000000000e+00 0.000000000000e+00 2.480000000001e+04 0.000000000000e+00 0.000000000000e+00 
9.700000000000e+01 0.000000000000e+00 0.000000000000e+00 2.360000000000e+04 0.000000000000e+00 0.000000000000e+00 
9.800000000000e+01 0.000000000000e+00 0.000000000000e+00 2.240000000000e+04 0.000000000000e+00 0.000000000000e+00 
9.900000000000e+01 0.000000000000e+00 0.000000000000e+00 2.120000000000e+04 0.000000000000e+00 0.000000000000e+00 
1.000000000000e+02 0.000000000000e+00 0.000000000000e+00 2.000000000000e+04 0.000000000000e+00 0.000000000000e+00 
1  2  2  1
2  3  3  2
3  4  4  3
4  5  5  4
5  6  6  5
6  7  7  6
7  8  8  7
8  9  9  8
9  10  10  9
10  11  11  10
11  12  12  11
12  13  13  12
13  14  14  13
14  15  15  14
15  16  16  15
16  17  17  16
17  18  18  17
18  19  19  18
19  20  20  19
20  21  21  20
21  22  22  21
22  23  23  22
23  24  24  23
24  25  25  24
25  26  26  25
26  27  27  26
27  28  28  27
28  29  29  28
29  30  30  29
30  31  31  30
31  32  32  31
32  33  33  32
33  34  34  33
34  35  35  34
35  36  36  35
36  37  37  36
37  38  38  37
38  39  39  38
39  40  40  39
40  41  41  40
41  42  42  41
42  43  43  42
43  44  44  43
44  45  45  44
45  46  46  45
46  47  47  46
47  48  48  47
48  49  49  48
49  50  50  49
50  51  51  50
51  52  52  51
52  53  53  52
53  54  54  53
54  55  55  54
55  56  56  55
56  57  57  56
57  58  58  57
58  59  59  58
59  60  60  59
60  61  61  60
61  62  62  61
62  63  63  62
63  64  64  63
64  65  65  64
65  66  66  65
66  67  67  66
67  68  68  67
68  69  69  68
69  70  70  69
70  71  71  70
71  72  72  71
72  73  73  72
73  74  74  73
74  75  75  74
75  76  76  75
76  77  77  76
77  78  78  77
78  79  79  78
79  80  80  79
80  81  81  80
81  82  82  81
82  83  83  82
83  84  84  83
84  85  85  84
85  86  86  85
86  87  87  86
87  88  88  87
88  89  89  88
89  90  90  89
90  91  91  90
91  92  92  91
92  93  93  92
93  94  94  93
94  95  95  94
95  96  96  95
96  97  97  96
97  98  98  97
98  99  99  98
99  100  100  99
100  101  101  100
VARIABLES  = "X","Y","Z", "PRESSURE1", "SorbFr", "ConsTracer"
ZONE T="1.728000000000e+05s", N=101, E=100, F=FEPOINT, ET=QUADRILATERAL
STRANDID=1, SOLUTIONTIME=1.728000000000e+05
0.000000000000e+00 0.000000000000e+00 0.000000000000e+00 1.400000000000e+05 1.000000000000e+00 1.000000000000e+00 
1.000000000000e+00 0.000000000000e+00 0.000000000000e+00 1.388000000000e+05 4.281580100195e-01 8.699195393207e-01 
2.000000000000e+00 0.000000000000e+00 0.000000000000e+00 1.376000000000e+05 4.121991926725e-02 5.786371702874e-01 
3.000000000000e+00 0.000000000000e+00 0.000000000000e+00 1.364000000000e+05 3.098425734220e-03 3.438147754564e-01 
4.000000000000e+00 0.000000000000e+00 0.000000000000e+00 1.352000000000e+05 2.092179530301e-04 1.919018397923e-01 
5.000000000000e+00 0.000000000000e+00 0.000000000000e+00 1.340000000000e+05 1.330131004896e-05 1.029294626545e-01 
6.000000000000e+00 0.000000000000e+00 0.000000000000e+00 1.328000000000e+05 8.135879542026e-07 5.370503937590e-02 
7.000000000000e+00 0.000000000000e+00 0.000000000000e+00 1.316000000000e+05 4.844210942113e-08 2.745943826829e-02 
8.000000000000e+00 0.000000000000e+00 0.000000000000e+00 1.304000000000e+05 2.827661878118e-09 1.382397971156e-02 
9.000000000000e+00 0.000000000000e+00 0.000000000000e+00 1.292000000000e+05 1.625623945817e-10 6.874681268942e-03 
1.000000000000e+01 0.000000000000e+00 0.000000000000e+00 1.280000000000e+05 9.230482116821e-12 3.385013782515e-03 
1.100000000000e+01 0.000000000000e+00 0.000000000000e+00 1.268000000000e+05 5.187625251066e-13 1.653119023020e-03 
1.200000000000e+01 0.000000000000e+00 0.000000000000e+00 1.256000000000e+05 2.645676543548e-14 8.017742241632e-04 
1.300000000000e+01 0.000000000000e+00 0.000000000000e+00 1.244000000000e+05 1.232261566266e-15 3.865866038371e-04 
1.400000000000e+01 0.000000000000e+00 0.000000000000e+00 1.232000000000e+05 5.682941682159e-17 1.854553618173e-04 
1.500000000000e+01 0.000000000000e+00 0.000000000000e+00 1.220000000000e+05 2.589066087318e-18 8.857541805165e-05 
1.600000000000e+01 0.000000000000e+00 0.000000000000e+00 1.208000000000e+05 1.161471793090e-19 4.214054966275e-05 
1.700000000000e+01 0.000000000000e+00 0.000000000000e+00 1.196000000000e+05 5.106477727066e-21 1.997986845322e-05 
1.800000000000e+01 0.000000000000e+00 0.000000000000e+00 1.184000000000e+05 2.184349670880e-22 9.443906116270e-06 
1.900000000000e+01 0.000000000000e+00 0.000000000000e+00 1.172000000000e+05 8.981640112449e-24 4.451575360843e-06 
2.000000000000e+01 0.000000000000e+00 0.000000000000e+00 1.160000000000e+05 3.471229489533e-25 2.093125812593e-06 
2.100000000000e+01 0.000000000000e+00 0.000000000000e+00 1.148000000000e+05 1.199671723474e-26 9.819666789042e-07 
2.200000000000e+01 0.000000000000e+00 0.000000000000e+00 1.136000000000e+05 3.216690038617e-28 4.597321942232e-07 
2.300000000000e+01 0.000000000000e+00 0.000000000000e+00 1.124000000000e+05 0.000000000000e+00 2.148303770953e-07 
2.400000000000e+01 0.000000000000e+00 0.000000000000e+00 1.112000000000e+05 0.000000000000e+00 1.002156736564e-07 
2.500000000000e+01 0.000000000000e+00 0.000000000000e+00 1.100000000000e+05 0.000000000000e+00 4.667491676308e-08 
2.600000000000e+01 0.000000000000e+00 0.000000000000e+00 1.088000000000e+05 0.000000000000e+00 2.170658339507e-08 
2.700000000000e+01 0.000000000000e+00 0.000000000000e+00 1.076000000000e+05 0.000000000000e+00 1.008105039543e-08 