 TITLE = "Time curves in points"
 VARIABLES = "TIME"  "PRESSURE1"  "PRESSURE2"  "PRESSURE_W"  "SATURATION1" SATURATION2  "VELOCITY_X1"  "VELOCITY_Y1"  "VELOCITY_X2"  "VELOCITY_Y2" 
 ZONE T="POINT=POINT0"
0.000000000000e+00 5.000000000000e+04 0.000000000000e+00 -5.000000000000e+04 1.000000000000e-02 9.900000000000e-01 0.000000000000e+00 0.000000000000e+00 0.000000000000e+00 0.000000000000e+00 
2.330219757369e+00 5.000000000000e+03 2.000000000000e+05 1.950000000000e+05 3.009053808222e-01 6.990946191778e-01 9.969764602328e-05 0.000000000000e+00 -8.303699577298e-03 0.000000000000e+00 
2.986053936544e+00 5.000000000000e+03 2.000000000000e+05 1.950000000000e+05 4.831995864729e-01 5.168004135271e-01 2.314848540194e-04 0.000000000000e+00 -3.567171677525e-03 0.000000000000e+00 
3.886474432898e+00 5.000000000000e+03 2.000000000000e+05 1.950000000000e+05 5.398619683720e-01 4.601380316280e-01 2.064012057519e-04 0.000000000000e+00 -2.346871405679e-03 0.000000000000e+00 
5.058991241514e+00 5.000000000000e+03 2.000000000000e+05 1.950000000000e+05 5.615626078151e-01 4.384373921849e-01 1.905733144067e-04 0.000000000000e+00 -1.956488332628e-03 0.000000000000e+00 
6.645906564672e+00 5.000000000000e+03 2.000000000000e+05 1.950000000000e+05 5.891056475318e-01 4.108943524682e-01 1.674735965068e-04 0.000000000000e+00 -1.524663927316e-03 0.000000000000e+00 
8.926303009274e+00 5.000000000000e+03 2.000000000000e+05 1.950000000000e+05 6.045381416695e-01 3.954618583305e-01 1.536533563049e-04 0.000000000000e+00 -1.313247189410e-03 0.000000000000e+00 
1.006654773863e+01 5.000000000000e+03 2.000000000000e+05 1.950000000000e+05 6.121909606563e-01 3.878090393437e-01 1.466847295726e-04 0.000000000000e+00 -1.216293719588e-03 0.000000000000e+00 
1.181206135630e+01 5.000000000000e+03 2.000000000000e+05 1.950000000000e+05 6.235432974147e-01 3.764567025853e-01 1.362983276538e-04 0.000000000000e+00 -1.081822646124e-03 0.000000000000e+00 
1.440525137080e+01 5.000000000000e+03 2.000000000000e+05 1.950000000000e+05 6.332513660439e-01 3.667486339561e-01 1.274377376298e-04 0.000000000000e+00 -9.754362437774e-04 0.000000000000e+00 
1.811229348969e+01 5.000000000000e+03 2.000000000000e+05 1.950000000000e+05 6.438872046179e-01 3.561127953821e-01 1.178269333432e-04 0.000000000000e+00 -8.676667889244e-04 0.000000000000e+00 
2.321269790963e+01 5.000000000000e+03 2.000000000000e+05 1.950000000000e+05 6.539413491860e-01 3.460586508140e-01 1.088970018512e-04 0.000000000000e+00 -7.739122302254e-04 0.000000000000e+00 
2.610600787503e+01 5.000000000000e+03 2.000000000000e+05 1.950000000000e+05 6.595565220508e-01 3.404434779492e-01 1.039962897305e-04 0.000000000000e+00 -7.248610793926e-04 0.000000000000e+00 
3.013818185038e+01 5.000000000000e+03 2.000000000000e+05 1.950000000000e+05 6.661291743595e-01 3.338708256405e-01 9.835351083885e-05 0.000000000000e+00 -6.703601551812e-04 0.000000000000e+00 
3.568400098032e+01 5.000000000000e+03 2.000000000000e+05 1.950000000000e+05 6.734482741017e-01 3.265517258983e-01 9.220367784785e-05 0.000000000000e+00 -6.132551175328e-04 0.000000000000e+00 
4.341276220589e+01 5.000000000000e+03 2.000000000000e+05 1.950000000000e+05 6.810164245896e-01 3.189835754104e-01 8.600953945060e-05 0.000000000000e+00 -5.580394694808e-04 0.000000000000e+00 
5.323108222473e+01 5.000000000000e+03 2.000000000000e+05 1.950000000000e+05 6.883902376471e-01 3.116097623529e-01 8.015106596641e-05 0.000000000000e+00 -5.078449472626e-04 0.000000000000e+00 
5.627555317734e+01 5.000000000000e+03 2.000000000000e+05 1.950000000000e+05 6.906704651348e-01 3.093295348652e-01 7.837685750168e-05 0.000000000000e+00 -4.930205413197e-04 0.000000000000e+00 
6.122116997864e+01 5.000000000000e+03 2.000000000000e+05 1.950000000000e+05 6.942591514772e-01 3.057408485228e-01 7.562176358942e-05 0.000000000000e+00 -4.703400998576e-04 0.000000000000e+00 
6.763418635351e+01 5.000000000000e+03 2.000000000000e+05 1.950000000000e+05 6.984380213728e-01 3.015619786272e-01 7.247248726590e-05 0.000000000000e+00 -4.449129401533e-04 0.000000000000e+00 
7.589398726237e+01 5.000000000000e+03 2.000000000000e+05 1.950000000000e+05 7.030406484843e-01 2.969593515157e-01 6.907940129253e-05 0.000000000000e+00 -4.181017640842e-04 0.000000000000e+00 
8.607432927810e+01 5.000000000000e+03 2.000000000000e+05 1.950000000000e+05 7.077637917973e-01 2.922362082027e-01 6.568216093129e-05 0.000000000000e+00 -3.918546966839e-04 0.000000000000e+00 
9.872129586539e+01 5.000000000000e+03 2.000000000000e+05 1.950000000000e+05 7.125764893735e-01 2.874235106265e-01 6.231105459464e-05 0.000000000000e+00 -3.663905071402e-04 0.000000000000e+00 
1.139272987404e+02 5.000000000000e+03 2.000000000000e+05 1.950000000000e+05 7.173643889466e-01 2.826356110534e-01 5.905006839518e-05 0.000000000000e+00 -3.423010257826e-04 0.000000000000e+00 
1.323540183911e+02 5.000000000000e+03 2.000000000000e+05 1.950000000000e+05 7.222137681652e-01 2.777862318348e-01 5.587251909150e-05 0.000000000000e+00 -3.191227528531e-04 0.000000000000e+00 
1.419170034462e+02 5.000000000000e+03 2.000000000000e+05 1.950000000000e+05 7.246040438072e-01 2.753959561928e-01 5.429881735271e-05 0.000000000000e+00 -3.081449792179e-04 0.000000000000e+00 
1.540188599451e+02 5.000000000000e+03 2.000000000000e+05 1.950000000000e+05 7.274612446988e-01 2.725387553012e-01 5.248414700653e-05 0.000000000000e+00 -2.953915210936e-04 0.000000000000e+00 
1.701083729290e+02 5.000000000000e+03 2.000000000000e+05 1.950000000000e+05 7.308861840424e-01 2.691138159576e-01 5.035451980167e-05 0.000000000000e+00 -2.806288417925e-04 0.000000000000e+00 
1.767723032462e+02 5.000000000000e+03 2.000000000000e+05 1.950000000000e+05 7.322675053710e-01 2.677324946290e-01 4.950977122755e-05 0.000000000000e+00 -2.748339033303e-04 0.000000000000e+00 
1.871085919905e+02 5.000000000000e+03 2.000000000000e+05 1.950000000000e+05 7.343063317881e-01 2.656936682119e-01 4.827785627888e-05 0.000000000000e+00 -2.664448840467e-04 0.000000000000e+00 
2.001946631908e+02 5.000000000000e+03 2.000000000000e+05 1.950000000000e+05 7.367087647091e-01 2.632912352909e-01 4.684916132516e-05 0.000000000000e+00 -2.568075934188e-04 0.000000000000e+00 
2.166189596876e+02 5.000000000000e+03 2.000000000000e+05 1.950000000000e+05 7.394305468478e-01 2.605694531522e-01 4.526061134398e-05 0.000000000000e+00 -2.462075059683e-04 0.000000000000e+00 
2.239208132716e+02 5.000000000000e+03 2.000000000000e+05 1.950000000000e+05 7.405995466533e-01 2.594004533467e-01 4.458815828793e-05 0.000000000000e+00 -2.417569574127e-04 0.000000000000e+00 
2.345415970468e+02 5.000000000000e+03 2.000000000000e+05 1.950000000000e+05 7.422149139179e-01 2.577850860821e-01 4.366867062673e-05 0.000000000000e+00 -2.357066583488e-04 0.000000000000e+00 
2.486449878921e+02 5.000000000000e+03 2.000000000000e+05 1.950000000000e+05 7.442209321005e-01 2.557790678995e-01 4.254255823686e-05 0.000000000000e+00 -2.283521589338e-04 0.000000000000e+00 
2.662517420384e+02 5.000000000000e+03 2.000000000000e+05 1.950000000000e+05 7.465153382039e-01 2.534846617961e-01 4.127595456429e-05 0.000000000000e+00 -2.201530176677e-04 0.000000000000e+00 
2.877389025899e+02 5.000000000000e+03 2.000000000000e+05 1.950000000000e+05 7.490263028916e-01 2.509736971084e-01 3.991598936537e-05 0.000000000000e+00 -2.114354752256e-04 0.000000000000e+00 
2.960159747499e+02 5.000000000000e+03 2.000000000000e+05 1.950000000000e+05 7.499633369159e-01 2.500366630841e-01 3.941549598364e-05 0.000000000000e+00 -2.082496721113e-04 0.000000000000e+00 
3.085631097342e+02 5.000000000000e+03 2.000000000000e+05 1.950000000000e+05 7.513188749498e-01 2.486811250502e-01 3.869821560581e-05 0.000000000000e+00 -2.037049967544e-04 0.000000000000e+00 
3.267580750591e+02 5.000000000000e+03 2.000000000000e+05 1.950000000000e+05 7.531619545932e-01 2.468380454068e-01 3.773574623595e-05 0.000000000000e+00 -1.976458115876e-04 0.000000000000e+00 
3.448652069634e+02 5.000000000000e+03 2.000000000000e+05 1.950000000000e+05 7.548875930620e-01 2.451124069380e-01 3.684796155249e-05 0.000000000000e+00 -1.920964789383e-04 0.000000000000e+00 
3.626355279742e+02 5.000000000000e+03 2.000000000000e+05 1.950000000000e+05 7.564852551342e-01 2.435147448658e-01 3.603752324551e-05 0.000000000000e+00 -1.870639094583e-04 0.000000000000e+00 
3.772610823054e+02 5.000000000000e+03 2.000000000000e+05 1.950000000000e+05 7.577434436124e-01 2.422565563876e-01 3.540706588509e-05 0.000000000000e+00 -1.831709834318e-04 0.000000000000e+00 
3.924152649978e+02 5.000000000000e+03 2.000000000000e+05 1.950000000000e+05 7.589915122394e-01 2.410084877606e-01 3.478844361310e-05 0.000000000000e+00 -1.793698912130e-04 0.000000000000e+00 
4.041970421720e+02 5.000000000000e+03 2.000000000000e+05 1.950000000000e+05 7.599328073296e-01 2.400671926704e-01 3.432632954702e-05 0.000000000000e+00 -1.765425966285e-04 0.000000000000e+00 
4.177217125808e+02 5.000000000000e+03 2.000000000000e+05 1.950000000000e+05 7.609773455555e-01 2.390226544445e-01 3.381800521319e-05 0.000000000000e+00 -1.734445933133e-04 0.000000000000e+00 
4.291451454891e+02 5.000000000000e+03 2.000000000000e+05 1.950000000000e+05 7.618366032052e-01 2.381633967948e-01 3.340337385013e-05 0.000000000000e+00 -1.709269357963e-04 0.000000000000e+00 
4.645725727446e+02 5.000000000000e+03 2.000000000000e+05 1.950000000000e+05 7.642270535408e-01 2.357729464592e-01 3.226840000385e-05 0.000000000000e+00 -1.640673046045e-04 0.000000000000e+00 
4.822862863723e+02 5.000000000000e+03 2.000000000000e+05 1.950000000000e+05 7.653671398217e-01 2.346328601783e-01 3.173305724302e-05 0.000000000000e+00 -1.608698832627e-04 0.000000000000e+00 
5.000000000000e+02 5.000000000000e+03 2.000000000000e+05 1.950000000000e+05 7.664572987744e-01 2.335427012256e-01 3.122810137399e-05 0.000000000000e+00 -1.578564786514e-04 0.000000000000e+00 
5.251847532520e+02 5.000000000000e+03 2.000000000000e+05 1.950000000000e+05 7.679146607239e-01 2.320853392761e-01 3.056099794572e-05 0.000000000000e+00 -1.538946938882e-04 0.000000000000e+00 
5.366112205695e+02 5.000000000000e+03 2.000000000000e+05 1.950000000000e+05 7.685610357100e-01 2.314389642900e-01 3.026802407261e-05 0.000000000000e+00 -1.521617289577e-04 0.000000000000e+00 
5.545062735889e+02 5.000000000000e+03 2.000000000000e+05 1.950000000000e+05 7.695378219389e-01 2.304621780611e-01 2.982866562828e-05 0.000000000000e+00 -1.495708569735e-04 0.000000000000e+00 
5.785986334189e+02 5.000000000000e+03 2.000000000000e+05 1.950000000000e+05 7.707931007416e-01 2.292068992584e-01 2.926999934010e-05 0.000000000000e+00 -1.462902638242e-04 0.000000000000e+00 
6.085070560599e+02 5.000000000000e+03 2.000000000000e+05 1.950000000000e+05 7.722622241555e-01 2.277377758445e-01 2.862465069676e-05 0.000000000000e+00 -1.425199889385e-04 0.000000000000e+00 
6.455156489701e+02 5.000000000000e+03 2.000000000000e+05 1.950000000000e+05 7.739466905635e-01 2.260533094365e-01 2.789501745726e-05 0.000000000000e+00 -1.382877529990e-04 0.000000000000e+00 
6.795288045245e+02 5.000000000000e+03 2.000000000000e+05 1.950000000000e+05 7.753960286353e-01 2.246039713647e-01 2.727851851402e-05 0.000000000000e+00 -1.347226171888e-04 0.000000000000e+00 
6.893469923785e+02 5.000000000000e+03 2.000000000000e+05 1.950000000000e+05 7.758078619585e-01 2.241921380415e-01 2.710468740380e-05 0.000000000000e+00 -1.337223501118e-04 0.000000000000e+00 
7.067086470462e+02 5.000000000000e+03 2.000000000000e+05 1.950000000000e+05 7.765149703375e-01 2.234850296625e-01 2.680788219496e-05 0.000000000000e+00 -1.320179855125e-04 0.000000000000e+00 
7.288303799802e+02 5.000000000000e+03 2.000000000000e+05 1.950000000000e+05 7.773858646956e-01 2.226141353044e-01 2.644520473326e-05 0.000000000000e+00 -1.299414091420e-04 0.000000000000e+00 
7.568220040282e+02 5.000000000000e+03 2.000000000000e+05 1.950000000000e+05 7.784452114029e-01 2.215547885971e-01 2.600831984602e-05 0.000000000000e+00 -1.274487912251e-04 0.000000000000e+00 
7.701087824043e+02 5.000000000000e+03 2.000000000000e+05 1.950000000000e+05 7.789403200714e-01 2.210596799286e-01 2.580573573625e-05 0.000000000000e+00 -1.262962557765e-04 0.000000000000e+00 
7.903467865335e+02 5.000000000000e+03 2.000000000000e+05 1.950000000000e+05 7.796760158351e-01 2.203239841649e-01 2.550659485784e-05 0.000000000000e+00 -1.245982088173e-04 0.000000000000e+00 
8.165085788947e+02 5.000000000000e+03 2.000000000000e+05 1.950000000000e+05 7.805968748104e-01 2.194031251896e-01 2.513532950329e-05 0.000000000000e+00 -1.224971186057e-04 0.000000000000e+00 
8.380645040906e+02 5.000000000000e+03 2.000000000000e+05 1.950000000000e+05 7.813366380109e-01 2.186633619891e-01 2.483962187258e-05 0.000000000000e+00 -1.208286751852e-04 0.000000000000e+00 
8.601736079704e+02 5.000000000000e+03 2.000000000000e+05 1.950000000000e+05 7.820757025139e-01 2.179242974861e-01 2.454645263709e-05 0.000000000000e+00 -1.191789806777e-04 0.000000000000e+00 
8.786142345296e+02 5.000000000000e+03 2.000000000000e+05 1.950000000000e+05 7.826791387608e-01 2.173208612392e-01 2.430875289353e-05 0.000000000000e+00 -1.178446737915e-04 0.000000000000e+00 
8.960356301303e+02 5.000000000000e+03 2.000000000000e+05 1.950000000000e+05 7.832379389069e-01 2.167620610931e-01 2.408997277666e-05 0.000000000000e+00 -1.166191436414e-04 0.000000000000e+00 
9.200728694165e+02 5.000000000000e+03 2.000000000000e+05 1.950000000000e+05 7.839873455099e-01 2.160126544901e-01 2.379858019067e-05 0.000000000000e+00 -1.149907080235e-04 0.000000000000e+00 
9.416492507956e+02 5.000000000000e+03 2.000000000000e+05 1.950000000000e+05 7.846437061529e-01 2.153562938471e-01 2.354525786000e-05 0.000000000000e+00 -1.135786026305e-04 0.000000000000e+00 
9.579407585874e+02 5.000000000000e+03 2.000000000000e+05 1.950000000000e+05 7.851305691051e-01 2.148694308949e-01 2.335849166548e-05 0.000000000000e+00 -1.125396387842e-04 0.000000000000e+00 
9.735392282682e+02 5.000000000000e+03 2.000000000000e+05 1.950000000000e+05 7.855889026608e-01 2.144110973392e-01 2.318355427370e-05 0.000000000000e+00 -1.115681243945e-04 0.000000000000e+00 
1.000000000000e+03 5.000000000000e+03 2.000000000000e+05 1.950000000000e+05 7.863434515503e-01 2.136565484497e-01 2.289742168365e-05 0.000000000000e+00 -1.099825320456e-04 0.000000000000e+00 
1.034226045374e+03 5.000000000000e+03 2.000000000000e+05 1.950000000000e+05 7.872818290861e-01 2.127181709139e-01 2.254480942963e-05 0.000000000000e+00 -1.080344364129e-04 0.000000000000e+00 
1.076873712202e+03 5.000000000000e+03 2.000000000000e+05 1.950000000000e+05 7.883933785809e-01 2.116066214191e-01 2.213174321520e-05 0.000000000000e+00 -1.057606488317e-04 0.000000000000e+00 
1.129648472209e+03 5.000000000000e+03 2.000000000000e+05 1.950000000000e+05 7.896822250136e-01 2.103177749864e-01 2.165898827734e-05 0.000000000000e+00 -1.031696078223e-04 0.000000000000e+00 
1.157134567411e+03 5.000000000000e+03 2.000000000000e+05 1.950000000000e+05 7.903332109778e-01 2.096667890222e-01 2.142281426513e-05 0.000000000000e+00 -1.018792492811e-04 0.000000000000e+00 
1.193160168303e+03 5.000000000000e+03 2.000000000000e+05 1.950000000000e+05 7.911520456577e-01 2.088479543423e-01 2.112809788598e-05 0.000000000000e+00 -1.002735302323e-04 0.000000000000e+00 
1.238484157118e+03 5.000000000000e+03 2.000000000000e+05 1.950000000000e+05 7.921323782992e-01 2.078676217008e-01 2.077878029380e-05 0.000000000000e+00 -9.837632551639e-05 0.000000000000e+00 
1.259566546264e+03 5.000000000000e+03 2.000000000000e+05 1.950000000000e+05 7.925792863529e-01 2.074207136471e-01 2.062080573169e-05 0.000000000000e+00 -9.752048873293e-05 0.000000000000e+00 
1.291728428816e+03 5.000000000000e+03 2.000000000000e+05 1.950000000000e+05 7.932403903283e-01 2.067596096717e-01 2.038857464034e-05 0.000000000000e+00 -9.626478382910e-05 0.000000000000e+00 
1.331947432277e+03 5.000000000000e+03 2.000000000000e+05 1.950000000000e+05 7.940376217064e-01 2.059623782936e-01 2.011082659319e-05 0.000000000000e+00 -9.476679602993e-05 0.000000000000e+00 
1.381963457983e+03 5.000000000000e+03 2.000000000000e+05 1.950000000000e+05 7.949868061560e-01 2.050131938440e-01 1.978341574118e-05 0.000000000000e+00 -9.300631462585e-05 0.000000000000e+00 
1.402459775566e+03 5.000000000000e+03 2.000000000000e+05 1.950000000000e+05 7.953698407382e-01 2.046301592618e-01 1.965229842101e-05 0.000000000000e+00 -9.230292610187e-05 0.000000000000e+00 
1.429598195615e+03 5.000000000000e+03 2.000000000000e+05 1.950000000000e+05 7.958663633205e-01 2.041336366795e-01 1.948318883664e-05 0.000000000000e+00 -9.139711920091e-05 0.000000000000e+00 
1.470480602670e+03 5.000000000000e+03 2.000000000000e+05 1.950000000000e+05 7.965908256507e-01 2.034091743493e-01 1.923818111989e-05 0.000000000000e+00 -9.008754090129e-05 0.000000000000e+00 
1.522744656407e+03 5.000000000000e+03 2.000000000000e+05 1.950000000000e+05 7.974804728615e-01 2.025195271385e-01 1.894011705616e-05 0.000000000000e+00 -8.849880378527e-05 0.000000000000e+00 
1.572952387411e+03 5.000000000000e+03 2.000000000000e+05 1.950000000000e+05 7.983038572553e-01 2.016961427447e-01 1.866700108482e-05 0.000000000000e+00 -8.704733569291e-05 0.000000000000e+00 
1.585909285599e+03 5.000000000000e+03 2.000000000000e+05 1.950000000000e+05 7.985146433811e-01 2.014853566189e-01 1.859750629960e-05 0.000000000000e+00 -8.667866792662e-05 0.000000000000e+00 
1.608741476930e+03 5.000000000000e+03 2.000000000000e+05 1.950000000000e+05 7.988802634695e-01 2.011197365305e-01 1.847737398053e-05 0.000000000000e+00 -8.604199099015e-05 0.000000000000e+00 
1.645535593609e+03 5.000000000000e+03 2.000000000000e+05 1.950000000000e+05 7.994545249949e-01 2.005454750051e-01 1.828973146457e-05 0.000000000000e+00 -8.504913054172e-05 0.000000000000e+00 
1.683449738927e+03 5.000000000000e+03 2.000000000000e+05 1.950000000000e+05 8.000314727850e-01 1.999685272150e-01 1.810249252865e-05 0.000000000000e+00 -8.406036256207e-05 0.000000000000e+00 
1.720157222960e+03 5.000000000000e+03 2.000000000000e+05 1.950000000000e+05 8.005771073063e-01 1.994228926937e-01 1.792659675934e-05 0.000000000000e+00 -8.313326931434e-05 0.000000000000e+00 
1.752066960306e+03 5.000000000000e+03 2.000000000000e+05 1.950000000000e+05 8.010422885835e-01 1.989577114165e-01 1.777754002502e-05 0.000000000000e+00 -8.234899080893e-05 0.000000000000e+00 
1.784885623705e+03 5.000000000000e+03 2.000000000000e+05 1.950000000000e+05 8.015114479484e-01 1.984885520516e-01 1.762804820684e-05 0.000000000000e+00 -8.156367781315e-05 0.000000000000e+00 
1.892442811853e+03 5.000000000000e+03 2.000000000000e+05 1.950000000000e+05 8.029380858660e-01 1.970619141340e-01 1.717863596734e-05 0.000000000000e+00 -7.921038103937e-05 0.000000000000e+00 
1.905876675128e+03 5.000000000000e+03 2.000000000000e+05 1.950000000000e+05 8.031151495298e-01 1.968848504702e-01 1.712339864451e-05 0.000000000000e+00 -7.892192577332e-05 0.000000000000e+00 
1.952938337564e+03 5.000000000000e+03 2.000000000000e+05 1.950000000000e+05 8.037173155920e-01 1.962826844080e-01 1.693643465583e-05 0.000000000000e+00 -7.794686749347e-05 0.000000000000e+00 
2.000000000000e+03 5.000000000000e+03 2.000000000000e+05 1.950000000000e+05 8.043022586513e-01 1.956977413487e-01 1.675613408137e-05 0.000000000000e+00 -7.700843624420e-05 0.000000000000e+00 
2.058959845396e+03 5.000000000000e+03 2.000000000000e+05 1.950000000000e+05 8.050092108401e-01 1.949907891599e-01 1.653994732582e-05 0.000000000000e+00 -7.588568185563e-05 0.000000000000e+00 
2.083623508805e+03 5.000000000000e+03 2.000000000000e+05 1.950000000000e+05 8.053010101251e-01 1.946989898749e-01 1.645126428084e-05 0.000000000000e+00 -7.542588042054e-05 0.000000000000e+00 
2.119259021589e+03 5.000000000000e+03 2.000000000000e+05 1.950000000000e+05 8.057143688007e-01 1.942856311993e-01 1.632618263555e-05 0.000000000000e+00 -7.477813798094e-05 0.000000000000e+00 
2.142172265762e+03 5.000000000000e+03 2.000000000000e+05 1.950000000000e+05 8.059770310261e-01 1.940229689739e-01 1.624703446022e-05 0.000000000000e+00 -7.436872925004e-05 0.000000000000e+00 
2.176411526301e+03 5.000000000000e+03 2.000000000000e+05 1.950000000000e+05 8.063627027864e-01 1.936372972136e-01 1.613128870860e-05 0.000000000000e+00 -7.377065773248e-05 0.000000000000e+00 
2.221762333748e+03 5.000000000000e+03 2.000000000000e+05 1.950000000000e+05 8.068623448538e-01 1.931376551462e-01 1.598216406275e-05 0.000000000000e+00 -7.300125982246e-05 0.000000000000e+00 
2.279064665672e+03 5.000000000000e+03 2.000000000000e+05 1.950000000000e+05 8.074769827638e-01 1.925230172362e-01 1.579999335978e-05 0.000000000000e+00 -7.206311234301e-05 0.000000000000e+00 
2.350509392402e+03 5.000000000000e+03 2.000000000000e+05 1.950000000000e+05 8.082184638306e-01 1.917815361694e-01 1.558209583376e-05 0.000000000000e+00 -7.094351151308e-05 0.000000000000e+00 
2.397841889694e+03 5.000000000000e+03 2.000000000000e+05 1.950000000000e+05 8.086997904699e-01 1.913002095301e-01 1.544173733440e-05 0.000000000000e+00 -7.022379804567e-05 0.000000000000e+00 
2.463977181684e+03 5.000000000000e+03 2.000000000000e+05 1.950000000000e+05 8.093523611020e-01 1.906476388980e-01 1.525280965983e-05 0.000000000000e+00 -6.925685287184e-05 0.000000000000e+00 
2.485903506771e+03 5.000000000000e+03 2.000000000000e+05 1.950000000000e+05 8.095668280746e-01 1.904331719254e-01 1.519106017422e-05 0.000000000000e+00 -6.894127374261e-05 0.000000000000e+00 
2.524576689351e+03 5.000000000000e+03 2.000000000000e+05 1.950000000000e+05 8.099387355755e-01 1.900612644245e-01 1.508438203948e-05 0.000000000000e+00 -6.839660400372e-05 0.000000000000e+00 
2.575230215053e+03 5.000000000000e+03 2.000000000000e+05 1.950000000000e+05 8.104150964281e-01 1.895849035719e-01 1.494848240132e-05 0.000000000000e+00 -6.770371501330e-05 0.000000000000e+00 
2.638850766328e+03 5.000000000000e+03 2.000000000000e+05 1.950000000000e+05 8.109969772407e-01 1.890030227593e-01 1.478360606520e-05 0.000000000000e+00 -6.686455204076e-05 0.000000000000e+00 
2.718071901766e+03 5.000000000000e+03 2.000000000000e+05 1.950000000000e+05 8.116970757601e-01 1.883029242399e-01 1.458686576170e-05 0.000000000000e+00 -6.586534217087e-05 0.000000000000e+00 
2.758264804603e+03 5.000000000000e+03 2.000000000000e+05 1.950000000000e+05 8.120466978559e-01 1.879533021441e-01 1.448928414204e-05 0.000000000000e+00 -6.537059113244e-05 0.000000000000e+00 
2.811214911966e+03 5.000000000000e+03 2.000000000000e+05 1.950000000000e+05 8.124974706386e-01 1.875025293614e-01 1.436412299147e-05 0.000000000000e+00 -6.473685115357e-05 0.000000000000e+00 
2.878179259668e+03 5.000000000000e+03 2.000000000000e+05 1.950000000000e+05 8.130522496223e-01 1.869477503777e-01 1.421109075298e-05 0.000000000000e+00 -6.396327342140e-05 0.000000000000e+00 
2.961911598314e+03 5.000000000000e+03 2.000000000000e+05 1.950000000000e+05 8.137228428917e-01 1.862771571083e-01 1.402759216747e-05 0.000000000000e+00 -6.303755157431e-05 0.000000000000e+00 
3.011429582869e+03 5.000000000000e+03 2.000000000000e+05 1.950000000000e+05 8.141121394841e-01 1.858878605159e-01 1.392180904245e-05 0.000000000000e+00 -6.250481126045e-05 0.000000000000e+00 
3.079446737936e+03 5.000000000000e+03 2.000000000000e+05 1.950000000000e+05 8.146330781689e-01 1.853669218311e-01 1.378110285063e-05 0.000000000000e+00 -6.179725259992e-05 0.000000000000e+00 
3.174252907863e+03 5.000000000000e+03 2.000000000000e+05 1.950000000000e+05 8.153331347776e-01 1.846668652224e-01 1.359354562909e-05 0.000000000000e+00 -6.085595935986e-05 0.000000000000e+00 
3.208011708649e+03 5.000000000000e+03 2.000000000000e+05 1.950000000000e+05 8.155795771496e-01 1.844204228504e-01 1.352792974751e-05 0.000000000000e+00 -6.052718603583e-05 0.000000000000e+00 
3.261591812579e+03 5.000000000000e+03 2.000000000000e+05 1.950000000000e+05 8.159632483373e-01 1.840367516627e-01 1.342621185131e-05 0.000000000000e+00 -6.001801170119e-05 0.000000000000e+00 
3.337247253972e+03 5.000000000000e+03 2.000000000000e+05 1.950000000000e+05 8.164905065434e-01 1.835094934566e-01 1.328727609198e-05 0.000000000000e+00 -5.932356905852e-05 0.000000000000e+00 
3.413350578592e+03 5.000000000000e+03 2.000000000000e+05 1.950000000000e+05 8.170071348622e-01 1.829928651378e-01 1.315209261940e-05 0.000000000000e+00 -5.864903236455e-05 0.000000000000e+00 
3.478333677086e+03 5.000000000000e+03 2.000000000000e+05 1.950000000000e+05 8.174388953182e-01 1.825611046818e-01 1.303983865616e-05 0.000000000000e+00 -5.808976254099e-05 0.000000000000e+00 
3.533980467895e+03 5.000000000000e+03 2.000000000000e+05 1.950000000000e+05 8.178020961503e-01 1.821979038497e-01 1.294591572345e-05 0.000000000000e+00 -5.762242831629e-05 0.000000000000e+00 
3.590800544262e+03 5.000000000000e+03 2.000000000000e+05 1.950000000000e+05 8.181663847134e-01 1.818336152866e-01 1.285217659650e-05 0.000000000000e+00 -5.715655357439e-05 0.000000000000e+00 
3.641901042653e+03 5.000000000000e+03 2.000000000000e+05 1.950000000000e+05 8.184889353077e-01 1.815110646923e-01 1.276956480760e-05 0.000000000000e+00 -5.674643649689e-05 0.000000000000e+00 
3.694479260912e+03 5.000000000000e+03 2.000000000000e+05 1.950000000000e+05 8.188156257186e-01 1.811843742814e-01 1.268626173619e-05 0.000000000000e+00 -5.633332612119e-05 0.000000000000e+00 
3.725474500541e+03 5.000000000000e+03 2.000000000000e+05 1.950000000000e+05 8.190065275673e-01 1.809934724327e-01 1.263775604003e-05 0.000000000000e+00 -5.609297897751e-05 0.000000000000e+00 
3.764830728412e+03 5.000000000000e+03 2.000000000000e+05 1.950000000000e+05 8.192462033180e-01 1.807537966820e-01 1.257703730005e-05 0.000000000000e+00 -5.579232301338e-05 0.000000000000e+00 
3.818159229125e+03 5.000000000000e+03 2.000000000000e+05 1.950000000000e+05 8.195660890325e-01 1.804339109675e-01 1.249630959965e-05 0.000000000000e+00 -5.539294836691e-05 0.000000000000e+00 
3.858974996497e+03 5.000000000000e+03 2.000000000000e+05 1.950000000000e+05 8.198082341398e-01 1.801917658602e-01 1.243543590699e-05 0.000000000000e+00 -5.509207161993e-05 0.000000000000e+00 
3.911628070985e+03 5.000000000000e+03 2.000000000000e+05 1.950000000000e+05 8.201162055328e-01 1.798837944672e-01 1.235830775618e-05 0.000000000000e+00 -5.471118849089e-05 0.000000000000e+00 
4.000000000000e+03 5.000000000000e+03 2.000000000000e+05 1.950000000000e+05 8.206208964559e-01 1.793791035441e-01 1.223261969105e-05 0.000000000000e+00 -5.409131882284e-05 0.000000000000e+00 
4.037941211955e+03 5.000000000000e+03 2.000000000000e+05 1.950000000000e+05 8.208356043409e-01 1.791643956591e-01 1.217941460095e-05 0.000000000000e+00 -5.382922633931e-05 0.000000000000e+00 
4.098414001622e+03 5.000000000000e+03 2.000000000000e+05 1.950000000000e+05 8.211725996988e-01 1.788274003012e-01 1.209622718745e-05 0.000000000000e+00 -5.341979468581e-05 0.000000000000e+00 
4.178464461383e+03 5.000000000000e+03 2.000000000000e+05 1.950000000000e+05 8.216096723517e-01 1.783903276483e-01 1.198891679290e-05 0.000000000000e+00 -5.289228456894e-05 0.000000000000e+00 
4.281612164560e+03 5.000000000000e+03 2.000000000000e+05 1.950000000000e+05 8.221579843543e-01 1.778420156457e-01 1.185521748055e-05 0.000000000000e+00 -5.223609506931e-05 0.000000000000e+00 
4.338903523556e+03 5.000000000000e+03 2.000000000000e+05 1.950000000000e+05 8.224583333416e-01 1.775416666584e-01 1.178241527646e-05 0.000000000000e+00 -5.187927205438e-05 0.000000000000e+00 
4.412450019277e+03 5.000000000000e+03 2.000000000000e+05 1.950000000000e+05 8.228367862413e-01 1.771632137587e-01 1.169111882629e-05 0.000000000000e+00 -5.143228542843e-05 0.000000000000e+00 
4.438440005544e+03 5.000000000000e+03 2.000000000000e+05 1.950000000000e+05 8.229697244061e-01 1.770302755939e-01 1.165916494124e-05 0.000000000000e+00 -5.127596634712e-05 0.000000000000e+00 
4.489436339038e+03 5.000000000000e+03 2.000000000000e+05 1.950000000000e+05 8.232272613404e-01 1.767727386596e-01 1.159743231941e-05 0.000000000000e+00 -5.097415594994e-05 0.000000000000e+00 
4.557030354903e+03 5.000000000000e+03 2.000000000000e+05 1.950000000000e+05 8.235628547487e-01 1.764371452513e-01 1.151732523944e-05 0.000000000000e+00 -5.058288685185e-05 0.000000000000e+00 
4.643242086152e+03 5.000000000000e+03 2.000000000000e+05 1.950000000000e+05 8.239816742475e-01 1.760183257525e-01 1.141788559622e-05 0.000000000000e+00 -5.009777256405e-05 0.000000000000e+00 
4.752125161830e+03 5.000000000000e+03 2.000000000000e+05 1.950000000000e+05 8.244963715791e-01 1.755036284209e-01 1.129649174335e-05 0.000000000000e+00 -4.950642829071e-05 0.000000000000e+00 
4.804141328204e+03 5.000000000000e+03 2.000000000000e+05 1.950000000000e+05 8.247393249698e-01 1.752606750302e-01 1.123949947225e-05 0.000000000000e+00 -4.922913482179e-05 0.000000000000e+00 
4.882282624526e+03 5.000000000000e+03 2.000000000000e+05 1.950000000000e+05 8.250975315571e-01 1.749024684429e-01 1.115582978753e-05 0.000000000000e+00 -4.882244056346e-05 0.000000000000e+00 
4.934416449753e+03 5.000000000000e+03 2.000000000000e+05 1.950000000000e+05 8.253336899183e-01 1.746663100817e-01 1.110090360343e-05 0.000000000000e+00 -4.855570734383e-05 0.000000000000e+00 
5.002078287172e+03 5.000000000000e+03 2.000000000000e+05 1.950000000000e+05 8.256354163365e-01 1.743645836635e-01 1.103099867281e-05 0.000000000000e+00 -4.821652102617e-05 0.000000000000e+00 
5.028957247015e+03 5.000000000000e+03 2.000000000000e+05 1.950000000000e+05 8.257545881692e-01 1.742454118308e-01 1.100347182429e-05 0.000000000000e+00 -4.808304821586e-05 0.000000000000e+00 
5.089790668425e+03 5.000000000000e+03 2.000000000000e+05 1.950000000000e+05 8.260205847654e-01 1.739794152346e-01 1.094220242132e-05 0.000000000000e+00 -4.778613835045e-05 0.000000000000e+00 
5.177623960469e+03 5.000000000000e+03 2.000000000000e+05 1.950000000000e+05 8.263970779460e-01 1.736029220540e-01 1.085588141315e-05 0.000000000000e+00 -4.736826107439e-05 0.000000000000e+00 
5.218656717693e+03 5.000000000000e+03 2.000000000000e+05 1.950000000000e+05 8.265714599649e-01 1.734285400351e-01 1.081605926326e-05 0.000000000000e+00 -4.717564941664e-05 0.000000000000e+00 