 TITLE = "Time curves in points"
 VARIABLES = "TIME"  "PRESSURE1"  "PRESSURE2"  "PRESSURE_W"  "SATURATION1" SATURATION2  "VELOCITY_X1"  "VELOCITY_Y1"  "VELOCITY_X2"  "VELOCITY_Y2" 
 ZONE T="POINT=POINT0"
0.000000000000e+00 5.000000000000e+04 0.000000000000e+00 -5.000000000000e+04 1.000000000000e-02 9.900000000000e-01 0.000000000000e+00 0.000000000000e+00 0.000000000000e+00 0.000000000000e+00 
2.330219757370e+00 5.000000000000e+03 2.000000000000e+05 1.950000000000e+05 3.009053808140e-01 6.990946191860e-01 9.969764600620e-05 0.000000000000e+00 -8.303699578166e-03 0.000000000000e+00 
2.986053936550e+00 5.000000000000e+03 2.000000000000e+05 1.950000000000e+05 4.831995867275e-01 5.168004132725e-01 2.314848548690e-04 0.000000000000e+00 -3.567171667659e-03 0.000000000000e+00 
3.886474432927e+00 5.000000000000e+03 2.000000000000e+05 1.950000000000e+05 5.398619687955e-01 4.601380312045e-01 2.064012068835e-04 0.000000000000e+00 -2.346871394972e-03 0.000000000000e+00 
5.058991241497e+00 5.000000000000e+03 2.000000000000e+05 1.950000000000e+05 5.615626078678e-01 4.384373921322e-01 1.905733143243e-04 0.000000000000e+00 -1.956488331791e-03 0.000000000000e+00 
6.645906564601e+00 5.000000000000e+03 2.000000000000e+05 1.950000000000e+05 5.891056475985e-01 4.108943524015e-01 1.674735966356e-04 0.000000000000e+00 -1.524663926179e-03 0.000000000000e+00 
8.926303009165e+00 5.000000000000e+03 2.000000000000e+05 1.950000000000e+05 6.045381428722e-01 3.954618571278e-01 1.536533587635e-04 0.000000000000e+00 -1.313247171078e-03 0.000000000000e+00 
1.006654774428e+01 5.000000000000e+03 2.000000000000e+05 1.950000000000e+05 6.121909610759e-01 3.878090389241e-01 1.466847291319e-04 0.000000000000e+00 -1.216293714452e-03 0.000000000000e+00 
1.181206136918e+01 5.000000000000e+03 2.000000000000e+05 1.950000000000e+05 6.235432977164e-01 3.764567022836e-01 1.362983278767e-04 0.000000000000e+00 -1.081822642407e-03 0.000000000000e+00 
1.440525139730e+01 5.000000000000e+03 2.000000000000e+05 1.950000000000e+05 6.332513652057e-01 3.667486347943e-01 1.274377356909e-04 0.000000000000e+00 -9.754362539872e-04 0.000000000000e+00 
1.811229353692e+01 5.000000000000e+03 2.000000000000e+05 1.950000000000e+05 6.438872058062e-01 3.561127941938e-01 1.178269354892e-04 0.000000000000e+00 -8.676667759971e-04 0.000000000000e+00 
2.321269802012e+01 5.000000000000e+03 2.000000000000e+05 1.950000000000e+05 6.539413493398e-01 3.460586506602e-01 1.088970011606e-04 0.000000000000e+00 -7.739122290577e-04 0.000000000000e+00 
2.610600792924e+01 5.000000000000e+03 2.000000000000e+05 1.950000000000e+05 6.595565220847e-01 3.404434779153e-01 1.039962896894e-04 0.000000000000e+00 -7.248610791074e-04 0.000000000000e+00 
3.013818183938e+01 5.000000000000e+03 2.000000000000e+05 1.950000000000e+05 6.661291743289e-01 3.338708256711e-01 9.835351088769e-05 0.000000000000e+00 -6.703601554202e-04 0.000000000000e+00 
3.568400090682e+01 5.000000000000e+03 2.000000000000e+05 1.950000000000e+05 6.734482740306e-01 3.265517259694e-01 9.220367791184e-05 0.000000000000e+00 -6.132551180684e-04 0.000000000000e+00 
4.341276205055e+01 5.000000000000e+03 2.000000000000e+05 1.950000000000e+05 6.810164244737e-01 3.189835755263e-01 8.600953951641e-05 0.000000000000e+00 -5.580394703047e-04 0.000000000000e+00 
5.323108194795e+01 5.000000000000e+03 2.000000000000e+05 1.950000000000e+05 6.883902529382e-01 3.116097470618e-01 8.015108335990e-05 0.000000000000e+00 -5.078448401990e-04 0.000000000000e+00 
5.627555288929e+01 5.000000000000e+03 2.000000000000e+05 1.950000000000e+05 6.906704718698e-01 3.093295281302e-01 7.837685227135e-05 0.000000000000e+00 -4.930204980150e-04 0.000000000000e+00 
6.122116976076e+01 5.000000000000e+03 2.000000000000e+05 1.950000000000e+05 6.942591541087e-01 3.057408458913e-01 7.562176108870e-05 0.000000000000e+00 -4.703400836169e-04 0.000000000000e+00 
6.763418621893e+01 5.000000000000e+03 2.000000000000e+05 1.950000000000e+05 6.984380225626e-01 3.015619774374e-01 7.247248636903e-05 0.000000000000e+00 -4.449129330641e-04 0.000000000000e+00 
7.589398721484e+01 5.000000000000e+03 2.000000000000e+05 1.950000000000e+05 7.030406490732e-01 2.969593509268e-01 6.907940085755e-05 0.000000000000e+00 -4.181017607338e-04 0.000000000000e+00 
8.607432934656e+01 5.000000000000e+03 2.000000000000e+05 1.950000000000e+05 7.077637921350e-01 2.922362078650e-01 6.568216068179e-05 0.000000000000e+00 -3.918546948536e-04 0.000000000000e+00 
9.872129606602e+01 5.000000000000e+03 2.000000000000e+05 1.950000000000e+05 7.125764896140e-01 2.874235103860e-01 6.231105444657e-05 0.000000000000e+00 -3.663905058968e-04 0.000000000000e+00 
1.139272990798e+02 5.000000000000e+03 2.000000000000e+05 1.950000000000e+05 7.173643891483e-01 2.826356108517e-01 5.905006827880e-05 0.000000000000e+00 -3.423010247907e-04 0.000000000000e+00 
1.323540188654e+02 5.000000000000e+03 2.000000000000e+05 1.950000000000e+05 7.222137683375e-01 2.777862316625e-01 5.587251897633e-05 0.000000000000e+00 -3.191227520513e-04 0.000000000000e+00 
1.419170038319e+02 5.000000000000e+03 2.000000000000e+05 1.950000000000e+05 7.246040439390e-01 2.753959560610e-01 5.429881727418e-05 0.000000000000e+00 -3.081449786195e-04 0.000000000000e+00 
1.540188602059e+02 5.000000000000e+03 2.000000000000e+05 1.950000000000e+05 7.274612447972e-01 2.725387552028e-01 5.248414696291e-05 0.000000000000e+00 -2.953915206589e-04 0.000000000000e+00 
1.701083730902e+02 5.000000000000e+03 2.000000000000e+05 1.950000000000e+05 7.308861841366e-01 2.691138158634e-01 5.035451974096e-05 0.000000000000e+00 -2.806288413944e-04 0.000000000000e+00 
1.767723033909e+02 5.000000000000e+03 2.000000000000e+05 1.950000000000e+05 7.322675054625e-01 2.677324945375e-01 4.950977116593e-05 0.000000000000e+00 -2.748339029497e-04 0.000000000000e+00 
1.871085920778e+02 5.000000000000e+03 2.000000000000e+05 1.950000000000e+05 7.343063318572e-01 2.656936681428e-01 4.827785621299e-05 0.000000000000e+00 -2.664448837684e-04 0.000000000000e+00 
2.001946632325e+02 5.000000000000e+03 2.000000000000e+05 1.950000000000e+05 7.367087647871e-01 2.632912352129e-01 4.684916129748e-05 0.000000000000e+00 -2.568075931081e-04 0.000000000000e+00 
2.166189596682e+02 5.000000000000e+03 2.000000000000e+05 1.950000000000e+05 7.394305468658e-01 2.605694531342e-01 4.526061125931e-05 0.000000000000e+00 -2.462075059068e-04 0.000000000000e+00 
2.239208132664e+02 5.000000000000e+03 2.000000000000e+05 1.950000000000e+05 7.405995466821e-01 2.594004533179e-01 4.458815828736e-05 0.000000000000e+00 -2.417569573022e-04 0.000000000000e+00 
2.345415970236e+02 5.000000000000e+03 2.000000000000e+05 1.950000000000e+05 7.422149139432e-01 2.577850860568e-01 4.366867061810e-05 0.000000000000e+00 -2.357066582542e-04 0.000000000000e+00 
2.486449878769e+02 5.000000000000e+03 2.000000000000e+05 1.950000000000e+05 7.442209321264e-01 2.557790678736e-01 4.254255822882e-05 0.000000000000e+00 -2.283521588395e-04 0.000000000000e+00 
2.662517420306e+02 5.000000000000e+03 2.000000000000e+05 1.950000000000e+05 7.465153379210e-01 2.534846620790e-01 4.127595400021e-05 0.000000000000e+00 -2.201530187283e-04 0.000000000000e+00 
2.877389025805e+02 5.000000000000e+03 2.000000000000e+05 1.950000000000e+05 7.490263027200e-01 2.509736972800e-01 3.991598933497e-05 0.000000000000e+00 -2.114354758227e-04 0.000000000000e+00 
2.960159747510e+02 5.000000000000e+03 2.000000000000e+05 1.950000000000e+05 7.499633368051e-01 2.500366631949e-01 3.941549605558e-05 0.000000000000e+00 -2.082496724848e-04 0.000000000000e+00 
3.085631096901e+02 5.000000000000e+03 2.000000000000e+05 1.950000000000e+05 7.513188746023e-01 2.486811253977e-01 3.869821500696e-05 0.000000000000e+00 -2.037049979733e-04 0.000000000000e+00 
3.267580749644e+02 5.000000000000e+03 2.000000000000e+05 1.950000000000e+05 7.531619544217e-01 2.468380455783e-01 3.773574635437e-05 0.000000000000e+00 -1.976458121428e-04 0.000000000000e+00 
3.448652068760e+02 5.000000000000e+03 2.000000000000e+05 1.950000000000e+05 7.548875929426e-01 2.451124070574e-01 3.684796158953e-05 0.000000000000e+00 -1.920964793201e-04 0.000000000000e+00 
3.626355278243e+02 5.000000000000e+03 2.000000000000e+05 1.950000000000e+05 7.564852550601e-01 2.435147449399e-01 3.603752331842e-05 0.000000000000e+00 -1.870639096867e-04 0.000000000000e+00 
3.772610821633e+02 5.000000000000e+03 2.000000000000e+05 1.950000000000e+05 7.577434435566e-01 2.422565564434e-01 3.540706591550e-05 0.000000000000e+00 -1.831709836030e-04 0.000000000000e+00 
3.924152648287e+02 5.000000000000e+03 2.000000000000e+05 1.950000000000e+05 7.589915121978e-01 2.410084878022e-01 3.478844363377e-05 0.000000000000e+00 -1.793698913386e-04 0.000000000000e+00 
4.041970420171e+02 5.000000000000e+03 2.000000000000e+05 1.950000000000e+05 7.599328072942e-01 2.400671927058e-01 3.432632954432e-05 0.000000000000e+00 -1.765425967356e-04 0.000000000000e+00 
4.177217124373e+02 5.000000000000e+03 2.000000000000e+05 1.950000000000e+05 7.609773455385e-01 2.390226544615e-01 3.381800523685e-05 0.000000000000e+00 -1.734445933625e-04 0.000000000000e+00 
4.291451453467e+02 5.000000000000e+03 2.000000000000e+05 1.950000000000e+05 7.618366031917e-01 2.381633968083e-01 3.340337384815e-05 0.000000000000e+00 -1.709269358363e-04 0.000000000000e+00 
4.645725726733e+02 5.000000000000e+03 2.000000000000e+05 1.950000000000e+05 7.642270535393e-01 2.357729464607e-01 3.226840000401e-05 0.000000000000e+00 -1.640673046089e-04 0.000000000000e+00 
4.822862863367e+02 5.000000000000e+03 2.000000000000e+05 1.950000000000e+05 7.653671398250e-01 2.346328601750e-01 3.173305723566e-05 0.000000000000e+00 -1.608698832539e-04 0.000000000000e+00 
5.000000000000e+02 5.000000000000e+03 2.000000000000e+05 1.950000000000e+05 7.664572987824e-01 2.335427012176e-01 3.122810136803e-05 0.000000000000e+00 -1.578564786297e-04 0.000000000000e+00 
5.251847533355e+02 5.000000000000e+03 2.000000000000e+05 1.950000000000e+05 7.679146607158e-01 2.320853392842e-01 3.056099789333e-05 0.000000000000e+00 -1.538946939135e-04 0.000000000000e+00 
5.366112207069e+02 5.000000000000e+03 2.000000000000e+05 1.950000000000e+05 7.685610357091e-01 2.314389642909e-01 3.026802406330e-05 0.000000000000e+00 -1.521617289607e-04 0.000000000000e+00 
5.545062736503e+02 5.000000000000e+03 2.000000000000e+05 1.950000000000e+05 7.695378219280e-01 2.304621780720e-01 2.982866561784e-05 0.000000000000e+00 -1.495708570032e-04 0.000000000000e+00 
5.785986333617e+02 5.000000000000e+03 2.000000000000e+05 1.950000000000e+05 7.707931007266e-01 2.292068992734e-01 2.926999935539e-05 0.000000000000e+00 -1.462902638623e-04 0.000000000000e+00 
6.085070558628e+02 5.000000000000e+03 2.000000000000e+05 1.950000000000e+05 7.722622243182e-01 2.277377756818e-01 2.862465103529e-05 0.000000000000e+00 -1.425199885020e-04 0.000000000000e+00 
6.455156485932e+02 5.000000000000e+03 2.000000000000e+05 1.950000000000e+05 7.739466905106e-01 2.260533094894e-01 2.789501735302e-05 0.000000000000e+00 -1.382877531374e-04 0.000000000000e+00 
6.795288054249e+02 5.000000000000e+03 2.000000000000e+05 1.950000000000e+05 7.753960287042e-01 2.246039712958e-01 2.727851853372e-05 0.000000000000e+00 -1.347226170183e-04 0.000000000000e+00 
6.893469931738e+02 5.000000000000e+03 2.000000000000e+05 1.950000000000e+05 7.758078620179e-01 2.241921379821e-01 2.710468735586e-05 0.000000000000e+00 -1.337223499691e-04 0.000000000000e+00 
7.067086477042e+02 5.000000000000e+03 2.000000000000e+05 1.950000000000e+05 7.765149701367e-01 2.234850298633e-01 2.680788149449e-05 0.000000000000e+00 -1.320179860351e-04 0.000000000000e+00 
7.288303804874e+02 5.000000000000e+03 2.000000000000e+05 1.950000000000e+05 7.773858645911e-01 2.226141354089e-01 2.644520475976e-05 0.000000000000e+00 -1.299414093905e-04 0.000000000000e+00 
7.568220043251e+02 5.000000000000e+03 2.000000000000e+05 1.950000000000e+05 7.784452113464e-01 2.215547886536e-01 2.600831985759e-05 0.000000000000e+00 -1.274487913575e-04 0.000000000000e+00 
7.701087826734e+02 5.000000000000e+03 2.000000000000e+05 1.950000000000e+05 7.789403201563e-01 2.210596798437e-01 2.580573615407e-05 0.000000000000e+00 -1.262962555569e-04 0.000000000000e+00 
7.903467866867e+02 5.000000000000e+03 2.000000000000e+05 1.950000000000e+05 7.796760155979e-01 2.203239844021e-01 2.550659411983e-05 0.000000000000e+00 -1.245982094031e-04 0.000000000000e+00 
8.165085791777e+02 5.000000000000e+03 2.000000000000e+05 1.950000000000e+05 7.805968750951e-01 2.194031249049e-01 2.513533039990e-05 0.000000000000e+00 -1.224971179111e-04 0.000000000000e+00 
8.380645043508e+02 5.000000000000e+03 2.000000000000e+05 1.950000000000e+05 7.813366385200e-01 2.186633614800e-01 2.483962259274e-05 0.000000000000e+00 -1.208286739988e-04 0.000000000000e+00 
8.601736082463e+02 5.000000000000e+03 2.000000000000e+05 1.950000000000e+05 7.820757026308e-01 2.179242973692e-01 2.454645197920e-05 0.000000000000e+00 -1.191789804470e-04 0.000000000000e+00 
8.786142347242e+02 5.000000000000e+03 2.000000000000e+05 1.950000000000e+05 7.826791388731e-01 2.173208611269e-01 2.430875286666e-05 0.000000000000e+00 -1.178446735434e-04 0.000000000000e+00 
8.960356303779e+02 5.000000000000e+03 2.000000000000e+05 1.950000000000e+05 7.832379390123e-01 2.167620609877e-01 2.408997275610e-05 0.000000000000e+00 -1.166191434102e-04 0.000000000000e+00 
9.200728695803e+02 5.000000000000e+03 2.000000000000e+05 1.950000000000e+05 7.839873455950e-01 2.160126544050e-01 2.379858016579e-05 0.000000000000e+00 -1.149907078392e-04 0.000000000000e+00 
9.416492509229e+02 5.000000000000e+03 2.000000000000e+05 1.950000000000e+05 7.846437061998e-01 2.153562938002e-01 2.354525777681e-05 0.000000000000e+00 -1.135786025329e-04 0.000000000000e+00 
9.579407586675e+02 5.000000000000e+03 2.000000000000e+05 1.950000000000e+05 7.851305691502e-01 2.148694308498e-01 2.335849165343e-05 0.000000000000e+00 -1.125396386881e-04 0.000000000000e+00 
9.735392283013e+02 5.000000000000e+03 2.000000000000e+05 1.950000000000e+05 7.855889027035e-01 2.144110972965e-01 2.318355426653e-05 0.000000000000e+00 -1.115681243040e-04 0.000000000000e+00 
1.000000000000e+03 5.000000000000e+03 2.000000000000e+05 1.950000000000e+05 7.863434516384e-01 2.136565483616e-01 2.289742178787e-05 0.000000000000e+00 -1.099825318553e-04 0.000000000000e+00 
1.034226045321e+03 5.000000000000e+03 2.000000000000e+05 1.950000000000e+05 7.872818291503e-01 2.127181708497e-01 2.254480942340e-05 0.000000000000e+00 -1.080344362797e-04 0.000000000000e+00 
1.076873712006e+03 5.000000000000e+03 2.000000000000e+05 1.950000000000e+05 7.883933782148e-01 2.116066217852e-01 2.213174252865e-05 0.000000000000e+00 -1.057606496090e-04 0.000000000000e+00 
1.129648471773e+03 5.000000000000e+03 2.000000000000e+05 1.950000000000e+05 7.896822248196e-01 2.103177751804e-01 2.165898833675e-05 0.000000000000e+00 -1.031696082091e-04 0.000000000000e+00 
1.157134567052e+03 5.000000000000e+03 2.000000000000e+05 1.950000000000e+05 7.903332106818e-01 2.096667893182e-01 2.142281394933e-05 0.000000000000e+00 -1.018792498820e-04 0.000000000000e+00 
1.193160168011e+03 5.000000000000e+03 2.000000000000e+05 1.950000000000e+05 7.911520454664e-01 2.088479545336e-01 2.112809794843e-05 0.000000000000e+00 -1.002735306053e-04 0.000000000000e+00 
1.238484156915e+03 5.000000000000e+03 2.000000000000e+05 1.950000000000e+05 7.921323782679e-01 2.078676217321e-01 2.077878049629e-05 0.000000000000e+00 -9.837632556906e-05 0.000000000000e+00 
1.259566545890e+03 5.000000000000e+03 2.000000000000e+05 1.950000000000e+05 7.925792864811e-01 2.074207135189e-01 2.062080624001e-05 0.000000000000e+00 -9.752048846679e-05 0.000000000000e+00 
1.291728427898e+03 5.000000000000e+03 2.000000000000e+05 1.950000000000e+05 7.932403900461e-01 2.067596099539e-01 2.038857388027e-05 0.000000000000e+00 -9.626478439531e-05 0.000000000000e+00 
1.331947430672e+03 5.000000000000e+03 2.000000000000e+05 1.950000000000e+05 7.940376218577e-01 2.059623781423e-01 2.011082727523e-05 0.000000000000e+00 -9.476679571967e-05 0.000000000000e+00 
1.381963455612e+03 5.000000000000e+03 2.000000000000e+05 1.950000000000e+05 7.949868062171e-01 2.050131937829e-01 1.978341572845e-05 0.000000000000e+00 -9.300631451297e-05 0.000000000000e+00 
1.402459772601e+03 5.000000000000e+03 2.000000000000e+05 1.950000000000e+05 7.953698407566e-01 2.046301592434e-01 1.965229836507e-05 0.000000000000e+00 -9.230292606991e-05 0.000000000000e+00 
1.429598192245e+03 5.000000000000e+03 2.000000000000e+05 1.950000000000e+05 7.958663636068e-01 2.041336363932e-01 1.948318957072e-05 0.000000000000e+00 -9.139711865028e-05 0.000000000000e+00 
1.470480595837e+03 5.000000000000e+03 2.000000000000e+05 1.950000000000e+05 7.965908261083e-01 2.034091738917e-01 1.923818177485e-05 0.000000000000e+00 -9.008754004957e-05 0.000000000000e+00 
1.522744644939e+03 5.000000000000e+03 2.000000000000e+05 1.950000000000e+05 7.974804731478e-01 2.025195268522e-01 1.894011718890e-05 0.000000000000e+00 -8.849880326949e-05 0.000000000000e+00 
1.572952376365e+03 5.000000000000e+03 2.000000000000e+05 1.950000000000e+05 7.983038571592e-01 2.016961428408e-01 1.866700061905e-05 0.000000000000e+00 -8.704733587855e-05 0.000000000000e+00 
1.585909274205e+03 5.000000000000e+03 2.000000000000e+05 1.950000000000e+05 7.985146432908e-01 2.014853567092e-01 1.859750630686e-05 0.000000000000e+00 -8.667866808504e-05 0.000000000000e+00 
1.608741466128e+03 5.000000000000e+03 2.000000000000e+05 1.950000000000e+05 7.988802633855e-01 2.011197366145e-01 1.847737397418e-05 0.000000000000e+00 -8.604199113716e-05 0.000000000000e+00 
1.645535583483e+03 5.000000000000e+03 2.000000000000e+05 1.950000000000e+05 7.994545244931e-01 2.005454755069e-01 1.828973055095e-05 0.000000000000e+00 -8.504913144210e-05 0.000000000000e+00 
1.683449729092e+03 5.000000000000e+03 2.000000000000e+05 1.950000000000e+05 8.000314727899e-01 1.999685272101e-01 1.810249339008e-05 0.000000000000e+00 -8.406036252472e-05 0.000000000000e+00 
1.720157214074e+03 5.000000000000e+03 2.000000000000e+05 1.950000000000e+05 8.005771072910e-01 1.994228927090e-01 1.792659680097e-05 0.000000000000e+00 -8.313326933900e-05 0.000000000000e+00 
1.752066952100e+03 5.000000000000e+03 2.000000000000e+05 1.950000000000e+05 8.010422887731e-01 1.989577112269e-01 1.777754056767e-05 0.000000000000e+00 -8.234899047055e-05 0.000000000000e+00 
1.784885615697e+03 5.000000000000e+03 2.000000000000e+05 1.950000000000e+05 8.015114484497e-01 1.984885515503e-01 1.762804913058e-05 0.000000000000e+00 -8.156367694184e-05 0.000000000000e+00 
1.892442807849e+03 5.000000000000e+03 2.000000000000e+05 1.950000000000e+05 8.029380858901e-01 1.970619141099e-01 1.717863563878e-05 0.000000000000e+00 -7.921038101028e-05 0.000000000000e+00 
1.905876670617e+03 5.000000000000e+03 2.000000000000e+05 1.950000000000e+05 8.031151495616e-01 1.968848504384e-01 1.712339867497e-05 0.000000000000e+00 -7.892192572029e-05 0.000000000000e+00 
1.952938335308e+03 5.000000000000e+03 2.000000000000e+05 1.950000000000e+05 8.037173156619e-01 1.962826843381e-01 1.693643467705e-05 0.000000000000e+00 -7.794686737944e-05 0.000000000000e+00 
2.000000000000e+03 5.000000000000e+03 2.000000000000e+05 1.950000000000e+05 8.043022587234e-01 1.956977412766e-01 1.675613404138e-05 0.000000000000e+00 -7.700843612951e-05 0.000000000000e+00 
2.058959847984e+03 5.000000000000e+03 2.000000000000e+05 1.950000000000e+05 8.050092109336e-01 1.949907890664e-01 1.653994730772e-05 0.000000000000e+00 -7.588568170760e-05 0.000000000000e+00 
2.083623512324e+03 5.000000000000e+03 2.000000000000e+05 1.950000000000e+05 8.053010101051e-01 1.946989898949e-01 1.645126386906e-05 0.000000000000e+00 -7.542588046464e-05 0.000000000000e+00 
2.119259026220e+03 5.000000000000e+03 2.000000000000e+05 1.950000000000e+05 8.057143688659e-01 1.942856311341e-01 1.632618272646e-05 0.000000000000e+00 -7.477813787571e-05 0.000000000000e+00 
2.142172270545e+03 5.000000000000e+03 2.000000000000e+05 1.950000000000e+05 8.059770313356e-01 1.940229686644e-01 1.624703528670e-05 0.000000000000e+00 -7.436872874131e-05 0.000000000000e+00 
2.176411530727e+03 5.000000000000e+03 2.000000000000e+05 1.950000000000e+05 8.063627029981e-01 1.936372970019e-01 1.613128860857e-05 0.000000000000e+00 -7.377065740632e-05 0.000000000000e+00 
2.221762338004e+03 5.000000000000e+03 2.000000000000e+05 1.950000000000e+05 8.068623450157e-01 1.931376549843e-01 1.598216399965e-05 0.000000000000e+00 -7.300125957459e-05 0.000000000000e+00 
2.279064670173e+03 5.000000000000e+03 2.000000000000e+05 1.950000000000e+05 8.074769829077e-01 1.925230170923e-01 1.579999332641e-05 0.000000000000e+00 -7.206311212419e-05 0.000000000000e+00 
2.350509397544e+03 5.000000000000e+03 2.000000000000e+05 1.950000000000e+05 8.082184635523e-01 1.917815364477e-01 1.558209515963e-05 0.000000000000e+00 -7.094351195230e-05 0.000000000000e+00 
2.397841896495e+03 5.000000000000e+03 2.000000000000e+05 1.950000000000e+05 8.086997903465e-01 1.913002096535e-01 1.544173741876e-05 0.000000000000e+00 -7.022379822800e-05 0.000000000000e+00 
2.463977184346e+03 5.000000000000e+03 2.000000000000e+05 1.950000000000e+05 8.093523611694e-01 1.906476388306e-01 1.525280998718e-05 0.000000000000e+00 -6.925685276294e-05 0.000000000000e+00 
2.485903508050e+03 5.000000000000e+03 2.000000000000e+05 1.950000000000e+05 8.095668281117e-01 1.904331718883e-01 1.519106018702e-05 0.000000000000e+00 -6.894127368751e-05 0.000000000000e+00 
2.524576689199e+03 5.000000000000e+03 2.000000000000e+05 1.950000000000e+05 8.099387356551e-01 1.900612643449e-01 1.508438222541e-05 0.000000000000e+00 -6.839660388163e-05 0.000000000000e+00 
2.575230213226e+03 5.000000000000e+03 2.000000000000e+05 1.950000000000e+05 8.104150964520e-01 1.895849035480e-01 1.494848238662e-05 0.000000000000e+00 -6.770371497887e-05 0.000000000000e+00 
2.638850762743e+03 5.000000000000e+03 2.000000000000e+05 1.950000000000e+05 8.109969767876e-01 1.890030232124e-01 1.478360528198e-05 0.000000000000e+00 -6.686455271573e-05 0.000000000000e+00 
2.718071896167e+03 5.000000000000e+03 2.000000000000e+05 1.950000000000e+05 8.116970760062e-01 1.883029239938e-01 1.458686668395e-05 0.000000000000e+00 -6.586534179541e-05 0.000000000000e+00 
2.758264800281e+03 5.000000000000e+03 2.000000000000e+05 1.950000000000e+05 8.120466977799e-01 1.879533022201e-01 1.448928351091e-05 0.000000000000e+00 -6.537059125698e-05 0.000000000000e+00 
2.811214909199e+03 5.000000000000e+03 2.000000000000e+05 1.950000000000e+05 8.124974704238e-01 1.875025295762e-01 1.436412263512e-05 0.000000000000e+00 -6.473685146522e-05 0.000000000000e+00 
2.878179258962e+03 5.000000000000e+03 2.000000000000e+05 1.950000000000e+05 8.130522495950e-01 1.869477504050e-01 1.421109095218e-05 0.000000000000e+00 -6.396327345437e-05 0.000000000000e+00 
2.961911600519e+03 5.000000000000e+03 2.000000000000e+05 1.950000000000e+05 8.137228428953e-01 1.862771571047e-01 1.402759217827e-05 0.000000000000e+00 -6.303755156912e-05 0.000000000000e+00 
3.011429586533e+03 5.000000000000e+03 2.000000000000e+05 1.950000000000e+05 8.141121395089e-01 1.858878604911e-01 1.392180905215e-05 0.000000000000e+00 -6.250481122619e-05 0.000000000000e+00 
3.079446744340e+03 5.000000000000e+03 2.000000000000e+05 1.950000000000e+05 8.146330783687e-01 1.853669216313e-01 1.378110311569e-05 0.000000000000e+00 -6.179725232182e-05 0.000000000000e+00 
3.174252928109e+03 5.000000000000e+03 2.000000000000e+05 1.950000000000e+05 8.153331349971e-01 1.846668650029e-01 1.359354555209e-05 0.000000000000e+00 -6.085595906689e-05 0.000000000000e+00 
3.208011718537e+03 5.000000000000e+03 2.000000000000e+05 1.950000000000e+05 8.155795775445e-01 1.844204224555e-01 1.352793052990e-05 0.000000000000e+00 -6.052718548847e-05 0.000000000000e+00 
3.261591811771e+03 5.000000000000e+03 2.000000000000e+05 1.950000000000e+05 8.159632483649e-01 1.840367516351e-01 1.342621138508e-05 0.000000000000e+00 -6.001801167588e-05 0.000000000000e+00 
3.337247247008e+03 5.000000000000e+03 2.000000000000e+05 1.950000000000e+05 8.164905061026e-01 1.835094938974e-01 1.328727534514e-05 0.000000000000e+00 -5.932356965732e-05 0.000000000000e+00 
3.413350572079e+03 5.000000000000e+03 2.000000000000e+05 1.950000000000e+05 8.170071347171e-01 1.829928652829e-01 1.315209293502e-05 0.000000000000e+00 -5.864903254655e-05 0.000000000000e+00 
3.478333670524e+03 5.000000000000e+03 2.000000000000e+05 1.950000000000e+05 8.174388951843e-01 1.825611048157e-01 1.303983867637e-05 0.000000000000e+00 -5.808976271424e-05 0.000000000000e+00 
3.533980461820e+03 5.000000000000e+03 2.000000000000e+05 1.950000000000e+05 8.178020960425e-01 1.821979039575e-01 1.294591576689e-05 0.000000000000e+00 -5.762242845425e-05 0.000000000000e+00 
3.590800538303e+03 5.000000000000e+03 2.000000000000e+05 1.950000000000e+05 8.181663846354e-01 1.818336153646e-01 1.285217666603e-05 0.000000000000e+00 -5.715655367269e-05 0.000000000000e+00 
3.641901037179e+03 5.000000000000e+03 2.000000000000e+05 1.950000000000e+05 8.184889353832e-01 1.815110646168e-01 1.276956518404e-05 0.000000000000e+00 -5.674643639206e-05 0.000000000000e+00 
3.694479255974e+03 5.000000000000e+03 2.000000000000e+05 1.950000000000e+05 8.188156257657e-01 1.811843742343e-01 1.268626175632e-05 0.000000000000e+00 -5.633332606108e-05 0.000000000000e+00 
3.725474495355e+03 5.000000000000e+03 2.000000000000e+05 1.950000000000e+05 8.190065275935e-01 1.809934724065e-01 1.263775602914e-05 0.000000000000e+00 -5.609297894465e-05 0.000000000000e+00 
3.764830723426e+03 5.000000000000e+03 2.000000000000e+05 1.950000000000e+05 8.192462035182e-01 1.807537964818e-01 1.257703785072e-05 0.000000000000e+00 -5.579232274913e-05 0.000000000000e+00 
3.818159224778e+03 5.000000000000e+03 2.000000000000e+05 1.950000000000e+05 8.195660890575e-01 1.804339109425e-01 1.249630931352e-05 0.000000000000e+00 -5.539294834204e-05 0.000000000000e+00 
3.858974993229e+03 5.000000000000e+03 2.000000000000e+05 1.950000000000e+05 8.198082341431e-01 1.801917658569e-01 1.243543582729e-05 0.000000000000e+00 -5.509207161756e-05 0.000000000000e+00 
3.911628066538e+03 5.000000000000e+03 2.000000000000e+05 1.950000000000e+05 8.201162051887e-01 1.798837948113e-01 1.235830693420e-05 0.000000000000e+00 -5.471118893548e-05 0.000000000000e+00 
4.000000000000e+03 5.000000000000e+03 2.000000000000e+05 1.950000000000e+05 8.206208965103e-01 1.793791034897e-01 1.223262014010e-05 0.000000000000e+00 -5.409131874620e-05 0.000000000000e+00 
4.037941213486e+03 5.000000000000e+03 2.000000000000e+05 1.950000000000e+05 8.208356045464e-01 1.791643954536e-01 1.217941511192e-05 0.000000000000e+00 -5.382922607662e-05 0.000000000000e+00 
4.098414007716e+03 5.000000000000e+03 2.000000000000e+05 1.950000000000e+05 8.211726001373e-01 1.788273998627e-01 1.209622775783e-05 0.000000000000e+00 -5.341979413973e-05 0.000000000000e+00 
4.178464475189e+03 5.000000000000e+03 2.000000000000e+05 1.950000000000e+05 8.216096726536e-01 1.783903273464e-01 1.198891663420e-05 0.000000000000e+00 -5.289228420785e-05 0.000000000000e+00 
4.281612191541e+03 5.000000000000e+03 2.000000000000e+05 1.950000000000e+05 8.221579846430e-01 1.778420153570e-01 1.185521738855e-05 0.000000000000e+00 -5.223609472596e-05 0.000000000000e+00 
4.338903551101e+03 5.000000000000e+03 2.000000000000e+05 1.950000000000e+05 8.224583336109e-01 1.775416663891e-01 1.178241522363e-05 0.000000000000e+00 -5.187927173500e-05 0.000000000000e+00 
4.412450046579e+03 5.000000000000e+03 2.000000000000e+05 1.950000000000e+05 8.228367868796e-01 1.771632131204e-01 1.169111955253e-05 0.000000000000e+00 -5.143228465850e-05 0.000000000000e+00 
4.438440031198e+03 5.000000000000e+03 2.000000000000e+05 1.950000000000e+05 8.229697249518e-01 1.770302750482e-01 1.165916479696e-05 0.000000000000e+00 -5.127596570645e-05 0.000000000000e+00 
4.489436363340e+03 5.000000000000e+03 2.000000000000e+05 1.950000000000e+05 8.232272617316e-01 1.767727382684e-01 1.159743203256e-05 0.000000000000e+00 -5.097415549660e-05 0.000000000000e+00 
4.557030378251e+03 5.000000000000e+03 2.000000000000e+05 1.950000000000e+05 8.235628554227e-01 1.764371445773e-01 1.151732586775e-05 0.000000000000e+00 -5.058288605190e-05 0.000000000000e+00 
4.643242108620e+03 5.000000000000e+03 2.000000000000e+05 1.950000000000e+05 8.239816751871e-01 1.760183248129e-01 1.141788625124e-05 0.000000000000e+00 -5.009777146169e-05 0.000000000000e+00 
4.752125183345e+03 5.000000000000e+03 2.000000000000e+05 1.950000000000e+05 8.244963720455e-01 1.755036279545e-01 1.129649124553e-05 0.000000000000e+00 -4.950642776518e-05 0.000000000000e+00 
4.804141348908e+03 5.000000000000e+03 2.000000000000e+05 1.950000000000e+05 8.247393251089e-01 1.752606748911e-01 1.123949861882e-05 0.000000000000e+00 -4.922913467990e-05 0.000000000000e+00 
4.882282644673e+03 5.000000000000e+03 2.000000000000e+05 1.950000000000e+05 8.250975321535e-01 1.749024678465e-01 1.115583056046e-05 0.000000000000e+00 -4.882243987020e-05 0.000000000000e+00 
4.934416470445e+03 5.000000000000e+03 2.000000000000e+05 1.950000000000e+05 8.253336906861e-01 1.746663093139e-01 1.110090421916e-05 0.000000000000e+00 -4.855570646256e-05 0.000000000000e+00 
5.002078308237e+03 5.000000000000e+03 2.000000000000e+05 1.950000000000e+05 8.256354169407e-01 1.743645830593e-01 1.103099851252e-05 0.000000000000e+00 -4.821652034913e-05 0.000000000000e+00 
5.028957266663e+03 5.000000000000e+03 2.000000000000e+05 1.950000000000e+05 8.257545887222e-01 1.742454112778e-01 1.100347169004e-05 0.000000000000e+00 -4.808304759725e-05 0.000000000000e+00 
5.089790688737e+03 5.000000000000e+03 2.000000000000e+05 1.950000000000e+05 8.260205849478e-01 1.739794150522e-01 1.094220156714e-05 0.000000000000e+00 -4.778613816318e-05 0.000000000000e+00 
5.177623981965e+03 5.000000000000e+03 2.000000000000e+05 1.950000000000e+05 8.263970782124e-01 1.736029217876e-01 1.085588144338e-05 0.000000000000e+00 -4.736826077785e-05 0.000000000000e+00 
5.218656737502e+03 5.000000000000e+03 2.000000000000e+05 1.950000000000e+05 8.265714602183e-01 1.734285397817e-01 1.081605921409e-05 0.000000000000e+00 -4.717564913702e-05 0.000000000000e+00 