VARIABLES  = "X","Y","Z", "PRESSURE1", "PRESSURE2", "PRESSURE_W", "SATURATION1", SATURATION2, "VELOCITY_X1", "VELOCITY_Y1", "VELOCITY_X2", "VELOCITY_Y2"
ZONE T="0.000000000000e+00s", N=58, E=43, F=FEPOINT, ET=QUADRILATERAL
STRANDID=1, SOLUTIONTIME=0.000000000000e+00
2.600000000000e+00 0.000000000000e+00 0.000000000000e+00 5.000000000000e+04 0.000000000000e+00 -5.000000000000e+04 1.000000000000e-02 9.900000000000e-01 0.000000000000e+00 0.000000000000e+00 0.000000000000e+00 0.000000000000e+00 
2.600000000000e+00 5.000000000000e-01 0.000000000000e+00 5.000000000000e+04 0.000000000000e+00 -5.000000000000e+04 1.000000000000e-02 9.900000000000e-01 0.000000000000e+00 0.000000000000e+00 0.000000000000e+00 0.000000000000e+00 
2.062068965517e+00 0.000000000000e+00 0.000000000000e+00 5.000000000000e+04 0.000000000000e+00 -5.000000000000e+04 1.000000000000e-02 9.900000000000e-01 0.000000000000e+00 0.000000000000e+00 0.000000000000e+00 0.000000000000e+00 
2.151724137931e+00 0.000000000000e+00 0.000000000000e+00 5.000000000000e+04 0.000000000000e+00 -5.000000000000e+04 1.000000000000e-02 9.900000000000e-01 0.000000000000e+00 0.000000000000e+00 0.000000000000e+00 0.000000000000e+00 
2.241379310345e+00 0.000000000000e+00 0.000000000000e+00 5.000000000000e+04 0.000000000000e+00 -5.000000000000e+04 1.000000000000e-02 9.900000000000e-01 0.000000000000e+00 0.000000000000e+00 0.000000000000e+00 0.000000000000e+00 
2.331034482759e+00 0.000000000000e+00 0.000000000000e+00 5.000000000000e+04 0.000000000000e+00 -5.000000000000e+04 1.000000000000e-02 9.900000000000e-01 0.000000000000e+00 0.000000000000e+00 0.000000000000e+00 0.000000000000e+00 
2.420689655172e+00 0.000000000000e+00 0.000000000000e+00 5.000000000000e+04 0.000000000000e+00 -5.000000000000e+04 1.000000000000e-02 9.900000000000e-01 0.000000000000e+00 0.000000000000e+00 0.000000000000e+00 0.000000000000e+00 
2.510344827586e+00 0.000000000000e+00 0.000000000000e+00 5.000000000000e+04 0.000000000000e+00 -5.000000000000e+04 1.000000000000e-02 9.900000000000e-01 0.000000000000e+00 0.000000000000e+00 0.000000000000e+00 0.000000000000e+00 
2.600000000000e+00 8.333333333313e-02 0.000000000000e+00 5.000000000000e+04 0.000000000000e+00 -5.000000000000e+04 1.000000000000e-02 9.900000000000e-01 0.000000000000e+00 0.000000000000e+00 0.000000000000e+00 0.000000000000e+00 
2.600000000000e+00 1.666666666663e-01 0.000000000000e+00 5.000000000000e+04 0.000000000000e+00 -5.000000000000e+04 1.000000000000e-02 9.900000000000e-01 0.000000000000e+00 0.000000000000e+00 0.000000000000e+00 0.000000000000e+00 
2.600000000000e+00 2.499999999995e-01 0.000000000000e+00 5.000000000000e+04 0.000000000000e+00 -5.000000000000e+04 1.000000000000e-02 9.900000000000e-01 0.000000000000e+00 0.000000000000e+00 0.000000000000e+00 0.000000000000e+00 
2.600000000000e+00 3.333333333329e-01 0.000000000000e+00 5.000000000000e+04 0.000000000000e+00 -5.000000000000e+04 1.000000000000e-02 9.900000000000e-01 0.000000000000e+00 0.000000000000e+00 0.000000000000e+00 0.000000000000e+00 
2.600000000000e+00 4.166666666664e-01 0.000000000000e+00 5.000000000000e+04 0.000000000000e+00 -5.000000000000e+04 1.000000000000e-02 9.900000000000e-01 0.000000000000e+00 0.000000000000e+00 0.000000000000e+00 0.000000000000e+00 
2.510344827586e+00 5.000000000000e-01 0.000000000000e+00 5.000000000000e+04 0.000000000000e+00 -5.000000000000e+04 1.000000000000e-02 9.900000000000e-01 0.000000000000e+00 0.000000000000e+00 0.000000000000e+00 0.000000000000e+00 
2.420689655173e+00 5.000000000000e-01 0.000000000000e+00 5.000000000000e+04 0.000000000000e+00 -5.000000000000e+04 1.000000000000e-02 9.900000000000e-01 0.000000000000e+00 0.000000000000e+00 0.000000000000e+00 0.000000000000e+00 
2.331034482759e+00 5.000000000000e-01 0.000000000000e+00 5.000000000000e+04 0.000000000000e+00 -5.000000000000e+04 1.000000000000e-02 9.900000000000e-01 0.000000000000e+00 0.000000000000e+00 0.000000000000e+00 0.000000000000e+00 
2.241379310346e+00 5.000000000000e-01 0.000000000000e+00 5.000000000000e+04 0.000000000000e+00 -5.000000000000e+04 1.000000000000e-02 9.900000000000e-01 0.000000000000e+00 0.000000000000e+00 0.000000000000e+00 0.000000000000e+00 
2.151724137932e+00 5.000000000000e-01 0.000000000000e+00 5.000000000000e+04 0.000000000000e+00 -5.000000000000e+04 1.000000000000e-02 9.900000000000e-01 0.000000000000e+00 0.000000000000e+00 0.000000000000e+00 0.000000000000e+00 
2.062068965518e+00 5.000000000000e-01 0.000000000000e+00 5.000000000000e+04 0.000000000000e+00 -5.000000000000e+04 1.000000000000e-02 9.900000000000e-01 0.000000000000e+00 0.000000000000e+00 0.000000000000e+00 0.000000000000e+00 
1.972413793105e+00 5.000000000000e-01 0.000000000000e+00 5.000000000000e+04 0.000000000000e+00 -5.000000000000e+04 1.000000000000e-02 9.900000000000e-01 0.000000000000e+00 0.000000000000e+00 0.000000000000e+00 0.000000000000e+00 
2.062068965518e+00 4.166666666665e-01 0.000000000000e+00 5.000000000000e+04 0.000000000000e+00 -5.000000000000e+04 1.000000000000e-02 9.900000000000e-01 0.000000000000e+00 0.000000000000e+00 0.000000000000e+00 0.000000000000e+00 
2.151724137932e+00 4.166666666665e-01 0.000000000000e+00 5.000000000000e+04 0.000000000000e+00 -5.000000000000e+04 1.000000000000e-02 9.900000000000e-01 0.000000000000e+00 0.000000000000e+00 0.000000000000e+00 0.000000000000e+00 
2.241379310345e+00 4.166666666665e-01 0.000000000000e+00 5.000000000000e+04 0.000000000000e+00 -5.000000000000e+04 1.000000000000e-02 9.900000000000e-01 0.000000000000e+00 0.000000000000e+00 0.000000000000e+00 0.000000000000e+00 
2.331034482759e+00 4.166666666665e-01 0.000000000000e+00 5.000000000000e+04 0.000000000000e+00 -5.000000000000e+04 1.000000000000e-02 9.900000000000e-01 0.000000000000e+00 0.000000000000e+00 0.000000000000e+00 0.000000000000e+00 
2.420689655173e+00 4.166666666665e-01 0.000000000000e+00 5.000000000000e+04 0.000000000000e+00 -5.000000000000e+04 1.000000000000e-02 9.900000000000e-01 0.000000000000e+00 0.000000000000e+00 0.000000000000e+00 0.000000000000e+00 
2.510344827586e+00 4.166666666665e-01 0.000000000000e+00 5.000000000000e+04 0.000000000000e+00 -5.000000000000e+04 1.000000000000e-02 9.900000000000e-01 0.000000000000e+00 0.000000000000e+00 0.000000000000e+00 0.000000000000e+00 
2.062068965518e+00 3.333333333331e-01 0.000000000000e+00 5.000000000000e+04 0.000000000000e+00 -5.000000000000e+04 1.000000000000e-02 9.900000000000e-01 0.000000000000e+00 0.000000000000e+00 0.000000000000e+00 0.000000000000e+00 
2.151724137932e+00 3.333333333331e-01 0.000000000000e+00 5.000000000000e+04 0.000000000000e+00 -5.000000000000e+04 1.000000000000e-02 9.900000000000e-01 0.000000000000e+00 0.000000000000e+00 0.000000000000e+00 0.000000000000e+00 
2.241379310345e+00 3.333333333330e-01 0.000000000000e+00 5.000000000000e+04 0.000000000000e+00 -5.000000000000e+04 1.000000000000e-02 9.900000000000e-01 0.000000000000e+00 0.000000000000e+00 0.000000000000e+00 0.000000000000e+00 
2.331034482759e+00 3.333333333330e-01 0.000000000000e+00 5.000000000000e+04 0.000000000000e+00 -5.000000000000e+04 1.000000000000e-02 9.900000000000e-01 0.000000000000e+00 0.000000000000e+00 0.000000000000e+00 0.000000000000e+00 
2.420689655173e+00 3.333333333330e-01 0.000000000000e+00 5.000000000000e+04 0.000000000000e+00 -5.000000000000e+04 1.000000000000e-02 9.900000000000e-01 0.000000000000e+00 0.000000000000e+00 0.000000000000e+00 0.000000000000e+00 
2.510344827586e+00 3.333333333330e-01 0.000000000000e+00 5.000000000000e+04 0.000000000000e+00 -5.000000000000e+04 1.000000000000e-02 9.900000000000e-01 0.000000000000e+00 0.000000000000e+00 0.000000000000e+00 0.000000000000e+00 
2.062068965518e+00 2.499999999998e-01 0.000000000000e+00 5.000000000000e+04 0.000000000000e+00 -5.000000000000e+04 1.000000000000e-02 9.900000000000e-01 0.000000000000e+00 0.000000000000e+00 0.000000000000e+00 0.000000000000e+00 
2.151724137932e+00 2.499999999997e-01 0.000000000000e+00 5.000000000000e+04 0.000000000000e+00 -5.000000000000e+04 1.000000000000e-02 9.900000000000e-01 0.000000000000e+00 0.000000000000e+00 0.000000000000e+00 0.000000000000e+00 
2.241379310345e+00 2.499999999997e-01 0.000000000000e+00 5.000000000000e+04 0.000000000000e+00 -5.000000000000e+04 1.000000000000e-02 9.900000000000e-01 0.000000000000e+00 0.000000000000e+00 0.000000000000e+00 0.000000000000e+00 
2.331034482759e+00 2.499999999996e-01 0.000000000000e+00 5.000000000000e+04 0.000000000000e+00 -5.000000000000e+04 1.000000000000e-02 9.900000000000e-01 0.000000000000e+00 0.000000000000e+00 0.000000000000e+00 0.000000000000e+00 
2.420689655173e+00 2.499999999996e-01 0.000000000000e+00 5.000000000000e+04 0.000000000000e+00 -5.000000000000e+04 1.000000000000e-02 9.900000000000e-01 0.000000000000e+00 0.000000000000e+00 0.000000000000e+00 0.000000000000e+00 
2.510344827586e+00 2.499999999996e-01 0.000000000000e+00 5.000000000000e+04 0.000000000000e+00 -5.000000000000e+04 1.000000000000e-02 9.900000000000e-01 0.000000000000e+00 0.000000000000e+00 0.000000000000e+00 0.000000000000e+00 
2.062068965518e+00 1.666666666665e-01 0.000000000000e+00 5.000000000000e+04 0.000000000000e+00 -5.000000000000e+04 1.000000000000e-02 9.900000000000e-01 0.000000000000e+00 0.000000000000e+00 0.000000000000e+00 0.000000000000e+00 
2.151724137931e+00 1.666666666665e-01 0.000000000000e+00 5.000000000000e+04 0.000000000000e+00 -5.000000000000e+04 1.000000000000e-02 9.900000000000e-01 0.000000000000e+00 0.000000000000e+00 0.000000000000e+00 0.000000000000e+00 
2.241379310345e+00 1.666666666664e-01 0.000000000000e+00 5.000000000000e+04 0.000000000000e+00 -5.000000000000e+04 1.000000000000e-02 9.900000000000e-01 0.000000000000e+00 0.000000000000e+00 0.000000000000e+00 0.000000000000e+00 
2.331034482759e+00 1.666666666664e-01 0.000000000000e+00 5.000000000000e+04 0.000000000000e+00 -5.000000000000e+04 1.000000000000e-02 9.900000000000e-01 0.000000000000e+00 0.000000000000e+00 0.000000000000e+00 0.000000000000e+00 
2.420689655173e+00 1.666666666664e-01 0.000000000000e+00 5.000000000000e+04 0.000000000000e+00 -5.000000000000e+04 1.000000000000e-02 9.900000000000e-01 0.000000000000e+00 0.000000000000e+00 0.000000000000e+00 0.000000000000e+00 
2.510344827586e+00 1.666666666663e-01 0.000000000000e+00 5.000000000000e+04 0.000000000000e+00 -5.000000000000e+04 1.000000000000e-02 9.900000000000e-01 0.000000000000e+00 0.000000000000e+00 0.000000000000e+00 0.000000000000e+00 
2.062068965518e+00 8.333333333325e-02 0.000000000000e+00 5.000000000000e+04 0.000000000000e+00 -5.000000000000e+04 1.000000000000e-02 9.900000000000e-01 0.000000000000e+00 0.000000000000e+00 0.000000000000e+00 0.000000000000e+00 
2.151724137931e+00 8.333333333323e-02 0.000000000000e+00 5.000000000000e+04 0.000000000000e+00 -5.000000000000e+04 1.000000000000e-02 9.900000000000e-01 0.000000000000e+00 0.000000000000e+00 0.000000000000e+00 0.000000000000e+00 
2.241379310345e+00 8.333333333321e-02 0.000000000000e+00 5.000000000000e+04 0.000000000000e+00 -5.000000000000e+04 1.000000000000e-02 9.900000000000e-01 0.000000000000e+00 0.000000000000e+00 0.000000000000e+00 0.000000000000e+00 
2.331034482759e+00 8.333333333319e-02 0.000000000000e+00 5.000000000000e+04 0.000000000000e+00 -5.000000000000e+04 1.000000000000e-02 9.900000000000e-01 0.000000000000e+00 0.000000000000e+00 0.000000000000e+00 0.000000000000e+00 
2.420689655173e+00 8.333333333317e-02 0.000000000000e+00 5.000000000000e+04 0.000000000000e+00 -5.000000000000e+04 1.000000000000e-02 9.900000000000e-01 0.000000000000e+00 0.000000000000e+00 0.000000000000e+00 0.000000000000e+00 
2.510344827586e+00 8.333333333315e-02 0.000000000000e+00 5.000000000000e+04 0.000000000000e+00 -5.000000000000e+04 1.000000000000e-02 9.900000000000e-01 0.000000000000e+00 0.000000000000e+00 0.000000000000e+00 0.000000000000e+00 
1.972413793104e+00 8.333333333327e-02 0.000000000000e+00 5.000000000000e+04 0.000000000000e+00 -5.000000000000e+04 1.000000000000e-02 9.900000000000e-01 0.000000000000e+00 0.000000000000e+00 0.000000000000e+00 0.000000000000e+00 
1.972413793104e+00 0.000000000000e+00 0.000000000000e+00 5.000000000000e+04 0.000000000000e+00 -5.000000000000e+04 1.000000000000e-02 9.900000000000e-01 0.000000000000e+00 0.000000000000e+00 0.000000000000e+00 0.000000000000e+00 
1.972413793105e+00 4.166666666665e-01 0.000000000000e+00 5.000000000000e+04 0.000000000000e+00 -5.000000000000e+04 1.000000000000e-02 9.900000000000e-01 0.000000000000e+00 0.000000000000e+00 0.000000000000e+00 0.000000000000e+00 
1.882758620691e+00 5.000000000000e-01 0.000000000000e+00 5.000000000000e+04 0.000000000000e+00 -5.000000000000e+04 1.000000000000e-02 9.900000000000e-01 0.000000000000e+00 0.000000000000e+00 0.000000000000e+00 0.000000000000e+00 
1.882758620691e+00 4.166666666665e-01 0.000000000000e+00 5.000000000000e+04 0.000000000000e+00 -5.000000000000e+04 1.000000000000e-02 9.900000000000e-01 0.000000000000e+00 0.000000000000e+00 0.000000000000e+00 0.000000000000e+00 
1.972413793104e+00 3.333333333331e-01 0.000000000000e+00 5.000000000000e+04 0.000000000000e+00 -5.000000000000e+04 1.000000000000e-02 9.900000000000e-01 0.000000000000e+00 0.000000000000e+00 0.000000000000e+00 0.000000000000e+00 
1.972413793104e+00 2.499999999998e-01 0.000000000000e+00 5.000000000000e+04 0.000000000000e+00 -5.000000000000e+04 1.000000000000e-02 9.900000000000e-01 0.000000000000e+00 0.000000000000e+00 0.000000000000e+00 0.000000000000e+00 
1.972413793104e+00 1.666666666665e-01 0.000000000000e+00 5.000000000000e+04 0.000000000000e+00 -5.000000000000e+04 1.000000000000e-02 9.900000000000e-01 0.000000000000e+00 0.000000000000e+00 0.000000000000e+00 0.000000000000e+00 
50  8  1  9  
14  26  13  2  
45  3  4  46  
46  4  5  47  
47  5  6  48  
48  6  7  49  
49  7  8  50  
44  50  9  10  
38  44  10  11  
32  38  11  12  
26  32  12  13  
15  25  26  14  
16  24  25  15  
17  23  24  16  
18  22  23  17  
19  21  22  18  
21  27  28  22  
22  28  29  23  
23  29  30  24  
24  30  31  25  
25  31  32  26  
27  33  34  28  
28  34  35  29  
29  35  36  30  
30  36  37  31  
31  37  38  32  
33  39  40  34  
34  40  41  35  
35  41  42  36  
36  42  43  37  
37  43  44  38  
39  45  46  40  
40  46  47  41  
41  47  48  42  
42  48  49  43  
43  49  50  44  
51  52  3  45  
20  53  21  19  
54  55  53  20  
53  56  27  21  
56  57  33  27  
57  58  39  33  
58  51  45  39  
VARIABLES  = "X","Y","Z", "PRESSURE1", "PRESSURE2", "PRESSURE_W", "SATURATION1", SATURATION2, "VELOCITY_X1", "VELOCITY_Y1", "VELOCITY_X2", "VELOCITY_Y2"
ZONE T="5.000000000000e+02s", N=58, E=43, F=FEPOINT, ET=QUADRILATERAL
STRANDID=1, SOLUTIONTIME=5.000000000000e+02
2.600000000000e+00 0.000000000000e+00 0.000000000000e+00 5.000000001026e+04 2.017406499488e+05 1.517406499386e+05 9.999999995894e-03 9.900000000041e-01 1.967166558366e-17 1.484914944955e-17 1.927827788993e-09 1.455217799934e-09 
2.600000000000e+00 5.000000000000e-01 0.000000000000e+00 5.000000001026e+04 2.017406525274e+05 1.517406525172e+05 9.999999995894e-03 9.900000000041e-01 1.736280651157e-17 -1.630663783601e-17 1.701558928386e-09 -1.598052922723e-09 
2.062068965517e+00 0.000000000000e+00 0.000000000000e+00 5.000000001037e+04 2.017407396029e+05 1.517407395926e+05 9.999999995854e-03 9.900000000041e-01 3.135688580252e-16 1.315497441885e-17 3.073032094372e-08 1.289004100007e-09 
2.151724137931e+00 0.000000000000e+00 0.000000000000e+00 5.000000001027e+04 2.017407139670e+05 1.517407139567e+05 9.999999995894e-03 9.900000000041e-01 2.673137097912e-16 1.307542602918e-17 2.619685172305e-08 1.281394875207e-09 
2.241379310345e+00 0.000000000000e+00 0.000000000000e+00 5.000000001026e+04 2.017406916707e+05 1.517406916605e+05 9.999999995894e-03 9.900000000041e-01 2.256035503288e-16 1.679270282169e-17 2.210919354275e-08 1.645689473194e-09 
2.331034482759e+00 0.000000000000e+00 0.000000000000e+00 5.000000001026e+04 2.017406735139e+05 1.517406735037e+05 9.999999995894e-03 9.900000000041e-01 1.761434679524e-16 1.869228312266e-17 1.726209498590e-08 1.831846810656e-09 
2.420689655172e+00 0.000000000000e+00 0.000000000000e+00 5.000000001026e+04 2.017406600864e+05 1.517406600761e+05 9.999999995894e-03 9.900000000041e-01 1.215848881373e-16 1.821058350918e-17 1.191534260020e-08 1.784642737507e-09 
2.510344827586e+00 0.000000000000e+00 0.000000000000e+00 5.000000001026e+04 2.017406517125e+05 1.517406517022e+05 9.999999995894e-03 9.900000000041e-01 5.653636619773e-17 2.037842462899e-17 5.540575389618e-09 1.997089878289e-09 
2.600000000000e+00 8.333333333313e-02 0.000000000000e+00 5.000000001027e+04 2.017406487114e+05 1.517406487011e+05 9.999999995894e-03 9.900000000041e-01 1.453227571587e-17 -1.826678214231e-18 1.424164668102e-09 -1.790153404014e-10 
2.600000000000e+00 1.666666666663e-01 0.000000000000e+00 5.000000001027e+04 2.017406502533e+05 1.517406502430e+05 9.999999995894e-03 9.900000000041e-01 1.304393919634e-17 -1.353187966606e-17 1.278306822283e-09 -1.326126561249e-09 
2.600000000000e+00 2.499999999995e-01 0.000000000000e+00 5.000000001027e+04 2.017406509667e+05 1.517406509565e+05 9.999999995894e-03 9.900000000041e-01 1.443912178021e-17 -6.593384389375e-18 1.415035152272e-09 -6.461526847195e-10 
2.600000000000e+00 3.333333333329e-01 0.000000000000e+00 5.000000001026e+04 2.017406513522e+05 1.517406513419e+05 9.999999995894e-03 9.900000000041e-01 1.595380259619e-17 -1.210938275425e-18 1.563475313965e-09 -1.186719357573e-10 
2.600000000000e+00 4.166666666664e-01 0.000000000000e+00 5.000000001026e+04 2.017406511685e+05 1.517406511583e+05 9.999999995894e-03 9.900000000041e-01 1.761431971604e-17 -7.051499609725e-18 1.726206562427e-09 -6.910480056899e-10 
2.510344827586e+00 5.000000000000e-01 0.000000000000e+00 5.000000001026e+04 2.017406540841e+05 1.517406540738e+05 9.999999995894e-03 9.900000000041e-01 6.095483216189e-17 -1.603604400861e-17 5.973585204541e-09 -1.571535478772e-09 
2.420689655173e+00 5.000000000000e-01 0.000000000000e+00 5.000000001026e+04 2.017406634573e+05 1.517406634470e+05 9.999999995895e-03 9.900000000041e-01 1.283461233079e-16 -1.719291172153e-17 1.257794557222e-08 -1.684907818230e-09 
2.331034482759e+00 5.000000000000e-01 0.000000000000e+00 5.000000001026e+04 2.017406770979e+05 1.517406770876e+05 9.999999995894e-03 9.900000000041e-01 1.770433968407e-16 -1.646948010928e-17 1.735028803310e-08 -1.614012935057e-09 
2.241379310346e+00 5.000000000000e-01 0.000000000000e+00 5.000000001026e+04 2.017406952030e+05 1.517406951927e+05 9.999999995895e-03 9.900000000041e-01 2.234353466638e-16 -1.332380243391e-17 2.189670850030e-08 -1.305733370580e-09 
2.151724137932e+00 5.000000000000e-01 0.000000000000e+00 5.000000001026e+04 2.017407171621e+05 1.517407171519e+05 9.999999995894e-03 9.900000000041e-01 2.597357922001e-16 -8.673933225293e-18 2.545430176686e-08 -8.500471218636e-10 
2.062068965518e+00 5.000000000000e-01 0.000000000000e+00 5.000000001052e+04 2.017407417765e+05 1.517407417660e+05 9.999999995791e-03 9.900000000042e-01 3.035549068191e-16 2.179623260776e-19 2.974881093894e-08 2.132708926989e-11 
1.972413793105e+00 5.000000000000e-01 0.000000000000e+00 5.000000001094e+04 2.017407715934e+05 1.517407715824e+05 9.999999995624e-03 9.900000000044e-01 3.969514183836e-16 4.670188790489e-17 3.890123181091e-08 4.576608511931e-09 
2.062068965518e+00 4.166666666665e-01 0.000000000000e+00 5.000000001050e+04 2.017407417947e+05 1.517407417842e+05 9.999999995802e-03 9.900000000042e-01 3.292904646250e-16 -4.026262414426e-18 3.227081434169e-08 -3.945151864794e-10 
2.151724137932e+00 4.166666666665e-01 0.000000000000e+00 5.000000001026e+04 2.017407164393e+05 1.517407164291e+05 9.999999995894e-03 9.900000000041e-01 2.660292406974e-16 -5.428626556777e-18 2.607104458748e-08 -5.320068494785e-10 
2.241379310345e+00 4.166666666665e-01 0.000000000000e+00 5.000000001026e+04 2.017406940927e+05 1.517406940824e+05 9.999999995894e-03 9.900000000041e-01 2.270582770359e-16 -6.765743200161e-18 2.225175671430e-08 -6.630438343297e-10 
2.331034482759e+00 4.166666666665e-01 0.000000000000e+00 5.000000001026e+04 2.017406757254e+05 1.517406757152e+05 9.999999995894e-03 9.900000000041e-01 1.788415405346e-16 -7.638463401053e-18 1.752650693258e-08 -7.485702523631e-10 
2.420689655173e+00 4.166666666665e-01 0.000000000000e+00 5.000000001026e+04 2.017406620245e+05 1.517406620143e+05 9.999999995894e-03 9.900000000041e-01 1.281446865337e-16 -7.856836482416e-18 1.255820445005e-08 -7.699712513614e-10 
2.510344827586e+00 4.166666666665e-01 0.000000000000e+00 5.000000001026e+04 2.017406527478e+05 1.517406527375e+05 9.999999995894e-03 9.900000000041e-01 6.054294235092e-17 -7.809446297133e-18 5.933219970419e-09 -7.653274643013e-10 
2.062068965518e+00 3.333333333331e-01 0.000000000000e+00 5.000000001062e+04 2.017407411056e+05 1.517407410950e+05 9.999999995750e-03 9.900000000042e-01 3.255315063719e-16 -7.155997180563e-18 3.190234961397e-08 -7.012134674887e-10 
2.151724137932e+00 3.333333333331e-01 0.000000000000e+00 5.000000001026e+04 2.017407162574e+05 1.517407162471e+05 9.999999995894e-03 9.900000000041e-01 2.622821046234e-16 -5.061689040267e-18 2.570389568871e-08 -4.960465586526e-10 
2.241379310345e+00 3.333333333330e-01 0.000000000000e+00 5.000000001026e+04 2.017406940753e+05 1.517406940651e+05 9.999999995895e-03 9.900000000041e-01 2.254893612714e-16 -3.912682501972e-18 2.209800142340e-08 -3.834431286113e-10 
2.331034482759e+00 3.333333333330e-01 0.000000000000e+00 5.000000001027e+04 2.017406758248e+05 1.517406758145e+05 9.999999995894e-03 9.900000000041e-01 1.780575540207e-16 -2.816297107860e-18 1.744967566654e-08 -2.759976686101e-10 
2.420689655173e+00 3.333333333330e-01 0.000000000000e+00 5.000000001026e+04 2.017406621478e+05 1.517406621375e+05 9.999999995895e-03 9.900000000041e-01 1.285050496786e-16 -2.295323679625e-18 1.259352122576e-08 -2.249415535769e-10 
2.510344827586e+00 3.333333333330e-01 0.000000000000e+00 5.000000001026e+04 2.017406527825e+05 1.517406527723e+05 9.999999995894e-03 9.900000000041e-01 6.020628210347e-17 -2.918975640153e-18 5.900227093956e-09 -2.860606458650e-10 
2.062068965518e+00 2.499999999998e-01 0.000000000000e+00 5.000000001062e+04 2.017407406021e+05 1.517407405915e+05 9.999999995750e-03 9.900000000042e-01 3.230632032994e-16 -6.660584744388e-18 3.166045569691e-08 -6.528144604338e-10 
2.151724137932e+00 2.499999999997e-01 0.000000000000e+00 5.000000001026e+04 2.017407155957e+05 1.517407155854e+05 9.999999995894e-03 9.900000000041e-01 2.630146212136e-16 -1.077673667642e-17 2.577568110934e-08 -1.056122125237e-09 
2.241379310345e+00 2.499999999997e-01 0.000000000000e+00 5.000000001027e+04 2.017406934405e+05 1.517406934303e+05 9.999999995894e-03 9.900000000041e-01 2.249712137615e-16 -1.131421255538e-17 2.204722409394e-08 -1.108794488050e-09 
2.331034482759e+00 2.499999999996e-01 0.000000000000e+00 5.000000001026e+04 2.017406752560e+05 1.517406752458e+05 9.999999995894e-03 9.900000000041e-01 1.773382261957e-16 -1.096723959657e-17 1.737918170053e-08 -1.074792084695e-09 
2.420689655173e+00 2.499999999996e-01 0.000000000000e+00 5.000000001027e+04 2.017406616420e+05 1.517406616317e+05 9.999999995894e-03 9.900000000041e-01 1.282401251734e-16 -9.902704332729e-18 1.256755788317e-08 -9.704665053870e-10 
2.510344827586e+00 2.499999999996e-01 0.000000000000e+00 5.000000001026e+04 2.017406522613e+05 1.517406522510e+05 9.999999995894e-03 9.900000000041e-01 5.953501995003e-17 -8.158690253832e-18 5.834443707217e-09 -7.995536601886e-10 
2.062068965518e+00 1.666666666665e-01 0.000000000000e+00 5.000000001050e+04 2.017407399954e+05 1.517407399849e+05 9.999999995802e-03 9.900000000042e-01 3.195609425244e-16 -1.257109842777e-17 3.131739035918e-08 -1.232029180868e-09 
2.151724137931e+00 1.666666666665e-01 0.000000000000e+00 5.000000001026e+04 2.017407144613e+05 1.517407144510e+05 9.999999995894e-03 9.900000000041e-01 2.666075918892e-16 -1.631008055128e-17 2.612772327470e-08 -1.598391120764e-09 
2.241379310345e+00 1.666666666664e-01 0.000000000000e+00 5.000000001026e+04 2.017406921896e+05 1.517406921794e+05 9.999999995894e-03 9.900000000041e-01 2.256664313745e-16 -1.901518900924e-17 2.211535483676e-08 -1.863493340193e-09 
2.331034482759e+00 1.666666666664e-01 0.000000000000e+00 5.000000001026e+04 2.017406739969e+05 1.517406739867e+05 9.999999995894e-03 9.900000000041e-01 1.767455752904e-16 -1.979881596278e-17 1.732110157137e-08 -1.940287665475e-09 
2.420689655173e+00 1.666666666664e-01 0.000000000000e+00 5.000000001026e+04 2.017406604973e+05 1.517406604871e+05 9.999999995894e-03 9.900000000041e-01 1.258945390570e-16 -1.843873435668e-17 1.233769063958e-08 -1.807000806825e-09 
2.510344827586e+00 1.666666666663e-01 0.000000000000e+00 5.000000001026e+04 2.017406514227e+05 1.517406514125e+05 9.999999995895e-03 9.900000000041e-01 5.713031160304e-17 -1.348176948011e-17 5.598781540481e-09 -1.321215506370e-09 
2.062068965518e+00 8.333333333325e-02 0.000000000000e+00 5.000000001052e+04 2.017407385069e+05 1.517407384963e+05 9.999999995791e-03 9.900000000042e-01 3.139039255479e-16 -2.353780113177e-18 3.076296123711e-08 -2.307474119261e-10 
2.151724137931e+00 8.333333333323e-02 0.000000000000e+00 5.000000001026e+04 2.017407128774e+05 1.517407128671e+05 9.999999995894e-03 9.900000000041e-01 2.690043208737e-16 -2.965660014432e-18 2.636261895844e-08 -2.906348153835e-10 
2.241379310345e+00 8.333333333321e-02 0.000000000000e+00 5.000000001026e+04 2.017406902713e+05 1.517406902611e+05 9.999999995894e-03 9.900000000041e-01 2.282139485434e-16 -3.113465589349e-18 2.236501254928e-08 -3.051200711582e-10 
2.331034482759e+00 8.333333333319e-02 0.000000000000e+00 5.000000001026e+04 2.017406719562e+05 1.517406719460e+05 9.999999995894e-03 9.900000000041e-01 1.768024189907e-16 -2.898008284721e-18 1.732667266352e-08 -2.840060767702e-10 
2.420689655173e+00 8.333333333317e-02 0.000000000000e+00 5.000000001026e+04 2.017406585688e+05 1.517406585586e+05 9.999999995895e-03 9.900000000041e-01 1.223685113072e-16 -2.465681431584e-18 1.199213823950e-08 -2.416371513343e-10 
2.510344827586e+00 8.333333333315e-02 0.000000000000e+00 5.000000001026e+04 2.017406500143e+05 1.517406500040e+05 9.999999995894e-03 9.900000000041e-01 5.497416148471e-17 1.738581633184e-18 5.387477229378e-09 1.703821709492e-10 
1.972413793104e+00 8.333333333327e-02 0.000000000000e+00 5.000000001084e+04 2.017407691642e+05 1.517407691533e+05 9.999999995664e-03 9.900000000043e-01 3.419432437136e-16 -9.412315981136e-18 3.351085097882e-08 -9.222405066259e-10 
1.972413793104e+00 0.000000000000e+00 0.000000000000e+00 5.000000001120e+04 2.017407701941e+05 1.517407701829e+05 9.999999995520e-03 9.900000000045e-01 3.411991700499e-16 1.235445369865e-17 3.343849784777e-08 1.211162056538e-09 
1.972413793105e+00 4.166666666665e-01 0.000000000000e+00 5.000000001078e+04 2.017407754850e+05 1.517407754742e+05 9.999999995687e-03 9.900000000043e-01 3.853837226031e-16 2.771073810732e-17 3.776774963359e-08 2.715472003637e-09 
1.882758620691e+00 5.000000000000e-01 0.000000000000e+00 5.000000001037e+04 2.017408129539e+05 1.517408129435e+05 9.999999995854e-03 9.900000000041e-01 4.613353198073e-16 -1.433350069580e-17 4.521032448553e-08 -1.404652095293e-09 
1.882758620691e+00 4.166666666665e-01 0.000000000000e+00 5.000000001039e+04 2.017408117595e+05 1.517408117491e+05 9.999999995842e-03 9.900000000042e-01 4.046037088506e-16 -1.433350069460e-17 3.965081957627e-08 -1.404652062765e-09 
1.972413793104e+00 3.333333333331e-01 0.000000000000e+00 5.000000001062e+04 2.017407746289e+05 1.517407746183e+05 9.999999995750e-03 9.900000000042e-01 3.739137567345e-16 -1.176136354925e-17 3.664362284003e-08 -1.152708279711e-09 
1.972413793104e+00 2.499999999998e-01 0.000000000000e+00 5.000000001063e+04 2.017407735246e+05 1.517407735140e+05 9.999999995750e-03 9.900000000043e-01 3.672124712034e-16 -1.720023982796e-17 3.598689738555e-08 -1.685457611463e-09 
1.972413793104e+00 1.666666666665e-01 0.000000000000e+00 5.000000001091e+04 2.017407717625e+05 1.517407717516e+05 9.999999995635e-03 9.900000000044e-01 3.543208075864e-16 -2.616420013580e-17 3.472396572931e-08 -2.563971351580e-09 
50  8  1  9  
14  26  13  2  
45  3  4  46  
46  4  5  47  
47  5  6  48  
48  6  7  49  
49  7  8  50  
44  50  9  10  
38  44  10  11  
32  38  11  12  
26  32  12  13  
15  25  26  14  
16  24  25  15  
17  23  24  16  
18  22  23  17  
19  21  22  18  
21  27  28  22  
22  28  29  23  
23  29  30  24  
24  30  31  25  
25  31  32  26  
27  33  34  28  
28  34  35  29  
29  35  36  30  
30  36  37  31  
31  37  38  32  
33  39  40  34  
34  40  41  35  
35  41  42  36  
36  42  43  37  
37  43  44  38  
39  45  46  40  
40  46  47  41  
41  47  48  42  
42  48  49  43  
43  49  50  44  
51  52  3  45  
20  53  21  19  
54  55  53  20  
53  56  27  21  
56  57  33  27  
57  58  39  33  
58  51  45  39  
VARIABLES  = "X","Y","Z", "PRESSURE1", "PRESSURE2", "PRESSURE_W", "SATURATION1", SATURATION2, "VELOCITY_X1", "VELOCITY_Y1", "VELOCITY_X2", "VELOCITY_Y2"
ZONE T="1.000000000000e+03s", N=58, E=43, F=FEPOINT, ET=QUADRILATERAL
STRANDID=1, SOLUTIONTIME=1.000000000000e+03
2.600000000000e+00 0.000000000000e+00 0.000000000000e+00 5.000000001026e+04 2.017196087114e+05 1.517196087011e+05 9.999999995896e-03 9.900000000041e-01 1.912716107894e-17 1.449045132345e-17 1.874466697070e-09 1.420064473492e-09 
2.600000000000e+00 5.000000000000e-01 0.000000000000e+00 5.000000001026e+04 2.017196097868e+05 1.517196097765e+05 9.999999995897e-03 9.900000000041e-01 1.621073585501e-17 -1.508924874608e-17 1.588656238387e-09 -1.478747366988e-09 
2.062068965517e+00 0.000000000000e+00 0.000000000000e+00 5.000000001036e+04 2.017196962024e+05 1.517196961920e+05 9.999999995856e-03 9.900000000041e-01 3.017077676348e-16 1.309138079939e-17 2.956793059435e-08 1.282771256908e-09 
2.151724137931e+00 0.000000000000e+00 0.000000000000e+00 5.000000001026e+04 2.017196705711e+05 1.517196705609e+05 9.999999995896e-03 9.900000000041e-01 2.650550266209e-16 1.487529342604e-17 2.597549991684e-08 1.457783053292e-09 