VARIABLES  = "X","Y","Z", "PRESSURE1", "PRESSURE2", "PRESSURE_W", "SATURATION1", SATURATION2, "VELOCITY_X1", "VELOCITY_Y1", "VELOCITY_X2", "VELOCITY_Y2"
ZONE T="0.000000000000e+00s", N=71, E=54, F=FEPOINT, ET=QUADRILATERAL
STRANDID=1, SOLUTIONTIME=0.000000000000e+00
1.434482758620e+00 0.000000000000e+00 0.000000000000e+00 5.000000000000e+04 0.000000000000e+00 -5.000000000000e+04 1.000000000000e-02 9.900000000000e-01 0.000000000000e+00 0.000000000000e+00 0.000000000000e+00 0.000000000000e+00 
1.524137931034e+00 0.000000000000e+00 0.000000000000e+00 5.000000000000e+04 0.000000000000e+00 -5.000000000000e+04 1.000000000000e-02 9.900000000000e-01 0.000000000000e+00 0.000000000000e+00 0.000000000000e+00 0.000000000000e+00 
1.613793103448e+00 0.000000000000e+00 0.000000000000e+00 5.000000000000e+04 0.000000000000e+00 -5.000000000000e+04 1.000000000000e-02 9.900000000000e-01 0.000000000000e+00 0.000000000000e+00 0.000000000000e+00 0.000000000000e+00 
1.703448275862e+00 0.000000000000e+00 0.000000000000e+00 5.000000000000e+04 0.000000000000e+00 -5.000000000000e+04 1.000000000000e-02 9.900000000000e-01 0.000000000000e+00 0.000000000000e+00 0.000000000000e+00 0.000000000000e+00 
1.793103448276e+00 0.000000000000e+00 0.000000000000e+00 5.000000000000e+04 0.000000000000e+00 -5.000000000000e+04 1.000000000000e-02 9.900000000000e-01 0.000000000000e+00 0.000000000000e+00 0.000000000000e+00 0.000000000000e+00 
1.882758620690e+00 0.000000000000e+00 0.000000000000e+00 5.000000000000e+04 0.000000000000e+00 -5.000000000000e+04 1.000000000000e-02 9.900000000000e-01 0.000000000000e+00 0.000000000000e+00 0.000000000000e+00 0.000000000000e+00 
1.972413793104e+00 0.000000000000e+00 0.000000000000e+00 5.000000000000e+04 0.000000000000e+00 -5.000000000000e+04 1.000000000000e-02 9.900000000000e-01 0.000000000000e+00 0.000000000000e+00 0.000000000000e+00 0.000000000000e+00 
1.882758620691e+00 5.000000000000e-01 0.000000000000e+00 5.000000000000e+04 0.000000000000e+00 -5.000000000000e+04 1.000000000000e-02 9.900000000000e-01 0.000000000000e+00 0.000000000000e+00 0.000000000000e+00 0.000000000000e+00 
1.793103448277e+00 5.000000000000e-01 0.000000000000e+00 5.000000000000e+04 0.000000000000e+00 -5.000000000000e+04 1.000000000000e-02 9.900000000000e-01 0.000000000000e+00 0.000000000000e+00 0.000000000000e+00 0.000000000000e+00 
1.703448275863e+00 5.000000000000e-01 0.000000000000e+00 5.000000000000e+04 0.000000000000e+00 -5.000000000000e+04 1.000000000000e-02 9.900000000000e-01 0.000000000000e+00 0.000000000000e+00 0.000000000000e+00 0.000000000000e+00 
1.613793103450e+00 5.000000000000e-01 0.000000000000e+00 5.000000000000e+04 0.000000000000e+00 -5.000000000000e+04 1.000000000000e-02 9.900000000000e-01 0.000000000000e+00 0.000000000000e+00 0.000000000000e+00 0.000000000000e+00 
1.524137931036e+00 5.000000000000e-01 0.000000000000e+00 5.000000000000e+04 0.000000000000e+00 -5.000000000000e+04 1.000000000000e-02 9.900000000000e-01 0.000000000000e+00 0.000000000000e+00 0.000000000000e+00 0.000000000000e+00 
1.434482758622e+00 5.000000000000e-01 0.000000000000e+00 5.000000000000e+04 0.000000000000e+00 -5.000000000000e+04 1.000000000000e-02 9.900000000000e-01 0.000000000000e+00 0.000000000000e+00 0.000000000000e+00 0.000000000000e+00 
1.344827586208e+00 5.000000000000e-01 0.000000000000e+00 5.000000000000e+04 0.000000000000e+00 -5.000000000000e+04 1.000000000000e-02 9.900000000000e-01 0.000000000000e+00 0.000000000000e+00 0.000000000000e+00 0.000000000000e+00 
1.255172413794e+00 5.000000000000e-01 0.000000000000e+00 5.000000000000e+04 0.000000000000e+00 -5.000000000000e+04 1.000000000000e-02 9.900000000000e-01 0.000000000000e+00 0.000000000000e+00 0.000000000000e+00 0.000000000000e+00 
1.255172413794e+00 4.166666666666e-01 0.000000000000e+00 5.000000000000e+04 0.000000000000e+00 -5.000000000000e+04 1.000000000000e-02 9.900000000000e-01 0.000000000000e+00 0.000000000000e+00 0.000000000000e+00 0.000000000000e+00 
1.344827586208e+00 4.166666666666e-01 0.000000000000e+00 5.000000000000e+04 0.000000000000e+00 -5.000000000000e+04 1.000000000000e-02 9.900000000000e-01 0.000000000000e+00 0.000000000000e+00 0.000000000000e+00 0.000000000000e+00 
1.434482758622e+00 4.166666666666e-01 0.000000000000e+00 5.000000000000e+04 0.000000000000e+00 -5.000000000000e+04 1.000000000000e-02 9.900000000000e-01 0.000000000000e+00 0.000000000000e+00 0.000000000000e+00 0.000000000000e+00 
1.524137931036e+00 4.166666666666e-01 0.000000000000e+00 5.000000000000e+04 0.000000000000e+00 -5.000000000000e+04 1.000000000000e-02 9.900000000000e-01 0.000000000000e+00 0.000000000000e+00 0.000000000000e+00 0.000000000000e+00 
1.613793103449e+00 4.166666666666e-01 0.000000000000e+00 5.000000000000e+04 0.000000000000e+00 -5.000000000000e+04 1.000000000000e-02 9.900000000000e-01 0.000000000000e+00 0.000000000000e+00 0.000000000000e+00 0.000000000000e+00 
1.703448275863e+00 4.166666666666e-01 0.000000000000e+00 5.000000000000e+04 0.000000000000e+00 -5.000000000000e+04 1.000000000000e-02 9.900000000000e-01 0.000000000000e+00 0.000000000000e+00 0.000000000000e+00 0.000000000000e+00 
1.793103448277e+00 4.166666666666e-01 0.000000000000e+00 5.000000000000e+04 0.000000000000e+00 -5.000000000000e+04 1.000000000000e-02 9.900000000000e-01 0.000000000000e+00 0.000000000000e+00 0.000000000000e+00 0.000000000000e+00 
1.882758620691e+00 4.166666666665e-01 0.000000000000e+00 5.000000000000e+04 0.000000000000e+00 -5.000000000000e+04 1.000000000000e-02 9.900000000000e-01 0.000000000000e+00 0.000000000000e+00 0.000000000000e+00 0.000000000000e+00 
1.972413793105e+00 4.166666666665e-01 0.000000000000e+00 5.000000000000e+04 0.000000000000e+00 -5.000000000000e+04 1.000000000000e-02 9.900000000000e-01 0.000000000000e+00 0.000000000000e+00 0.000000000000e+00 0.000000000000e+00 
1.344827586208e+00 3.333333333333e-01 0.000000000000e+00 5.000000000000e+04 0.000000000000e+00 -5.000000000000e+04 1.000000000000e-02 9.900000000000e-01 0.000000000000e+00 0.000000000000e+00 0.000000000000e+00 0.000000000000e+00 
1.434482758621e+00 3.333333333333e-01 0.000000000000e+00 5.000000000000e+04 0.000000000000e+00 -5.000000000000e+04 1.000000000000e-02 9.900000000000e-01 0.000000000000e+00 0.000000000000e+00 0.000000000000e+00 0.000000000000e+00 
1.524137931035e+00 3.333333333333e-01 0.000000000000e+00 5.000000000000e+04 0.000000000000e+00 -5.000000000000e+04 1.000000000000e-02 9.900000000000e-01 0.000000000000e+00 0.000000000000e+00 0.000000000000e+00 0.000000000000e+00 
1.613793103449e+00 3.333333333332e-01 0.000000000000e+00 5.000000000000e+04 0.000000000000e+00 -5.000000000000e+04 1.000000000000e-02 9.900000000000e-01 0.000000000000e+00 0.000000000000e+00 0.000000000000e+00 0.000000000000e+00 
1.703448275863e+00 3.333333333332e-01 0.000000000000e+00 5.000000000000e+04 0.000000000000e+00 -5.000000000000e+04 1.000000000000e-02 9.900000000000e-01 0.000000000000e+00 0.000000000000e+00 0.000000000000e+00 0.000000000000e+00 
1.793103448277e+00 3.333333333332e-01 0.000000000000e+00 5.000000000000e+04 0.000000000000e+00 -5.000000000000e+04 1.000000000000e-02 9.900000000000e-01 0.000000000000e+00 0.000000000000e+00 0.000000000000e+00 0.000000000000e+00 
1.882758620691e+00 3.333333333332e-01 0.000000000000e+00 5.000000000000e+04 0.000000000000e+00 -5.000000000000e+04 1.000000000000e-02 9.900000000000e-01 0.000000000000e+00 0.000000000000e+00 0.000000000000e+00 0.000000000000e+00 
1.972413793104e+00 3.333333333331e-01 0.000000000000e+00 5.000000000000e+04 0.000000000000e+00 -5.000000000000e+04 1.000000000000e-02 9.900000000000e-01 0.000000000000e+00 0.000000000000e+00 0.000000000000e+00 0.000000000000e+00 
1.344827586207e+00 2.500000000001e-01 0.000000000000e+00 5.000000000000e+04 0.000000000000e+00 -5.000000000000e+04 1.000000000000e-02 9.900000000000e-01 0.000000000000e+00 0.000000000000e+00 0.000000000000e+00 0.000000000000e+00 
1.434482758621e+00 2.500000000000e-01 0.000000000000e+00 5.000000000000e+04 0.000000000000e+00 -5.000000000000e+04 1.000000000000e-02 9.900000000000e-01 0.000000000000e+00 0.000000000000e+00 0.000000000000e+00 0.000000000000e+00 
1.524137931035e+00 2.500000000000e-01 0.000000000000e+00 5.000000000000e+04 0.000000000000e+00 -5.000000000000e+04 1.000000000000e-02 9.900000000000e-01 0.000000000000e+00 0.000000000000e+00 0.000000000000e+00 0.000000000000e+00 
1.613793103449e+00 2.500000000000e-01 0.000000000000e+00 5.000000000000e+04 0.000000000000e+00 -5.000000000000e+04 1.000000000000e-02 9.900000000000e-01 0.000000000000e+00 0.000000000000e+00 0.000000000000e+00 0.000000000000e+00 
1.703448275863e+00 2.499999999999e-01 0.000000000000e+00 5.000000000000e+04 0.000000000000e+00 -5.000000000000e+04 1.000000000000e-02 9.900000000000e-01 0.000000000000e+00 0.000000000000e+00 0.000000000000e+00 0.000000000000e+00 
1.793103448277e+00 2.499999999999e-01 0.000000000000e+00 5.000000000000e+04 0.000000000000e+00 -5.000000000000e+04 1.000000000000e-02 9.900000000000e-01 0.000000000000e+00 0.000000000000e+00 0.000000000000e+00 0.000000000000e+00 
1.882758620690e+00 2.499999999998e-01 0.000000000000e+00 5.000000000000e+04 0.000000000000e+00 -5.000000000000e+04 1.000000000000e-02 9.900000000000e-01 0.000000000000e+00 0.000000000000e+00 0.000000000000e+00 0.000000000000e+00 
1.972413793104e+00 2.499999999998e-01 0.000000000000e+00 5.000000000000e+04 0.000000000000e+00 -5.000000000000e+04 1.000000000000e-02 9.900000000000e-01 0.000000000000e+00 0.000000000000e+00 0.000000000000e+00 0.000000000000e+00 
1.434482758621e+00 1.666666666667e-01 0.000000000000e+00 5.000000000000e+04 0.000000000000e+00 -5.000000000000e+04 1.000000000000e-02 9.900000000000e-01 0.000000000000e+00 0.000000000000e+00 0.000000000000e+00 0.000000000000e+00 
1.524137931035e+00 1.666666666667e-01 0.000000000000e+00 5.000000000000e+04 0.000000000000e+00 -5.000000000000e+04 1.000000000000e-02 9.900000000000e-01 0.000000000000e+00 0.000000000000e+00 0.000000000000e+00 0.000000000000e+00 
1.613793103449e+00 1.666666666667e-01 0.000000000000e+00 5.000000000000e+04 0.000000000000e+00 -5.000000000000e+04 1.000000000000e-02 9.900000000000e-01 0.000000000000e+00 0.000000000000e+00 0.000000000000e+00 0.000000000000e+00 
1.703448275862e+00 1.666666666666e-01 0.000000000000e+00 5.000000000000e+04 0.000000000000e+00 -5.000000000000e+04 1.000000000000e-02 9.900000000000e-01 0.000000000000e+00 0.000000000000e+00 0.000000000000e+00 0.000000000000e+00 
1.793103448276e+00 1.666666666666e-01 0.000000000000e+00 5.000000000000e+04 0.000000000000e+00 -5.000000000000e+04 1.000000000000e-02 9.900000000000e-01 0.000000000000e+00 0.000000000000e+00 0.000000000000e+00 0.000000000000e+00 
1.882758620690e+00 1.666666666666e-01 0.000000000000e+00 5.000000000000e+04 0.000000000000e+00 -5.000000000000e+04 1.000000000000e-02 9.900000000000e-01 0.000000000000e+00 0.000000000000e+00 0.000000000000e+00 0.000000000000e+00 
1.972413793104e+00 1.666666666665e-01 0.000000000000e+00 5.000000000000e+04 0.000000000000e+00 -5.000000000000e+04 1.000000000000e-02 9.900000000000e-01 0.000000000000e+00 0.000000000000e+00 0.000000000000e+00 0.000000000000e+00 
1.434482758620e+00 8.333333333338e-02 0.000000000000e+00 5.000000000000e+04 0.000000000000e+00 -5.000000000000e+04 1.000000000000e-02 9.900000000000e-01 0.000000000000e+00 0.000000000000e+00 0.000000000000e+00 0.000000000000e+00 
1.524137931034e+00 8.333333333336e-02 0.000000000000e+00 5.000000000000e+04 0.000000000000e+00 -5.000000000000e+04 1.000000000000e-02 9.900000000000e-01 0.000000000000e+00 0.000000000000e+00 0.000000000000e+00 0.000000000000e+00 
1.613793103448e+00 8.333333333334e-02 0.000000000000e+00 5.000000000000e+04 0.000000000000e+00 -5.000000000000e+04 1.000000000000e-02 9.900000000000e-01 0.000000000000e+00 0.000000000000e+00 0.000000000000e+00 0.000000000000e+00 
1.703448275862e+00 8.333333333332e-02 0.000000000000e+00 5.000000000000e+04 0.000000000000e+00 -5.000000000000e+04 1.000000000000e-02 9.900000000000e-01 0.000000000000e+00 0.000000000000e+00 0.000000000000e+00 0.000000000000e+00 
1.793103448276e+00 8.333333333330e-02 0.000000000000e+00 5.000000000000e+04 0.000000000000e+00 -5.000000000000e+04 1.000000000000e-02 9.900000000000e-01 0.000000000000e+00 0.000000000000e+00 0.000000000000e+00 0.000000000000e+00 
1.882758620690e+00 8.333333333328e-02 0.000000000000e+00 5.000000000000e+04 0.000000000000e+00 -5.000000000000e+04 1.000000000000e-02 9.900000000000e-01 0.000000000000e+00 0.000000000000e+00 0.000000000000e+00 0.000000000000e+00 
1.972413793104e+00 8.333333333327e-02 0.000000000000e+00 5.000000000000e+04 0.000000000000e+00 -5.000000000000e+04 1.000000000000e-02 9.900000000000e-01 0.000000000000e+00 0.000000000000e+00 0.000000000000e+00 0.000000000000e+00 
1.344827586206e+00 8.333333333340e-02 0.000000000000e+00 5.000000000000e+04 0.000000000000e+00 -5.000000000000e+04 1.000000000000e-02 9.900000000000e-01 0.000000000000e+00 0.000000000000e+00 0.000000000000e+00 0.000000000000e+00 
1.344827586206e+00 0.000000000000e+00 0.000000000000e+00 5.000000000000e+04 0.000000000000e+00 -5.000000000000e+04 1.000000000000e-02 9.900000000000e-01 0.000000000000e+00 0.000000000000e+00 0.000000000000e+00 0.000000000000e+00 
2.062068965517e+00 0.000000000000e+00 0.000000000000e+00 5.000000000000e+04 0.000000000000e+00 -5.000000000000e+04 1.000000000000e-02 9.900000000000e-01 0.000000000000e+00 0.000000000000e+00 0.000000000000e+00 0.000000000000e+00 
2.062068965518e+00 8.333333333325e-02 0.000000000000e+00 5.000000000000e+04 0.000000000000e+00 -5.000000000000e+04 1.000000000000e-02 9.900000000000e-01 0.000000000000e+00 0.000000000000e+00 0.000000000000e+00 0.000000000000e+00 
1.972413793105e+00 5.000000000000e-01 0.000000000000e+00 5.000000000000e+04 0.000000000000e+00 -5.000000000000e+04 1.000000000000e-02 9.900000000000e-01 0.000000000000e+00 0.000000000000e+00 0.000000000000e+00 0.000000000000e+00 
1.165517241380e+00 5.000000000000e-01 0.000000000000e+00 5.000000000000e+04 0.000000000000e+00 -5.000000000000e+04 1.000000000000e-02 9.900000000000e-01 0.000000000000e+00 0.000000000000e+00 0.000000000000e+00 0.000000000000e+00 
1.165517241380e+00 4.166666666666e-01 0.000000000000e+00 5.000000000000e+04 0.000000000000e+00 -5.000000000000e+04 1.000000000000e-02 9.900000000000e-01 0.000000000000e+00 0.000000000000e+00 0.000000000000e+00 0.000000000000e+00 
1.165517241380e+00 3.333333333334e-01 0.000000000000e+00 5.000000000000e+04 0.000000000000e+00 -5.000000000000e+04 1.000000000000e-02 9.900000000000e-01 0.000000000000e+00 0.000000000000e+00 0.000000000000e+00 0.000000000000e+00 
1.255172413794e+00 3.333333333333e-01 0.000000000000e+00 5.000000000000e+04 0.000000000000e+00 -5.000000000000e+04 1.000000000000e-02 9.900000000000e-01 0.000000000000e+00 0.000000000000e+00 0.000000000000e+00 0.000000000000e+00 
2.062068965518e+00 4.166666666665e-01 0.000000000000e+00 5.000000000000e+04 0.000000000000e+00 -5.000000000000e+04 1.000000000000e-02 9.900000000000e-01 0.000000000000e+00 0.000000000000e+00 0.000000000000e+00 0.000000000000e+00 
2.062068965518e+00 5.000000000000e-01 0.000000000000e+00 5.000000000000e+04 0.000000000000e+00 -5.000000000000e+04 1.000000000000e-02 9.900000000000e-01 0.000000000000e+00 0.000000000000e+00 0.000000000000e+00 0.000000000000e+00 
2.062068965518e+00 3.333333333331e-01 0.000000000000e+00 5.000000000000e+04 0.000000000000e+00 -5.000000000000e+04 1.000000000000e-02 9.900000000000e-01 0.000000000000e+00 0.000000000000e+00 0.000000000000e+00 0.000000000000e+00 
1.255172413793e+00 2.500000000001e-01 0.000000000000e+00 5.000000000000e+04 0.000000000000e+00 -5.000000000000e+04 1.000000000000e-02 9.900000000000e-01 0.000000000000e+00 0.000000000000e+00 0.000000000000e+00 0.000000000000e+00 
2.062068965518e+00 2.499999999998e-01 0.000000000000e+00 5.000000000000e+04 0.000000000000e+00 -5.000000000000e+04 1.000000000000e-02 9.900000000000e-01 0.000000000000e+00 0.000000000000e+00 0.000000000000e+00 0.000000000000e+00 
1.255172413793e+00 1.666666666668e-01 0.000000000000e+00 5.000000000000e+04 0.000000000000e+00 -5.000000000000e+04 1.000000000000e-02 9.900000000000e-01 0.000000000000e+00 0.000000000000e+00 0.000000000000e+00 0.000000000000e+00 
1.344827586207e+00 1.666666666668e-01 0.000000000000e+00 5.000000000000e+04 0.000000000000e+00 -5.000000000000e+04 1.000000000000e-02 9.900000000000e-01 0.000000000000e+00 0.000000000000e+00 0.000000000000e+00 0.000000000000e+00 
2.062068965518e+00 1.666666666665e-01 0.000000000000e+00 5.000000000000e+04 0.000000000000e+00 -5.000000000000e+04 1.000000000000e-02 9.900000000000e-01 0.000000000000e+00 0.000000000000e+00 0.000000000000e+00 0.000000000000e+00 
48  1  2  49  
49  2  3  50  
50  3  4  51  
51  4  5  52  
52  5  6  53  
53  6  7  54  
9  22  23  8  
10  21  22  9  
11  20  21  10  
12  19  20  11  
13  18  19  12  
14  17  18  13  
15  16  17  14  
17  25  26  18  
18  26  27  19  
19  27  28  20  
20  28  29  21  
21  29  30  22  
22  30  31  23  
23  31  32  24  
25  33  34  26  
26  34  35  27  
27  35  36  28  
28  36  37  29  
29  37  38  30  
30  38  39  31  
31  39  40  32  
34  41  42  35  
35  42  43  36  
36  43  44  37  
37  44  45  38  
38  45  46  39  
39  46  47  40  
41  48  49  42  
42  49  50  43  
43  50  51  44  
44  51  52  45  
45  52  53  46  
46  53  54  47  
55  56  1  48  
54  7  57  58  
8  23  24  59  
60  61  16  15  
61  62  63  16  
16  63  25  17  
59  24  64  65  
24  32  66  64  
63  67  33  25  
32  40  68  66  
67  69  70  33  
33  70  41  34  
40  47  71  68  
70  55  48  41  
47  54  58  71  
VARIABLES  = "X","Y","Z", "PRESSURE1", "PRESSURE2", "PRESSURE_W", "SATURATION1", SATURATION2, "VELOCITY_X1", "VELOCITY_Y1", "VELOCITY_X2", "VELOCITY_Y2"
ZONE T="5.000000000000e+02s", N=71, E=54, F=FEPOINT, ET=QUADRILATERAL
STRANDID=1, SOLUTIONTIME=5.000000000000e+02
1.434482758620e+00 0.000000000000e+00 0.000000000000e+00 5.000000001087e+04 2.017410287676e+05 1.517410287567e+05 9.999999995650e-03 9.900000000043e-01 5.289706263444e-16 1.533788113443e-18 5.183941378773e-08 1.503119543192e-10 
1.524137931034e+00 0.000000000000e+00 0.000000000000e+00 5.000000001053e+04 2.017409817683e+05 1.517409817578e+05 9.999999995787e-03 9.900000000042e-01 5.208051214244e-16 2.700512017982e-18 5.103919252928e-08 2.646504354253e-10 
1.613793103448e+00 0.000000000000e+00 0.000000000000e+00 5.000000001053e+04 2.017409353815e+05 1.517409353709e+05 9.999999995787e-03 9.900000000042e-01 5.147570607095e-16 3.004474351591e-18 5.044629434848e-08 2.944389379447e-10 
1.703448275862e+00 0.000000000000e+00 0.000000000000e+00 5.000000001053e+04 2.017408894670e+05 1.517408894565e+05 9.999999995787e-03 9.900000000042e-01 5.004414292748e-16 -2.716478257616e-18 4.904322674900e-08 -2.662162352895e-10 
1.793103448276e+00 0.000000000000e+00 0.000000000000e+00 5.000000001078e+04 2.017408456474e+05 1.517408456366e+05 9.999999995690e-03 9.900000000043e-01 4.685734907775e-16 7.573939739739e-18 4.591999956960e-08 7.452187158241e-10 
1.882758620690e+00 0.000000000000e+00 0.000000000000e+00 5.000000001107e+04 2.017408054475e+05 1.517408054364e+05 9.999999995571e-03 9.900000000044e-01 4.242234262559e-16 1.909664043944e-17 4.157363014630e-08 1.871069100921e-09 
1.972413793104e+00 0.000000000000e+00 0.000000000000e+00 5.000000001142e+04 2.017407695804e+05 1.517407695690e+05 9.999999995433e-03 9.900000000046e-01 3.706313206964e-16 1.235142122259e-17 3.632218635586e-08 1.210842176662e-09 
1.882758620691e+00 5.000000000000e-01 0.000000000000e+00 5.000000001063e+04 2.017408123406e+05 1.517408123300e+05 9.999999995749e-03 9.900000000043e-01 4.483729321421e-16 -1.433309418858e-17 4.394028652597e-08 -1.404615288207e-09 
1.793103448277e+00 5.000000000000e-01 0.000000000000e+00 5.000000001053e+04 2.017408513771e+05 1.517408513666e+05 9.999999995787e-03 9.900000000042e-01 4.533764727283e-16 -9.268328959295e-18 4.443093249800e-08 -9.082984739295e-10 
1.703448275863e+00 5.000000000000e-01 0.000000000000e+00 5.000000001053e+04 2.017408936356e+05 1.517408936251e+05 9.999999995787e-03 9.900000000042e-01 4.825206493281e-16 -6.269844919183e-18 4.728711991327e-08 -6.144470751516e-10 
1.613793103450e+00 5.000000000000e-01 0.000000000000e+00 5.000000001053e+04 2.017409378981e+05 1.517409378875e+05 9.999999995787e-03 9.900000000042e-01 5.013549229931e-16 -4.951918145095e-18 4.913288210289e-08 -4.852899967225e-10 
1.524137931036e+00 5.000000000000e-01 0.000000000000e+00 5.000000001053e+04 2.017409835337e+05 1.517409835232e+05 9.999999995787e-03 9.900000000042e-01 5.148950024469e-16 -3.710579151091e-18 5.045981244616e-08 -3.636373648765e-10 
1.434482758622e+00 5.000000000000e-01 0.000000000000e+00 5.000000001053e+04 2.017410302241e+05 1.517410302135e+05 9.999999995787e-03 9.900000000042e-01 5.251644670685e-16 -2.487673106180e-18 5.146622273216e-08 -2.437927621334e-10 
1.344827586208e+00 5.000000000000e-01 0.000000000000e+00 5.000000001053e+04 2.017410777012e+05 1.517410776906e+05 9.999999995787e-03 9.900000000042e-01 5.326399612422e-16 -2.012899488650e-18 5.219900881925e-08 -1.971200699416e-10 
1.255172413794e+00 5.000000000000e-01 0.000000000000e+00 5.000000001087e+04 2.017411257322e+05 1.517411257214e+05 9.999999995650e-03 9.900000000043e-01 5.398573886929e-16 -1.358497178303e-18 5.290631751269e-08 -1.329554375272e-10 
1.255172413794e+00 4.166666666666e-01 0.000000000000e+00 5.000000001102e+04 2.017411256192e+05 1.517411256082e+05 9.999999995590e-03 9.900000000044e-01 5.404781286297e-16 -6.878378960881e-19 5.296701693782e-08 -6.732000370459e-11 
1.344827586208e+00 4.166666666666e-01 0.000000000000e+00 5.000000001066e+04 2.017410775335e+05 1.517410775229e+05 9.999999995738e-03 9.900000000043e-01 5.331647387993e-16 -2.112867879889e-18 5.225051980030e-08 -2.069326012404e-10 
1.434482758622e+00 4.166666666666e-01 0.000000000000e+00 5.000000001053e+04 2.017410300167e+05 1.517410300062e+05 9.999999995787e-03 9.900000000042e-01 5.259534527228e-16 -2.297830335583e-18 5.154361054578e-08 -2.251876087322e-10 
1.524137931036e+00 4.166666666666e-01 0.000000000000e+00 5.000000001053e+04 2.017409832245e+05 1.517409832140e+05 9.999999995787e-03 9.900000000042e-01 5.160402445753e-16 -2.992518515718e-18 5.057204676422e-08 -2.932672037379e-10 
1.613793103449e+00 4.166666666666e-01 0.000000000000e+00 5.000000001053e+04 2.017409374854e+05 1.517409374749e+05 9.999999995787e-03 9.900000000042e-01 5.025443255658e-16 -3.992605812292e-18 4.924944432326e-08 -3.912764819973e-10 
1.703448275863e+00 4.166666666666e-01 0.000000000000e+00 5.000000001053e+04 2.017408931131e+05 1.517408931026e+05 9.999999995787e-03 9.900000000042e-01 4.845266732003e-16 -5.100875268825e-18 4.748371040005e-08 -4.998867354065e-10 
1.793103448277e+00 4.166666666666e-01 0.000000000000e+00 5.000000001053e+04 2.017408506047e+05 1.517408505942e+05 9.999999995787e-03 9.900000000042e-01 4.571238161437e-16 -6.629758061281e-18 4.479815805933e-08 -6.497170821451e-10 
1.882758620691e+00 4.166666666665e-01 0.000000000000e+00 5.000000001065e+04 2.017408111462e+05 1.517408111356e+05 9.999999995738e-03 9.900000000043e-01 4.223624969340e-16 -1.061665599419e-17 4.139134054357e-08 -1.040490514001e-09 
1.972413793105e+00 4.166666666665e-01 0.000000000000e+00 5.000000001102e+04 2.017407748713e+05 1.517407748602e+05 9.999999995591e-03 9.900000000044e-01 3.901930472793e-16 1.821401850919e-17 3.823894338094e-08 1.784801085840e-09 
1.344827586208e+00 3.333333333333e-01 0.000000000000e+00 5.000000001075e+04 2.017410773492e+05 1.517410773385e+05 9.999999995699e-03 9.900000000043e-01 5.341364287763e-16 -3.135929874108e-18 5.234574475358e-08 -3.071053122431e-10 
1.434482758621e+00 3.333333333333e-01 0.000000000000e+00 5.000000001053e+04 2.017410298411e+05 1.517410298305e+05 9.999999995787e-03 9.900000000042e-01 5.259820912201e-16 -3.253963822899e-18 5.154646966743e-08 -3.188168301719e-10 
1.524137931035e+00 3.333333333333e-01 0.000000000000e+00 5.000000001053e+04 2.017409830350e+05 1.517409830244e+05 9.999999995787e-03 9.900000000042e-01 5.164702743842e-16 -3.444413015709e-18 5.061418993255e-08 -3.375528375937e-10 
1.613793103449e+00 3.333333333332e-01 0.000000000000e+00 5.000000001053e+04 2.017409372326e+05 1.517409372221e+05 9.999999995787e-03 9.900000000042e-01 5.033146135285e-16 -4.886826053999e-18 4.932493230833e-08 -4.789091159324e-10 
1.703448275863e+00 3.333333333332e-01 0.000000000000e+00 5.000000001053e+04 2.017408927855e+05 1.517408927749e+05 9.999999995787e-03 9.900000000042e-01 4.849718484366e-16 -6.735057190417e-18 4.752733713612e-08 -6.600358065330e-10 
1.793103448277e+00 3.333333333332e-01 0.000000000000e+00 5.000000001053e+04 2.017408502721e+05 1.517408502616e+05 9.999999995787e-03 9.900000000042e-01 4.585033199146e-16 -8.075354683026e-18 4.493341672039e-08 -7.913864275717e-10 
1.882758620691e+00 3.333333333332e-01 0.000000000000e+00 5.000000001053e+04 2.017408105711e+05 1.517408105605e+05 9.999999995787e-03 9.900000000042e-01 4.252809603173e-16 -1.029343727715e-17 4.167743307120e-08 -1.008830060025e-09 
1.972413793104e+00 3.333333333331e-01 0.000000000000e+00 5.000000001087e+04 2.017407740152e+05 1.517407740043e+05 9.999999995651e-03 9.900000000043e-01 3.908296510268e-16 -1.176084342667e-17 3.830119766080e-08 -1.152652651287e-09 
1.344827586207e+00 2.500000000001e-01 0.000000000000e+00 5.000000001102e+04 2.017410770112e+05 1.517410770002e+05 9.999999995590e-03 9.900000000044e-01 5.355355778006e-16 -3.248492130891e-18 5.248264584374e-08 -3.181929901230e-10 
1.434482758621e+00 2.500000000000e-01 0.000000000000e+00 5.000000001066e+04 2.017410294745e+05 1.517410294639e+05 9.999999995738e-03 9.900000000043e-01 5.262401836598e-16 -4.631154864089e-18 5.157191114217e-08 -4.537253108452e-10 
1.524137931035e+00 2.500000000000e-01 0.000000000000e+00 5.000000001053e+04 2.017409826504e+05 1.517409826399e+05 9.999999995787e-03 9.900000000042e-01 5.175579686628e-16 -5.424531563509e-18 5.072085046975e-08 -5.316052179623e-10 
1.613793103449e+00 2.500000000000e-01 0.000000000000e+00 5.000000001053e+04 2.017409366709e+05 1.517409366604e+05 9.999999995787e-03 9.900000000042e-01 5.056029373259e-16 -7.724261698954e-18 4.954918812498e-08 -7.569797842320e-10 
1.703448275863e+00 2.499999999999e-01 0.000000000000e+00 5.000000001053e+04 2.017408919906e+05 1.517408919801e+05 9.999999995786e-03 9.900000000042e-01 4.874903695814e-16 -1.282311593890e-17 4.777415405109e-08 -1.256668233243e-09 
1.793103448277e+00 2.499999999999e-01 0.000000000000e+00 5.000000001053e+04 2.017408492589e+05 1.517408492483e+05 9.999999995787e-03 9.900000000042e-01 4.604312848384e-16 -1.763807528769e-17 4.512235783631e-08 -1.728463934621e-09 
1.882758620690e+00 2.499999999998e-01 0.000000000000e+00 5.000000001053e+04 2.017408094305e+05 1.517408094200e+05 9.999999995787e-03 9.900000000042e-01 4.257881118035e-16 -1.965275311070e-17 4.172713283320e-08 -1.925814788026e-09 
1.972413793104e+00 2.499999999998e-01 0.000000000000e+00 5.000000001087e+04 2.017407729110e+05 1.517407729001e+05 9.999999995650e-03 9.900000000043e-01 3.872765366853e-16 -1.719990537242e-17 3.795299185716e-08 -1.685433930007e-09 
1.434482758621e+00 1.666666666667e-01 0.000000000000e+00 5.000000001075e+04 2.017410290694e+05 1.517410290587e+05 9.999999995699e-03 9.900000000043e-01 5.280046916698e-16 -5.010127225158e-18 5.174483357080e-08 -4.908647414405e-10 
1.524137931035e+00 1.666666666667e-01 0.000000000000e+00 5.000000001053e+04 2.017409821309e+05 1.517409821204e+05 9.999999995787e-03 9.900000000042e-01 5.193452771865e-16 -6.643187918622e-18 5.089606102070e-08 -6.510341589129e-10 
1.613793103449e+00 1.666666666667e-01 0.000000000000e+00 5.000000001053e+04 2.017409359452e+05 1.517409359347e+05 9.999999995787e-03 9.900000000042e-01 5.101915032952e-16 -9.238958432218e-18 4.999886910334e-08 -9.054203880070e-10 
1.703448275862e+00 1.666666666666e-01 0.000000000000e+00 5.000000001053e+04 2.017408906483e+05 1.517408906377e+05 9.999999995787e-03 9.900000000042e-01 4.941866107093e-16 -1.378326717898e-17 4.843031924811e-08 -1.350763408757e-09 
1.793103448276e+00 1.666666666666e-01 0.000000000000e+00 5.000000001065e+04 2.017408473326e+05 1.517408473219e+05 9.999999995738e-03 9.900000000043e-01 4.648513800759e-16 -2.545724516376e-17 4.555537986041e-08 -2.496157448729e-09 
1.882758620690e+00 1.666666666666e-01 0.000000000000e+00 5.000000001080e+04 2.017408072959e+05 1.517408072851e+05 9.999999995679e-03 9.900000000043e-01 4.248736867473e-16 -3.344971721113e-17 4.163743718931e-08 -3.277558606523e-09 
1.972413793104e+00 1.666666666665e-01 0.000000000000e+00 5.000000001115e+04 2.017407711488e+05 1.517407711377e+05 9.999999995542e-03 9.900000000045e-01 3.787534937325e-16 -2.616260037933e-17 3.711794611944e-08 -2.563821539948e-09 
1.434482758620e+00 8.333333333338e-02 0.000000000000e+00 5.000000001087e+04 2.017410286397e+05 1.517410286289e+05 9.999999995650e-03 9.900000000043e-01 5.302495331022e-16 -1.812048323007e-18 5.196474678476e-08 -1.775091023390e-10 
1.524137931034e+00 8.333333333336e-02 0.000000000000e+00 5.000000001053e+04 2.017409815433e+05 1.517409815327e+05 9.999999995787e-03 9.900000000042e-01 5.214886132139e-16 -2.175584348053e-18 5.110617465980e-08 -2.132080082295e-10 
1.613793103448e+00 8.333333333334e-02 0.000000000000e+00 5.000000001053e+04 2.017409351311e+05 1.517409351206e+05 9.999999995787e-03 9.900000000042e-01 5.122395493799e-16 -3.382639002900e-18 5.019957751145e-08 -3.314988686643e-10 
1.703448275862e+00 8.333333333332e-02 0.000000000000e+00 5.000000001053e+04 2.017408896934e+05 1.517408896829e+05 9.999999995787e-03 9.900000000042e-01 5.025650589275e-16 -7.087494577853e-18 4.925272371873e-08 -6.945758980773e-10 
1.793103448276e+00 8.333333333330e-02 0.000000000000e+00 5.000000000825e+04 2.017408450137e+05 1.517408450054e+05 9.999999996700e-03 9.900000000033e-01 4.787109980436e-16 -1.011196092852e-17 4.691328924126e-08 -9.909027699525e-10 
1.882758620690e+00 8.333333333328e-02 0.000000000000e+00 5.000000001142e+04 2.017408038565e+05 1.517408038450e+05 9.999999995433e-03 9.900000000046e-01 4.264437303368e-16 -1.109197224641e-17 4.179002573480e-08 -1.086856412104e-09 