VARIABLES  = "X","Y","Z", "PRESSURE1", "PRESSURE2", "PRESSURE_W", "SATURATION1", SATURATION2, "VELOCITY_X1", "VELOCITY_Y1", "VELOCITY_X2", "VELOCITY_Y2"
ZONE T="0.000000000000e+00s", N=71, E=54, F=FEPOINT, ET=QUADRILATERAL
STRANDID=1, SOLUTIONTIME=0.000000000000e+00
1.434482758620e+00 0.000000000000e+00 0.000000000000e+00 5.000000000000e+04 0.000000000000e+00 -5.000000000000e+04 1.000000000000e-02 9.900000000000e-01 0.000000000000e+00 0.000000000000e+00 0.000000000000e+00 0.000000000000e+00 
1.524137931034e+00 0.000000000000e+00 0.000000000000e+00 5.000000000000e+04 0.000000000000e+00 -5.000000000000e+04 1.000000000000e-02 9.900000000000e-01 0.000000000000e+00 0.000000000000e+00 0.000000000000e+00 0.000000000000e+00 
1.613793103448e+00 0.000000000000e+00 0.000000000000e+00 5.000000000000e+04 0.000000000000e+00 -5.000000000000e+04 1.000000000000e-02 9.900000000000e-01 0.000000000000e+00 0.000000000000e+00 0.000000000000e+00 0.000000000000e+00 
1.703448275862e+00 0.000000000000e+00 0.000000000000e+00 5.000000000000e+04 0.000000000000e+00 -5.000000000000e+04 1.000000000000e-02 9.900000000000e-01 0.000000000000e+00 0.000000000000e+00 0.000000000000e+00 0.000000000000e+00 
1.793103448276e+00 0.000000000000e+00 0.000000000000e+00 5.000000000000e+04 0.000000000000e+00 -5.000000000000e+04 1.000000000000e-02 9.900000000000e-01 0.000000000000e+00 0.000000000000e+00 0.000000000000e+00 0.000000000000e+00 
1.882758620690e+00 0.000000000000e+00 0.000000000000e+00 5.000000000000e+04 0.000000000000e+00 -5.000000000000e+04 1.000000000000e-02 9.900000000000e-01 0.000000000000e+00 0.000000000000e+00 0.000000000000e+00 0.000000000000e+00 
1.972413793104e+00 0.000000000000e+00 0.000000000000e+00 5.000000000000e+04 0.000000000000e+00 -5.000000000000e+04 1.000000000000e-02 9.900000000000e-01 0.000000000000e+00 0.000000000000e+00 0.000000000000e+00 0.000000000000e+00 
1.882758620691e+00 5.000000000000e-01 0.000000000000e+00 5.000000000000e+04 0.000000000000e+00 -5.000000000000e+04 1.000000000000e-02 9.900000000000e-01 0.000000000000e+00 0.000000000000e+00 0.000000000000e+00 0.000000000000e+00 
1.793103448277e+00 5.000000000000e-01 0.000000000000e+00 5.000000000000e+04 0.000000000000e+00 -5.000000000000e+04 1.000000000000e-02 9.900000000000e-01 0.000000000000e+00 0.000000000000e+00 0.000000000000e+00 0.000000000000e+00 
1.703448275863e+00 5.000000000000e-01 0.000000000000e+00 5.000000000000e+04 0.000000000000e+00 -5.000000000000e+04 1.000000000000e-02 9.900000000000e-01 0.000000000000e+00 0.000000000000e+00 0.000000000000e+00 0.000000000000e+00 
1.613793103450e+00 5.000000000000e-01 0.000000000000e+00 5.000000000000e+04 0.000000000000e+00 -5.000000000000e+04 1.000000000000e-02 9.900000000000e-01 0.000000000000e+00 0.000000000000e+00 0.000000000000e+00 0.000000000000e+00 
1.524137931036e+00 5.000000000000e-01 0.000000000000e+00 5.000000000000e+04 0.000000000000e+00 -5.000000000000e+04 1.000000000000e-02 9.900000000000e-01 0.000000000000e+00 0.000000000000e+00 0.000000000000e+00 0.000000000000e+00 
1.434482758622e+00 5.000000000000e-01 0.000000000000e+00 5.000000000000e+04 0.000000000000e+00 -5.000000000000e+04 1.000000000000e-02 9.900000000000e-01 0.000000000000e+00 0.000000000000e+00 0.000000000000e+00 0.000000000000e+00 
1.344827586208e+00 5.000000000000e-01 0.000000000000e+00 5.000000000000e+04 0.000000000000e+00 -5.000000000000e+04 1.000000000000e-02 9.900000000000e-01 0.000000000000e+00 0.000000000000e+00 0.000000000000e+00 0.000000000000e+00 
1.255172413794e+00 5.000000000000e-01 0.000000000000e+00 5.000000000000e+04 0.000000000000e+00 -5.000000000000e+04 1.000000000000e-02 9.900000000000e-01 0.000000000000e+00 0.000000000000e+00 0.000000000000e+00 0.000000000000e+00 
1.255172413794e+00 4.166666666666e-01 0.000000000000e+00 5.000000000000e+04 0.000000000000e+00 -5.000000000000e+04 1.000000000000e-02 9.900000000000e-01 0.000000000000e+00 0.000000000000e+00 0.000000000000e+00 0.000000000000e+00 
1.344827586208e+00 4.166666666666e-01 0.000000000000e+00 5.000000000000e+04 0.000000000000e+00 -5.000000000000e+04 1.000000000000e-02 9.900000000000e-01 0.000000000000e+00 0.000000000000e+00 0.000000000000e+00 0.000000000000e+00 
1.434482758622e+00 4.166666666666e-01 0.000000000000e+00 5.000000000000e+04 0.000000000000e+00 -5.000000000000e+04 1.000000000000e-02 9.900000000000e-01 0.000000000000e+00 0.000000000000e+00 0.000000000000e+00 0.000000000000e+00 
1.524137931036e+00 4.166666666666e-01 0.000000000000e+00 5.000000000000e+04 0.000000000000e+00 -5.000000000000e+04 1.000000000000e-02 9.900000000000e-01 0.000000000000e+00 0.000000000000e+00 0.000000000000e+00 0.000000000000e+00 
1.613793103449e+00 4.166666666666e-01 0.000000000000e+00 5.000000000000e+04 0.000000000000e+00 -5.000000000000e+04 1.000000000000e-02 9.900000000000e-01 0.000000000000e+00 0.000000000000e+00 0.000000000000e+00 0.000000000000e+00 
1.703448275863e+00 4.166666666666e-01 0.000000000000e+00 5.000000000000e+04 0.000000000000e+00 -5.000000000000e+04 1.000000000000e-02 9.900000000000e-01 0.000000000000e+00 0.000000000000e+00 0.000000000000e+00 0.000000000000e+00 
1.793103448277e+00 4.166666666666e-01 0.000000000000e+00 5.000000000000e+04 0.000000000000e+00 -5.000000000000e+04 1.000000000000e-02 9.900000000000e-01 0.000000000000e+00 0.000000000000e+00 0.000000000000e+00 0.000000000000e+00 
1.882758620691e+00 4.166666666665e-01 0.000000000000e+00 5.000000000000e+04 0.000000000000e+00 -5.000000000000e+04 1.000000000000e-02 9.900000000000e-01 0.000000000000e+00 0.000000000000e+00 0.000000000000e+00 0.000000000000e+00 
1.972413793105e+00 4.166666666665e-01 0.000000000000e+00 5.000000000000e+04 0.000000000000e+00 -5.000000000000e+04 1.000000000000e-02 9.900000000000e-01 0.000000000000e+00 0.000000000000e+00 0.000000000000e+00 0.000000000000e+00 
1.344827586208e+00 3.333333333333e-01 0.000000000000e+00 5.000000000000e+04 0.000000000000e+00 -5.000000000000e+04 1.000000000000e-02 9.900000000000e-01 0.000000000000e+00 0.000000000000e+00 0.000000000000e+00 0.000000000000e+00 
1.434482758621e+00 3.333333333333e-01 0.000000000000e+00 5.000000000000e+04 0.000000000000e+00 -5.000000000000e+04 1.000000000000e-02 9.900000000000e-01 0.000000000000e+00 0.000000000000e+00 0.000000000000e+00 0.000000000000e+00 
1.524137931035e+00 3.333333333333e-01 0.000000000000e+00 5.000000000000e+04 0.000000000000e+00 -5.000000000000e+04 1.000000000000e-02 9.900000000000e-01 0.000000000000e+00 0.000000000000e+00 0.000000000000e+00 0.000000000000e+00 
1.613793103449e+00 3.333333333332e-01 0.000000000000e+00 5.000000000000e+04 0.000000000000e+00 -5.000000000000e+04 1.000000000000e-02 9.900000000000e-01 0.000000000000e+00 0.000000000000e+00 0.000000000000e+00 0.000000000000e+00 
1.703448275863e+00 3.333333333332e-01 0.000000000000e+00 5.000000000000e+04 0.000000000000e+00 -5.000000000000e+04 1.000000000000e-02 9.900000000000e-01 0.000000000000e+00 0.000000000000e+00 0.000000000000e+00 0.000000000000e+00 
1.793103448277e+00 3.333333333332e-01 0.000000000000e+00 5.000000000000e+04 0.000000000000e+00 -5.000000000000e+04 1.000000000000e-02 9.900000000000e-01 0.000000000000e+00 0.000000000000e+00 0.000000000000e+00 0.000000000000e+00 
1.882758620691e+00 3.333333333332e-01 0.000000000000e+00 5.000000000000e+04 0.000000000000e+00 -5.000000000000e+04 1.000000000000e-02 9.900000000000e-01 0.000000000000e+00 0.000000000000e+00 0.000000000000e+00 0.000000000000e+00 
1.972413793104e+00 3.333333333331e-01 0.000000000000e+00 5.000000000000e+04 0.000000000000e+00 -5.000000000000e+04 1.000000000000e-02 9.900000000000e-01 0.000000000000e+00 0.000000000000e+00 0.000000000000e+00 0.000000000000e+00 
1.344827586207e+00 2.500000000001e-01 0.000000000000e+00 5.000000000000e+04 0.000000000000e+00 -5.000000000000e+04 1.000000000000e-02 9.900000000000e-01 0.000000000000e+00 0.000000000000e+00 0.000000000000e+00 0.000000000000e+00 
1.434482758621e+00 2.500000000000e-01 0.000000000000e+00 5.000000000000e+04 0.000000000000e+00 -5.000000000000e+04 1.000000000000e-02 9.900000000000e-01 0.000000000000e+00 0.000000000000e+00 0.000000000000e+00 0.000000000000e+00 
1.524137931035e+00 2.500000000000e-01 0.000000000000e+00 5.000000000000e+04 0.000000000000e+00 -5.000000000000e+04 1.000000000000e-02 9.900000000000e-01 0.000000000000e+00 0.000000000000e+00 0.000000000000e+00 0.000000000000e+00 
1.613793103449e+00 2.500000000000e-01 0.000000000000e+00 5.000000000000e+04 0.000000000000e+00 -5.000000000000e+04 1.000000000000e-02 9.900000000000e-01 0.000000000000e+00 0.000000000000e+00 0.000000000000e+00 0.000000000000e+00 
1.703448275863e+00 2.499999999999e-01 0.000000000000e+00 5.000000000000e+04 0.000000000000e+00 -5.000000000000e+04 1.000000000000e-02 9.900000000000e-01 0.000000000000e+00 0.000000000000e+00 0.000000000000e+00 0.000000000000e+00 
1.793103448277e+00 2.499999999999e-01 0.000000000000e+00 5.000000000000e+04 0.000000000000e+00 -5.000000000000e+04 1.000000000000e-02 9.900000000000e-01 0.000000000000e+00 0.000000000000e+00 0.000000000000e+00 0.000000000000e+00 
1.882758620690e+00 2.499999999998e-01 0.000000000000e+00 5.000000000000e+04 0.000000000000e+00 -5.000000000000e+04 1.000000000000e-02 9.900000000000e-01 0.000000000000e+00 0.000000000000e+00 0.000000000000e+00 0.000000000000e+00 
1.972413793104e+00 2.499999999998e-01 0.000000000000e+00 5.000000000000e+04 0.000000000000e+00 -5.000000000000e+04 1.000000000000e-02 9.900000000000e-01 0.000000000000e+00 0.000000000000e+00 0.000000000000e+00 0.000000000000e+00 
1.434482758621e+00 1.666666666667e-01 0.000000000000e+00 5.000000000000e+04 0.000000000000e+00 -5.000000000000e+04 1.000000000000e-02 9.900000000000e-01 0.000000000000e+00 0.000000000000e+00 0.000000000000e+00 0.000000000000e+00 
1.524137931035e+00 1.666666666667e-01 0.000000000000e+00 5.000000000000e+04 0.000000000000e+00 -5.000000000000e+04 1.000000000000e-02 9.900000000000e-01 0.000000000000e+00 0.000000000000e+00 0.000000000000e+00 0.000000000000e+00 
1.613793103449e+00 1.666666666667e-01 0.000000000000e+00 5.000000000000e+04 0.000000000000e+00 -5.000000000000e+04 1.000000000000e-02 9.900000000000e-01 0.000000000000e+00 0.000000000000e+00 0.000000000000e+00 0.000000000000e+00 
1.703448275862e+00 1.666666666666e-01 0.000000000000e+00 5.000000000000e+04 0.000000000000e+00 -5.000000000000e+04 1.000000000000e-02 9.900000000000e-01 0.000000000000e+00 0.000000000000e+00 0.000000000000e+00 0.000000000000e+00 
1.793103448276e+00 1.666666666666e-01 0.000000000000e+00 5.000000000000e+04 0.000000000000e+00 -5.000000000000e+04 1.000000000000e-02 9.900000000000e-01 0.000000000000e+00 0.000000000000e+00 0.000000000000e+00 0.000000000000e+00 
1.882758620690e+00 1.666666666666e-01 0.000000000000e+00 5.000000000000e+04 0.000000000000e+00 -5.000000000000e+04 1.000000000000e-02 9.900000000000e-01 0.000000000000e+00 0.000000000000e+00 0.000000000000e+00 0.000000000000e+00 
1.972413793104e+00 1.666666666665e-01 0.000000000000e+00 5.000000000000e+04 0.000000000000e+00 -5.000000000000e+04 1.000000000000e-02 9.900000000000e-01 0.000000000000e+00 0.000000000000e+00 0.000000000000e+00 0.000000000000e+00 
1.434482758620e+00 8.333333333338e-02 0.000000000000e+00 5.000000000000e+04 0.000000000000e+00 -5.000000000000e+04 1.000000000000e-02 9.900000000000e-01 0.000000000000e+00 0.000000000000e+00 0.000000000000e+00 0.000000000000e+00 
1.524137931034e+00 8.333333333336e-02 0.000000000000e+00 5.000000000000e+04 0.000000000000e+00 -5.000000000000e+04 1.000000000000e-02 9.900000000000e-01 0.000000000000e+00 0.000000000000e+00 0.000000000000e+00 0.000000000000e+00 
1.613793103448e+00 8.333333333334e-02 0.000000000000e+00 5.000000000000e+04 0.000000000000e+00 -5.000000000000e+04 1.000000000000e-02 9.900000000000e-01 0.000000000000e+00 0.000000000000e+00 0.000000000000e+00 0.000000000000e+00 
1.703448275862e+00 8.333333333332e-02 0.000000000000e+00 5.000000000000e+04 0.000000000000e+00 -5.000000000000e+04 1.000000000000e-02 9.900000000000e-01 0.000000000000e+00 0.000000000000e+00 0.000000000000e+00 0.000000000000e+00 
1.793103448276e+00 8.333333333330e-02 0.000000000000e+00 5.000000000000e+04 0.000000000000e+00 -5.000000000000e+04 1.000000000000e-02 9.900000000000e-01 0.000000000000e+00 0.000000000000e+00 0.000000000000e+00 0.000000000000e+00 
1.882758620690e+00 8.333333333328e-02 0.000000000000e+00 5.000000000000e+04 0.000000000000e+00 -5.000000000000e+04 1.000000000000e-02 9.900000000000e-01 0.000000000000e+00 0.000000000000e+00 0.000000000000e+00 0.000000000000e+00 
1.972413793104e+00 8.333333333327e-02 0.000000000000e+00 5.000000000000e+04 0.000000000000e+00 -5.000000000000e+04 1.000000000000e-02 9.900000000000e-01 0.000000000000e+00 0.000000000000e+00 0.000000000000e+00 0.000000000000e+00 
1.344827586206e+00 8.333333333340e-02 0.000000000000e+00 5.000000000000e+04 0.000000000000e+00 -5.000000000000e+04 1.000000000000e-02 9.900000000000e-01 0.000000000000e+00 0.000000000000e+00 0.000000000000e+00 0.000000000000e+00 
1.344827586206e+00 0.000000000000e+00 0.000000000000e+00 5.000000000000e+04 0.000000000000e+00 -5.000000000000e+04 1.000000000000e-02 9.900000000000e-01 0.000000000000e+00 0.000000000000e+00 0.000000000000e+00 0.000000000000e+00 
2.062068965517e+00 0.000000000000e+00 0.000000000000e+00 5.000000000000e+04 0.000000000000e+00 -5.000000000000e+04 1.000000000000e-02 9.900000000000e-01 0.000000000000e+00 0.000000000000e+00 0.000000000000e+00 0.000000000000e+00 
2.062068965518e+00 8.333333333325e-02 0.000000000000e+00 5.000000000000e+04 0.000000000000e+00 -5.000000000000e+04 1.000000000000e-02 9.900000000000e-01 0.000000000000e+00 0.000000000000e+00 0.000000000000e+00 0.000000000000e+00 
1.972413793105e+00 5.000000000000e-01 0.000000000000e+00 5.000000000000e+04 0.000000000000e+00 -5.000000000000e+04 1.000000000000e-02 9.900000000000e-01 0.000000000000e+00 0.000000000000e+00 0.000000000000e+00 0.000000000000e+00 
1.165517241380e+00 5.000000000000e-01 0.000000000000e+00 5.000000000000e+04 0.000000000000e+00 -5.000000000000e+04 1.000000000000e-02 9.900000000000e-01 0.000000000000e+00 0.000000000000e+00 0.000000000000e+00 0.000000000000e+00 
1.165517241380e+00 4.166666666666e-01 0.000000000000e+00 5.000000000000e+04 0.000000000000e+00 -5.000000000000e+04 1.000000000000e-02 9.900000000000e-01 0.000000000000e+00 0.000000000000e+00 0.000000000000e+00 0.000000000000e+00 
1.165517241380e+00 3.333333333334e-01 0.000000000000e+00 5.000000000000e+04 0.000000000000e+00 -5.000000000000e+04 1.000000000000e-02 9.900000000000e-01 0.000000000000e+00 0.000000000000e+00 0.000000000000e+00 0.000000000000e+00 
1.255172413794e+00 3.333333333333e-01 0.000000000000e+00 5.000000000000e+04 0.000000000000e+00 -5.000000000000e+04 1.000000000000e-02 9.900000000000e-01 0.000000000000e+00 0.000000000000e+00 0.000000000000e+00 0.000000000000e+00 
2.062068965518e+00 4.166666666665e-01 0.000000000000e+00 5.000000000000e+04 0.000000000000e+00 -5.000000000000e+04 1.000000000000e-02 9.900000000000e-01 0.000000000000e+00 0.000000000000e+00 0.000000000000e+00 0.000000000000e+00 
2.062068965518e+00 5.000000000000e-01 0.000000000000e+00 5.000000000000e+04 0.000000000000e+00 -5.000000000000e+04 1.000000000000e-02 9.900000000000e-01 0.000000000000e+00 0.000000000000e+00 0.000000000000e+00 0.000000000000e+00 
2.062068965518e+00 3.333333333331e-01 0.000000000000e+00 5.000000000000e+04 0.000000000000e+00 -5.000000000000e+04 1.000000000000e-02 9.900000000000e-01 0.000000000000e+00 0.000000000000e+00 0.000000000000e+00 0.000000000000e+00 
1.255172413793e+00 2.500000000001e-01 0.000000000000e+00 5.000000000000e+04 0.000000000000e+00 -5.000000000000e+04 1.000000000000e-02 9.900000000000e-01 0.000000000000e+00 0.000000000000e+00 0.000000000000e+00 0.000000000000e+00 
2.062068965518e+00 2.499999999998e-01 0.000000000000e+00 5.000000000000e+04 0.000000000000e+00 -5.000000000000e+04 1.000000000000e-02 9.900000000000e-01 0.000000000000e+00 0.000000000000e+00 0.000000000000e+00 0.000000000000e+00 
1.255172413793e+00 1.666666666668e-01 0.000000000000e+00 5.000000000000e+04 0.000000000000e+00 -5.000000000000e+04 1.000000000000e-02 9.900000000000e-01 0.000000000000e+00 0.000000000000e+00 0.000000000000e+00 0.000000000000e+00 
1.344827586207e+00 1.666666666668e-01 0.000000000000e+00 5.000000000000e+04 0.000000000000e+00 -5.000000000000e+04 1.000000000000e-02 9.900000000000e-01 0.000000000000e+00 0.000000000000e+00 0.000000000000e+00 0.000000000000e+00 
2.062068965518e+00 1.666666666665e-01 0.000000000000e+00 5.000000000000e+04 0.000000000000e+00 -5.000000000000e+04 1.000000000000e-02 9.900000000000e-01 0.000000000000e+00 0.000000000000e+00 0.000000000000e+00 0.000000000000e+00 
48  1  2  49  
49  2  3  50  
50  3  4  51  
51  4  5  52  
52  5  6  53  
53  6  7  54  
9  22  23  8  
10  21  22  9  
11  20  21  10  
12  19  20  11  
13  18  19  12  
14  17  18  13  
15  16  17  14  
17  25  26  18  
18  26  27  19  
19  27  28  20  
20  28  29  21  
21  29  30  22  
22  30  31  23  
23  31  32  24  
25  33  34  26  
26  34  35  27  
27  35  36  28  
28  36  37  29  
29  37  38  30  
30  38  39  31  
31  39  40  32  
34  41  42  35  
35  42  43  36  
36  43  44  37  
37  44  45  38  
38  45  46  39  
39  46  47  40  
41  48  49  42  
42  49  50  43  
43  50  51  44  
44  51  52  45  
45  52  53  46  
46  53  54  47  
55  56  1  48  
54  7  57  58  
8  23  24  59  
60  61  16  15  
61  62  63  16  
16  63  25  17  
59  24  64  65  
24  32  66  64  
63  67  33  25  
32  40  68  66  
67  69  70  33  
33  70  41  34  
40  47  71  68  
70  55  48  41  
47  54  58  71  
VARIABLES  = "X","Y","Z", "PRESSURE1", "PRESSURE2", "PRESSURE_W", "SATURATION1", SATURATION2, "VELOCITY_X1", "VELOCITY_Y1", "VELOCITY_X2", "VELOCITY_Y2"
ZONE T="5.000000000000e+02s", N=71, E=54, F=FEPOINT, ET=QUADRILATERAL
STRANDID=1, SOLUTIONTIME=5.000000000000e+02
1.434482758620e+00 0.000000000000e+00 0.000000000000e+00 5.000000001063e+04 2.017410293788e+05 1.517410293681e+05 9.999999995750e-03 9.900000000043e-01 5.289669671775e-16 1.533820823535e-18 5.183906509681e-08 1.503168216825e-10 
1.524137931034e+00 0.000000000000e+00 0.000000000000e+00 5.000000001026e+04 2.017409823798e+05 1.517409823696e+05 9.999999995894e-03 9.900000000041e-01 5.208010966997e-16 2.700568126143e-18 5.103880839127e-08 2.646562006662e-10 
1.613793103448e+00 0.000000000000e+00 0.000000000000e+00 5.000000001026e+04 2.017409359934e+05 1.517409359831e+05 9.999999995894e-03 9.900000000041e-01 5.147529194712e-16 3.004594059247e-18 5.044588911776e-08 2.944507026273e-10 
1.703448275862e+00 0.000000000000e+00 0.000000000000e+00 5.000000001026e+04 2.017408900793e+05 1.517408900691e+05 9.999999995894e-03 9.900000000041e-01 5.004369283273e-16 -2.716318231041e-18 4.904277795820e-08 -2.662008435558e-10 
1.793103448276e+00 0.000000000000e+00 0.000000000000e+00 5.000000001052e+04 2.017408462601e+05 1.517408462496e+05 9.999999995791e-03 9.900000000042e-01 4.685685607633e-16 7.576527208005e-18 4.591949896396e-08 7.454039101634e-10 
1.882758620690e+00 0.000000000000e+00 0.000000000000e+00 5.000000001084e+04 2.017408060607e+05 1.517408060499e+05 9.999999995665e-03 9.900000000043e-01 4.242183382939e-16 1.909997268594e-17 4.157311181624e-08 1.871374736186e-09 
1.972413793104e+00 0.000000000000e+00 0.000000000000e+00 5.000000001120e+04 2.017407701941e+05 1.517407701829e+05 9.999999995520e-03 9.900000000045e-01 3.706271305118e-16 1.235445361363e-17 3.632179046726e-08 1.211162023606e-09 
1.882758620691e+00 5.000000000000e-01 0.000000000000e+00 5.000000001037e+04 2.017408129539e+05 1.517408129435e+05 9.999999995854e-03 9.900000000041e-01 4.483689491334e-16 -1.433350083609e-17 4.393987649542e-08 -1.404652095988e-09 
1.793103448277e+00 5.000000000000e-01 0.000000000000e+00 5.000000001026e+04 2.017408519899e+05 1.517408519796e+05 9.999999995894e-03 9.900000000041e-01 4.533713097123e-16 -9.268505237732e-18 4.443042316396e-08 -9.083160831349e-10 
1.703448275863e+00 5.000000000000e-01 0.000000000000e+00 5.000000001026e+04 2.017408942479e+05 1.517408942377e+05 9.999999995894e-03 9.900000000041e-01 4.825160560999e-16 -6.269932045316e-18 4.728666932450e-08 -6.144543912750e-10 
1.613793103450e+00 5.000000000000e-01 0.000000000000e+00 5.000000001026e+04 2.017409385100e+05 1.517409384997e+05 9.999999995895e-03 9.900000000041e-01 5.013505840576e-16 -4.952012282451e-18 4.913245712051e-08 -4.852978387870e-10 
1.524137931036e+00 5.000000000000e-01 0.000000000000e+00 5.000000001026e+04 2.017409841453e+05 1.517409841350e+05 9.999999995894e-03 9.900000000041e-01 5.148908309953e-16 -3.710646600749e-18 5.045940512001e-08 -3.636441763609e-10 
1.434482758622e+00 5.000000000000e-01 0.000000000000e+00 5.000000001027e+04 2.017410308352e+05 1.517410308250e+05 9.999999995894e-03 9.900000000041e-01 5.251604850644e-16 -2.487691526810e-18 5.146583238736e-08 -2.437956293779e-10 
1.344827586208e+00 5.000000000000e-01 0.000000000000e+00 5.000000001026e+04 2.017410783120e+05 1.517410783017e+05 9.999999995894e-03 9.900000000041e-01 5.326360205948e-16 -2.013006353346e-18 5.219863272934e-08 -1.971239188615e-10 
1.255172413794e+00 5.000000000000e-01 0.000000000000e+00 5.000000001063e+04 2.017411263428e+05 1.517411263321e+05 9.999999995750e-03 9.900000000043e-01 5.398540302617e-16 -1.358583536256e-18 5.290599949750e-08 -1.329556902921e-10 
1.255172413794e+00 4.166666666666e-01 0.000000000000e+00 5.000000001078e+04 2.017411262297e+05 1.517411262189e+05 9.999999995687e-03 9.900000000043e-01 5.404748523996e-16 -6.875624764157e-19 5.296669841689e-08 -6.728825784235e-11 
1.344827586208e+00 4.166666666666e-01 0.000000000000e+00 5.000000001039e+04 2.017410781444e+05 1.517410781340e+05 9.999999995843e-03 9.900000000042e-01 5.331607662114e-16 -2.112933501302e-18 5.225014487854e-08 -2.069322395278e-10 
1.434482758622e+00 4.166666666666e-01 0.000000000000e+00 5.000000001026e+04 2.017410306279e+05 1.517410306177e+05 9.999999995894e-03 9.900000000041e-01 5.259494525063e-16 -2.297813180181e-18 5.154322165370e-08 -2.251868208821e-10 
1.524137931036e+00 4.166666666666e-01 0.000000000000e+00 5.000000001026e+04 2.017409838361e+05 1.517409838258e+05 9.999999995894e-03 9.900000000041e-01 5.160361083534e-16 -2.992537855433e-18 5.057164171330e-08 -2.932694953302e-10 
1.613793103449e+00 4.166666666666e-01 0.000000000000e+00 5.000000001026e+04 2.017409380973e+05 1.517409380871e+05 9.999999995894e-03 9.900000000041e-01 5.025399956840e-16 -3.992674939714e-18 4.924901961600e-08 -3.912822074731e-10 
1.703448275863e+00 4.166666666666e-01 0.000000000000e+00 5.000000001026e+04 2.017408937255e+05 1.517408937152e+05 9.999999995894e-03 9.900000000041e-01 4.845221184638e-16 -5.100965687107e-18 4.748326429902e-08 -4.998951521133e-10 
1.793103448277e+00 4.166666666666e-01 0.000000000000e+00 5.000000001026e+04 2.017408512175e+05 1.517408512072e+05 9.999999995895e-03 9.900000000041e-01 4.571188013479e-16 -6.629913119594e-18 4.479766248793e-08 -6.497322423449e-10 
1.882758620691e+00 4.166666666665e-01 0.000000000000e+00 5.000000001039e+04 2.017408117595e+05 1.517408117491e+05 9.999999995842e-03 9.900000000042e-01 4.223570678946e-16 -1.061707320680e-17 4.139079299346e-08 -1.040535186518e-09 
1.972413793105e+00 4.166666666665e-01 0.000000000000e+00 5.000000001078e+04 2.017407754850e+05 1.517407754742e+05 9.999999995687e-03 9.900000000043e-01 3.901887191408e-16 1.821516324165e-17 3.823851712263e-08 1.784903744400e-09 
1.344827586208e+00 3.333333333333e-01 0.000000000000e+00 5.000000001050e+04 2.017410779601e+05 1.517410779496e+05 9.999999995802e-03 9.900000000042e-01 5.341327278604e-16 -3.136003346186e-18 5.234539739999e-08 -3.070999444976e-10 
1.434482758621e+00 3.333333333333e-01 0.000000000000e+00 5.000000001026e+04 2.017410304523e+05 1.517410304420e+05 9.999999995894e-03 9.900000000041e-01 5.259780659114e-16 -3.253973265674e-18 5.154608176119e-08 -3.188143270119e-10 
1.524137931035e+00 3.333333333333e-01 0.000000000000e+00 5.000000001026e+04 2.017409836465e+05 1.517409836363e+05 9.999999995894e-03 9.900000000041e-01 5.164661835546e-16 -3.444417651699e-18 5.061378864290e-08 -3.375529177635e-10 
1.613793103449e+00 3.333333333332e-01 0.000000000000e+00 5.000000001026e+04 2.017409378445e+05 1.517409378343e+05 9.999999995894e-03 9.900000000041e-01 5.033103410072e-16 -4.886892987277e-18 4.932451302163e-08 -4.789159295856e-10 
1.703448275863e+00 3.333333333332e-01 0.000000000000e+00 5.000000001027e+04 2.017408933978e+05 1.517408933875e+05 9.999999995894e-03 9.900000000041e-01 4.849673350644e-16 -6.735180274315e-18 4.752689530573e-08 -6.600485209153e-10 
1.793103448277e+00 3.333333333332e-01 0.000000000000e+00 5.000000001027e+04 2.017408508849e+05 1.517408508746e+05 9.999999995894e-03 9.900000000041e-01 4.584984608614e-16 -8.075530125830e-18 4.493294120285e-08 -7.914033823016e-10 
1.882758620691e+00 3.333333333332e-01 0.000000000000e+00 5.000000001026e+04 2.017408111843e+05 1.517408111740e+05 9.999999995894e-03 9.900000000041e-01 4.252757694182e-16 -1.029380489416e-17 4.167691357402e-08 -1.008871007225e-09 
1.972413793104e+00 3.333333333331e-01 0.000000000000e+00 5.000000001062e+04 2.017407746289e+05 1.517407746183e+05 9.999999995750e-03 9.900000000042e-01 3.908253441026e-16 -1.176136353675e-17 3.830076444144e-08 -1.152708282749e-09 
1.344827586207e+00 2.500000000001e-01 0.000000000000e+00 5.000000001078e+04 2.017410776221e+05 1.517410776113e+05 9.999999995687e-03 9.900000000043e-01 5.355321064017e-16 -3.248292935467e-18 5.248230917049e-08 -3.181635522619e-10 
1.434482758621e+00 2.500000000000e-01 0.000000000000e+00 5.000000001039e+04 2.017410300857e+05 1.517410300753e+05 9.999999995843e-03 9.900000000042e-01 5.262361196837e-16 -4.631220222601e-18 5.157152730149e-08 -4.537244716776e-10 
1.524137931035e+00 2.500000000000e-01 0.000000000000e+00 5.000000001027e+04 2.017409832620e+05 1.517409832517e+05 9.999999995894e-03 9.900000000041e-01 5.175538862606e-16 -5.424581030310e-18 5.072045411074e-08 -5.316096716650e-10 
1.613793103449e+00 2.500000000000e-01 0.000000000000e+00 5.000000001026e+04 2.017409372828e+05 1.517409372726e+05 9.999999995894e-03 9.900000000041e-01 5.055987174414e-16 -7.724382498428e-18 4.954877510887e-08 -7.569919289320e-10 
1.703448275863e+00 2.499999999999e-01 0.000000000000e+00 5.000000001027e+04 2.017408926029e+05 1.517408925927e+05 9.999999995894e-03 9.900000000041e-01 4.874859157827e-16 -1.282331758343e-17 4.777371734458e-08 -1.256687846555e-09 
1.793103448277e+00 2.499999999999e-01 0.000000000000e+00 5.000000001026e+04 2.017408498716e+05 1.517408498613e+05 9.999999995894e-03 9.900000000041e-01 4.604264972762e-16 -1.763831913065e-17 4.512188853132e-08 -1.728483490304e-09 
1.882758620690e+00 2.499999999998e-01 0.000000000000e+00 5.000000001027e+04 2.017408100437e+05 1.517408100334e+05 9.999999995894e-03 9.900000000041e-01 4.257830026797e-16 -1.965303315293e-17 4.172662125194e-08 -1.925832326037e-09 
1.972413793104e+00 2.499999999998e-01 0.000000000000e+00 5.000000001063e+04 2.017407735246e+05 1.517407735140e+05 9.999999995750e-03 9.900000000043e-01 3.872721670763e-16 -1.720023992078e-17 3.795255336136e-08 -1.685457608062e-09 
1.434482758621e+00 1.666666666667e-01 0.000000000000e+00 5.000000001050e+04 2.017410296806e+05 1.517410296701e+05 9.999999995802e-03 9.900000000042e-01 5.280008975654e-16 -5.010193050210e-18 5.174447717233e-08 -4.908642656884e-10 
1.524137931035e+00 1.666666666667e-01 0.000000000000e+00 5.000000001026e+04 2.017409827424e+05 1.517409827322e+05 9.999999995894e-03 9.900000000041e-01 5.193412379949e-16 -6.643263066222e-18 5.089567183893e-08 -6.510414901199e-10 
1.613793103449e+00 1.666666666667e-01 0.000000000000e+00 5.000000001026e+04 2.017409365572e+05 1.517409365469e+05 9.999999995895e-03 9.900000000041e-01 5.101873717341e-16 -9.239129897744e-18 4.999846391153e-08 -9.054365244752e-10 
1.703448275862e+00 1.666666666666e-01 0.000000000000e+00 5.000000001026e+04 2.017408912606e+05 1.517408912503e+05 9.999999995894e-03 9.900000000041e-01 4.941822119435e-16 -1.378347846790e-17 4.842988421916e-08 -1.350783854853e-09 
1.793103448276e+00 1.666666666666e-01 0.000000000000e+00 5.000000001039e+04 2.017408479453e+05 1.517408479349e+05 9.999999995843e-03 9.900000000042e-01 4.648465937054e-16 -2.545860009372e-17 4.555490235856e-08 -2.496247301161e-09 
1.882758620690e+00 1.666666666666e-01 0.000000000000e+00 5.000000001055e+04 2.017408079091e+05 1.517408078985e+05 9.999999995780e-03 9.900000000042e-01 4.248685804336e-16 -3.345136097284e-17 4.163692157466e-08 -3.277690431312e-09 
1.972413793104e+00 1.666666666665e-01 0.000000000000e+00 5.000000001091e+04 2.017407717625e+05 1.517407717516e+05 9.999999995635e-03 9.900000000044e-01 3.787490298223e-16 -2.616420027282e-17 3.711751070871e-08 -2.563971384813e-09 
1.434482758620e+00 8.333333333338e-02 0.000000000000e+00 5.000000001062e+04 2.017410292509e+05 1.517410292403e+05 9.999999995750e-03 9.900000000042e-01 5.302458604658e-16 -1.812068293355e-18 5.196439721848e-08 -1.775067300084e-10 
1.524137931034e+00 8.333333333336e-02 0.000000000000e+00 5.000000001026e+04 2.017409821548e+05 1.517409821445e+05 9.999999995894e-03 9.900000000041e-01 5.214846288737e-16 -2.175601223381e-18 5.110579367509e-08 -2.132092398407e-10 
1.613793103448e+00 8.333333333334e-02 0.000000000000e+00 5.000000001026e+04 2.017409357430e+05 1.517409357327e+05 9.999999995894e-03 9.900000000041e-01 5.122354559839e-16 -3.382674573133e-18 5.019917667374e-08 -3.315018837641e-10 
1.703448275862e+00 8.333333333332e-02 0.000000000000e+00 5.000000001026e+04 2.017408903057e+05 1.517408902954e+05 9.999999995894e-03 9.900000000041e-01 5.025617054812e-16 -7.087500589383e-18 4.925235558135e-08 -6.945770140904e-10 
1.793103448276e+00 8.333333333330e-02 0.000000000000e+00 5.000000000805e+04 2.017408456263e+05 1.517408456182e+05 9.999999996778e-03 9.900000000032e-01 4.787075422764e-16 -1.011188691958e-17 4.691292350954e-08 -9.908909995257e-10 
1.882758620690e+00 8.333333333328e-02 0.000000000000e+00 5.000000001120e+04 2.017408044694e+05 1.517408044582e+05 9.999999995520e-03 9.900000000045e-01 4.264388490604e-16 -1.109182344438e-17 4.178956993295e-08 -1.086832659155e-09 