 TITLE = "Time curves in points"
 VARIABLES = "TIME"  "PRESSURE1"  "PRESSURE2"  "PRESSURE_W"  "SATURATION1" SATURATION2  "VELOCITY_X1"  "VELOCITY_Y1"  "VELOCITY_X2"  "VELOCITY_Y2" 
 ZONE T="POINT=POINT4"
0.000000000000e+00 5.000000000000e+04 0.000000000000e+00 -5.000000000000e+04 1.000000000000e-02 9.900000000000e-01 0.000000000000e+00 0.000000000000e+00 0.000000000000e+00 0.000000000000e+00 
5.000000000000e+00 4.999999999997e+03 1.999999999999e+05 1.949999999999e+05 3.345536072242e-01 6.654463927758e-01 3.574474618193e-04 1.437973710072e-16 -4.127749637178e-05 -4.156607016896e-14 
1.000000000000e+01 4.999999999999e+03 2.000000000000e+05 1.950000000000e+05 4.104308695499e-01 5.895691304501e-01 6.383562874942e-04 -3.191641366947e-17 -5.541064103466e-05 -7.335055584949e-14 
1.500000000000e+01 4.999999999994e+03 1.999999999997e+05 1.949999999998e+05 5.087275782166e-01 4.912724217834e-01 1.118491670268e-03 -8.993321028824e-16 -5.764884998194e-05 9.575059804685e-13 
2.000000000000e+01 5.000000000003e+03 2.000000000001e+05 1.950000000001e+05 6.174613395630e-01 3.825386604370e-01 1.719761619920e-03 1.985554208159e-13 -2.763832219260e-05 -7.537869780870e-13 
2.500000000000e+01 5.000000000075e+03 2.000000000030e+05 1.950000000029e+05 7.178522339030e-01 2.821477660970e-01 2.170028048489e-03 -1.962316324775e-13 2.850638809514e-05 2.547084249615e-12 
3.000000000000e+01 5.000000000004e+03 2.000000000002e+05 1.950000000002e+05 7.978659113694e-01 2.021340886306e-01 2.257872636704e-03 1.682474624013e-12 7.922757489197e-05 -3.963900186967e-12 
3.500000000000e+01 5.000000000001e+03 2.000000000000e+05 1.950000000000e+05 8.556477275695e-01 1.443522724305e-01 2.013393321826e-03 1.523854694664e-11 1.052978581620e-04 -3.250457252434e-11 
4.000000000000e+01 5.000000000002e+03 2.000000000001e+05 1.950000000001e+05 8.949868173797e-01 1.050131826203e-01 1.609530712894e-03 4.184318496424e-11 1.079281090092e-04 -6.935610172703e-11 
4.500000000000e+01 4.999999999999e+03 2.000000000000e+05 1.950000000000e+05 9.210683017211e-01 7.893169827887e-02 1.207667511580e-03 6.283624890998e-11 9.702401576780e-05 -8.987556576562e-11 
5.000000000000e+01 5.000000000000e+03 2.000000000000e+05 1.950000000000e+05 9.383640698537e-01 6.163593014625e-02 8.858856588049e-04 -9.625547193364e-12 8.184065561074e-05 -3.150256693710e-11 
6.000000000000e+01 5.000000000022e+03 2.000000000009e+05 1.950000000009e+05 9.563454114723e-01 4.365458852769e-02 5.296666489209e-04 -5.009012197220e-11 5.840226419758e-05 9.758821160042e-12 
7.000000000000e+01 5.000000000944e+03 2.000000000377e+05 1.950000000368e+05 9.661976270892e-01 3.380237291076e-02 3.442564246813e-04 2.817289394519e-10 4.275982154782e-05 -1.660539761996e-10 
8.000000000000e+01 4.999999999993e+03 1.999999999997e+05 1.949999999997e+05 9.718218532262e-01 2.817814677376e-02 2.481648964493e-04 -3.601471166194e-11 3.339868091191e-05 -5.766403365804e-11 
9.000000000000e+01 4.999999999939e+03 1.999999999976e+05 1.949999999976e+05 9.749893985607e-01 2.501060143928e-02 1.988492706193e-04 -1.089992068222e-10 2.813370653362e-05 -9.875764687863e-12 
1.000000000000e+02 5.000000000041e+03 2.000000000016e+05 1.950000000016e+05 9.765852586688e-01 2.341474133119e-02 1.754734939570e-04 -7.042814104813e-11 2.551554209167e-05 2.049891630169e-12 
1.100000000000e+02 5.000000000044e+03 2.000000000018e+05 1.950000000017e+05 9.771508528478e-01 2.284914715224e-02 1.674965190521e-04 -2.349592173168e-11 2.459514616387e-05 1.673501264481e-12 
1.200000000000e+02 4.999999999999e+03 2.000000000000e+05 1.950000000000e+05 9.770842956511e-01 2.291570434891e-02 1.684457798615e-04 2.887670901360e-12 2.470287575828e-05 -9.724616992204e-13 
1.300000000000e+02 4.999999999996e+03 1.999999999999e+05 1.949999999999e+05 9.766917366223e-01 2.330826337766e-02 1.738959210273e-04 5.358699593639e-12 2.534307291383e-05 -6.086261427724e-13 
1.400000000000e+02 5.000000000000e+03 2.000000000000e+05 1.950000000000e+05 9.761944454312e-01 2.380555456878e-02 1.810736460023e-04 5.731125559842e-12 2.615417783527e-05 -5.623823794620e-13 
1.500000000000e+02 5.000000000003e+03 2.000000000001e+05 1.950000000001e+05 9.757229823586e-01 2.427701764142e-02 1.879242721431e-04 6.768279892595e-12 2.692720112971e-05 -1.302416738573e-12 
1.600000000000e+02 5.000000000000e+03 2.000000000000e+05 1.950000000000e+05 9.753429886247e-01 2.465701137530e-02 1.935190795220e-04 1.866533916850e-12 2.755213782534e-05 -4.514352979345e-13 
1.700000000000e+02 5.000000000000e+03 2.000000000000e+05 1.950000000000e+05 9.750784655260e-01 2.492153447399e-02 1.974548155386e-04 2.335474484944e-12 2.798801752415e-05 -9.694833905364e-13 
1.800000000000e+02 5.000000000000e+03 2.000000000000e+05 1.950000000000e+05 9.749329082361e-01 2.506709176390e-02 1.996380324624e-04 1.034480794452e-12 2.822807392426e-05 -1.160450681276e-12 
1.900000000000e+02 5.000000000000e+03 2.000000000000e+05 1.950000000000e+05 9.749033470255e-01 2.509665297451e-02 2.000897062207e-04 -4.256976296807e-13 2.827670940259e-05 -1.287616694675e-12 
2.000000000000e+02 5.000000000000e+03 2.000000000000e+05 1.950000000000e+05 9.749892329219e-01 2.501076707808e-02 1.989208469026e-04 -1.944474858543e-12 2.813261450953e-05 -1.371630197765e-12 
2.100000000000e+02 5.000000000000e+03 2.000000000000e+05 1.950000000000e+05 9.751883039148e-01 2.481169608518e-02 1.959354990359e-04 -3.558714665466e-12 2.780461838733e-05 -1.401981536543e-12 
2.200000000000e+02 5.000000000000e+03 2.000000000000e+05 1.950000000000e+05 9.755017469867e-01 2.449825301330e-02 1.912823220753e-04 -5.223436834422e-12 2.728875901661e-05 -1.370739805334e-12 
2.300000000000e+02 5.000000000000e+03 2.000000000000e+05 1.950000000000e+05 9.759265665873e-01 2.407343341273e-02 1.850513397553e-04 -6.776821771319e-12 2.659122322435e-05 -1.282504540997e-12 
2.400000000000e+02 5.000000000000e+03 2.000000000000e+05 1.950000000000e+05 9.764511896379e-01 2.354881036213e-02 1.774710762151e-04 -7.979605708318e-12 2.573284353508e-05 -1.155442944754e-12 
2.500000000000e+02 5.000000000000e+03 2.000000000000e+05 1.950000000000e+05 9.770534770465e-01 2.294652295351e-02 1.689244614987e-04 -8.607113045418e-12 2.475209873371e-05 -1.014511107578e-12 
2.600000000000e+02 5.000000000000e+03 2.000000000000e+05 1.950000000000e+05 9.777023865154e-01 2.229761348457e-02 1.599054556859e-04 -8.551359093007e-12 2.370181705521e-05 -8.795069503442e-13 
2.700000000000e+02 5.000000000000e+03 2.000000000000e+05 1.950000000000e+05 9.783625553190e-01 2.163744468102e-02 1.509356991904e-04 -7.874126328685e-12 2.264096343319e-05 -7.556374913851e-13 
2.800000000000e+02 5.000000000000e+03 2.000000000000e+05 1.950000000000e+05 9.789997977244e-01 2.100020227557e-02 1.424788735060e-04 -6.776833959762e-12 2.162512782630e-05 -6.343231308572e-13 
2.900000000000e+02 5.000000000000e+03 2.000000000000e+05 1.950000000000e+05 9.795856741462e-01 2.041432585383e-02 1.348822279084e-04 -5.514886495734e-12 2.069900154997e-05 -5.020777912892e-13 
3.000000000000e+02 5.000000000000e+03 2.000000000000e+05 1.950000000000e+05 9.801002342383e-01 1.989976576173e-02 1.283541901396e-04 -4.310635644196e-12 1.989234737850e-05 -3.497962491808e-13 
3.100000000000e+02 5.000000000000e+03 2.000000000000e+05 1.950000000000e+05 9.805327106928e-01 1.946728930720e-02 1.229445616052e-04 -3.309191316299e-12 1.922002735049e-05 -1.760493409487e-13 
3.200000000000e+02 5.000000000000e+03 2.000000000000e+05 1.950000000000e+05 9.808813075853e-01 1.911869241474e-02 1.186800926816e-04 -2.558970064280e-12 1.868143063594e-05 1.201094238762e-14 
3.300000000000e+02 5.000000000000e+03 2.000000000000e+05 1.950000000000e+05 9.811507588767e-01 1.884924112334e-02 1.154544364927e-04 -2.051229084398e-12 1.826711237831e-05 2.050008610310e-13 
3.400000000000e+02 5.000000000000e+03 2.000000000000e+05 1.950000000000e+05 9.813500574250e-01 1.864994257504e-02 1.130729373736e-04 -1.738169038386e-12 1.796232784540e-05 3.927621176443e-13 
3.500000000000e+02 5.000000000000e+03 2.000000000000e+05 1.950000000000e+05 9.814907010998e-01 1.850929890019e-02 1.114047622513e-04 -1.561478693274e-12 1.774796946403e-05 5.670403482095e-13 
3.600000000000e+02 5.000000000000e+03 2.000000000000e+05 1.950000000000e+05 9.815846971144e-01 1.841530288557e-02 1.102952625767e-04 -1.467992863569e-12 1.760505378049e-05 7.221227898549e-13 
3.700000000000e+02 5.000000000000e+03 2.000000000000e+05 1.950000000000e+05 9.816433622708e-01 1.835663772918e-02 1.096045479151e-04 -1.420601627699e-12 1.751600470981e-05 8.554941151572e-13 
3.800000000000e+02 5.000000000000e+03 2.000000000000e+05 1.950000000000e+05 9.816765069024e-01 1.832349309764e-02 1.091922467911e-04 -1.388335476839e-12 1.746604866154e-05 9.653776655288e-13 
3.900000000000e+02 5.000000000000e+03 2.000000000000e+05 1.950000000000e+05 9.816927336165e-01 1.830726638352e-02 1.090025023940e-04 -1.364401870965e-12 1.744144410437e-05 1.053519207114e-12 
4.000000000000e+02 5.000000000000e+03 2.000000000000e+05 1.950000000000e+05 9.816988123472e-01 1.830118765277e-02 1.089316753824e-04 -1.340803037915e-12 1.743222615902e-05 1.121191352111e-12 
4.100000000000e+02 5.000000000000e+03 2.000000000000e+05 1.950000000000e+05 9.817001645379e-01 1.829983546207e-02 1.089162785750e-04 -1.330073756463e-12 1.743017105224e-05 1.173057110190e-12 
4.200000000000e+02 5.000000000000e+03 2.000000000000e+05 1.950000000000e+05 9.817011237948e-01 1.829887620520e-02 1.089057108509e-04 -1.324816864746e-12 1.742870842554e-05 1.210085531196e-12 
4.300000000000e+02 5.000000000000e+03 2.000000000000e+05 1.950000000000e+05 9.817052055300e-01 1.829479447003e-02 1.088589952458e-04 -1.346612584914e-12 1.742250865285e-05 1.238107967373e-12 
4.400000000000e+02 5.000000000000e+03 2.000000000000e+05 1.950000000000e+05 9.817153445735e-01 1.828465542650e-02 1.087420049093e-04 -1.378868431845e-12 1.740712393673e-05 1.256174707873e-12 
4.500000000000e+02 5.000000000000e+03 2.000000000000e+05 1.950000000000e+05 9.817340743568e-01 1.826592564315e-02 1.085253818816e-04 -1.396680936992e-12 1.737872123897e-05 1.260337627209e-12 
4.600000000000e+02 5.000000000000e+03 2.000000000000e+05 1.950000000000e+05 9.817636320802e-01 1.823636791983e-02 1.081833164578e-04 -1.348872068298e-12 1.733392931061e-05 1.239987735321e-12 
4.700000000000e+02 5.000000000000e+03 2.000000000000e+05 1.950000000000e+05 9.818059837470e-01 1.819401625300e-02 1.076932605474e-04 -1.191551806609e-12 1.726980816584e-05 1.183473861209e-12 
4.800000000000e+02 5.000000000000e+03 2.000000000000e+05 1.950000000000e+05 9.818627743992e-01 1.813722560082e-02 1.070366129527e-04 -6.487516932897e-13 1.718393050009e-05 1.032521679708e-12 
4.900000000000e+02 5.000000000000e+03 2.000000000000e+05 1.950000000000e+05 9.819352214690e-01 1.806477853098e-02 1.062002144861e-04 2.970690464901e-12 1.707454559485e-05 2.470123069330e-13 
5.000000000000e+02 5.000000000000e+03 2.000000000000e+05 1.950000000000e+05 9.820239794115e-01 1.797602058849e-02 1.051781309262e-04 -6.606662891267e-14 1.694078333861e-05 5.496245931149e-13 
5.100000000000e+02 5.000000000000e+03 2.000000000000e+05 1.950000000000e+05 9.821290829534e-01 1.787091704660e-02 1.039791923656e-04 -2.133570982323e-12 1.678264706869e-05 8.453941123484e-13 
5.200000000000e+02 5.000000000000e+03 2.000000000000e+05 1.950000000000e+05 9.822496214648e-01 1.775037853522e-02 1.026024946505e-04 -1.984566337948e-12 1.660185985905e-05 8.315642790714e-13 
5.300000000000e+02 5.000000000000e+03 2.000000000000e+05 1.950000000000e+05 9.823839915051e-01 1.761600849492e-02 1.010768891554e-04 -1.593047949945e-12 1.640090979655e-05 7.610649848788e-13 
5.400000000000e+02 5.000000000000e+03 2.000000000000e+05 1.950000000000e+05 9.825298623482e-01 1.747013765177e-02 9.943183148313e-05 1.913263096621e-12 1.618346220052e-05 1.010070149618e-13 
5.500000000000e+02 5.000000000000e+03 2.000000000000e+05 1.950000000000e+05 9.826843259612e-01 1.731567403881e-02 9.770269229440e-05 1.015848287661e-11 1.595401333951e-05 -1.570341268055e-12 
5.600000000000e+02 5.000000000000e+03 2.000000000000e+05 1.950000000000e+05 9.828441075130e-01 1.715589248700e-02 9.592802550258e-05 1.538261516461e-11 1.571755372796e-05 -3.041230231064e-12 
5.700000000000e+02 5.000000000000e+03 2.000000000000e+05 1.950000000000e+05 9.830058067189e-01 1.699419328114e-02 9.414664367880e-05 1.534669463167e-11 1.547919258450e-05 -3.745551447875e-12 
5.800000000000e+02 5.000000000000e+03 2.000000000000e+05 1.950000000000e+05 9.831661017223e-01 1.683389827769e-02 9.239115066913e-05 1.532016310932e-11 1.524389759283e-05 -4.366352728015e-12 
5.900000000000e+02 5.000000000000e+03 2.000000000000e+05 1.950000000000e+05 9.833220776153e-01 1.667792238471e-02 9.070110774653e-05 8.603064961338e-12 1.501581196369e-05 -3.771561439693e-12 
6.000000000000e+02 5.000000000000e+03 2.000000000000e+05 1.950000000000e+05 9.834712339950e-01 1.652876600504e-02 8.909770966724e-05 -2.936763246998e-12 1.479856445332e-05 -2.028884697895e-12 
6.100000000000e+02 5.000000000000e+03 2.000000000000e+05 1.950000000000e+05 9.836116315962e-01 1.638836840383e-02 8.759969773672e-05 -8.787065591768e-12 1.459486233956e-05 -7.495270024227e-13 
6.200000000000e+02 5.000000000000e+03 2.000000000000e+05 1.950000000000e+05 9.837419167512e-01 1.625808324885e-02 8.621896708061e-05 -9.038680411404e-13 1.440653072873e-05 -1.534146668768e-12 
6.300000000000e+02 5.000000000000e+03 2.000000000000e+05 1.950000000000e+05 9.838612927820e-01 1.613870721801e-02 8.496100912277e-05 3.033378999457e-11 1.423457586721e-05 -6.501219974423e-12 
6.400000000000e+02 5.000000000000e+03 2.000000000000e+05 1.950000000000e+05 9.839694512104e-01 1.603054878957e-02 8.382541666640e-05 1.322235713079e-11 1.407930673870e-05 -4.877328736250e-12 
6.500000000000e+02 5.000000000000e+03 2.000000000000e+05 1.950000000000e+05 9.840664698255e-01 1.593353017454e-02 8.280537677170e-05 -2.323048706678e-11 1.394051391796e-05 6.331838973880e-13 
6.600000000000e+02 5.000000000000e+03 2.000000000000e+05 1.950000000000e+05 9.841526267803e-01 1.584737321968e-02 8.187888644660e-05 -4.029454954047e-11 1.381786382660e-05 4.508191129145e-12 
6.700000000000e+02 5.000000000000e+03 2.000000000000e+05 1.950000000000e+05 9.842288671542e-01 1.577113284581e-02 8.109087039169e-05 1.335302259465e-12 1.370926864385e-05 -3.622362107497e-13 
6.800000000000e+02 5.000000000000e+03 2.000000000000e+05 1.950000000000e+05 9.842972184595e-01 1.570278154046e-02 8.055304563166e-05 2.233694209879e-12 1.361028422394e-05 -5.720608645096e-13 
6.900000000000e+02 5.000000000000e+03 2.000000000000e+05 1.950000000000e+05 9.843571313025e-01 1.564286869751e-02 7.992489967434e-05 4.109854747012e-11 1.352544640015e-05 -6.768442888362e-12 
7.000000000000e+02 5.000000000000e+03 2.000000000000e+05 1.950000000000e+05 9.844096053168e-01 1.559039468324e-02 7.937535350292e-05 1.215782631849e-11 1.345127760625e-05 -3.871480312845e-12 
7.100000000000e+02 5.000000000000e+03 2.000000000000e+05 1.950000000000e+05 9.844557011671e-01 1.554429883288e-02 7.890231807350e-05 -6.572131359709e-12 1.338612789206e-05 -1.310230746252e-12 
7.200000000000e+02 5.000000000000e+03 2.000000000000e+05 1.950000000000e+05 9.844963998390e-01 1.550360016098e-02 7.848972875429e-05 -6.539345561801e-13 1.332863763153e-05 -1.823625122723e-12 
7.300000000000e+02 5.000000000000e+03 2.000000000000e+05 1.950000000000e+05 9.845326304046e-01 1.546736959540e-02 7.812677981435e-05 -9.624613523140e-13 1.327748046037e-05 -1.639303960831e-12 
7.400000000000e+02 5.000000000000e+03 2.000000000000e+05 1.950000000000e+05 9.845652837682e-01 1.543471623183e-02 7.780562709184e-05 6.237669809310e-11 1.323136554228e-05 -1.129140062850e-11 
7.500000000000e+02 5.000000000000e+03 2.000000000000e+05 1.950000000000e+05 9.845921980489e-01 1.540780195109e-02 7.712605276350e-05 -1.471046740469e-11 1.319787191927e-05 -1.773996104294e-12 
7.600000000000e+02 5.000000000000e+03 2.000000000000e+05 1.950000000000e+05 9.846194172586e-01 1.538058274138e-02 7.713213560015e-05 -9.239879651531e-12 1.315655137098e-05 -1.791771185413e-12 
7.700000000000e+02 5.000000000000e+03 2.000000000000e+05 1.950000000000e+05 9.846462717429e-01 1.535372825706e-02 7.698936723254e-05 -7.106806102704e-12 1.311743188260e-05 -1.574594587867e-12 
7.800000000000e+02 5.000000000000e+03 2.000000000000e+05 1.950000000000e+05 9.846719097804e-01 1.532809021963e-02 7.665923121917e-05 -4.603174846192e-12 1.308220124784e-05 -1.539576153514e-12 
7.900000000000e+02 5.000000000000e+03 2.000000000000e+05 1.950000000000e+05 9.846977255351e-01 1.530227446494e-02 7.641873292532e-05 -3.345170591778e-12 1.304577301013e-05 -1.442841610245e-12 
8.000000000000e+02 5.000000000000e+03 2.000000000000e+05 1.950000000000e+05 9.847242688314e-01 1.527573116864e-02 7.616245776192e-05 6.877384635660e-13 1.300844983465e-05 -1.838877500343e-12 
8.100000000000e+02 5.000000000000e+03 2.000000000000e+05 1.950000000000e+05 9.847521024882e-01 1.524789751184e-02 7.589043727728e-05 2.253544819499e-11 1.296938567257e-05 -5.109362710618e-12 
8.200000000000e+02 5.000000000000e+03 2.000000000000e+05 1.950000000000e+05 9.847817589638e-01 1.521824103621e-02 7.559917167055e-05 6.986348750592e-11 1.292782157912e-05 -1.306191325347e-11 
8.300000000000e+02 5.000000000000e+03 2.000000000000e+05 1.950000000000e+05 9.848137194697e-01 1.518628053033e-02 7.528470492781e-05 4.246157699378e-11 1.288308428312e-05 -1.144547424916e-11 
8.400000000000e+02 5.000000000000e+03 2.000000000000e+05 1.950000000000e+05 9.848483962373e-01 1.515160376270e-02 7.494338145038e-05 -4.533637437698e-11 1.283460482686e-05 4.537176450100e-13 
8.500000000000e+02 5.000000000000e+03 2.000000000000e+05 1.950000000000e+05 9.848861165757e-01 1.511388342425e-02 7.457229956594e-05 -6.255805518004e-12 1.278193762056e-05 -3.335059723055e-12 
8.600000000000e+02 5.000000000000e+03 2.000000000000e+05 1.950000000000e+05 9.849271083087e-01 1.507289169127e-02 7.416953072710e-05 1.720469553185e-11 1.272477967885e-05 -6.379613735839e-12 
8.700000000000e+02 5.000000000000e+03 2.000000000000e+05 1.950000000000e+05 9.849714884271e-01 1.502851157289e-02 7.373424211917e-05 1.356801200415e-11 1.266298573050e-05 -6.280026929792e-12 
8.800000000000e+02 5.000000000000e+03 2.000000000000e+05 1.950000000000e+05 9.850192559914e-01 1.498074400858e-02 7.326673007092e-05 3.054542362999e-13 1.259657752574e-05 -4.594357498589e-12 
8.900000000000e+02 5.000000000000e+03 2.000000000000e+05 1.950000000000e+05 9.850702914262e-01 1.492970857375e-02 7.276850943727e-05 -2.895079748332e-12 1.252574264465e-05 -3.900394877897e-12 
9.000000000000e+02 5.000000000000e+03 2.000000000000e+05 1.950000000000e+05 9.851243618401e-01 1.487563815992e-02 7.224222030172e-05 -6.759399563167e-12 1.245082594264e-05 -3.017215922256e-12 
9.100000000000e+02 5.000000000000e+03 2.000000000000e+05 1.950000000000e+05 9.851811322558e-01 1.481886774421e-02 7.169145253430e-05 -7.417176318303e-12 1.237231287209e-05 -2.492894418812e-12 
9.200000000000e+02 5.000000000000e+03 2.000000000000e+05 1.950000000000e+05 9.852401826257e-01 1.475981737433e-02 7.112061815783e-05 -5.627200744617e-12 1.229080371279e-05 -2.332719397838e-12 
9.300000000000e+02 5.000000000000e+03 2.000000000000e+05 1.950000000000e+05 9.853010286217e-01 1.469897137830e-02 7.053468999149e-05 -2.086050223311e-12 1.220698377167e-05 -2.514108772881e-12 
9.400000000000e+02 5.000000000000e+03 2.000000000000e+05 1.950000000000e+05 9.853631446875e-01 1.463685531254e-02 6.993895357730e-05 1.208734933227e-12 1.212159044576e-05 -2.798948754401e-12 
9.500000000000e+02 4.999999999999e+03 1.999999999999e+05 1.949999999999e+05 9.854259875731e-01 1.457401242686e-02 6.933876549786e-05 -5.722369944860e-12 1.203537998863e-05 -1.753941085231e-12 
9.600000000000e+02 5.000000000001e+03 2.000000000000e+05 1.950000000000e+05 9.854890184734e-01 1.451098152659e-02 6.873930592779e-05 8.520772547195e-13 1.194909693706e-05 -2.384251778652e-12 
9.700000000000e+02 5.000000000000e+03 2.000000000000e+05 1.950000000000e+05 9.855517226667e-01 1.444827733333e-02 6.814542037167e-05 1.534702771101e-11 1.186344688147e-05 -4.350884975591e-12 
9.800000000000e+02 5.000000000000e+03 2.000000000000e+05 1.950000000000e+05 9.856136254496e-01 1.438637455039e-02 6.756145906204e-05 1.301455106136e-11 1.177907518221e-05 -4.433938800388e-12 
9.900000000000e+02 5.000000000000e+03 2.000000000000e+05 1.950000000000e+05 9.856743038397e-01 1.432569616025e-02 6.699116086051e-05 5.098679071785e-12 1.169655185168e-05 -3.635316618058e-12 
1.000000000000e+03 5.000000000000e+03 2.000000000000e+05 1.950000000000e+05 9.857333938705e-01 1.426660612945e-02 6.643756589920e-05 -8.052597893032e-12 1.161636284832e-05 -1.846080977119e-12 
1.010000000000e+03 5.000000000000e+03 2.000000000000e+05 1.950000000000e+05 9.857905933110e-01 1.420940668898e-02 6.590288928362e-05 -1.939557294927e-11 1.153890854170e-05 1.035063635951e-13 
1.020000000000e+03 4.999999999995e+03 1.999999999998e+05 1.949999999998e+05 9.858456587903e-01 1.415434120971e-02 6.538817930625e-05 -1.035094954088e-11 1.146451235272e-05 -4.032613486366e-13 
1.030000000000e+03 5.000000000000e+03 2.000000000000e+05 1.950000000000e+05 9.858983899534e-01 1.410161004656e-02 6.489171787742e-05 -1.682626842540e-11 1.139345995187e-05 8.659269710964e-13 
1.040000000000e+03 4.999999999997e+03 1.999999999999e+05 1.949999999999e+05 9.859485058386e-01 1.405149416140e-02 6.439240020383e-05 -1.831893175160e-11 1.132633636378e-05 1.632245163140e-12 
1.050000000000e+03 5.000000000036e+03 2.000000000014e+05 1.950000000014e+05 9.859969653360e-01 1.400303466404e-02 6.407497420905e-05 -4.825730673771e-11 1.125998044535e-05 6.233819913381e-12 
1.150000000000e+03 4.999999998797e+03 1.999999999519e+05 1.949999999531e+05 9.863040039392e-01 1.369599606085e-02 6.118821294368e-05 -3.051060603250e-11 1.085097585767e-05 8.720049106849e-12 
1.250000000000e+03 4.999999999981e+03 1.999999999992e+05 1.949999999992e+05 9.865406016562e-01 1.345939834382e-02 5.914593761631e-05 -1.892492800835e-11 1.053775475076e-05 1.056293921390e-11 
1.350000000000e+03 5.000000000233e+03 2.000000000093e+05 1.950000000091e+05 9.867596172575e-01 1.324038274253e-02 5.685414414139e-05 -1.366766100093e-10 1.025428317885e-05 5.478899844617e-11 
1.450000000000e+03 4.999999999945e+03 1.999999999978e+05 1.949999999978e+05 9.870053800965e-01 1.299461990346e-02 5.507408306314e-05 6.502771022036e-11 9.932511833332e-06 8.559271883816e-12 
1.550000000000e+03 5.000000000131e+03 2.000000000052e+05 1.950000000051e+05 9.872383691038e-01 1.276163089615e-02 5.309702986086e-05 1.661110736141e-11 9.633387503135e-06 4.772072827914e-12 
1.650000000000e+03 5.000000000002e+03 2.000000000001e+05 1.950000000001e+05 9.874409065823e-01 1.255909341773e-02 5.129640808185e-05 3.460756043470e-11 9.376722271554e-06 -6.059234430255e-12 
1.750000000000e+03 5.000000000019e+03 2.000000000008e+05 1.950000000007e+05 9.876186259368e-01 1.238137406321e-02 4.986220380252e-05 -2.366859029946e-11 9.152374683969e-06 4.587231850407e-12 
1.850000000000e+03 4.999999999995e+03 1.999999999998e+05 1.949999999998e+05 9.877838150958e-01 1.221618490422e-02 4.854288065603e-05 1.595975150748e-11 8.945515609236e-06 -2.476523510847e-12 
1.925000000000e+03 5.000000000030e+03 2.000000000012e+05 1.950000000012e+05 9.879095222704e-01 1.209047772957e-02 4.766899743708e-05 5.940556913194e-11 8.788231396661e-06 -1.542643689191e-11 
2.000000000000e+03 5.000000000000e+03 2.000000000000e+05 1.950000000000e+05 9.880325832143e-01 1.196741678570e-02 4.654938689789e-05 -1.177613951608e-11 8.637327697222e-06 -5.524066582119e-12 
2.100000000000e+03 5.000000000029e+03 2.000000000011e+05 1.950000000011e+05 9.881974314489e-01 1.180256855108e-02 4.530927752431e-05 -2.369366730312e-11 8.434679163098e-06 1.259396869634e-12 
2.200000000000e+03 4.999999999957e+03 1.999999999983e+05 1.949999999983e+05 9.883517842971e-01 1.164821570289e-02 4.406498140489e-05 1.293222325887e-12 8.247183030009e-06 -7.918329820604e-13 
2.300000000000e+03 5.000000000251e+03 2.000000000100e+05 1.950000000098e+05 9.884946922999e-01 1.150530770007e-02 4.303035284952e-05 -1.639468107028e-11 8.074110820661e-06 2.532829433269e-12 
2.400000000000e+03 4.999999999993e+03 1.999999999997e+05 1.949999999997e+05 9.886234148322e-01 1.137658516778e-02 4.201802865397e-05 3.285014182418e-12 7.919986122826e-06 2.630590123121e-15 
2.500000000000e+03 4.999999999239e+03 1.999999999696e+05 1.949999999703e+05 9.887435164719e-01 1.125648352808e-02 4.110820722394e-05 -7.909295426272e-12 7.776933666967e-06 6.609577008881e-13 
2.600000000000e+03 4.999999999976e+03 1.999999999991e+05 1.949999999991e+05 9.888621625969e-01 1.113783740314e-02 4.030112421093e-05 -7.311991356590e-12 7.635923206485e-06 1.543271695087e-12 
2.700000000000e+03 5.000000000018e+03 2.000000000007e+05 1.950000000007e+05 9.889713664253e-01 1.102863357474e-02 3.922409760320e-05 1.957726017014e-12 7.509348385854e-06 4.508894765143e-13 
2.800000000000e+03 4.999999999530e+03 1.999999999812e+05 1.949999999817e+05 9.890778597127e-01 1.092214028728e-02 3.839244060354e-05 -2.038102557284e-11 7.385145558766e-06 2.487791906352e-12 
2.900000000000e+03 5.000000000003e+03 2.000000000001e+05 1.950000000001e+05 9.891911665856e-01 1.080883341444e-02 3.790643932679e-05 1.828511547840e-11 7.251123303012e-06 -3.025026626700e-12 
3.000000000000e+03 5.000000000000e+03 2.000000000000e+05 1.950000000000e+05 9.892932611944e-01 1.070673880564e-02 3.706807369941e-05 -5.371364901069e-13 7.133894983680e-06 -9.633997200373e-13 
3.100000000000e+03 4.999999999968e+03 1.999999999987e+05 1.949999999987e+05 9.893867784583e-01 1.061322154174e-02 3.633432679698e-05 -2.366697166227e-11 7.026918116233e-06 2.457809989632e-12 
3.200000000000e+03 4.999999999499e+03 1.999999999799e+05 1.949999999804e+05 9.894771407534e-01 1.052285924657e-02 3.576119144511e-05 1.095162750999e-11 6.923234134199e-06 -5.092949851675e-13 
3.300000000000e+03 4.999999999999e+03 2.000000000000e+05 1.950000000000e+05 9.895640400695e-01 1.043595993049e-02 3.515659918956e-05 -2.534806015356e-12 6.824433215483e-06 7.178541862191e-13 
3.400000000000e+03 5.000000000000e+03 2.000000000000e+05 1.950000000000e+05 9.896489451651e-01 1.035105483488e-02 3.457043189572e-05 -3.671935296203e-12 6.728396721872e-06 1.133805947494e-12 
3.500000000000e+03 5.000000000000e+03 2.000000000000e+05 1.950000000000e+05 9.897335981565e-01 1.026640184346e-02 3.403980419840e-05 2.473716827318e-12 6.632822111838e-06 1.221777021217e-13 
3.600000000000e+03 5.000000000001e+03 2.000000000000e+05 1.950000000000e+05 9.898163028746e-01 1.018369712538e-02 3.349640337637e-05 -3.368529980652e-12 6.540117304227e-06 7.690933246094e-13 
3.700000000000e+03 5.000000000000e+03 2.000000000000e+05 1.950000000000e+05 9.898969468058e-01 1.010305319424e-02 3.299645012543e-05 4.812007575655e-11 6.450021292937e-06 -9.330826687423e-12 
3.800000000000e+03 5.000000000002e+03 2.000000000001e+05 1.950000000001e+05 9.899732067602e-01 1.002679323981e-02 3.247910713054e-05 3.633233089482e-11 6.365546927088e-06 -1.170560107216e-11 
3.900000000000e+03 5.000000000038e+03 2.000000000015e+05 1.950000000015e+05 9.900451486789e-01 9.954851321053e-03 3.197908981030e-05 -4.567148053401e-11 6.286324489174e-06 1.523357213304e-12 
4.000000000000e+03 5.000000000000e+03 2.000000000000e+05 1.950000000000e+05 9.901149505627e-01 9.885049437285e-03 3.156084004262e-05 -3.845780044231e-11 6.209418172118e-06 5.834825718590e-12 
4.100000000000e+03 5.000000000000e+03 2.000000000000e+05 1.950000000000e+05 9.901824233180e-01 9.817576681971e-03 3.112975317060e-05 1.189239052470e-11 6.135591815231e-06 9.234544315819e-14 
4.200000000000e+03 4.999999999968e+03 1.999999999987e+05 1.949999999988e+05 9.902473332996e-01 9.752666700386e-03 3.067057339388e-05 -1.581961957684e-12 6.065160792512e-06 1.584743358708e-12 
4.300000000000e+03 5.000000000002e+03 2.000000000001e+05 1.950000000001e+05 9.903131629010e-01 9.686837099004e-03 3.034295310554e-05 7.026896596778e-12 5.993234969113e-06 -5.183907769480e-13 
4.400000000000e+03 4.999999999990e+03 1.999999999996e+05 1.949999999996e+05 9.903777155639e-01 9.622284436129e-03 2.994813756558e-05 9.981739653560e-12 5.923467181045e-06 -1.618148881209e-12 
4.500000000000e+03 5.000000000000e+03 2.000000000000e+05 1.950000000000e+05 9.904398220504e-01 9.560177949616e-03 2.953725990640e-05 -1.565166112002e-13 5.856826715834e-06 -8.081640608988e-13 
4.600000000000e+03 5.000000000000e+03 2.000000000000e+05 1.950000000000e+05 9.904965654994e-01 9.503434500611e-03 2.903593647767e-05 3.417846454600e-11 5.796927064371e-06 -6.593364321594e-12 
4.700000000000e+03 5.000000000000e+03 2.000000000000e+05 1.950000000000e+05 9.905526830013e-01 9.447316998707e-03 2.870348570455e-05 -3.529730209188e-11 5.736982009789e-06 2.607912625263e-12 
4.800000000000e+03 5.000000000000e+03 2.000000000000e+05 1.950000000000e+05 9.906073528714e-01 9.392647128607e-03 2.837752888816e-05 9.687192623401e-13 5.678831461987e-06 2.796088711249e-14 
4.900000000000e+03 5.000000000000e+03 2.000000000000e+05 1.950000000000e+05 9.906603795859e-01 9.339620414130e-03 2.805141939095e-05 4.075402466029e-12 5.622708252071e-06 -6.199996071861e-13 
5.000000000000e+03 5.000000000000e+03 2.000000000000e+05 1.950000000000e+05 9.907120195012e-01 9.287980498809e-03 2.773275883614e-05 1.267638711792e-13 5.568270057355e-06 -2.973156074691e-13 
5.100000000000e+03 5.000000000000e+03 2.000000000000e+05 1.950000000000e+05 9.907626382066e-01 9.237361793381e-03 2.742406591856e-05 -2.666818546370e-13 5.515090720516e-06 -1.736256579135e-13 
5.200000000000e+03 5.000000000000e+03 2.000000000000e+05 1.950000000000e+05 9.908124388691e-01 9.187561130882e-03 2.712303864123e-05 -2.886516591918e-12 5.462952729833e-06 3.169325699825e-13 
5.300000000000e+03 5.000000000002e+03 2.000000000001e+05 1.950000000001e+05 9.908613532115e-01 9.138646788494e-03 2.682520645434e-05 1.644819393204e-12 5.411945247758e-06 5.746635570949e-13 
5.400000000000e+03 5.000000000000e+03 2.000000000000e+05 1.950000000000e+05 9.909092514021e-01 9.090748597902e-03 2.653259947735e-05 -4.622835817226e-11 5.362186149575e-06 7.819406239708e-12 