VARIABLES  = "X","Y","Z", "PRESSURE1", "PRESSURE2", "PRESSURE_W", "SATURATION1", SATURATION2, "VELOCITY_X1", "VELOCITY_Y1", "VELOCITY_X2", "VELOCITY_Y2"
ZONE T="0.000000000000e+00s", N=58, E=43, F=FEPOINT, ET=QUADRILATERAL
STRANDID=1, SOLUTIONTIME=0.000000000000e+00
2.600000000000e+00 0.000000000000e+00 0.000000000000e+00 5.000000000000e+04 0.000000000000e+00 -5.000000000000e+04 1.000000000000e-02 9.900000000000e-01 0.000000000000e+00 0.000000000000e+00 0.000000000000e+00 0.000000000000e+00 
2.600000000000e+00 5.000000000000e-01 0.000000000000e+00 5.000000000000e+04 0.000000000000e+00 -5.000000000000e+04 1.000000000000e-02 9.900000000000e-01 0.000000000000e+00 0.000000000000e+00 0.000000000000e+00 0.000000000000e+00 
2.062068965517e+00 0.000000000000e+00 0.000000000000e+00 5.000000000000e+04 0.000000000000e+00 -5.000000000000e+04 1.000000000000e-02 9.900000000000e-01 0.000000000000e+00 0.000000000000e+00 0.000000000000e+00 0.000000000000e+00 
2.151724137931e+00 0.000000000000e+00 0.000000000000e+00 5.000000000000e+04 0.000000000000e+00 -5.000000000000e+04 1.000000000000e-02 9.900000000000e-01 0.000000000000e+00 0.000000000000e+00 0.000000000000e+00 0.000000000000e+00 
2.241379310345e+00 0.000000000000e+00 0.000000000000e+00 5.000000000000e+04 0.000000000000e+00 -5.000000000000e+04 1.000000000000e-02 9.900000000000e-01 0.000000000000e+00 0.000000000000e+00 0.000000000000e+00 0.000000000000e+00 
2.331034482759e+00 0.000000000000e+00 0.000000000000e+00 5.000000000000e+04 0.000000000000e+00 -5.000000000000e+04 1.000000000000e-02 9.900000000000e-01 0.000000000000e+00 0.000000000000e+00 0.000000000000e+00 0.000000000000e+00 
2.420689655172e+00 0.000000000000e+00 0.000000000000e+00 5.000000000000e+04 0.000000000000e+00 -5.000000000000e+04 1.000000000000e-02 9.900000000000e-01 0.000000000000e+00 0.000000000000e+00 0.000000000000e+00 0.000000000000e+00 
2.510344827586e+00 0.000000000000e+00 0.000000000000e+00 5.000000000000e+04 0.000000000000e+00 -5.000000000000e+04 1.000000000000e-02 9.900000000000e-01 0.000000000000e+00 0.000000000000e+00 0.000000000000e+00 0.000000000000e+00 
2.600000000000e+00 8.333333333313e-02 0.000000000000e+00 5.000000000000e+04 0.000000000000e+00 -5.000000000000e+04 1.000000000000e-02 9.900000000000e-01 0.000000000000e+00 0.000000000000e+00 0.000000000000e+00 0.000000000000e+00 
2.600000000000e+00 1.666666666663e-01 0.000000000000e+00 5.000000000000e+04 0.000000000000e+00 -5.000000000000e+04 1.000000000000e-02 9.900000000000e-01 0.000000000000e+00 0.000000000000e+00 0.000000000000e+00 0.000000000000e+00 
2.600000000000e+00 2.499999999995e-01 0.000000000000e+00 5.000000000000e+04 0.000000000000e+00 -5.000000000000e+04 1.000000000000e-02 9.900000000000e-01 0.000000000000e+00 0.000000000000e+00 0.000000000000e+00 0.000000000000e+00 
2.600000000000e+00 3.333333333329e-01 0.000000000000e+00 5.000000000000e+04 0.000000000000e+00 -5.000000000000e+04 1.000000000000e-02 9.900000000000e-01 0.000000000000e+00 0.000000000000e+00 0.000000000000e+00 0.000000000000e+00 
2.600000000000e+00 4.166666666664e-01 0.000000000000e+00 5.000000000000e+04 0.000000000000e+00 -5.000000000000e+04 1.000000000000e-02 9.900000000000e-01 0.000000000000e+00 0.000000000000e+00 0.000000000000e+00 0.000000000000e+00 
2.510344827586e+00 5.000000000000e-01 0.000000000000e+00 5.000000000000e+04 0.000000000000e+00 -5.000000000000e+04 1.000000000000e-02 9.900000000000e-01 0.000000000000e+00 0.000000000000e+00 0.000000000000e+00 0.000000000000e+00 
2.420689655173e+00 5.000000000000e-01 0.000000000000e+00 5.000000000000e+04 0.000000000000e+00 -5.000000000000e+04 1.000000000000e-02 9.900000000000e-01 0.000000000000e+00 0.000000000000e+00 0.000000000000e+00 0.000000000000e+00 
2.331034482759e+00 5.000000000000e-01 0.000000000000e+00 5.000000000000e+04 0.000000000000e+00 -5.000000000000e+04 1.000000000000e-02 9.900000000000e-01 0.000000000000e+00 0.000000000000e+00 0.000000000000e+00 0.000000000000e+00 
2.241379310346e+00 5.000000000000e-01 0.000000000000e+00 5.000000000000e+04 0.000000000000e+00 -5.000000000000e+04 1.000000000000e-02 9.900000000000e-01 0.000000000000e+00 0.000000000000e+00 0.000000000000e+00 0.000000000000e+00 
2.151724137932e+00 5.000000000000e-01 0.000000000000e+00 5.000000000000e+04 0.000000000000e+00 -5.000000000000e+04 1.000000000000e-02 9.900000000000e-01 0.000000000000e+00 0.000000000000e+00 0.000000000000e+00 0.000000000000e+00 
2.062068965518e+00 5.000000000000e-01 0.000000000000e+00 5.000000000000e+04 0.000000000000e+00 -5.000000000000e+04 1.000000000000e-02 9.900000000000e-01 0.000000000000e+00 0.000000000000e+00 0.000000000000e+00 0.000000000000e+00 
1.972413793105e+00 5.000000000000e-01 0.000000000000e+00 5.000000000000e+04 0.000000000000e+00 -5.000000000000e+04 1.000000000000e-02 9.900000000000e-01 0.000000000000e+00 0.000000000000e+00 0.000000000000e+00 0.000000000000e+00 
2.062068965518e+00 4.166666666665e-01 0.000000000000e+00 5.000000000000e+04 0.000000000000e+00 -5.000000000000e+04 1.000000000000e-02 9.900000000000e-01 0.000000000000e+00 0.000000000000e+00 0.000000000000e+00 0.000000000000e+00 
2.151724137932e+00 4.166666666665e-01 0.000000000000e+00 5.000000000000e+04 0.000000000000e+00 -5.000000000000e+04 1.000000000000e-02 9.900000000000e-01 0.000000000000e+00 0.000000000000e+00 0.000000000000e+00 0.000000000000e+00 
2.241379310345e+00 4.166666666665e-01 0.000000000000e+00 5.000000000000e+04 0.000000000000e+00 -5.000000000000e+04 1.000000000000e-02 9.900000000000e-01 0.000000000000e+00 0.000000000000e+00 0.000000000000e+00 0.000000000000e+00 
2.331034482759e+00 4.166666666665e-01 0.000000000000e+00 5.000000000000e+04 0.000000000000e+00 -5.000000000000e+04 1.000000000000e-02 9.900000000000e-01 0.000000000000e+00 0.000000000000e+00 0.000000000000e+00 0.000000000000e+00 
2.420689655173e+00 4.166666666665e-01 0.000000000000e+00 5.000000000000e+04 0.000000000000e+00 -5.000000000000e+04 1.000000000000e-02 9.900000000000e-01 0.000000000000e+00 0.000000000000e+00 0.000000000000e+00 0.000000000000e+00 
2.510344827586e+00 4.166666666665e-01 0.000000000000e+00 5.000000000000e+04 0.000000000000e+00 -5.000000000000e+04 1.000000000000e-02 9.900000000000e-01 0.000000000000e+00 0.000000000000e+00 0.000000000000e+00 0.000000000000e+00 
2.062068965518e+00 3.333333333331e-01 0.000000000000e+00 5.000000000000e+04 0.000000000000e+00 -5.000000000000e+04 1.000000000000e-02 9.900000000000e-01 0.000000000000e+00 0.000000000000e+00 0.000000000000e+00 0.000000000000e+00 
2.151724137932e+00 3.333333333331e-01 0.000000000000e+00 5.000000000000e+04 0.000000000000e+00 -5.000000000000e+04 1.000000000000e-02 9.900000000000e-01 0.000000000000e+00 0.000000000000e+00 0.000000000000e+00 0.000000000000e+00 
2.241379310345e+00 3.333333333330e-01 0.000000000000e+00 5.000000000000e+04 0.000000000000e+00 -5.000000000000e+04 1.000000000000e-02 9.900000000000e-01 0.000000000000e+00 0.000000000000e+00 0.000000000000e+00 0.000000000000e+00 
2.331034482759e+00 3.333333333330e-01 0.000000000000e+00 5.000000000000e+04 0.000000000000e+00 -5.000000000000e+04 1.000000000000e-02 9.900000000000e-01 0.000000000000e+00 0.000000000000e+00 0.000000000000e+00 0.000000000000e+00 
2.420689655173e+00 3.333333333330e-01 0.000000000000e+00 5.000000000000e+04 0.000000000000e+00 -5.000000000000e+04 1.000000000000e-02 9.900000000000e-01 0.000000000000e+00 0.000000000000e+00 0.000000000000e+00 0.000000000000e+00 
2.510344827586e+00 3.333333333330e-01 0.000000000000e+00 5.000000000000e+04 0.000000000000e+00 -5.000000000000e+04 1.000000000000e-02 9.900000000000e-01 0.000000000000e+00 0.000000000000e+00 0.000000000000e+00 0.000000000000e+00 
2.062068965518e+00 2.499999999998e-01 0.000000000000e+00 5.000000000000e+04 0.000000000000e+00 -5.000000000000e+04 1.000000000000e-02 9.900000000000e-01 0.000000000000e+00 0.000000000000e+00 0.000000000000e+00 0.000000000000e+00 
2.151724137932e+00 2.499999999997e-01 0.000000000000e+00 5.000000000000e+04 0.000000000000e+00 -5.000000000000e+04 1.000000000000e-02 9.900000000000e-01 0.000000000000e+00 0.000000000000e+00 0.000000000000e+00 0.000000000000e+00 
2.241379310345e+00 2.499999999997e-01 0.000000000000e+00 5.000000000000e+04 0.000000000000e+00 -5.000000000000e+04 1.000000000000e-02 9.900000000000e-01 0.000000000000e+00 0.000000000000e+00 0.000000000000e+00 0.000000000000e+00 
2.331034482759e+00 2.499999999996e-01 0.000000000000e+00 5.000000000000e+04 0.000000000000e+00 -5.000000000000e+04 1.000000000000e-02 9.900000000000e-01 0.000000000000e+00 0.000000000000e+00 0.000000000000e+00 0.000000000000e+00 
2.420689655173e+00 2.499999999996e-01 0.000000000000e+00 5.000000000000e+04 0.000000000000e+00 -5.000000000000e+04 1.000000000000e-02 9.900000000000e-01 0.000000000000e+00 0.000000000000e+00 0.000000000000e+00 0.000000000000e+00 
2.510344827586e+00 2.499999999996e-01 0.000000000000e+00 5.000000000000e+04 0.000000000000e+00 -5.000000000000e+04 1.000000000000e-02 9.900000000000e-01 0.000000000000e+00 0.000000000000e+00 0.000000000000e+00 0.000000000000e+00 
2.062068965518e+00 1.666666666665e-01 0.000000000000e+00 5.000000000000e+04 0.000000000000e+00 -5.000000000000e+04 1.000000000000e-02 9.900000000000e-01 0.000000000000e+00 0.000000000000e+00 0.000000000000e+00 0.000000000000e+00 
2.151724137931e+00 1.666666666665e-01 0.000000000000e+00 5.000000000000e+04 0.000000000000e+00 -5.000000000000e+04 1.000000000000e-02 9.900000000000e-01 0.000000000000e+00 0.000000000000e+00 0.000000000000e+00 0.000000000000e+00 
2.241379310345e+00 1.666666666664e-01 0.000000000000e+00 5.000000000000e+04 0.000000000000e+00 -5.000000000000e+04 1.000000000000e-02 9.900000000000e-01 0.000000000000e+00 0.000000000000e+00 0.000000000000e+00 0.000000000000e+00 
2.331034482759e+00 1.666666666664e-01 0.000000000000e+00 5.000000000000e+04 0.000000000000e+00 -5.000000000000e+04 1.000000000000e-02 9.900000000000e-01 0.000000000000e+00 0.000000000000e+00 0.000000000000e+00 0.000000000000e+00 
2.420689655173e+00 1.666666666664e-01 0.000000000000e+00 5.000000000000e+04 0.000000000000e+00 -5.000000000000e+04 1.000000000000e-02 9.900000000000e-01 0.000000000000e+00 0.000000000000e+00 0.000000000000e+00 0.000000000000e+00 
2.510344827586e+00 1.666666666663e-01 0.000000000000e+00 5.000000000000e+04 0.000000000000e+00 -5.000000000000e+04 1.000000000000e-02 9.900000000000e-01 0.000000000000e+00 0.000000000000e+00 0.000000000000e+00 0.000000000000e+00 
2.062068965518e+00 8.333333333325e-02 0.000000000000e+00 5.000000000000e+04 0.000000000000e+00 -5.000000000000e+04 1.000000000000e-02 9.900000000000e-01 0.000000000000e+00 0.000000000000e+00 0.000000000000e+00 0.000000000000e+00 
2.151724137931e+00 8.333333333323e-02 0.000000000000e+00 5.000000000000e+04 0.000000000000e+00 -5.000000000000e+04 1.000000000000e-02 9.900000000000e-01 0.000000000000e+00 0.000000000000e+00 0.000000000000e+00 0.000000000000e+00 
2.241379310345e+00 8.333333333321e-02 0.000000000000e+00 5.000000000000e+04 0.000000000000e+00 -5.000000000000e+04 1.000000000000e-02 9.900000000000e-01 0.000000000000e+00 0.000000000000e+00 0.000000000000e+00 0.000000000000e+00 
2.331034482759e+00 8.333333333319e-02 0.000000000000e+00 5.000000000000e+04 0.000000000000e+00 -5.000000000000e+04 1.000000000000e-02 9.900000000000e-01 0.000000000000e+00 0.000000000000e+00 0.000000000000e+00 0.000000000000e+00 
2.420689655173e+00 8.333333333317e-02 0.000000000000e+00 5.000000000000e+04 0.000000000000e+00 -5.000000000000e+04 1.000000000000e-02 9.900000000000e-01 0.000000000000e+00 0.000000000000e+00 0.000000000000e+00 0.000000000000e+00 
2.510344827586e+00 8.333333333315e-02 0.000000000000e+00 5.000000000000e+04 0.000000000000e+00 -5.000000000000e+04 1.000000000000e-02 9.900000000000e-01 0.000000000000e+00 0.000000000000e+00 0.000000000000e+00 0.000000000000e+00 
1.972413793104e+00 8.333333333327e-02 0.000000000000e+00 5.000000000000e+04 0.000000000000e+00 -5.000000000000e+04 1.000000000000e-02 9.900000000000e-01 0.000000000000e+00 0.000000000000e+00 0.000000000000e+00 0.000000000000e+00 
1.972413793104e+00 0.000000000000e+00 0.000000000000e+00 5.000000000000e+04 0.000000000000e+00 -5.000000000000e+04 1.000000000000e-02 9.900000000000e-01 0.000000000000e+00 0.000000000000e+00 0.000000000000e+00 0.000000000000e+00 
1.972413793105e+00 4.166666666665e-01 0.000000000000e+00 5.000000000000e+04 0.000000000000e+00 -5.000000000000e+04 1.000000000000e-02 9.900000000000e-01 0.000000000000e+00 0.000000000000e+00 0.000000000000e+00 0.000000000000e+00 
1.882758620691e+00 5.000000000000e-01 0.000000000000e+00 5.000000000000e+04 0.000000000000e+00 -5.000000000000e+04 1.000000000000e-02 9.900000000000e-01 0.000000000000e+00 0.000000000000e+00 0.000000000000e+00 0.000000000000e+00 
1.882758620691e+00 4.166666666665e-01 0.000000000000e+00 5.000000000000e+04 0.000000000000e+00 -5.000000000000e+04 1.000000000000e-02 9.900000000000e-01 0.000000000000e+00 0.000000000000e+00 0.000000000000e+00 0.000000000000e+00 
1.972413793104e+00 3.333333333331e-01 0.000000000000e+00 5.000000000000e+04 0.000000000000e+00 -5.000000000000e+04 1.000000000000e-02 9.900000000000e-01 0.000000000000e+00 0.000000000000e+00 0.000000000000e+00 0.000000000000e+00 
1.972413793104e+00 2.499999999998e-01 0.000000000000e+00 5.000000000000e+04 0.000000000000e+00 -5.000000000000e+04 1.000000000000e-02 9.900000000000e-01 0.000000000000e+00 0.000000000000e+00 0.000000000000e+00 0.000000000000e+00 
1.972413793104e+00 1.666666666665e-01 0.000000000000e+00 5.000000000000e+04 0.000000000000e+00 -5.000000000000e+04 1.000000000000e-02 9.900000000000e-01 0.000000000000e+00 0.000000000000e+00 0.000000000000e+00 0.000000000000e+00 
50  8  1  9  
14  26  13  2  
45  3  4  46  
46  4  5  47  
47  5  6  48  
48  6  7  49  
49  7  8  50  
44  50  9  10  
38  44  10  11  
32  38  11  12  
26  32  12  13  
15  25  26  14  
16  24  25  15  
17  23  24  16  
18  22  23  17  
19  21  22  18  
21  27  28  22  
22  28  29  23  
23  29  30  24  
24  30  31  25  
25  31  32  26  
27  33  34  28  
28  34  35  29  
29  35  36  30  
30  36  37  31  
31  37  38  32  
33  39  40  34  
34  40  41  35  
35  41  42  36  
36  42  43  37  
37  43  44  38  
39  45  46  40  
40  46  47  41  
41  47  48  42  
42  48  49  43  
43  49  50  44  
51  52  3  45  
20  53  21  19  
54  55  53  20  
53  56  27  21  
56  57  33  27  
57  58  39  33  
58  51  45  39  
VARIABLES  = "X","Y","Z", "PRESSURE1", "PRESSURE2", "PRESSURE_W", "SATURATION1", SATURATION2, "VELOCITY_X1", "VELOCITY_Y1", "VELOCITY_X2", "VELOCITY_Y2"
ZONE T="5.000000000000e+02s", N=58, E=43, F=FEPOINT, ET=QUADRILATERAL
STRANDID=1, SOLUTIONTIME=5.000000000000e+02
2.600000000000e+00 0.000000000000e+00 0.000000000000e+00 5.000000001053e+04 2.017406493332e+05 1.517406493227e+05 9.999999995787e-03 9.900000000042e-01 1.967208623026e-17 1.484944759163e-17 1.927868701559e-09 1.455249095187e-09 
2.600000000000e+00 5.000000000000e-01 0.000000000000e+00 5.000000001053e+04 2.017406519118e+05 1.517406519013e+05 9.999999995787e-03 9.900000000042e-01 1.736311713845e-17 -1.630693035260e-17 1.701589268473e-09 -1.598082793042e-09 
2.062068965517e+00 0.000000000000e+00 0.000000000000e+00 5.000000001063e+04 2.017407389890e+05 1.517407389784e+05 9.999999995748e-03 9.900000000043e-01 3.135732879057e-16 1.315502513718e-17 3.073072795093e-08 1.289020918321e-09 
2.151724137931e+00 0.000000000000e+00 0.000000000000e+00 5.000000001053e+04 2.017407133526e+05 1.517407133420e+05 9.999999995787e-03 9.900000000042e-01 2.673188069696e-16 1.307576403362e-17 2.619734906321e-08 1.281427957090e-09 
2.241379310345e+00 0.000000000000e+00 0.000000000000e+00 5.000000001053e+04 2.017406910559e+05 1.517406910454e+05 9.999999995787e-03 9.900000000042e-01 2.256077831141e-16 1.679299587482e-17 2.210960747840e-08 1.645717315684e-09 
2.331034482759e+00 0.000000000000e+00 0.000000000000e+00 5.000000001053e+04 2.017406728987e+05 1.517406728882e+05 9.999999995787e-03 9.900000000042e-01 1.761468095417e-16 1.869262085393e-17 1.726242191816e-08 1.831879626560e-09 
2.420689655172e+00 0.000000000000e+00 0.000000000000e+00 5.000000001053e+04 2.017406594710e+05 1.517406594604e+05 9.999999995787e-03 9.900000000042e-01 1.215872660414e-16 1.821096148022e-17 1.191557614995e-08 1.784678357705e-09 
2.510344827586e+00 0.000000000000e+00 0.000000000000e+00 5.000000001053e+04 2.017406510969e+05 1.517406510864e+05 9.999999995787e-03 9.900000000042e-01 5.653750514803e-17 2.037885618466e-17 5.540687292219e-09 1.997131885759e-09 
2.600000000000e+00 8.333333333313e-02 0.000000000000e+00 5.000000001053e+04 2.017406480957e+05 1.517406480852e+05 9.999999995787e-03 9.900000000042e-01 1.453257172797e-17 -1.826645973317e-18 1.424195643115e-09 -1.790116130653e-10 
2.600000000000e+00 1.666666666663e-01 0.000000000000e+00 5.000000001053e+04 2.017406496376e+05 1.517406496271e+05 9.999999995787e-03 9.900000000042e-01 1.304420052883e-17 -1.353200300759e-17 1.278333546726e-09 -1.326139368188e-09 
2.600000000000e+00 2.499999999995e-01 0.000000000000e+00 5.000000001053e+04 2.017406503511e+05 1.517406503405e+05 9.999999995787e-03 9.900000000042e-01 1.443937965767e-17 -6.593356723329e-18 1.415062899957e-09 -6.461506402886e-10 
2.600000000000e+00 3.333333333329e-01 0.000000000000e+00 5.000000001053e+04 2.017406507365e+05 1.517406507260e+05 9.999999995787e-03 9.900000000042e-01 1.595410350279e-17 -1.210827460091e-18 1.563504777645e-09 -1.186609700050e-10 
2.600000000000e+00 4.166666666664e-01 0.000000000000e+00 5.000000001053e+04 2.017406505529e+05 1.517406505423e+05 9.999999995787e-03 9.900000000042e-01 1.761464773370e-17 -7.051568952027e-18 1.726239251381e-09 -6.910549337662e-10 
2.510344827586e+00 5.000000000000e-01 0.000000000000e+00 5.000000001053e+04 2.017406534685e+05 1.517406534579e+05 9.999999995787e-03 9.900000000042e-01 6.095598581082e-17 -1.603631842735e-17 5.973698867490e-09 -1.571562894957e-09 
2.420689655173e+00 5.000000000000e-01 0.000000000000e+00 5.000000001053e+04 2.017406628418e+05 1.517406628313e+05 9.999999995787e-03 9.900000000042e-01 1.283485222789e-16 -1.719317124632e-17 1.257818097931e-08 -1.684933713473e-09 
2.331034482759e+00 5.000000000000e-01 0.000000000000e+00 5.000000001053e+04 2.017406764827e+05 1.517406764722e+05 9.999999995787e-03 9.900000000042e-01 1.770465963859e-16 -1.646969837255e-17 1.735060217183e-08 -1.614033124618e-09 
2.241379310346e+00 5.000000000000e-01 0.000000000000e+00 5.000000001053e+04 2.017406945881e+05 1.517406945776e+05 9.999999995787e-03 9.900000000042e-01 2.234393559467e-16 -1.332403341136e-17 2.189710177047e-08 -1.305758170001e-09 
2.151724137932e+00 5.000000000000e-01 0.000000000000e+00 5.000000001053e+04 2.017407165477e+05 1.517407165372e+05 9.999999995786e-03 9.900000000042e-01 2.597407220312e-16 -8.674235788415e-18 2.545477605458e-08 -8.500777095425e-10 
2.062068965518e+00 5.000000000000e-01 0.000000000000e+00 5.000000001078e+04 2.017407411626e+05 1.517407411518e+05 9.999999995689e-03 9.900000000043e-01 3.035603879064e-16 2.175906698577e-19 2.974932804059e-08 2.129280144986e-11 
1.972413793105e+00 5.000000000000e-01 0.000000000000e+00 5.000000001117e+04 2.017407709798e+05 1.517407709687e+05 9.999999995531e-03 9.900000000045e-01 3.969553842816e-16 4.669895266044e-17 3.890162499678e-08 4.576330004262e-09 
2.062068965518e+00 4.166666666665e-01 0.000000000000e+00 5.000000001075e+04 2.017407411807e+05 1.517407411699e+05 9.999999995699e-03 9.900000000043e-01 3.292947224594e-16 -4.026211605731e-18 3.227121626088e-08 -3.945135199997e-10 
2.151724137932e+00 4.166666666665e-01 0.000000000000e+00 5.000000001053e+04 2.017407158248e+05 1.517407158143e+05 9.999999995787e-03 9.900000000042e-01 2.660341053560e-16 -5.428640853269e-18 2.607151447319e-08 -5.320091507632e-10 
2.241379310345e+00 4.166666666665e-01 0.000000000000e+00 5.000000001053e+04 2.017406934778e+05 1.517406934672e+05 9.999999995787e-03 9.900000000042e-01 2.270622468559e-16 -6.765773521802e-18 2.225214513173e-08 -6.630472240915e-10 
2.331034482759e+00 4.166666666665e-01 0.000000000000e+00 5.000000001053e+04 2.017406751102e+05 1.517406750997e+05 9.999999995786e-03 9.900000000042e-01 1.788447532481e-16 -7.638492043845e-18 1.752682153550e-08 -7.485737660775e-10 
2.420689655173e+00 4.166666666665e-01 0.000000000000e+00 5.000000001053e+04 2.017406614091e+05 1.517406613985e+05 9.999999995787e-03 9.900000000042e-01 1.281471118317e-16 -7.856894420532e-18 1.255844321305e-08 -7.699771932900e-10 
2.510344827586e+00 4.166666666665e-01 0.000000000000e+00 5.000000001053e+04 2.017406521321e+05 1.517406521216e+05 9.999999995787e-03 9.900000000042e-01 6.054411120011e-17 -7.809521405481e-18 5.933335472617e-09 -7.653348525851e-10 
2.062068965518e+00 3.333333333331e-01 0.000000000000e+00 5.000000001087e+04 2.017407404916e+05 1.517407404807e+05 9.999999995651e-03 9.900000000043e-01 3.255359368445e-16 -7.155674398775e-18 3.190277344972e-08 -7.011856785326e-10 
2.151724137932e+00 3.333333333331e-01 0.000000000000e+00 5.000000001053e+04 2.017407156429e+05 1.517407156324e+05 9.999999995787e-03 9.900000000042e-01 2.622871098139e-16 -5.061453999701e-18 2.570437466201e-08 -4.960236002196e-10 
2.241379310345e+00 3.333333333330e-01 0.000000000000e+00 5.000000001053e+04 2.017406934605e+05 1.517406934499e+05 9.999999995787e-03 9.900000000042e-01 2.254933838980e-16 -3.912512438470e-18 2.209839579837e-08 -3.834275137267e-10 
2.331034482759e+00 3.333333333330e-01 0.000000000000e+00 5.000000001053e+04 2.017406752096e+05 1.517406751991e+05 9.999999995787e-03 9.900000000042e-01 1.780607789639e-16 -2.816190135364e-18 1.744999217059e-08 -2.759874548243e-10 
2.420689655173e+00 3.333333333330e-01 0.000000000000e+00 5.000000001053e+04 2.017406615323e+05 1.517406615218e+05 9.999999995787e-03 9.900000000042e-01 1.285074920004e-16 -2.295217060847e-18 1.259376015211e-08 -2.249319286244e-10 
2.510344827586e+00 3.333333333330e-01 0.000000000000e+00 5.000000001053e+04 2.017406521669e+05 1.517406521564e+05 9.999999995787e-03 9.900000000042e-01 6.020744604539e-17 -2.918902490939e-18 5.900341625309e-09 -2.860524092761e-10 
2.062068965518e+00 2.499999999998e-01 0.000000000000e+00 5.000000001087e+04 2.017407399882e+05 1.517407399773e+05 9.999999995651e-03 9.900000000043e-01 3.230677258518e-16 -6.660473436557e-18 3.166088801784e-08 -6.527993278589e-10 
2.151724137932e+00 2.499999999997e-01 0.000000000000e+00 5.000000001053e+04 2.017407149813e+05 1.517407149707e+05 9.999999995787e-03 9.900000000042e-01 2.630196275493e-16 -1.077657582352e-17 2.577616232521e-08 -1.056106698674e-09 
2.241379310345e+00 2.499999999997e-01 0.000000000000e+00 5.000000001053e+04 2.017406928257e+05 1.517406928152e+05 9.999999995787e-03 9.900000000042e-01 2.249753031024e-16 -1.131412622772e-17 2.204762435324e-08 -1.108786941136e-09 
2.331034482759e+00 2.499999999996e-01 0.000000000000e+00 5.000000001053e+04 2.017406746409e+05 1.517406746303e+05 9.999999995787e-03 9.900000000042e-01 1.773414979963e-16 -1.096722426154e-17 1.737950193108e-08 -1.074790773529e-09 
2.420689655173e+00 2.499999999996e-01 0.000000000000e+00 5.000000001053e+04 2.017406610265e+05 1.517406610160e+05 9.999999995787e-03 9.900000000042e-01 1.282425816475e-16 -9.902713007596e-18 1.256779846974e-08 -9.704675555848e-10 
2.510344827586e+00 2.499999999996e-01 0.000000000000e+00 5.000000001053e+04 2.017406516456e+05 1.517406516351e+05 9.999999995787e-03 9.900000000042e-01 5.953618462394e-17 -8.158683746406e-18 5.834557986126e-09 -7.995531296483e-10 
2.062068965518e+00 1.666666666665e-01 0.000000000000e+00 5.000000001075e+04 2.017407393814e+05 1.517407393707e+05 9.999999995699e-03 9.900000000043e-01 3.195655345248e-16 -1.257095288036e-17 3.131782185085e-08 -1.232012683147e-09 
2.151724137931e+00 1.666666666665e-01 0.000000000000e+00 5.000000001053e+04 2.017407138468e+05 1.517407138363e+05 9.999999995787e-03 9.900000000042e-01 2.666126205528e-16 -1.631006638329e-17 2.612820932691e-08 -1.598390510604e-09 
2.241379310345e+00 1.666666666664e-01 0.000000000000e+00 5.000000001053e+04 2.017406915748e+05 1.517406915643e+05 9.999999995787e-03 9.900000000042e-01 2.256705891293e-16 -1.901526240880e-17 2.211576242912e-08 -1.863499697736e-09 
2.331034482759e+00 1.666666666664e-01 0.000000000000e+00 5.000000001053e+04 2.017406733817e+05 1.517406733712e+05 9.999999995787e-03 9.900000000042e-01 1.767488885730e-16 -1.979895593014e-17 1.732142609870e-08 -1.940301682962e-09 
2.420689655173e+00 1.666666666664e-01 0.000000000000e+00 5.000000001053e+04 2.017406598819e+05 1.517406598714e+05 9.999999995787e-03 9.900000000042e-01 1.258969897793e-16 -1.843892529250e-17 1.233793032703e-08 -1.807018276470e-09 
2.510344827586e+00 1.666666666663e-01 0.000000000000e+00 5.000000001053e+04 2.017406508071e+05 1.517406507966e+05 9.999999995787e-03 9.900000000042e-01 5.713144195138e-17 -1.348187191030e-17 5.598893189220e-09 -1.321226520288e-09 
2.062068965518e+00 8.333333333325e-02 0.000000000000e+00 5.000000001078e+04 2.017407378929e+05 1.517407378821e+05 9.999999995689e-03 9.900000000043e-01 3.139099216759e-16 -2.353634443607e-18 3.076353224469e-08 -2.307286774698e-10 
2.151724137931e+00 8.333333333323e-02 0.000000000000e+00 5.000000001053e+04 2.017407122629e+05 1.517407122524e+05 9.999999995787e-03 9.900000000042e-01 2.690095305162e-16 -2.965539601180e-18 2.636312142346e-08 -2.906231542172e-10 
2.241379310345e+00 8.333333333321e-02 0.000000000000e+00 5.000000001053e+04 2.017406896565e+05 1.517406896459e+05 9.999999995787e-03 9.900000000042e-01 2.282181810744e-16 -3.113393659870e-18 2.236542636005e-08 -3.051134733602e-10 
2.331034482759e+00 8.333333333319e-02 0.000000000000e+00 5.000000001053e+04 2.017406713410e+05 1.517406713305e+05 9.999999995787e-03 9.900000000042e-01 1.768058002995e-16 -2.897968553246e-18 1.732700317244e-08 -2.840012984354e-10 
2.420689655173e+00 8.333333333317e-02 0.000000000000e+00 5.000000001053e+04 2.017406579534e+05 1.517406579428e+05 9.999999995787e-03 9.900000000042e-01 1.223709330637e-16 -2.465640053014e-18 1.199237606588e-08 -2.416331212835e-10 
2.510344827586e+00 8.333333333315e-02 0.000000000000e+00 5.000000001053e+04 2.017406493987e+05 1.517406493881e+05 9.999999995787e-03 9.900000000042e-01 5.497526294322e-17 1.738699445191e-18 5.387587158978e-09 1.703935456598e-10 
1.972413793104e+00 8.333333333327e-02 0.000000000000e+00 5.000000001108e+04 2.017407685508e+05 1.517407685397e+05 9.999999995570e-03 9.900000000044e-01 3.419494561534e-16 -9.412370086905e-18 3.351144147807e-08 -9.222551852495e-10 
1.972413793104e+00 0.000000000000e+00 0.000000000000e+00 5.000000001142e+04 2.017407695804e+05 1.517407695690e+05 9.999999995433e-03 9.900000000046e-01 3.412025166943e-16 1.235142106284e-17 3.343877540596e-08 1.210842134637e-09 
1.972413793105e+00 4.166666666665e-01 0.000000000000e+00 5.000000001102e+04 2.017407748713e+05 1.517407748602e+05 9.999999995591e-03 9.900000000044e-01 3.853876553392e-16 2.770899647794e-17 3.776813073049e-08 2.715310746831e-09 
1.882758620691e+00 5.000000000000e-01 0.000000000000e+00 5.000000001063e+04 2.017408123406e+05 1.517408123300e+05 9.999999995749e-03 9.900000000043e-01 4.613377278750e-16 -1.433309428953e-17 4.521059338783e-08 -1.404615282150e-09 
1.882758620691e+00 4.166666666665e-01 0.000000000000e+00 5.000000001065e+04 2.017408111462e+05 1.517408111356e+05 9.999999995738e-03 9.900000000043e-01 4.046092229080e-16 -1.433309424660e-17 3.965138133178e-08 -1.404615299157e-09 
1.972413793104e+00 3.333333333331e-01 0.000000000000e+00 5.000000001087e+04 2.017407740152e+05 1.517407740043e+05 9.999999995651e-03 9.900000000043e-01 3.739170591868e-16 -1.176084332478e-17 3.664394665221e-08 -1.152652652954e-09 
1.972413793104e+00 2.499999999998e-01 0.000000000000e+00 5.000000001087e+04 2.017407729110e+05 1.517407729001e+05 9.999999995650e-03 9.900000000043e-01 3.672159804744e-16 -1.719990538144e-17 3.598723995887e-08 -1.685433949878e-09 
1.972413793104e+00 1.666666666665e-01 0.000000000000e+00 5.000000001115e+04 2.017407711488e+05 1.517407711377e+05 9.999999995542e-03 9.900000000045e-01 3.543245257074e-16 -2.616260035912e-17 3.472430545091e-08 -2.563821543775e-09 
50  8  1  9  
14  26  13  2  
45  3  4  46  
46  4  5  47  
47  5  6  48  
48  6  7  49  
49  7  8  50  
44  50  9  10  
38  44  10  11  
32  38  11  12  
26  32  12  13  
15  25  26  14  
16  24  25  15  
17  23  24  16  
18  22  23  17  
19  21  22  18  
21  27  28  22  
22  28  29  23  
23  29  30  24  
24  30  31  25  
25  31  32  26  
27  33  34  28  
28  34  35  29  
29  35  36  30  
30  36  37  31  
31  37  38  32  
33  39  40  34  
34  40  41  35  
35  41  42  36  
36  42  43  37  
37  43  44  38  
39  45  46  40  
40  46  47  41  
41  47  48  42  
42  48  49  43  
43  49  50  44  
51  52  3  45  
20  53  21  19  
54  55  53  20  
53  56  27  21  
56  57  33  27  
57  58  39  33  
58  51  45  39  
VARIABLES  = "X","Y","Z", "PRESSURE1", "PRESSURE2", "PRESSURE_W", "SATURATION1", SATURATION2, "VELOCITY_X1", "VELOCITY_Y1", "VELOCITY_X2", "VELOCITY_Y2"
ZONE T="1.000000000000e+03s", N=58, E=43, F=FEPOINT, ET=QUADRILATERAL
STRANDID=1, SOLUTIONTIME=1.000000000000e+03
2.600000000000e+00 0.000000000000e+00 0.000000000000e+00 5.000000001053e+04 2.017196088468e+05 1.517196088363e+05 9.999999995789e-03 9.900000000042e-01 1.912729451219e-17 1.449053708675e-17 1.874479433981e-09 1.420075937353e-09 
2.600000000000e+00 5.000000000000e-01 0.000000000000e+00 5.000000001053e+04 2.017196099220e+05 1.517196099115e+05 9.999999995789e-03 9.900000000042e-01 1.621068966039e-17 -1.508920090679e-17 1.588651672981e-09 -1.478745383821e-09 
2.062068965517e+00 0.000000000000e+00 0.000000000000e+00 5.000000001063e+04 2.017196963377e+05 1.517196963270e+05 9.999999995750e-03 9.900000000043e-01 3.017068371938e-16 1.309098499903e-17 2.956781313313e-08 1.282746411307e-09 
2.151724137931e+00 0.000000000000e+00 0.000000000000e+00 5.000000001053e+04 2.017196707065e+05 1.517196706960e+05 9.999999995789e-03 9.900000000042e-01 2.650541145482e-16 1.487508162384e-17 2.597540989971e-08 1.457762058929e-09 