VARIABLES  = "X","Y","Z", "PRESSURE1", "PRESSURE2", "PRESSURE_W", "SATURATION1", SATURATION2, "VELOCITY_X1", "VELOCITY_Y1", "VELOCITY_X2", "VELOCITY_Y2"
ZONE T="0.000000000000e+00s", N=63, E=47, F=FEPOINT, ET=QUADRILATERAL
STRANDID=1, SOLUTIONTIME=0.000000000000e+00
0.000000000000e+00 0.000000000000e+00 0.000000000000e+00 5.000000000000e+04 0.000000000000e+00 -5.000000000000e+04 1.000000000000e-02 9.900000000000e-01 0.000000000000e+00 0.000000000000e+00 0.000000000000e+00 0.000000000000e+00 
0.000000000000e+00 5.000000000000e-01 0.000000000000e+00 5.000000000000e+04 0.000000000000e+00 -5.000000000000e+04 1.000000000000e-02 9.900000000000e-01 0.000000000000e+00 0.000000000000e+00 0.000000000000e+00 0.000000000000e+00 
8.965517241371e-02 0.000000000000e+00 0.000000000000e+00 5.000000000000e+04 0.000000000000e+00 -5.000000000000e+04 1.000000000000e-02 9.900000000000e-01 0.000000000000e+00 0.000000000000e+00 0.000000000000e+00 0.000000000000e+00 
1.793103448274e-01 0.000000000000e+00 0.000000000000e+00 5.000000000000e+04 0.000000000000e+00 -5.000000000000e+04 1.000000000000e-02 9.900000000000e-01 0.000000000000e+00 0.000000000000e+00 0.000000000000e+00 0.000000000000e+00 
2.689655172411e-01 0.000000000000e+00 0.000000000000e+00 5.000000000000e+04 0.000000000000e+00 -5.000000000000e+04 1.000000000000e-02 9.900000000000e-01 0.000000000000e+00 0.000000000000e+00 0.000000000000e+00 0.000000000000e+00 
3.586206896548e-01 0.000000000000e+00 0.000000000000e+00 5.000000000000e+04 0.000000000000e+00 -5.000000000000e+04 1.000000000000e-02 9.900000000000e-01 0.000000000000e+00 0.000000000000e+00 0.000000000000e+00 0.000000000000e+00 
4.482758620685e-01 0.000000000000e+00 0.000000000000e+00 5.000000000000e+04 0.000000000000e+00 -5.000000000000e+04 1.000000000000e-02 9.900000000000e-01 0.000000000000e+00 0.000000000000e+00 0.000000000000e+00 0.000000000000e+00 
5.379310344822e-01 0.000000000000e+00 0.000000000000e+00 5.000000000000e+04 0.000000000000e+00 -5.000000000000e+04 1.000000000000e-02 9.900000000000e-01 0.000000000000e+00 0.000000000000e+00 0.000000000000e+00 0.000000000000e+00 
6.275862068960e-01 0.000000000000e+00 0.000000000000e+00 5.000000000000e+04 0.000000000000e+00 -5.000000000000e+04 1.000000000000e-02 9.900000000000e-01 0.000000000000e+00 0.000000000000e+00 0.000000000000e+00 0.000000000000e+00 
7.172413793097e-01 0.000000000000e+00 0.000000000000e+00 5.000000000000e+04 0.000000000000e+00 -5.000000000000e+04 1.000000000000e-02 9.900000000000e-01 0.000000000000e+00 0.000000000000e+00 0.000000000000e+00 0.000000000000e+00 
5.379310344828e-01 5.000000000000e-01 0.000000000000e+00 5.000000000000e+04 0.000000000000e+00 -5.000000000000e+04 1.000000000000e-02 9.900000000000e-01 0.000000000000e+00 0.000000000000e+00 0.000000000000e+00 0.000000000000e+00 
4.482758620690e-01 5.000000000000e-01 0.000000000000e+00 5.000000000000e+04 0.000000000000e+00 -5.000000000000e+04 1.000000000000e-02 9.900000000000e-01 0.000000000000e+00 0.000000000000e+00 0.000000000000e+00 0.000000000000e+00 
3.586206896552e-01 5.000000000000e-01 0.000000000000e+00 5.000000000000e+04 0.000000000000e+00 -5.000000000000e+04 1.000000000000e-02 9.900000000000e-01 0.000000000000e+00 0.000000000000e+00 0.000000000000e+00 0.000000000000e+00 
2.689655172414e-01 5.000000000000e-01 0.000000000000e+00 5.000000000000e+04 0.000000000000e+00 -5.000000000000e+04 1.000000000000e-02 9.900000000000e-01 0.000000000000e+00 0.000000000000e+00 0.000000000000e+00 0.000000000000e+00 
1.793103448276e-01 5.000000000000e-01 0.000000000000e+00 5.000000000000e+04 0.000000000000e+00 -5.000000000000e+04 1.000000000000e-02 9.900000000000e-01 0.000000000000e+00 0.000000000000e+00 0.000000000000e+00 0.000000000000e+00 
8.965517241379e-02 5.000000000000e-01 0.000000000000e+00 5.000000000000e+04 0.000000000000e+00 -5.000000000000e+04 1.000000000000e-02 9.900000000000e-01 0.000000000000e+00 0.000000000000e+00 0.000000000000e+00 0.000000000000e+00 
0.000000000000e+00 4.166666666668e-01 0.000000000000e+00 5.000000000000e+04 0.000000000000e+00 -5.000000000000e+04 1.000000000000e-02 9.900000000000e-01 0.000000000000e+00 0.000000000000e+00 0.000000000000e+00 0.000000000000e+00 
0.000000000000e+00 3.333333333337e-01 0.000000000000e+00 5.000000000000e+04 0.000000000000e+00 -5.000000000000e+04 1.000000000000e-02 9.900000000000e-01 0.000000000000e+00 0.000000000000e+00 0.000000000000e+00 0.000000000000e+00 
0.000000000000e+00 2.500000000007e-01 0.000000000000e+00 5.000000000000e+04 0.000000000000e+00 -5.000000000000e+04 1.000000000000e-02 9.900000000000e-01 0.000000000000e+00 0.000000000000e+00 0.000000000000e+00 0.000000000000e+00 
0.000000000000e+00 1.666666666672e-01 0.000000000000e+00 5.000000000000e+04 0.000000000000e+00 -5.000000000000e+04 1.000000000000e-02 9.900000000000e-01 0.000000000000e+00 0.000000000000e+00 0.000000000000e+00 0.000000000000e+00 
0.000000000000e+00 8.333333333368e-02 0.000000000000e+00 5.000000000000e+04 0.000000000000e+00 -5.000000000000e+04 1.000000000000e-02 9.900000000000e-01 0.000000000000e+00 0.000000000000e+00 0.000000000000e+00 0.000000000000e+00 
8.965517241378e-02 4.166666666668e-01 0.000000000000e+00 5.000000000000e+04 0.000000000000e+00 -5.000000000000e+04 1.000000000000e-02 9.900000000000e-01 0.000000000000e+00 0.000000000000e+00 0.000000000000e+00 0.000000000000e+00 
1.793103448276e-01 4.166666666668e-01 0.000000000000e+00 5.000000000000e+04 0.000000000000e+00 -5.000000000000e+04 1.000000000000e-02 9.900000000000e-01 0.000000000000e+00 0.000000000000e+00 0.000000000000e+00 0.000000000000e+00 
2.689655172413e-01 4.166666666667e-01 0.000000000000e+00 5.000000000000e+04 0.000000000000e+00 -5.000000000000e+04 1.000000000000e-02 9.900000000000e-01 0.000000000000e+00 0.000000000000e+00 0.000000000000e+00 0.000000000000e+00 
3.586206896551e-01 4.166666666667e-01 0.000000000000e+00 5.000000000000e+04 0.000000000000e+00 -5.000000000000e+04 1.000000000000e-02 9.900000000000e-01 0.000000000000e+00 0.000000000000e+00 0.000000000000e+00 0.000000000000e+00 
4.482758620689e-01 4.166666666667e-01 0.000000000000e+00 5.000000000000e+04 0.000000000000e+00 -5.000000000000e+04 1.000000000000e-02 9.900000000000e-01 0.000000000000e+00 0.000000000000e+00 0.000000000000e+00 0.000000000000e+00 
5.379310344827e-01 4.166666666667e-01 0.000000000000e+00 5.000000000000e+04 0.000000000000e+00 -5.000000000000e+04 1.000000000000e-02 9.900000000000e-01 0.000000000000e+00 0.000000000000e+00 0.000000000000e+00 0.000000000000e+00 
8.965517241376e-02 3.333333333337e-01 0.000000000000e+00 5.000000000000e+04 0.000000000000e+00 -5.000000000000e+04 1.000000000000e-02 9.900000000000e-01 0.000000000000e+00 0.000000000000e+00 0.000000000000e+00 0.000000000000e+00 
1.793103448275e-01 3.333333333336e-01 0.000000000000e+00 5.000000000000e+04 0.000000000000e+00 -5.000000000000e+04 1.000000000000e-02 9.900000000000e-01 0.000000000000e+00 0.000000000000e+00 0.000000000000e+00 0.000000000000e+00 
2.689655172413e-01 3.333333333336e-01 0.000000000000e+00 5.000000000000e+04 0.000000000000e+00 -5.000000000000e+04 1.000000000000e-02 9.900000000000e-01 0.000000000000e+00 0.000000000000e+00 0.000000000000e+00 0.000000000000e+00 
3.586206896551e-01 3.333333333336e-01 0.000000000000e+00 5.000000000000e+04 0.000000000000e+00 -5.000000000000e+04 1.000000000000e-02 9.900000000000e-01 0.000000000000e+00 0.000000000000e+00 0.000000000000e+00 0.000000000000e+00 
4.482758620688e-01 3.333333333336e-01 0.000000000000e+00 5.000000000000e+04 0.000000000000e+00 -5.000000000000e+04 1.000000000000e-02 9.900000000000e-01 0.000000000000e+00 0.000000000000e+00 0.000000000000e+00 0.000000000000e+00 
5.379310344826e-01 3.333333333335e-01 0.000000000000e+00 5.000000000000e+04 0.000000000000e+00 -5.000000000000e+04 1.000000000000e-02 9.900000000000e-01 0.000000000000e+00 0.000000000000e+00 0.000000000000e+00 0.000000000000e+00 
8.965517241375e-02 2.500000000007e-01 0.000000000000e+00 5.000000000000e+04 0.000000000000e+00 -5.000000000000e+04 1.000000000000e-02 9.900000000000e-01 0.000000000000e+00 0.000000000000e+00 0.000000000000e+00 0.000000000000e+00 
1.793103448275e-01 2.500000000006e-01 0.000000000000e+00 5.000000000000e+04 0.000000000000e+00 -5.000000000000e+04 1.000000000000e-02 9.900000000000e-01 0.000000000000e+00 0.000000000000e+00 0.000000000000e+00 0.000000000000e+00 
2.689655172413e-01 2.500000000006e-01 0.000000000000e+00 5.000000000000e+04 0.000000000000e+00 -5.000000000000e+04 1.000000000000e-02 9.900000000000e-01 0.000000000000e+00 0.000000000000e+00 0.000000000000e+00 0.000000000000e+00 
3.586206896550e-01 2.500000000005e-01 0.000000000000e+00 5.000000000000e+04 0.000000000000e+00 -5.000000000000e+04 1.000000000000e-02 9.900000000000e-01 0.000000000000e+00 0.000000000000e+00 0.000000000000e+00 0.000000000000e+00 
4.482758620688e-01 2.500000000005e-01 0.000000000000e+00 5.000000000000e+04 0.000000000000e+00 -5.000000000000e+04 1.000000000000e-02 9.900000000000e-01 0.000000000000e+00 0.000000000000e+00 0.000000000000e+00 0.000000000000e+00 
5.379310344825e-01 2.500000000004e-01 0.000000000000e+00 5.000000000000e+04 0.000000000000e+00 -5.000000000000e+04 1.000000000000e-02 9.900000000000e-01 0.000000000000e+00 0.000000000000e+00 0.000000000000e+00 0.000000000000e+00 
8.965517241374e-02 1.666666666672e-01 0.000000000000e+00 5.000000000000e+04 0.000000000000e+00 -5.000000000000e+04 1.000000000000e-02 9.900000000000e-01 0.000000000000e+00 0.000000000000e+00 0.000000000000e+00 0.000000000000e+00 
1.793103448275e-01 1.666666666672e-01 0.000000000000e+00 5.000000000000e+04 0.000000000000e+00 -5.000000000000e+04 1.000000000000e-02 9.900000000000e-01 0.000000000000e+00 0.000000000000e+00 0.000000000000e+00 0.000000000000e+00 
2.689655172412e-01 1.666666666671e-01 0.000000000000e+00 5.000000000000e+04 0.000000000000e+00 -5.000000000000e+04 1.000000000000e-02 9.900000000000e-01 0.000000000000e+00 0.000000000000e+00 0.000000000000e+00 0.000000000000e+00 
3.586206896549e-01 1.666666666671e-01 0.000000000000e+00 5.000000000000e+04 0.000000000000e+00 -5.000000000000e+04 1.000000000000e-02 9.900000000000e-01 0.000000000000e+00 0.000000000000e+00 0.000000000000e+00 0.000000000000e+00 
4.482758620687e-01 1.666666666671e-01 0.000000000000e+00 5.000000000000e+04 0.000000000000e+00 -5.000000000000e+04 1.000000000000e-02 9.900000000000e-01 0.000000000000e+00 0.000000000000e+00 0.000000000000e+00 0.000000000000e+00 
5.379310344824e-01 1.666666666670e-01 0.000000000000e+00 5.000000000000e+04 0.000000000000e+00 -5.000000000000e+04 1.000000000000e-02 9.900000000000e-01 0.000000000000e+00 0.000000000000e+00 0.000000000000e+00 0.000000000000e+00 
6.275862068961e-01 1.666666666670e-01 0.000000000000e+00 5.000000000000e+04 0.000000000000e+00 -5.000000000000e+04 1.000000000000e-02 9.900000000000e-01 0.000000000000e+00 0.000000000000e+00 0.000000000000e+00 0.000000000000e+00 
8.965517241372e-02 8.333333333366e-02 0.000000000000e+00 5.000000000000e+04 0.000000000000e+00 -5.000000000000e+04 1.000000000000e-02 9.900000000000e-01 0.000000000000e+00 0.000000000000e+00 0.000000000000e+00 0.000000000000e+00 
1.793103448274e-01 8.333333333364e-02 0.000000000000e+00 5.000000000000e+04 0.000000000000e+00 -5.000000000000e+04 1.000000000000e-02 9.900000000000e-01 0.000000000000e+00 0.000000000000e+00 0.000000000000e+00 0.000000000000e+00 
2.689655172412e-01 8.333333333362e-02 0.000000000000e+00 5.000000000000e+04 0.000000000000e+00 -5.000000000000e+04 1.000000000000e-02 9.900000000000e-01 0.000000000000e+00 0.000000000000e+00 0.000000000000e+00 0.000000000000e+00 
3.586206896549e-01 8.333333333360e-02 0.000000000000e+00 5.000000000000e+04 0.000000000000e+00 -5.000000000000e+04 1.000000000000e-02 9.900000000000e-01 0.000000000000e+00 0.000000000000e+00 0.000000000000e+00 0.000000000000e+00 
4.482758620686e-01 8.333333333359e-02 0.000000000000e+00 5.000000000000e+04 0.000000000000e+00 -5.000000000000e+04 1.000000000000e-02 9.900000000000e-01 0.000000000000e+00 0.000000000000e+00 0.000000000000e+00 0.000000000000e+00 
5.379310344823e-01 8.333333333357e-02 0.000000000000e+00 5.000000000000e+04 0.000000000000e+00 -5.000000000000e+04 1.000000000000e-02 9.900000000000e-01 0.000000000000e+00 0.000000000000e+00 0.000000000000e+00 0.000000000000e+00 
6.275862068961e-01 8.333333333355e-02 0.000000000000e+00 5.000000000000e+04 0.000000000000e+00 -5.000000000000e+04 1.000000000000e-02 9.900000000000e-01 0.000000000000e+00 0.000000000000e+00 0.000000000000e+00 0.000000000000e+00 
7.172413793098e-01 8.333333333353e-02 0.000000000000e+00 5.000000000000e+04 0.000000000000e+00 -5.000000000000e+04 1.000000000000e-02 9.900000000000e-01 0.000000000000e+00 0.000000000000e+00 0.000000000000e+00 0.000000000000e+00 
8.068965517235e-01 0.000000000000e+00 0.000000000000e+00 5.000000000000e+04 0.000000000000e+00 -5.000000000000e+04 1.000000000000e-02 9.900000000000e-01 0.000000000000e+00 0.000000000000e+00 0.000000000000e+00 0.000000000000e+00 
8.068965517236e-01 8.333333333351e-02 0.000000000000e+00 5.000000000000e+04 0.000000000000e+00 -5.000000000000e+04 1.000000000000e-02 9.900000000000e-01 0.000000000000e+00 0.000000000000e+00 0.000000000000e+00 0.000000000000e+00 
6.275862068965e-01 4.166666666667e-01 0.000000000000e+00 5.000000000000e+04 0.000000000000e+00 -5.000000000000e+04 1.000000000000e-02 9.900000000000e-01 0.000000000000e+00 0.000000000000e+00 0.000000000000e+00 0.000000000000e+00 
6.275862068966e-01 5.000000000000e-01 0.000000000000e+00 5.000000000000e+04 0.000000000000e+00 -5.000000000000e+04 1.000000000000e-02 9.900000000000e-01 0.000000000000e+00 0.000000000000e+00 0.000000000000e+00 0.000000000000e+00 
6.275862068964e-01 3.333333333335e-01 0.000000000000e+00 5.000000000000e+04 0.000000000000e+00 -5.000000000000e+04 1.000000000000e-02 9.900000000000e-01 0.000000000000e+00 0.000000000000e+00 0.000000000000e+00 0.000000000000e+00 
6.275862068963e-01 2.500000000004e-01 0.000000000000e+00 5.000000000000e+04 0.000000000000e+00 -5.000000000000e+04 1.000000000000e-02 9.900000000000e-01 0.000000000000e+00 0.000000000000e+00 0.000000000000e+00 0.000000000000e+00 
7.172413793100e-01 1.666666666670e-01 0.000000000000e+00 5.000000000000e+04 0.000000000000e+00 -5.000000000000e+04 1.000000000000e-02 9.900000000000e-01 0.000000000000e+00 0.000000000000e+00 0.000000000000e+00 0.000000000000e+00 
7.172413793101e-01 2.500000000004e-01 0.000000000000e+00 5.000000000000e+04 0.000000000000e+00 -5.000000000000e+04 1.000000000000e-02 9.900000000000e-01 0.000000000000e+00 0.000000000000e+00 0.000000000000e+00 0.000000000000e+00 
8.068965517238e-01 1.666666666670e-01 0.000000000000e+00 5.000000000000e+04 0.000000000000e+00 -5.000000000000e+04 1.000000000000e-02 9.900000000000e-01 0.000000000000e+00 0.000000000000e+00 0.000000000000e+00 0.000000000000e+00 
21  1  3  47  
2  17  22  16  
47  3  4  48  
48  4  5  49  
49  5  6  50  
50  6  7  51  
51  7  8  52  
52  8  9  53  
53  9  10  54  
12  26  27  11  
13  25  26  12  
14  24  25  13  
15  23  24  14  
16  22  23  15  
17  18  28  22  
18  19  34  28  
19  20  40  34  
20  21  47  40  
22  28  29  23  
23  29  30  24  
24  30  31  25  
25  31  32  26  
26  32  33  27  
28  34  35  29  
29  35  36  30  
30  36  37  31  
31  37  38  32  
32  38  39  33  
34  40  41  35  
35  41  42  36  
36  42  43  37  
37  43  44  38  
38  44  45  39  
40  47  48  41  
41  48  49  42  
42  49  50  43  
43  50  51  44  
44  51  52  45  
45  52  53  46  
54  10  55  56  
11  27  57  58  
27  33  59  57  
33  39  60  59  
39  45  46  60  
60  46  61  62  
46  53  54  61  
61  54  56  63  
VARIABLES  = "X","Y","Z", "PRESSURE1", "PRESSURE2", "PRESSURE_W", "SATURATION1", SATURATION2, "VELOCITY_X1", "VELOCITY_Y1", "VELOCITY_X2", "VELOCITY_Y2"
ZONE T="5.000000000000e+02s", N=63, E=47, F=FEPOINT, ET=QUADRILATERAL
STRANDID=1, SOLUTIONTIME=5.000000000000e+02
0.000000000000e+00 0.000000000000e+00 0.000000000000e+00 5.000000000000e+03 2.000000000000e+05 1.950000000000e+05 9.820239645359e-01 1.797603546411e-02 1.051783245954e-04 4.444877542503e-13 1.694080543723e-05 2.805793462642e-14 
0.000000000000e+00 5.000000000000e-01 0.000000000000e+00 5.000000000000e+03 2.000000000000e+05 1.950000000000e+05 9.820239609864e-01 1.797603901356e-02 1.051783213939e-04 3.501487911173e-13 1.694081135794e-05 9.454690517458e-14 
8.965517241371e-02 0.000000000000e+00 0.000000000000e+00 6.453591922557e+03 2.013441824841e+05 1.948905905615e+05 5.927386337726e-01 4.072613662274e-01 3.945272666073e-05 3.947471672203e-13 -8.532525649870e-05 -2.660382653359e-13 
1.793103448274e-01 0.000000000000e+00 0.000000000000e+00 7.231080584209e+03 2.016177014452e+05 1.943866208610e+05 4.749200809373e-01 5.250799190627e-01 4.928600692084e-05 -3.380391078335e-12 -4.576561400213e-05 2.787510115412e-13 
2.689655172411e-01 0.000000000000e+00 0.000000000000e+00 8.672447318264e+03 2.017340183669e+05 1.930615710486e+05 2.572983193514e-01 7.427016806486e-01 2.245958350236e-05 5.351675822915e-12 -2.856821270647e-05 -7.760347175500e-12 
3.586206896548e-01 0.000000000000e+00 0.000000000000e+00 4.114811658650e+04 2.017416172697e+05 1.605935006832e+05 5.534344200107e-03 9.944656557999e-01 -1.921041419199e-06 -4.357130987159e-14 -4.236193371346e-06 -2.711278091190e-12 
4.482758620685e-01 0.000000000000e+00 0.000000000000e+00 4.999931377771e+04 2.017415679950e+05 1.517422542173e+05 9.939449786114e-03 9.900605502139e-01 3.826537387367e-11 -3.180678708211e-18 5.386554210327e-08 -5.530051766184e-12 
5.379310344822e-01 0.000000000000e+00 0.000000000000e+00 4.999999998472e+04 2.017415187244e+05 1.517415187397e+05 1.000000000583e-02 9.899999999942e-01 4.376685308701e-15 -8.302252752758e-20 5.386264246171e-08 -8.135937832275e-12 
6.275862068960e-01 0.000000000000e+00 0.000000000000e+00 5.000000001052e+04 2.017414694429e+05 1.517414694324e+05 9.999999995791e-03 9.900000000042e-01 5.497364636173e-16 -2.219360645402e-19 5.385995167966e-08 -2.171745409682e-11 
7.172413793097e-01 0.000000000000e+00 0.000000000000e+00 5.000000001094e+04 2.017414201772e+05 1.517414201663e+05 9.999999995624e-03 9.900000000044e-01 5.490267627201e-16 -1.717063902846e-19 5.380467625669e-08 -1.725306486169e-11 
5.379310344828e-01 5.000000000000e-01 0.000000000000e+00 4.999999998508e+04 2.017415190885e+05 1.517415191035e+05 1.000000000569e-02 9.899999999943e-01 4.376082535245e-15 -1.841307991644e-19 5.380140382215e-08 -1.804436704899e-11 
4.482758620690e-01 5.000000000000e-01 0.000000000000e+00 4.999931377385e+04 2.017415683016e+05 1.517422545278e+05 9.939449398034e-03 9.900605506020e-01 3.826539324791e-11 -2.105118421886e-18 5.381056149953e-08 -1.126200918040e-11 
3.586206896552e-01 5.000000000000e-01 0.000000000000e+00 4.114809173949e+04 2.017416175332e+05 1.605935257937e+05 5.534354587924e-03 9.944656454121e-01 -1.921046599536e-06 -3.431711828017e-14 -4.236246676811e-06 -7.723839842223e-12 
2.689655172414e-01 5.000000000000e-01 0.000000000000e+00 8.672444598840e+03 2.017340185769e+05 1.930615739780e+05 2.572985064915e-01 7.427014935085e-01 2.245963505242e-05 4.474668137653e-12 -2.856821916664e-05 -1.101694116083e-11 
1.793103448276e-01 5.000000000000e-01 0.000000000000e+00 7.231080483866e+03 2.016177016133e+05 1.943866211294e+05 4.749201019557e-01 5.250798980443e-01 4.928594292662e-05 -3.362929879787e-12 -4.576561516962e-05 -1.084520580996e-12 
8.965517241379e-02 5.000000000000e-01 0.000000000000e+00 6.453592092078e+03 2.013441826542e+05 1.948905905621e+05 5.927386020349e-01 4.072613979651e-01 3.945269944835e-05 2.533371088062e-13 -8.532528459919e-05 -8.522147343103e-13 
0.000000000000e+00 4.166666666668e-01 0.000000000000e+00 5.000000000000e+03 2.000000000000e+05 1.950000000000e+05 9.820239612216e-01 1.797603877843e-02 1.051783180263e-04 -2.127501579127e-14 1.694081101265e-05 2.414735873614e-13 
0.000000000000e+00 3.333333333337e-01 0.000000000000e+00 5.000000000000e+03 2.000000000000e+05 1.950000000000e+05 9.820239617839e-01 1.797603821611e-02 1.051783224207e-04 -1.825247860843e-13 1.694081002372e-05 4.605986623986e-13 
0.000000000000e+00 2.500000000007e-01 0.000000000000e+00 5.000000000000e+03 2.000000000000e+05 1.950000000000e+05 9.820239626801e-01 1.797603731993e-02 1.051783228113e-04 -2.462456926949e-14 1.694080853430e-05 5.601281505942e-13 
0.000000000000e+00 1.666666666672e-01 0.000000000000e+00 5.000000000000e+03 2.000000000000e+05 1.950000000000e+05 9.820239636445e-01 1.797603635547e-02 1.051783243111e-04 -2.418112220248e-13 1.694080691727e-05 5.439861676985e-13 
0.000000000000e+00 8.333333333368e-02 0.000000000000e+00 5.000000000000e+03 2.000000000000e+05 1.950000000000e+05 9.820239643910e-01 1.797603560896e-02 1.051783289853e-04 1.890163285078e-14 1.694080561959e-05 2.642859640080e-13 
8.965517241378e-02 4.166666666668e-01 0.000000000000e+00 6.453592080848e+03 2.013441826466e+05 1.948905905658e+05 5.927386039703e-01 4.072613960297e-01 3.945270509866e-05 -1.718493789756e-13 -8.532528307118e-05 -2.133952915182e-12 
1.793103448276e-01 4.166666666668e-01 0.000000000000e+00 7.231080552909e+03 2.016177016085e+05 1.943866210556e+05 4.749200943150e-01 5.250799056850e-01 4.928592787552e-05 -2.573175252394e-12 -4.576561600661e-05 -4.699942183686e-12 
2.689655172413e-01 4.166666666667e-01 0.000000000000e+00 8.672444091030e+03 2.017340185593e+05 1.930615744683e+05 2.572985355318e-01 7.427014644682e-01 2.245964221875e-05 -3.016643662950e-12 -2.856821631970e-05 -1.431932011663e-11 
3.586206896551e-01 4.166666666667e-01 0.000000000000e+00 4.114809080363e+04 2.017416175269e+05 1.605935267233e+05 5.534354306454e-03 9.944656456935e-01 -1.921047266852e-06 3.943401159378e-14 -4.236251218862e-06 -3.411720582179e-11 
4.482758620689e-01 4.166666666667e-01 0.000000000000e+00 4.999931377410e+04 2.017415682921e+05 1.517422545179e+05 9.939449383251e-03 9.900605506167e-01 3.826539403879e-11 5.669921067791e-18 5.381550216840e-08 -4.050946443995e-11 
5.379310344827e-01 4.166666666667e-01 0.000000000000e+00 4.999999998508e+04 2.017415190732e+05 1.517415190881e+05 1.000000000569e-02 9.899999999943e-01 4.376156784190e-15 -5.266000213634e-19 5.380882194689e-08 -5.160652162309e-11 
8.965517241376e-02 3.333333333337e-01 0.000000000000e+00 6.453592053992e+03 2.013441826156e+05 1.948905905617e+05 5.927386091666e-01 4.072613908334e-01 3.945270550294e-05 -4.544706850889e-13 -8.532527830157e-05 -4.059013491804e-12 
1.793103448275e-01 3.333333333336e-01 0.000000000000e+00 7.231080505931e+03 2.016177015758e+05 1.943866210698e+05 4.749200972516e-01 5.250799027484e-01 4.928595768576e-05 -4.024364093802e-12 -4.576561500105e-05 -9.440787228586e-12 
2.689655172413e-01 3.333333333336e-01 0.000000000000e+00 8.672445225978e+03 2.017340185303e+05 1.930615733043e+05 2.572984634035e-01 7.427015365965e-01 2.245962319081e-05 -8.199980187215e-12 -2.856821823022e-05 -2.584656783197e-11 
3.586206896551e-01 3.333333333336e-01 0.000000000000e+00 4.114809742605e+04 2.017416174755e+05 1.605935200494e+05 5.534352218436e-03 9.944656477816e-01 -1.921045408328e-06 9.691077374185e-14 -4.236234402396e-06 -7.058181745346e-11 
4.482758620688e-01 3.333333333336e-01 0.000000000000e+00 4.999931377474e+04 2.017415682327e+05 1.517422544580e+05 9.939449486848e-03 9.900605505132e-01 3.826538885176e-11 1.270405247908e-17 5.382697058501e-08 -8.170849095560e-11 
5.379310344826e-01 3.333333333335e-01 0.000000000000e+00 4.999999998508e+04 2.017415190008e+05 1.517415190157e+05 1.000000000569e-02 9.899999999943e-01 4.376244805442e-15 -1.001426193578e-18 5.381779411206e-08 -9.821604833853e-11 
8.965517241375e-02 2.500000000007e-01 0.000000000000e+00 6.453592011191e+03 2.013441825731e+05 1.948905905619e+05 5.927386171508e-01 4.072613828492e-01 3.945271310649e-05 -3.400443529352e-13 -8.532527120945e-05 -4.944747214385e-12 
1.793103448275e-01 2.500000000006e-01 0.000000000000e+00 7.231080542133e+03 2.016177015334e+05 1.943866209913e+05 4.749200907524e-01 5.250799092476e-01 4.928597141864e-05 -5.912154151806e-12 -4.576561468432e-05 -1.110244848163e-11 
2.689655172413e-01 2.500000000006e-01 0.000000000000e+00 8.672445830635e+03 2.017340184748e+05 1.930615726442e+05 2.572984209866e-01 7.427015790134e-01 2.245961139244e-05 -7.658269677581e-12 -2.856821564068e-05 -3.348970643802e-11 
3.586206896550e-01 2.500000000005e-01 0.000000000000e+00 4.114810345990e+04 2.017416174072e+05 1.605935139473e+05 5.534349603374e-03 9.944656503966e-01 -1.921044215310e-06 9.794895462886e-14 -4.236221079026e-06 -8.330433348936e-11 
4.482758620688e-01 2.500000000005e-01 0.000000000000e+00 4.999931377573e+04 2.017415681531e+05 1.517422543774e+05 9.939449581069e-03 9.900605504189e-01 3.826538415586e-11 1.383640170935e-17 5.384138161016e-08 -9.587525581765e-11 
5.379310344825e-01 2.500000000004e-01 0.000000000000e+00 4.999999998495e+04 2.017415189062e+05 1.517415189212e+05 1.000000000574e-02 9.899999999943e-01 4.376415150725e-15 -1.143447525450e-18 5.383494156894e-08 -1.121939056621e-10 
8.965517241374e-02 1.666666666672e-01 0.000000000000e+00 6.453591965128e+03 2.013441825263e+05 1.948905905611e+05 5.927386258316e-01 4.072613741684e-01 3.945271909698e-05 -5.278440744414e-13 -8.532526354469e-05 -4.793223489820e-12 
1.793103448275e-01 1.666666666672e-01 0.000000000000e+00 7.231080548079e+03 2.016177014871e+05 1.943866209390e+05 4.749200871184e-01 5.250799128816e-01 4.928599585427e-05 -4.078919520516e-12 -4.576561423283e-05 -1.119909991363e-11 
2.689655172412e-01 1.666666666671e-01 0.000000000000e+00 8.672446825687e+03 2.017340184211e+05 1.930615715954e+05 2.572983545507e-01 7.427016454493e-01 2.245959337628e-05 -9.822589428612e-12 -2.856821517321e-05 -2.924877038328e-11 
3.586206896549e-01 1.666666666671e-01 0.000000000000e+00 4.114811127147e+04 2.017416173344e+05 1.605935060629e+05 5.534346570082e-03 9.944656534299e-01 -1.921042423435e-06 1.139672253130e-13 -4.236204643803e-06 -7.985840448949e-11 
4.482758620687e-01 1.666666666671e-01 0.000000000000e+00 4.999931377675e+04 2.017415680697e+05 1.517422542929e+05 9.939449703152e-03 9.900605502968e-01 3.826537802443e-11 1.468950959720e-17 5.385414962609e-08 -9.019180528586e-11 
5.379310344824e-01 1.666666666670e-01 0.000000000000e+00 4.999999998485e+04 2.017415188100e+05 1.517415188251e+05 1.000000000578e-02 9.899999999942e-01 4.376550033546e-15 -1.047390411783e-18 5.384872223392e-08 -1.027803460948e-10 
6.275862068961e-01 1.666666666670e-01 0.000000000000e+00 5.000000001078e+04 2.017414695430e+05 1.517414695322e+05 9.999999995687e-03 9.900000000043e-01 5.495382045739e-16 -1.140054179725e-18 5.384075000824e-08 -1.118947722802e-10 
8.965517241372e-02 8.333333333366e-02 0.000000000000e+00 6.453591929475e+03 2.013441824863e+05 1.948905905569e+05 5.927386326760e-01 4.072613673240e-01 3.945272095980e-05 -1.463794760934e-13 -8.532525725568e-05 -2.332665674403e-12 
1.793103448274e-01 8.333333333364e-02 0.000000000000e+00 7.231080505919e+03 2.016177014446e+05 1.943866209386e+05 4.749200895216e-01 5.250799104784e-01 4.928602471389e-05 -2.989613137830e-12 -4.576561291067e-05 -5.240372548841e-12 
2.689655172412e-01 8.333333333362e-02 0.000000000000e+00 8.672447917470e+03 2.017340183792e+05 1.930615704618e+05 2.572982844929e-01 7.427017155071e-01 2.245957481754e-05 -2.434487796554e-12 -2.856821667613e-05 -1.667495069990e-11 
3.586206896549e-01 8.333333333360e-02 0.000000000000e+00 4.114811805252e+04 2.017416172718e+05 1.605934992193e+05 5.534344315307e-03 9.944656556847e-01 -1.921040602310e-06 3.455085745848e-14 -4.236189023934e-06 -3.823626740039e-11 
4.482758620686e-01 8.333333333359e-02 0.000000000000e+00 4.999931377745e+04 2.017415679997e+05 1.517422542223e+05 9.939449809211e-03 9.900605501908e-01 3.826537268209e-11 5.244346626487e-18 5.386290645473e-08 -4.391162196205e-11 
5.379310344823e-01 8.333333333357e-02 0.000000000000e+00 4.999999998472e+04 2.017415187314e+05 1.517415187466e+05 1.000000000583e-02 9.899999999942e-01 4.376609832960e-15 -5.123457330903e-19 5.385511980946e-08 -5.028612378332e-11 
6.275862068961e-01 8.333333333355e-02 0.000000000000e+00 5.000000001049e+04 2.017414694614e+05 1.517414694509e+05 9.999999995802e-03 9.900000000042e-01 5.496952482149e-16 -5.993052253462e-19 5.385571455689e-08 -5.888526634686e-11 
7.172413793098e-01 8.333333333353e-02 0.000000000000e+00 5.000000001130e+04 2.017414201919e+05 1.517414201806e+05 9.999999995479e-03 9.900000000045e-01 5.490470150665e-16 -7.256445563415e-19 5.380671666019e-08 -7.094446165604e-11 
8.068965517235e-01 0.000000000000e+00 0.000000000000e+00 5.000000001062e+04 2.017413709968e+05 1.517413709862e+05 9.999999995751e-03 9.900000000042e-01 5.485473107388e-16 -1.783583180356e-19 5.375809161599e-08 -1.732700806849e-11 
8.068965517236e-01 8.333333333351e-02 0.000000000000e+00 5.000000001049e+04 2.017413710115e+05 1.517413710010e+05 9.999999995802e-03 9.900000000042e-01 5.485411280118e-16 -6.276121025342e-19 5.375802292717e-08 -6.137097440092e-11 
6.275862068965e-01 4.166666666667e-01 0.000000000000e+00 5.000000001062e+04 2.017414698384e+05 1.517414698278e+05 9.999999995750e-03 9.900000000042e-01 5.494422959921e-16 -5.932834614012e-19 5.381753150706e-08 -5.814136250968e-11 
6.275862068966e-01 5.000000000000e-01 0.000000000000e+00 5.000000001062e+04 2.017414698615e+05 1.517414698509e+05 9.999999995750e-03 9.900000000042e-01 5.493552303728e-16 -2.778007917672e-19 5.380899884199e-08 -2.722434381236e-11 
6.275862068964e-01 3.333333333335e-01 0.000000000000e+00 5.000000001062e+04 2.017414697627e+05 1.517414697520e+05 9.999999995750e-03 9.900000000042e-01 5.494791950122e-16 -1.121404091286e-18 5.382114703871e-08 -1.098050627295e-10 
6.275862068963e-01 2.500000000004e-01 0.000000000000e+00 5.000000001078e+04 2.017414696516e+05 1.517414696409e+05 9.999999995687e-03 9.900000000043e-01 5.494980809880e-16 -1.313636378027e-18 5.383223774680e-08 -1.286748748184e-10 
7.172413793100e-01 1.666666666670e-01 0.000000000000e+00 5.000000001065e+04 2.017414202979e+05 1.517414202872e+05 9.999999995739e-03 9.900000000043e-01 5.490907521927e-16 -1.326184145870e-18 5.381119156373e-08 -1.293561064396e-10 