VARIABLES  = "X","Y","Z", "PRESSURE1", "PRESSURE2", "PRESSURE_W", "SATURATION1", SATURATION2, "VELOCITY_X1", "VELOCITY_Y1", "VELOCITY_X2", "VELOCITY_Y2"
ZONE T="0.000000000000e+00s", N=67, E=51, F=FEPOINT, ET=QUADRILATERAL
STRANDID=1, SOLUTIONTIME=0.000000000000e+00
1.434482758620e+00 0.000000000000e+00 0.000000000000e+00 5.000000000000e+04 0.000000000000e+00 -5.000000000000e+04 1.000000000000e-02 9.900000000000e-01 0.000000000000e+00 0.000000000000e+00 0.000000000000e+00 0.000000000000e+00 
1.524137931034e+00 0.000000000000e+00 0.000000000000e+00 5.000000000000e+04 0.000000000000e+00 -5.000000000000e+04 1.000000000000e-02 9.900000000000e-01 0.000000000000e+00 0.000000000000e+00 0.000000000000e+00 0.000000000000e+00 
1.613793103448e+00 0.000000000000e+00 0.000000000000e+00 5.000000000000e+04 0.000000000000e+00 -5.000000000000e+04 1.000000000000e-02 9.900000000000e-01 0.000000000000e+00 0.000000000000e+00 0.000000000000e+00 0.000000000000e+00 
1.703448275862e+00 0.000000000000e+00 0.000000000000e+00 5.000000000000e+04 0.000000000000e+00 -5.000000000000e+04 1.000000000000e-02 9.900000000000e-01 0.000000000000e+00 0.000000000000e+00 0.000000000000e+00 0.000000000000e+00 
1.793103448276e+00 0.000000000000e+00 0.000000000000e+00 5.000000000000e+04 0.000000000000e+00 -5.000000000000e+04 1.000000000000e-02 9.900000000000e-01 0.000000000000e+00 0.000000000000e+00 0.000000000000e+00 0.000000000000e+00 
1.882758620690e+00 0.000000000000e+00 0.000000000000e+00 5.000000000000e+04 0.000000000000e+00 -5.000000000000e+04 1.000000000000e-02 9.900000000000e-01 0.000000000000e+00 0.000000000000e+00 0.000000000000e+00 0.000000000000e+00 
1.972413793104e+00 0.000000000000e+00 0.000000000000e+00 5.000000000000e+04 0.000000000000e+00 -5.000000000000e+04 1.000000000000e-02 9.900000000000e-01 0.000000000000e+00 0.000000000000e+00 0.000000000000e+00 0.000000000000e+00 
1.882758620691e+00 5.000000000000e-01 0.000000000000e+00 5.000000000000e+04 0.000000000000e+00 -5.000000000000e+04 1.000000000000e-02 9.900000000000e-01 0.000000000000e+00 0.000000000000e+00 0.000000000000e+00 0.000000000000e+00 
1.793103448277e+00 5.000000000000e-01 0.000000000000e+00 5.000000000000e+04 0.000000000000e+00 -5.000000000000e+04 1.000000000000e-02 9.900000000000e-01 0.000000000000e+00 0.000000000000e+00 0.000000000000e+00 0.000000000000e+00 
1.703448275863e+00 5.000000000000e-01 0.000000000000e+00 5.000000000000e+04 0.000000000000e+00 -5.000000000000e+04 1.000000000000e-02 9.900000000000e-01 0.000000000000e+00 0.000000000000e+00 0.000000000000e+00 0.000000000000e+00 
1.613793103450e+00 5.000000000000e-01 0.000000000000e+00 5.000000000000e+04 0.000000000000e+00 -5.000000000000e+04 1.000000000000e-02 9.900000000000e-01 0.000000000000e+00 0.000000000000e+00 0.000000000000e+00 0.000000000000e+00 
1.524137931036e+00 5.000000000000e-01 0.000000000000e+00 5.000000000000e+04 0.000000000000e+00 -5.000000000000e+04 1.000000000000e-02 9.900000000000e-01 0.000000000000e+00 0.000000000000e+00 0.000000000000e+00 0.000000000000e+00 
1.434482758622e+00 5.000000000000e-01 0.000000000000e+00 5.000000000000e+04 0.000000000000e+00 -5.000000000000e+04 1.000000000000e-02 9.900000000000e-01 0.000000000000e+00 0.000000000000e+00 0.000000000000e+00 0.000000000000e+00 
1.344827586208e+00 5.000000000000e-01 0.000000000000e+00 5.000000000000e+04 0.000000000000e+00 -5.000000000000e+04 1.000000000000e-02 9.900000000000e-01 0.000000000000e+00 0.000000000000e+00 0.000000000000e+00 0.000000000000e+00 
1.344827586208e+00 4.166666666666e-01 0.000000000000e+00 5.000000000000e+04 0.000000000000e+00 -5.000000000000e+04 1.000000000000e-02 9.900000000000e-01 0.000000000000e+00 0.000000000000e+00 0.000000000000e+00 0.000000000000e+00 
1.434482758622e+00 4.166666666666e-01 0.000000000000e+00 5.000000000000e+04 0.000000000000e+00 -5.000000000000e+04 1.000000000000e-02 9.900000000000e-01 0.000000000000e+00 0.000000000000e+00 0.000000000000e+00 0.000000000000e+00 
1.524137931036e+00 4.166666666666e-01 0.000000000000e+00 5.000000000000e+04 0.000000000000e+00 -5.000000000000e+04 1.000000000000e-02 9.900000000000e-01 0.000000000000e+00 0.000000000000e+00 0.000000000000e+00 0.000000000000e+00 
1.613793103449e+00 4.166666666666e-01 0.000000000000e+00 5.000000000000e+04 0.000000000000e+00 -5.000000000000e+04 1.000000000000e-02 9.900000000000e-01 0.000000000000e+00 0.000000000000e+00 0.000000000000e+00 0.000000000000e+00 
1.703448275863e+00 4.166666666666e-01 0.000000000000e+00 5.000000000000e+04 0.000000000000e+00 -5.000000000000e+04 1.000000000000e-02 9.900000000000e-01 0.000000000000e+00 0.000000000000e+00 0.000000000000e+00 0.000000000000e+00 
1.793103448277e+00 4.166666666666e-01 0.000000000000e+00 5.000000000000e+04 0.000000000000e+00 -5.000000000000e+04 1.000000000000e-02 9.900000000000e-01 0.000000000000e+00 0.000000000000e+00 0.000000000000e+00 0.000000000000e+00 
1.882758620691e+00 4.166666666665e-01 0.000000000000e+00 5.000000000000e+04 0.000000000000e+00 -5.000000000000e+04 1.000000000000e-02 9.900000000000e-01 0.000000000000e+00 0.000000000000e+00 0.000000000000e+00 0.000000000000e+00 
1.344827586208e+00 3.333333333333e-01 0.000000000000e+00 5.000000000000e+04 0.000000000000e+00 -5.000000000000e+04 1.000000000000e-02 9.900000000000e-01 0.000000000000e+00 0.000000000000e+00 0.000000000000e+00 0.000000000000e+00 
1.434482758621e+00 3.333333333333e-01 0.000000000000e+00 5.000000000000e+04 0.000000000000e+00 -5.000000000000e+04 1.000000000000e-02 9.900000000000e-01 0.000000000000e+00 0.000000000000e+00 0.000000000000e+00 0.000000000000e+00 
1.524137931035e+00 3.333333333333e-01 0.000000000000e+00 5.000000000000e+04 0.000000000000e+00 -5.000000000000e+04 1.000000000000e-02 9.900000000000e-01 0.000000000000e+00 0.000000000000e+00 0.000000000000e+00 0.000000000000e+00 
1.613793103449e+00 3.333333333332e-01 0.000000000000e+00 5.000000000000e+04 0.000000000000e+00 -5.000000000000e+04 1.000000000000e-02 9.900000000000e-01 0.000000000000e+00 0.000000000000e+00 0.000000000000e+00 0.000000000000e+00 
1.703448275863e+00 3.333333333332e-01 0.000000000000e+00 5.000000000000e+04 0.000000000000e+00 -5.000000000000e+04 1.000000000000e-02 9.900000000000e-01 0.000000000000e+00 0.000000000000e+00 0.000000000000e+00 0.000000000000e+00 
1.793103448277e+00 3.333333333332e-01 0.000000000000e+00 5.000000000000e+04 0.000000000000e+00 -5.000000000000e+04 1.000000000000e-02 9.900000000000e-01 0.000000000000e+00 0.000000000000e+00 0.000000000000e+00 0.000000000000e+00 
1.882758620691e+00 3.333333333332e-01 0.000000000000e+00 5.000000000000e+04 0.000000000000e+00 -5.000000000000e+04 1.000000000000e-02 9.900000000000e-01 0.000000000000e+00 0.000000000000e+00 0.000000000000e+00 0.000000000000e+00 
1.972413793104e+00 3.333333333331e-01 0.000000000000e+00 5.000000000000e+04 0.000000000000e+00 -5.000000000000e+04 1.000000000000e-02 9.900000000000e-01 0.000000000000e+00 0.000000000000e+00 0.000000000000e+00 0.000000000000e+00 
1.344827586207e+00 2.500000000001e-01 0.000000000000e+00 5.000000000000e+04 0.000000000000e+00 -5.000000000000e+04 1.000000000000e-02 9.900000000000e-01 0.000000000000e+00 0.000000000000e+00 0.000000000000e+00 0.000000000000e+00 
1.434482758621e+00 2.500000000000e-01 0.000000000000e+00 5.000000000000e+04 0.000000000000e+00 -5.000000000000e+04 1.000000000000e-02 9.900000000000e-01 0.000000000000e+00 0.000000000000e+00 0.000000000000e+00 0.000000000000e+00 
1.524137931035e+00 2.500000000000e-01 0.000000000000e+00 5.000000000000e+04 0.000000000000e+00 -5.000000000000e+04 1.000000000000e-02 9.900000000000e-01 0.000000000000e+00 0.000000000000e+00 0.000000000000e+00 0.000000000000e+00 
1.613793103449e+00 2.500000000000e-01 0.000000000000e+00 5.000000000000e+04 0.000000000000e+00 -5.000000000000e+04 1.000000000000e-02 9.900000000000e-01 0.000000000000e+00 0.000000000000e+00 0.000000000000e+00 0.000000000000e+00 
1.703448275863e+00 2.499999999999e-01 0.000000000000e+00 5.000000000000e+04 0.000000000000e+00 -5.000000000000e+04 1.000000000000e-02 9.900000000000e-01 0.000000000000e+00 0.000000000000e+00 0.000000000000e+00 0.000000000000e+00 
1.793103448277e+00 2.499999999999e-01 0.000000000000e+00 5.000000000000e+04 0.000000000000e+00 -5.000000000000e+04 1.000000000000e-02 9.900000000000e-01 0.000000000000e+00 0.000000000000e+00 0.000000000000e+00 0.000000000000e+00 
1.882758620690e+00 2.499999999998e-01 0.000000000000e+00 5.000000000000e+04 0.000000000000e+00 -5.000000000000e+04 1.000000000000e-02 9.900000000000e-01 0.000000000000e+00 0.000000000000e+00 0.000000000000e+00 0.000000000000e+00 
1.972413793104e+00 2.499999999998e-01 0.000000000000e+00 5.000000000000e+04 0.000000000000e+00 -5.000000000000e+04 1.000000000000e-02 9.900000000000e-01 0.000000000000e+00 0.000000000000e+00 0.000000000000e+00 0.000000000000e+00 
1.434482758621e+00 1.666666666667e-01 0.000000000000e+00 5.000000000000e+04 0.000000000000e+00 -5.000000000000e+04 1.000000000000e-02 9.900000000000e-01 0.000000000000e+00 0.000000000000e+00 0.000000000000e+00 0.000000000000e+00 
1.524137931035e+00 1.666666666667e-01 0.000000000000e+00 5.000000000000e+04 0.000000000000e+00 -5.000000000000e+04 1.000000000000e-02 9.900000000000e-01 0.000000000000e+00 0.000000000000e+00 0.000000000000e+00 0.000000000000e+00 
1.613793103449e+00 1.666666666667e-01 0.000000000000e+00 5.000000000000e+04 0.000000000000e+00 -5.000000000000e+04 1.000000000000e-02 9.900000000000e-01 0.000000000000e+00 0.000000000000e+00 0.000000000000e+00 0.000000000000e+00 
1.703448275862e+00 1.666666666666e-01 0.000000000000e+00 5.000000000000e+04 0.000000000000e+00 -5.000000000000e+04 1.000000000000e-02 9.900000000000e-01 0.000000000000e+00 0.000000000000e+00 0.000000000000e+00 0.000000000000e+00 
1.793103448276e+00 1.666666666666e-01 0.000000000000e+00 5.000000000000e+04 0.000000000000e+00 -5.000000000000e+04 1.000000000000e-02 9.900000000000e-01 0.000000000000e+00 0.000000000000e+00 0.000000000000e+00 0.000000000000e+00 
1.882758620690e+00 1.666666666666e-01 0.000000000000e+00 5.000000000000e+04 0.000000000000e+00 -5.000000000000e+04 1.000000000000e-02 9.900000000000e-01 0.000000000000e+00 0.000000000000e+00 0.000000000000e+00 0.000000000000e+00 
1.972413793104e+00 1.666666666665e-01 0.000000000000e+00 5.000000000000e+04 0.000000000000e+00 -5.000000000000e+04 1.000000000000e-02 9.900000000000e-01 0.000000000000e+00 0.000000000000e+00 0.000000000000e+00 0.000000000000e+00 
1.434482758620e+00 8.333333333338e-02 0.000000000000e+00 5.000000000000e+04 0.000000000000e+00 -5.000000000000e+04 1.000000000000e-02 9.900000000000e-01 0.000000000000e+00 0.000000000000e+00 0.000000000000e+00 0.000000000000e+00 
1.524137931034e+00 8.333333333336e-02 0.000000000000e+00 5.000000000000e+04 0.000000000000e+00 -5.000000000000e+04 1.000000000000e-02 9.900000000000e-01 0.000000000000e+00 0.000000000000e+00 0.000000000000e+00 0.000000000000e+00 
1.613793103448e+00 8.333333333334e-02 0.000000000000e+00 5.000000000000e+04 0.000000000000e+00 -5.000000000000e+04 1.000000000000e-02 9.900000000000e-01 0.000000000000e+00 0.000000000000e+00 0.000000000000e+00 0.000000000000e+00 
1.703448275862e+00 8.333333333332e-02 0.000000000000e+00 5.000000000000e+04 0.000000000000e+00 -5.000000000000e+04 1.000000000000e-02 9.900000000000e-01 0.000000000000e+00 0.000000000000e+00 0.000000000000e+00 0.000000000000e+00 
1.793103448276e+00 8.333333333330e-02 0.000000000000e+00 5.000000000000e+04 0.000000000000e+00 -5.000000000000e+04 1.000000000000e-02 9.900000000000e-01 0.000000000000e+00 0.000000000000e+00 0.000000000000e+00 0.000000000000e+00 
1.882758620690e+00 8.333333333328e-02 0.000000000000e+00 5.000000000000e+04 0.000000000000e+00 -5.000000000000e+04 1.000000000000e-02 9.900000000000e-01 0.000000000000e+00 0.000000000000e+00 0.000000000000e+00 0.000000000000e+00 
1.972413793104e+00 8.333333333327e-02 0.000000000000e+00 5.000000000000e+04 0.000000000000e+00 -5.000000000000e+04 1.000000000000e-02 9.900000000000e-01 0.000000000000e+00 0.000000000000e+00 0.000000000000e+00 0.000000000000e+00 
1.344827586206e+00 8.333333333340e-02 0.000000000000e+00 5.000000000000e+04 0.000000000000e+00 -5.000000000000e+04 1.000000000000e-02 9.900000000000e-01 0.000000000000e+00 0.000000000000e+00 0.000000000000e+00 0.000000000000e+00 
1.344827586206e+00 0.000000000000e+00 0.000000000000e+00 5.000000000000e+04 0.000000000000e+00 -5.000000000000e+04 1.000000000000e-02 9.900000000000e-01 0.000000000000e+00 0.000000000000e+00 0.000000000000e+00 0.000000000000e+00 
2.062068965517e+00 0.000000000000e+00 0.000000000000e+00 5.000000000000e+04 0.000000000000e+00 -5.000000000000e+04 1.000000000000e-02 9.900000000000e-01 0.000000000000e+00 0.000000000000e+00 0.000000000000e+00 0.000000000000e+00 
2.062068965518e+00 8.333333333325e-02 0.000000000000e+00 5.000000000000e+04 0.000000000000e+00 -5.000000000000e+04 1.000000000000e-02 9.900000000000e-01 0.000000000000e+00 0.000000000000e+00 0.000000000000e+00 0.000000000000e+00 
1.972413793105e+00 4.166666666665e-01 0.000000000000e+00 5.000000000000e+04 0.000000000000e+00 -5.000000000000e+04 1.000000000000e-02 9.900000000000e-01 0.000000000000e+00 0.000000000000e+00 0.000000000000e+00 0.000000000000e+00 
1.972413793105e+00 5.000000000000e-01 0.000000000000e+00 5.000000000000e+04 0.000000000000e+00 -5.000000000000e+04 1.000000000000e-02 9.900000000000e-01 0.000000000000e+00 0.000000000000e+00 0.000000000000e+00 0.000000000000e+00 
1.255172413794e+00 5.000000000000e-01 0.000000000000e+00 5.000000000000e+04 0.000000000000e+00 -5.000000000000e+04 1.000000000000e-02 9.900000000000e-01 0.000000000000e+00 0.000000000000e+00 0.000000000000e+00 0.000000000000e+00 
1.255172413794e+00 4.166666666666e-01 0.000000000000e+00 5.000000000000e+04 0.000000000000e+00 -5.000000000000e+04 1.000000000000e-02 9.900000000000e-01 0.000000000000e+00 0.000000000000e+00 0.000000000000e+00 0.000000000000e+00 
1.255172413794e+00 3.333333333333e-01 0.000000000000e+00 5.000000000000e+04 0.000000000000e+00 -5.000000000000e+04 1.000000000000e-02 9.900000000000e-01 0.000000000000e+00 0.000000000000e+00 0.000000000000e+00 0.000000000000e+00 
1.255172413793e+00 2.500000000001e-01 0.000000000000e+00 5.000000000000e+04 0.000000000000e+00 -5.000000000000e+04 1.000000000000e-02 9.900000000000e-01 0.000000000000e+00 0.000000000000e+00 0.000000000000e+00 0.000000000000e+00 
2.062068965518e+00 3.333333333331e-01 0.000000000000e+00 5.000000000000e+04 0.000000000000e+00 -5.000000000000e+04 1.000000000000e-02 9.900000000000e-01 0.000000000000e+00 0.000000000000e+00 0.000000000000e+00 0.000000000000e+00 
2.062068965518e+00 4.166666666665e-01 0.000000000000e+00 5.000000000000e+04 0.000000000000e+00 -5.000000000000e+04 1.000000000000e-02 9.900000000000e-01 0.000000000000e+00 0.000000000000e+00 0.000000000000e+00 0.000000000000e+00 
2.062068965518e+00 2.499999999998e-01 0.000000000000e+00 5.000000000000e+04 0.000000000000e+00 -5.000000000000e+04 1.000000000000e-02 9.900000000000e-01 0.000000000000e+00 0.000000000000e+00 0.000000000000e+00 0.000000000000e+00 
1.255172413793e+00 1.666666666668e-01 0.000000000000e+00 5.000000000000e+04 0.000000000000e+00 -5.000000000000e+04 1.000000000000e-02 9.900000000000e-01 0.000000000000e+00 0.000000000000e+00 0.000000000000e+00 0.000000000000e+00 
1.344827586207e+00 1.666666666668e-01 0.000000000000e+00 5.000000000000e+04 0.000000000000e+00 -5.000000000000e+04 1.000000000000e-02 9.900000000000e-01 0.000000000000e+00 0.000000000000e+00 0.000000000000e+00 0.000000000000e+00 
2.062068965518e+00 1.666666666665e-01 0.000000000000e+00 5.000000000000e+04 0.000000000000e+00 -5.000000000000e+04 1.000000000000e-02 9.900000000000e-01 0.000000000000e+00 0.000000000000e+00 0.000000000000e+00 0.000000000000e+00 
45  1  2  46  
46  2  3  47  
47  3  4  48  
48  4  5  49  
49  5  6  50  
50  6  7  51  
9  20  21  8  
10  19  20  9  
11  18  19  10  
12  17  18  11  
13  16  17  12  
14  15  16  13  
15  22  23  16  
16  23  24  17  
17  24  25  18  
18  25  26  19  
19  26  27  20  
20  27  28  21  
22  30  31  23  
23  31  32  24  
24  32  33  25  
25  33  34  26  
26  34  35  27  
27  35  36  28  
28  36  37  29  
31  38  39  32  
32  39  40  33  
33  40  41  34  
34  41  42  35  
35  42  43  36  
36  43  44  37  
38  45  46  39  
39  46  47  40  
40  47  48  41  
41  48  49  42  
42  49  50  43  
43  50  51  44  
52  53  1  45  
51  7  54  55  
8  21  56  57  
58  59  15  14  
59  60  22  15  
21  28  29  56  
60  61  30  22  
56  29  62  63  
29  37  64  62  
61  65  66  30  
30  66  38  31  
37  44  67  64  
66  52  45  38  
44  51  55  67  
VARIABLES  = "X","Y","Z", "PRESSURE1", "PRESSURE2", "PRESSURE_W", "SATURATION1", SATURATION2, "VELOCITY_X1", "VELOCITY_Y1", "VELOCITY_X2", "VELOCITY_Y2"
ZONE T="5.000000000000e+02s", N=67, E=51, F=FEPOINT, ET=QUADRILATERAL
STRANDID=1, SOLUTIONTIME=5.000000000000e+02
1.434482758620e+00 0.000000000000e+00 0.000000000000e+00 4.999999986783e+04 2.017402468839e+05 1.517402470161e+05 1.000000005287e-02 9.899999999471e-01 5.356084789089e-16 7.819576750846e-18 5.248992796494e-08 7.663202253699e-10 
1.524137931034e+00 0.000000000000e+00 0.000000000000e+00 4.999999986748e+04 2.017402009606e+05 1.517402010931e+05 1.000000005301e-02 9.899999999470e-01 5.030107659997e-16 7.837969637756e-18 4.929534583621e-08 7.681228605924e-10 
1.613793103448e+00 0.000000000000e+00 0.000000000000e+00 4.999999986748e+04 2.017401566885e+05 1.517401568211e+05 1.000000005301e-02 9.899999999470e-01 4.806558145908e-16 1.175540119307e-17 4.710436452210e-08 1.152031671988e-09 
1.703448275862e+00 0.000000000000e+00 0.000000000000e+00 4.999999986748e+04 2.017401147740e+05 1.517401149065e+05 1.000000005301e-02 9.899999999470e-01 4.481673839464e-16 1.544674543903e-17 4.392049205012e-08 1.513784169685e-09 
1.793103448276e+00 0.000000000000e+00 0.000000000000e+00 4.999999986748e+04 2.017400763275e+05 1.517400764600e+05 1.000000005301e-02 9.899999999470e-01 4.050556093203e-16 1.949076388168e-17 3.969552946973e-08 1.910097971615e-09 
1.882758620690e+00 0.000000000000e+00 0.000000000000e+00 4.999999986748e+04 2.017400421433e+05 1.517400422759e+05 1.000000005301e-02 9.899999999470e-01 3.580592039938e-16 1.908460585338e-17 3.508968044510e-08 1.870295140862e-09 
1.972413793104e+00 0.000000000000e+00 0.000000000000e+00 4.999999986783e+04 2.017400121241e+05 1.517400122563e+05 1.000000005287e-02 9.899999999471e-01 2.772435395903e-16 8.480160513756e-18 2.716972982387e-08 8.310575219530e-10 
1.882758620691e+00 5.000000000000e-01 0.000000000000e+00 4.999999986783e+04 2.017400389555e+05 1.517400390877e+05 1.000000005287e-02 9.899999999471e-01 3.443182976975e-16 -1.090209690843e-18 3.374306904669e-08 -1.069891831857e-10 
1.793103448277e+00 5.000000000000e-01 0.000000000000e+00 4.999999986748e+04 2.017400739414e+05 1.517400740739e+05 1.000000005301e-02 9.899999999470e-01 4.039225668532e-16 -1.078102269139e-17 3.958429912146e-08 -1.056542137131e-09 
1.703448275863e+00 5.000000000000e-01 0.000000000000e+00 4.999999986748e+04 2.017401113826e+05 1.517401115152e+05 1.000000005301e-02 9.899999999470e-01 4.347017489906e-16 -8.925730903147e-18 4.260085709400e-08 -8.747228802449e-10 
1.613793103450e+00 5.000000000000e-01 0.000000000000e+00 4.999999986748e+04 2.017401518879e+05 1.517401520204e+05 1.000000005301e-02 9.899999999470e-01 4.655726030066e-16 -6.884771557544e-18 4.562620670331e-08 -6.747086289303e-10 
1.524137931036e+00 5.000000000000e-01 0.000000000000e+00 4.999999986748e+04 2.017401948646e+05 1.517401949971e+05 1.000000005301e-02 9.899999999470e-01 4.895640385991e-16 -4.560238526909e-18 4.797737220215e-08 -4.469035730219e-10 
1.434482758622e+00 5.000000000000e-01 0.000000000000e+00 4.999999986748e+04 2.017402396718e+05 1.517402398043e+05 1.000000005301e-02 9.899999999470e-01 5.049873676034e-16 -9.279196665422e-19 4.948905367556e-08 -9.093595852452e-11 
1.344827586208e+00 5.000000000000e-01 0.000000000000e+00 4.999999986783e+04 2.017402854144e+05 1.517402855466e+05 1.000000005287e-02 9.899999999471e-01 5.554432630621e-16 5.682433734129e-18 5.443374087522e-08 5.568796535169e-10 
1.344827586208e+00 4.166666666666e-01 0.000000000000e+00 4.999999986783e+04 2.017402858880e+05 1.517402860201e+05 1.000000005287e-02 9.899999999471e-01 5.525477228759e-16 1.381122239347e-17 5.414997739574e-08 1.353502030995e-09 
1.434482758622e+00 4.166666666666e-01 0.000000000000e+00 4.999999986748e+04 2.017402395945e+05 1.517402397270e+05 1.000000005301e-02 9.899999999470e-01 5.097475838723e-16 9.477447336718e-18 4.995555551309e-08 9.287919592673e-10 
1.524137931036e+00 4.166666666666e-01 0.000000000000e+00 4.999999986748e+04 2.017401944846e+05 1.517401946171e+05 1.000000005301e-02 9.899999999470e-01 4.923324470790e-16 6.962373044826e-18 4.824867681671e-08 6.823141563557e-10 
1.613793103449e+00 4.166666666666e-01 0.000000000000e+00 4.999999986748e+04 2.017401513142e+05 1.517401514467e+05 1.000000005301e-02 9.899999999470e-01 4.676014378471e-16 4.836061408361e-18 4.582503295591e-08 4.739350557840e-10 
1.703448275863e+00 4.166666666666e-01 0.000000000000e+00 4.999999986748e+04 2.017401106388e+05 1.517401107713e+05 1.000000005301e-02 9.899999999470e-01 4.365125067307e-16 2.868066013120e-18 4.277831174933e-08 2.810712097500e-10 
1.793103448277e+00 4.166666666666e-01 0.000000000000e+00 4.999999986748e+04 2.017400730430e+05 1.517400731755e+05 1.000000005301e-02 9.899999999470e-01 4.002810585286e-16 1.849785584581e-18 3.922749978767e-08 1.812796444507e-10 
1.882758620691e+00 4.166666666665e-01 0.000000000000e+00 4.999999986770e+04 2.017400388645e+05 1.517400389968e+05 1.000000005292e-02 9.899999999471e-01 3.459275525459e-16 8.115508572647e-18 3.390069207086e-08 7.951891666088e-10 
1.344827586208e+00 3.333333333333e-01 0.000000000000e+00 4.999999986783e+04 2.017402877163e+05 1.517402878485e+05 1.000000005287e-02 9.899999999471e-01 5.554864937063e-16 2.467185862013e-17 5.443797737012e-08 2.417937307324e-09 
1.434482758621e+00 3.333333333333e-01 0.000000000000e+00 4.999999986748e+04 2.017402412514e+05 1.517402413839e+05 1.000000005301e-02 9.899999999470e-01 5.113532851695e-16 2.082193919638e-17 5.011291420045e-08 2.040628353081e-09 
1.524137931035e+00 3.333333333333e-01 0.000000000000e+00 4.999999986748e+04 2.017401960250e+05 1.517401961575e+05 1.000000005301e-02 9.899999999470e-01 4.938781470255e-16 1.979434179168e-17 4.840015584550e-08 1.939849520491e-09 
1.613793103449e+00 3.333333333332e-01 0.000000000000e+00 4.999999986748e+04 2.017401526939e+05 1.517401528265e+05 1.000000005301e-02 9.899999999470e-01 4.693782092068e-16 1.702191581600e-17 4.599915683943e-08 1.668150943289e-09 
1.703448275863e+00 3.333333333332e-01 0.000000000000e+00 4.999999986748e+04 2.017401118606e+05 1.517401119932e+05 1.000000005301e-02 9.899999999470e-01 4.374774539263e-16 1.419083283790e-17 4.287287653739e-08 1.390704387403e-09 
1.793103448277e+00 3.333333333332e-01 0.000000000000e+00 4.999999986748e+04 2.017400742497e+05 1.517400743822e+05 1.000000005301e-02 9.899999999470e-01 3.990451360924e-16 1.263064615843e-17 3.910643301059e-08 1.237805822848e-09 
1.882758620691e+00 3.333333333332e-01 0.000000000000e+00 4.999999986761e+04 2.017400403079e+05 1.517400404403e+05 1.000000005296e-02 9.899999999470e-01 3.495013893824e-16 1.594828220286e-17 3.425092902207e-08 1.562802750974e-09 
1.972413793104e+00 3.333333333331e-01 0.000000000000e+00 4.999999986798e+04 2.017400115810e+05 1.517400117130e+05 1.000000005281e-02 9.899999999472e-01 2.588731916308e-16 8.793776150923e-18 2.536957008487e-08 8.617013114474e-10 
1.344827586207e+00 2.500000000001e-01 0.000000000000e+00 4.999999986798e+04 2.017402900001e+05 1.517402901321e+05 1.000000005281e-02 9.899999999472e-01 5.600914377206e-16 3.957934188034e-17 5.488912502486e-08 3.878874336097e-09 
1.434482758621e+00 2.500000000000e-01 0.000000000000e+00 4.999999986761e+04 2.017402430649e+05 1.517402431973e+05 1.000000005296e-02 9.899999999470e-01 5.142811730752e-16 2.208734287755e-17 5.039993199248e-08 2.164695827710e-09 
1.524137931035e+00 2.500000000000e-01 0.000000000000e+00 4.999999986748e+04 2.017401977837e+05 1.517401979162e+05 1.000000005301e-02 9.899999999470e-01 4.958645200191e-16 1.976087285774e-17 4.859488975408e-08 1.936569634953e-09 
1.613793103449e+00 2.500000000000e-01 0.000000000000e+00 4.999999986748e+04 2.017401541512e+05 1.517401542837e+05 1.000000005301e-02 9.899999999470e-01 4.728098278012e-16 1.559553723298e-17 4.633545633048e-08 1.528365557214e-09 
1.703448275863e+00 2.499999999999e-01 0.000000000000e+00 4.999999986748e+04 2.017401130040e+05 1.517401131365e+05 1.000000005301e-02 9.899999999470e-01 4.405941356537e-16 1.085730415395e-17 4.317831202844e-08 1.064017998915e-09 
1.793103448277e+00 2.499999999999e-01 0.000000000000e+00 4.999999986748e+04 2.017400751481e+05 1.517400752806e+05 1.000000005301e-02 9.899999999470e-01 3.986475317534e-16 7.304523276781e-18 3.906753655085e-08 7.158446134834e-10 
1.882758620690e+00 2.499999999998e-01 0.000000000000e+00 4.999999986748e+04 2.017400415223e+05 1.517400416549e+05 1.000000005301e-02 9.899999999470e-01 3.494938738302e-16 7.917591033988e-18 3.425027639459e-08 7.758513947546e-10 
1.972413793104e+00 2.499999999998e-01 0.000000000000e+00 4.999999986783e+04 2.017400124806e+05 1.517400126128e+05 1.000000005287e-02 9.899999999471e-01 2.697290194835e-16 3.798325207788e-18 2.643330521921e-08 3.721459778089e-10 
1.434482758621e+00 1.666666666667e-01 0.000000000000e+00 4.999999986770e+04 2.017402449328e+05 1.517402450651e+05 1.000000005292e-02 9.899999999471e-01 5.297742980517e-16 1.900271107025e-17 5.191826154959e-08 1.862401203196e-09 
1.524137931035e+00 1.666666666667e-01 0.000000000000e+00 4.999999986748e+04 2.017401993185e+05 1.517401994510e+05 1.000000005301e-02 9.899999999470e-01 4.999121970968e-16 1.514238348937e-17 4.899161664994e-08 1.483956208063e-09 
1.613793103449e+00 1.666666666667e-01 0.000000000000e+00 4.999999986748e+04 2.017401552932e+05 1.517401554257e+05 1.000000005301e-02 9.899999999470e-01 4.776539622639e-16 9.346424043177e-18 4.681018239744e-08 9.159513829215e-10 
1.703448275862e+00 1.666666666666e-01 0.000000000000e+00 4.999999986748e+04 2.017401136702e+05 1.517401138027e+05 1.000000005301e-02 9.899999999470e-01 4.451838449786e-16 2.896795376472e-18 4.362810436910e-08 2.838863220390e-10 
1.793103448276e+00 1.666666666666e-01 0.000000000000e+00 4.999999986748e+04 2.017400754671e+05 1.517400755996e+05 1.000000005301e-02 9.899999999470e-01 4.017775617074e-16 -2.669028094127e-18 3.937428017000e-08 -2.615651070971e-10 
1.882758620690e+00 1.666666666666e-01 0.000000000000e+00 4.999999986748e+04 2.017400416273e+05 1.517400417598e+05 1.000000005301e-02 9.899999999470e-01 3.527603553786e-16 -5.816342299787e-18 3.457039245602e-08 -5.700028661658e-10 
1.972413793104e+00 1.666666666665e-01 0.000000000000e+00 4.999999986783e+04 2.017400122139e+05 1.517400123461e+05 1.000000005287e-02 9.899999999471e-01 2.737861745893e-16 -6.378840299525e-18 2.683090731678e-08 -6.251279161295e-10 
1.434482758620e+00 8.333333333338e-02 0.000000000000e+00 4.999999986783e+04 2.017402462323e+05 1.517402463645e+05 1.000000005287e-02 9.899999999471e-01 5.337241137459e-16 1.170568870090e-17 5.230526040939e-08 1.147233929505e-09 
1.524137931034e+00 8.333333333336e-02 0.000000000000e+00 4.999999986748e+04 2.017402003074e+05 1.517402004399e+05 1.000000005301e-02 9.899999999470e-01 5.048399151946e-16 9.852344890345e-18 4.947460270995e-08 9.655315536825e-10 
1.613793103448e+00 8.333333333334e-02 0.000000000000e+00 4.999999986748e+04 2.017401557089e+05 1.517401558414e+05 1.000000005301e-02 9.899999999470e-01 4.841919447267e-16 8.372056220059e-18 4.745090589675e-08 8.204632006959e-10 
1.703448275862e+00 8.333333333332e-02 0.000000000000e+00 4.999999986748e+04 2.017401134868e+05 1.517401136193e+05 1.000000005301e-02 9.899999999470e-01 4.517623443951e-16 6.622765250685e-18 4.427279851216e-08 6.490321725436e-10 
1.793103448276e+00 8.333333333330e-02 0.000000000000e+00 4.999999986748e+04 2.017400747033e+05 1.517400748358e+05 1.000000005301e-02 9.899999999470e-01 4.067462813522e-16 5.162179720034e-18 3.986121563859e-08 5.058944299600e-10 
1.882758620690e+00 8.333333333328e-02 0.000000000000e+00 4.999999986748e+04 2.017400405530e+05 1.517400406855e+05 1.000000005301e-02 9.899999999470e-01 3.529420969261e-16 3.096038376152e-18 3.458820333273e-08 3.034122369399e-10 
1.972413793104e+00 8.333333333327e-02 0.000000000000e+00 4.999999986783e+04 2.017400114174e+05 1.517400115496e+05 1.000000005287e-02 9.899999999471e-01 2.745750421379e-16 -5.386505310068e-19 2.690821629807e-08 -5.278783761642e-11 
1.344827586206e+00 8.333333333340e-02 0.000000000000e+00 4.999999986783e+04 2.017402960100e+05 1.517402961422e+05 1.000000005287e-02 9.899999999471e-01 5.552128429495e-16 1.612911907658e-17 5.441096873758e-08 1.580565801187e-09 
1.344827586206e+00 0.000000000000e+00 0.000000000000e+00 4.999999986783e+04 2.017402970010e+05 1.517402971332e+05 1.000000005287e-02 9.899999999471e-01 5.589986689595e-16 1.189260360746e-17 5.478197940596e-08 1.165476528692e-09 
2.062068965517e+00 0.000000000000e+00 0.000000000000e+00 4.999999986783e+04 2.017399924311e+05 1.517399925632e+05 1.000000005287e-02 9.899999999471e-01 2.196535081121e-16 1.334273572550e-17 2.152608756863e-08 1.307590173817e-09 
2.062068965518e+00 8.333333333325e-02 0.000000000000e+00 4.999999986783e+04 2.017399913192e+05 1.517399914513e+05 1.000000005287e-02 9.899999999471e-01 2.241732092451e-16 -6.236092317908e-19 2.196901853748e-08 -6.111409165346e-11 
1.972413793105e+00 4.166666666665e-01 0.000000000000e+00 4.999999986799e+04 2.017400110151e+05 1.517400111471e+05 1.000000005281e-02 9.899999999472e-01 2.707764379957e-16 -2.207764432653e-19 2.653607790400e-08 -2.157577292728e-11 
1.972413793105e+00 5.000000000000e-01 0.000000000000e+00 4.999999986783e+04 2.017400122019e+05 1.517400123341e+05 1.000000005287e-02 9.899999999471e-01 2.984051658078e-16 -1.424369530793e-17 2.924376516609e-08 -1.395703408769e-09 