VARIABLES  = "X","Y","Z", "PRESSURE1", "PRESSURE2", "PRESSURE_W", "SATURATION1", SATURATION2, "VELOCITY_X1", "VELOCITY_Y1", "VELOCITY_X2", "VELOCITY_Y2"
ZONE T="0.000000000000e+00s", N=82, E=59, F=FEPOINT, ET=QUADRILATERAL
STRANDID=1, SOLUTIONTIME=0.000000000000e+00
7.172413793097e-01 0.000000000000e+00 0.000000000000e+00 5.000000000000e+04 0.000000000000e+00 -5.000000000000e+04 1.000000000000e-02 9.900000000000e-01 0.000000000000e+00 0.000000000000e+00 0.000000000000e+00 0.000000000000e+00 
8.068965517235e-01 0.000000000000e+00 0.000000000000e+00 5.000000000000e+04 0.000000000000e+00 -5.000000000000e+04 1.000000000000e-02 9.900000000000e-01 0.000000000000e+00 0.000000000000e+00 0.000000000000e+00 0.000000000000e+00 
8.965517241372e-01 0.000000000000e+00 0.000000000000e+00 5.000000000000e+04 0.000000000000e+00 -5.000000000000e+04 1.000000000000e-02 9.900000000000e-01 0.000000000000e+00 0.000000000000e+00 0.000000000000e+00 0.000000000000e+00 
9.862068965510e-01 0.000000000000e+00 0.000000000000e+00 5.000000000000e+04 0.000000000000e+00 -5.000000000000e+04 1.000000000000e-02 9.900000000000e-01 0.000000000000e+00 0.000000000000e+00 0.000000000000e+00 0.000000000000e+00 
1.075862068965e+00 0.000000000000e+00 0.000000000000e+00 5.000000000000e+04 0.000000000000e+00 -5.000000000000e+04 1.000000000000e-02 9.900000000000e-01 0.000000000000e+00 0.000000000000e+00 0.000000000000e+00 0.000000000000e+00 
1.165517241378e+00 0.000000000000e+00 0.000000000000e+00 5.000000000000e+04 0.000000000000e+00 -5.000000000000e+04 1.000000000000e-02 9.900000000000e-01 0.000000000000e+00 0.000000000000e+00 0.000000000000e+00 0.000000000000e+00 
1.255172413792e+00 0.000000000000e+00 0.000000000000e+00 5.000000000000e+04 0.000000000000e+00 -5.000000000000e+04 1.000000000000e-02 9.900000000000e-01 0.000000000000e+00 0.000000000000e+00 0.000000000000e+00 0.000000000000e+00 
1.344827586206e+00 0.000000000000e+00 0.000000000000e+00 5.000000000000e+04 0.000000000000e+00 -5.000000000000e+04 1.000000000000e-02 9.900000000000e-01 0.000000000000e+00 0.000000000000e+00 0.000000000000e+00 0.000000000000e+00 
1.255172413794e+00 5.000000000000e-01 0.000000000000e+00 5.000000000000e+04 0.000000000000e+00 -5.000000000000e+04 1.000000000000e-02 9.900000000000e-01 0.000000000000e+00 0.000000000000e+00 0.000000000000e+00 0.000000000000e+00 
1.165517241380e+00 5.000000000000e-01 0.000000000000e+00 5.000000000000e+04 0.000000000000e+00 -5.000000000000e+04 1.000000000000e-02 9.900000000000e-01 0.000000000000e+00 0.000000000000e+00 0.000000000000e+00 0.000000000000e+00 
1.075862068966e+00 5.000000000000e-01 0.000000000000e+00 5.000000000000e+04 0.000000000000e+00 -5.000000000000e+04 1.000000000000e-02 9.900000000000e-01 0.000000000000e+00 0.000000000000e+00 0.000000000000e+00 0.000000000000e+00 
9.862068965524e-01 5.000000000000e-01 0.000000000000e+00 5.000000000000e+04 0.000000000000e+00 -5.000000000000e+04 1.000000000000e-02 9.900000000000e-01 0.000000000000e+00 0.000000000000e+00 0.000000000000e+00 0.000000000000e+00 
8.965517241385e-01 5.000000000000e-01 0.000000000000e+00 5.000000000000e+04 0.000000000000e+00 -5.000000000000e+04 1.000000000000e-02 9.900000000000e-01 0.000000000000e+00 0.000000000000e+00 0.000000000000e+00 0.000000000000e+00 
8.068965517245e-01 5.000000000000e-01 0.000000000000e+00 5.000000000000e+04 0.000000000000e+00 -5.000000000000e+04 1.000000000000e-02 9.900000000000e-01 0.000000000000e+00 0.000000000000e+00 0.000000000000e+00 0.000000000000e+00 
8.068965517243e-01 4.166666666667e-01 0.000000000000e+00 5.000000000000e+04 0.000000000000e+00 -5.000000000000e+04 1.000000000000e-02 9.900000000000e-01 0.000000000000e+00 0.000000000000e+00 0.000000000000e+00 0.000000000000e+00 
8.965517241383e-01 4.166666666667e-01 0.000000000000e+00 5.000000000000e+04 0.000000000000e+00 -5.000000000000e+04 1.000000000000e-02 9.900000000000e-01 0.000000000000e+00 0.000000000000e+00 0.000000000000e+00 0.000000000000e+00 
9.862068965522e-01 4.166666666667e-01 0.000000000000e+00 5.000000000000e+04 0.000000000000e+00 -5.000000000000e+04 1.000000000000e-02 9.900000000000e-01 0.000000000000e+00 0.000000000000e+00 0.000000000000e+00 0.000000000000e+00 
1.075862068966e+00 4.166666666666e-01 0.000000000000e+00 5.000000000000e+04 0.000000000000e+00 -5.000000000000e+04 1.000000000000e-02 9.900000000000e-01 0.000000000000e+00 0.000000000000e+00 0.000000000000e+00 0.000000000000e+00 
1.165517241380e+00 4.166666666666e-01 0.000000000000e+00 5.000000000000e+04 0.000000000000e+00 -5.000000000000e+04 1.000000000000e-02 9.900000000000e-01 0.000000000000e+00 0.000000000000e+00 0.000000000000e+00 0.000000000000e+00 
1.255172413794e+00 4.166666666666e-01 0.000000000000e+00 5.000000000000e+04 0.000000000000e+00 -5.000000000000e+04 1.000000000000e-02 9.900000000000e-01 0.000000000000e+00 0.000000000000e+00 0.000000000000e+00 0.000000000000e+00 
8.068965517241e-01 3.333333333335e-01 0.000000000000e+00 5.000000000000e+04 0.000000000000e+00 -5.000000000000e+04 1.000000000000e-02 9.900000000000e-01 0.000000000000e+00 0.000000000000e+00 0.000000000000e+00 0.000000000000e+00 
8.965517241380e-01 3.333333333334e-01 0.000000000000e+00 5.000000000000e+04 0.000000000000e+00 -5.000000000000e+04 1.000000000000e-02 9.900000000000e-01 0.000000000000e+00 0.000000000000e+00 0.000000000000e+00 0.000000000000e+00 
9.862068965520e-01 3.333333333334e-01 0.000000000000e+00 5.000000000000e+04 0.000000000000e+00 -5.000000000000e+04 1.000000000000e-02 9.900000000000e-01 0.000000000000e+00 0.000000000000e+00 0.000000000000e+00 0.000000000000e+00 
1.075862068966e+00 3.333333333334e-01 0.000000000000e+00 5.000000000000e+04 0.000000000000e+00 -5.000000000000e+04 1.000000000000e-02 9.900000000000e-01 0.000000000000e+00 0.000000000000e+00 0.000000000000e+00 0.000000000000e+00 
1.165517241380e+00 3.333333333334e-01 0.000000000000e+00 5.000000000000e+04 0.000000000000e+00 -5.000000000000e+04 1.000000000000e-02 9.900000000000e-01 0.000000000000e+00 0.000000000000e+00 0.000000000000e+00 0.000000000000e+00 
1.255172413794e+00 3.333333333333e-01 0.000000000000e+00 5.000000000000e+04 0.000000000000e+00 -5.000000000000e+04 1.000000000000e-02 9.900000000000e-01 0.000000000000e+00 0.000000000000e+00 0.000000000000e+00 0.000000000000e+00 
6.275862068963e-01 2.500000000004e-01 0.000000000000e+00 5.000000000000e+04 0.000000000000e+00 -5.000000000000e+04 1.000000000000e-02 9.900000000000e-01 0.000000000000e+00 0.000000000000e+00 0.000000000000e+00 0.000000000000e+00 
7.172413793101e-01 2.500000000004e-01 0.000000000000e+00 5.000000000000e+04 0.000000000000e+00 -5.000000000000e+04 1.000000000000e-02 9.900000000000e-01 0.000000000000e+00 0.000000000000e+00 0.000000000000e+00 0.000000000000e+00 
8.068965517240e-01 2.500000000003e-01 0.000000000000e+00 5.000000000000e+04 0.000000000000e+00 -5.000000000000e+04 1.000000000000e-02 9.900000000000e-01 0.000000000000e+00 0.000000000000e+00 0.000000000000e+00 0.000000000000e+00 
8.965517241378e-01 2.500000000003e-01 0.000000000000e+00 5.000000000000e+04 0.000000000000e+00 -5.000000000000e+04 1.000000000000e-02 9.900000000000e-01 0.000000000000e+00 0.000000000000e+00 0.000000000000e+00 0.000000000000e+00 
9.862068965517e-01 2.500000000002e-01 0.000000000000e+00 5.000000000000e+04 0.000000000000e+00 -5.000000000000e+04 1.000000000000e-02 9.900000000000e-01 0.000000000000e+00 0.000000000000e+00 0.000000000000e+00 0.000000000000e+00 
1.075862068966e+00 2.500000000002e-01 0.000000000000e+00 5.000000000000e+04 0.000000000000e+00 -5.000000000000e+04 1.000000000000e-02 9.900000000000e-01 0.000000000000e+00 0.000000000000e+00 0.000000000000e+00 0.000000000000e+00 
1.165517241379e+00 2.500000000002e-01 0.000000000000e+00 5.000000000000e+04 0.000000000000e+00 -5.000000000000e+04 1.000000000000e-02 9.900000000000e-01 0.000000000000e+00 0.000000000000e+00 0.000000000000e+00 0.000000000000e+00 
1.255172413793e+00 2.500000000001e-01 0.000000000000e+00 5.000000000000e+04 0.000000000000e+00 -5.000000000000e+04 1.000000000000e-02 9.900000000000e-01 0.000000000000e+00 0.000000000000e+00 0.000000000000e+00 0.000000000000e+00 
2.689655172412e-01 1.666666666671e-01 0.000000000000e+00 5.000000000000e+04 0.000000000000e+00 -5.000000000000e+04 1.000000000000e-02 9.900000000000e-01 0.000000000000e+00 0.000000000000e+00 0.000000000000e+00 0.000000000000e+00 
3.586206896549e-01 1.666666666671e-01 0.000000000000e+00 5.000000000000e+04 0.000000000000e+00 -5.000000000000e+04 1.000000000000e-02 9.900000000000e-01 0.000000000000e+00 0.000000000000e+00 0.000000000000e+00 0.000000000000e+00 
6.275862068961e-01 1.666666666670e-01 0.000000000000e+00 5.000000000000e+04 0.000000000000e+00 -5.000000000000e+04 1.000000000000e-02 9.900000000000e-01 0.000000000000e+00 0.000000000000e+00 0.000000000000e+00 0.000000000000e+00 
7.172413793100e-01 1.666666666670e-01 0.000000000000e+00 5.000000000000e+04 0.000000000000e+00 -5.000000000000e+04 1.000000000000e-02 9.900000000000e-01 0.000000000000e+00 0.000000000000e+00 0.000000000000e+00 0.000000000000e+00 
8.068965517238e-01 1.666666666670e-01 0.000000000000e+00 5.000000000000e+04 0.000000000000e+00 -5.000000000000e+04 1.000000000000e-02 9.900000000000e-01 0.000000000000e+00 0.000000000000e+00 0.000000000000e+00 0.000000000000e+00 
8.965517241376e-01 1.666666666669e-01 0.000000000000e+00 5.000000000000e+04 0.000000000000e+00 -5.000000000000e+04 1.000000000000e-02 9.900000000000e-01 0.000000000000e+00 0.000000000000e+00 0.000000000000e+00 0.000000000000e+00 
9.862068965515e-01 1.666666666669e-01 0.000000000000e+00 5.000000000000e+04 0.000000000000e+00 -5.000000000000e+04 1.000000000000e-02 9.900000000000e-01 0.000000000000e+00 0.000000000000e+00 0.000000000000e+00 0.000000000000e+00 
1.075862068965e+00 1.666666666669e-01 0.000000000000e+00 5.000000000000e+04 0.000000000000e+00 -5.000000000000e+04 1.000000000000e-02 9.900000000000e-01 0.000000000000e+00 0.000000000000e+00 0.000000000000e+00 0.000000000000e+00 
1.165517241379e+00 1.666666666668e-01 0.000000000000e+00 5.000000000000e+04 0.000000000000e+00 -5.000000000000e+04 1.000000000000e-02 9.900000000000e-01 0.000000000000e+00 0.000000000000e+00 0.000000000000e+00 0.000000000000e+00 
1.255172413793e+00 1.666666666668e-01 0.000000000000e+00 5.000000000000e+04 0.000000000000e+00 -5.000000000000e+04 1.000000000000e-02 9.900000000000e-01 0.000000000000e+00 0.000000000000e+00 0.000000000000e+00 0.000000000000e+00 
1.344827586207e+00 1.666666666668e-01 0.000000000000e+00 5.000000000000e+04 0.000000000000e+00 -5.000000000000e+04 1.000000000000e-02 9.900000000000e-01 0.000000000000e+00 0.000000000000e+00 0.000000000000e+00 0.000000000000e+00 
6.275862068961e-01 8.333333333355e-02 0.000000000000e+00 5.000000000000e+04 0.000000000000e+00 -5.000000000000e+04 1.000000000000e-02 9.900000000000e-01 0.000000000000e+00 0.000000000000e+00 0.000000000000e+00 0.000000000000e+00 
7.172413793098e-01 8.333333333353e-02 0.000000000000e+00 5.000000000000e+04 0.000000000000e+00 -5.000000000000e+04 1.000000000000e-02 9.900000000000e-01 0.000000000000e+00 0.000000000000e+00 0.000000000000e+00 0.000000000000e+00 
8.068965517236e-01 8.333333333351e-02 0.000000000000e+00 5.000000000000e+04 0.000000000000e+00 -5.000000000000e+04 1.000000000000e-02 9.900000000000e-01 0.000000000000e+00 0.000000000000e+00 0.000000000000e+00 0.000000000000e+00 
8.965517241374e-01 8.333333333349e-02 0.000000000000e+00 5.000000000000e+04 0.000000000000e+00 -5.000000000000e+04 1.000000000000e-02 9.900000000000e-01 0.000000000000e+00 0.000000000000e+00 0.000000000000e+00 0.000000000000e+00 
9.862068965512e-01 8.333333333347e-02 0.000000000000e+00 5.000000000000e+04 0.000000000000e+00 -5.000000000000e+04 1.000000000000e-02 9.900000000000e-01 0.000000000000e+00 0.000000000000e+00 0.000000000000e+00 0.000000000000e+00 
1.075862068965e+00 8.333333333345e-02 0.000000000000e+00 5.000000000000e+04 0.000000000000e+00 -5.000000000000e+04 1.000000000000e-02 9.900000000000e-01 0.000000000000e+00 0.000000000000e+00 0.000000000000e+00 0.000000000000e+00 
1.165517241379e+00 8.333333333344e-02 0.000000000000e+00 5.000000000000e+04 0.000000000000e+00 -5.000000000000e+04 1.000000000000e-02 9.900000000000e-01 0.000000000000e+00 0.000000000000e+00 0.000000000000e+00 0.000000000000e+00 
1.255172413793e+00 8.333333333342e-02 0.000000000000e+00 5.000000000000e+04 0.000000000000e+00 -5.000000000000e+04 1.000000000000e-02 9.900000000000e-01 0.000000000000e+00 0.000000000000e+00 0.000000000000e+00 0.000000000000e+00 
1.344827586206e+00 8.333333333340e-02 0.000000000000e+00 5.000000000000e+04 0.000000000000e+00 -5.000000000000e+04 1.000000000000e-02 9.900000000000e-01 0.000000000000e+00 0.000000000000e+00 0.000000000000e+00 0.000000000000e+00 
6.275862068960e-01 0.000000000000e+00 0.000000000000e+00 5.000000000000e+04 0.000000000000e+00 -5.000000000000e+04 1.000000000000e-02 9.900000000000e-01 0.000000000000e+00 0.000000000000e+00 0.000000000000e+00 0.000000000000e+00 
1.434482758620e+00 0.000000000000e+00 0.000000000000e+00 5.000000000000e+04 0.000000000000e+00 -5.000000000000e+04 1.000000000000e-02 9.900000000000e-01 0.000000000000e+00 0.000000000000e+00 0.000000000000e+00 0.000000000000e+00 
1.434482758620e+00 8.333333333338e-02 0.000000000000e+00 5.000000000000e+04 0.000000000000e+00 -5.000000000000e+04 1.000000000000e-02 9.900000000000e-01 0.000000000000e+00 0.000000000000e+00 0.000000000000e+00 0.000000000000e+00 
1.344827586208e+00 4.166666666666e-01 0.000000000000e+00 5.000000000000e+04 0.000000000000e+00 -5.000000000000e+04 1.000000000000e-02 9.900000000000e-01 0.000000000000e+00 0.000000000000e+00 0.000000000000e+00 0.000000000000e+00 
1.344827586208e+00 5.000000000000e-01 0.000000000000e+00 5.000000000000e+04 0.000000000000e+00 -5.000000000000e+04 1.000000000000e-02 9.900000000000e-01 0.000000000000e+00 0.000000000000e+00 0.000000000000e+00 0.000000000000e+00 
7.172413793105e-01 5.000000000000e-01 0.000000000000e+00 5.000000000000e+04 0.000000000000e+00 -5.000000000000e+04 1.000000000000e-02 9.900000000000e-01 0.000000000000e+00 0.000000000000e+00 0.000000000000e+00 0.000000000000e+00 
7.172413793104e-01 4.166666666667e-01 0.000000000000e+00 5.000000000000e+04 0.000000000000e+00 -5.000000000000e+04 1.000000000000e-02 9.900000000000e-01 0.000000000000e+00 0.000000000000e+00 0.000000000000e+00 0.000000000000e+00 
7.172413793102e-01 3.333333333335e-01 0.000000000000e+00 5.000000000000e+04 0.000000000000e+00 -5.000000000000e+04 1.000000000000e-02 9.900000000000e-01 0.000000000000e+00 0.000000000000e+00 0.000000000000e+00 0.000000000000e+00 
1.344827586208e+00 3.333333333333e-01 0.000000000000e+00 5.000000000000e+04 0.000000000000e+00 -5.000000000000e+04 1.000000000000e-02 9.900000000000e-01 0.000000000000e+00 0.000000000000e+00 0.000000000000e+00 0.000000000000e+00 
1.344827586207e+00 2.500000000001e-01 0.000000000000e+00 5.000000000000e+04 0.000000000000e+00 -5.000000000000e+04 1.000000000000e-02 9.900000000000e-01 0.000000000000e+00 0.000000000000e+00 0.000000000000e+00 0.000000000000e+00 
5.379310344826e-01 3.333333333335e-01 0.000000000000e+00 5.000000000000e+04 0.000000000000e+00 -5.000000000000e+04 1.000000000000e-02 9.900000000000e-01 0.000000000000e+00 0.000000000000e+00 0.000000000000e+00 0.000000000000e+00 
5.379310344825e-01 2.500000000004e-01 0.000000000000e+00 5.000000000000e+04 0.000000000000e+00 -5.000000000000e+04 1.000000000000e-02 9.900000000000e-01 0.000000000000e+00 0.000000000000e+00 0.000000000000e+00 0.000000000000e+00 
6.275862068964e-01 3.333333333335e-01 0.000000000000e+00 5.000000000000e+04 0.000000000000e+00 -5.000000000000e+04 1.000000000000e-02 9.900000000000e-01 0.000000000000e+00 0.000000000000e+00 0.000000000000e+00 0.000000000000e+00 
5.379310344824e-01 1.666666666670e-01 0.000000000000e+00 5.000000000000e+04 0.000000000000e+00 -5.000000000000e+04 1.000000000000e-02 9.900000000000e-01 0.000000000000e+00 0.000000000000e+00 0.000000000000e+00 0.000000000000e+00 
1.793103448275e-01 2.500000000006e-01 0.000000000000e+00 5.000000000000e+04 0.000000000000e+00 -5.000000000000e+04 1.000000000000e-02 9.900000000000e-01 0.000000000000e+00 0.000000000000e+00 0.000000000000e+00 0.000000000000e+00 
1.793103448275e-01 1.666666666672e-01 0.000000000000e+00 5.000000000000e+04 0.000000000000e+00 -5.000000000000e+04 1.000000000000e-02 9.900000000000e-01 0.000000000000e+00 0.000000000000e+00 0.000000000000e+00 0.000000000000e+00 
2.689655172413e-01 2.500000000006e-01 0.000000000000e+00 5.000000000000e+04 0.000000000000e+00 -5.000000000000e+04 1.000000000000e-02 9.900000000000e-01 0.000000000000e+00 0.000000000000e+00 0.000000000000e+00 0.000000000000e+00 
3.586206896550e-01 2.500000000005e-01 0.000000000000e+00 5.000000000000e+04 0.000000000000e+00 -5.000000000000e+04 1.000000000000e-02 9.900000000000e-01 0.000000000000e+00 0.000000000000e+00 0.000000000000e+00 0.000000000000e+00 
1.793103448274e-01 8.333333333364e-02 0.000000000000e+00 5.000000000000e+04 0.000000000000e+00 -5.000000000000e+04 1.000000000000e-02 9.900000000000e-01 0.000000000000e+00 0.000000000000e+00 0.000000000000e+00 0.000000000000e+00 
2.689655172412e-01 8.333333333362e-02 0.000000000000e+00 5.000000000000e+04 0.000000000000e+00 -5.000000000000e+04 1.000000000000e-02 9.900000000000e-01 0.000000000000e+00 0.000000000000e+00 0.000000000000e+00 0.000000000000e+00 
3.586206896549e-01 8.333333333360e-02 0.000000000000e+00 5.000000000000e+04 0.000000000000e+00 -5.000000000000e+04 1.000000000000e-02 9.900000000000e-01 0.000000000000e+00 0.000000000000e+00 0.000000000000e+00 0.000000000000e+00 
4.482758620687e-01 1.666666666671e-01 0.000000000000e+00 5.000000000000e+04 0.000000000000e+00 -5.000000000000e+04 1.000000000000e-02 9.900000000000e-01 0.000000000000e+00 0.000000000000e+00 0.000000000000e+00 0.000000000000e+00 
4.482758620688e-01 2.500000000005e-01 0.000000000000e+00 5.000000000000e+04 0.000000000000e+00 -5.000000000000e+04 1.000000000000e-02 9.900000000000e-01 0.000000000000e+00 0.000000000000e+00 0.000000000000e+00 0.000000000000e+00 
4.482758620686e-01 8.333333333359e-02 0.000000000000e+00 5.000000000000e+04 0.000000000000e+00 -5.000000000000e+04 1.000000000000e-02 9.900000000000e-01 0.000000000000e+00 0.000000000000e+00 0.000000000000e+00 0.000000000000e+00 
5.379310344823e-01 8.333333333357e-02 0.000000000000e+00 5.000000000000e+04 0.000000000000e+00 -5.000000000000e+04 1.000000000000e-02 9.900000000000e-01 0.000000000000e+00 0.000000000000e+00 0.000000000000e+00 0.000000000000e+00 
1.434482758621e+00 1.666666666667e-01 0.000000000000e+00 5.000000000000e+04 0.000000000000e+00 -5.000000000000e+04 1.000000000000e-02 9.900000000000e-01 0.000000000000e+00 0.000000000000e+00 0.000000000000e+00 0.000000000000e+00 
1.434482758621e+00 2.500000000000e-01 0.000000000000e+00 5.000000000000e+04 0.000000000000e+00 -5.000000000000e+04 1.000000000000e-02 9.900000000000e-01 0.000000000000e+00 0.000000000000e+00 0.000000000000e+00 0.000000000000e+00 
5.379310344822e-01 0.000000000000e+00 0.000000000000e+00 5.000000000000e+04 0.000000000000e+00 -5.000000000000e+04 1.000000000000e-02 9.900000000000e-01 0.000000000000e+00 0.000000000000e+00 0.000000000000e+00 0.000000000000e+00 
47  1  2  48  
48  2  3  49  
49  3  4  50  
50  4  5  51  
51  5  6  52  
52  6  7  53  
53  7  8  54  
10  19  20  9  
11  18  19  10  
12  17  18  11  
13  16  17  12  
14  15  16  13  
15  21  22  16  
16  22  23  17  
17  23  24  18  
18  24  25  19  
19  25  26  20  
21  29  30  22  
22  30  31  23  
23  31  32  24  
24  32  33  25  
25  33  34  26  
27  37  38  28  
28  38  39  29  
29  39  40  30  
30  40  41  31  
31  41  42  32  
32  42  43  33  
33  43  44  34  
37  46  47  38  
38  47  48  39  
39  48  49  40  
40  49  50  41  
41  50  51  42  
42  51  52  43  
43  52  53  44  
44  53  54  45  
46  55  1  47  
54  8  56  57  
9  20  58  59  
60  61  15  14  
61  62  21  15  
20  26  63  58  
62  28  29  21  
26  34  64  63  
65  66  27  67  
67  27  28  62  
66  68  37  27  
34  44  45  64  
69  70  35  71  
71  35  36  72  
70  73  74  35  
35  74  75  36  
72  36  76  77  
36  75  78  76  
68  79  46  37  
64  45  80  81  
45  54  57  80  
79  82  55  46  
VARIABLES  = "X","Y","Z", "PRESSURE1", "PRESSURE2", "PRESSURE_W", "SATURATION1", SATURATION2, "VELOCITY_X1", "VELOCITY_Y1", "VELOCITY_X2", "VELOCITY_Y2"
ZONE T="5.000000000000e+02s", N=82, E=59, F=FEPOINT, ET=QUADRILATERAL
STRANDID=1, SOLUTIONTIME=5.000000000000e+02
7.172413793097e-01 0.000000000000e+00 0.000000000000e+00 4.999999986829e+04 2.017407398879e+05 1.517407400196e+05 1.000000005268e-02 9.899999999473e-01 8.894910884761e-16 -2.812915677231e-18 8.717066072787e-08 -2.751886395074e-10 
8.068965517235e-01 0.000000000000e+00 0.000000000000e+00 4.999999986738e+04 2.017406638690e+05 1.517406640017e+05 1.000000005305e-02 9.899999999470e-01 8.268689913120e-16 1.822924215026e-17 8.103371370050e-08 1.786026026351e-09 
8.965517241372e-01 0.000000000000e+00 0.000000000000e+00 4.999999986758e+04 2.017405916210e+05 1.517405917534e+05 1.000000005297e-02 9.899999999470e-01 7.804491735435e-16 1.970532918408e-17 7.648411958648e-08 1.931093796137e-09 
9.862068965510e-01 0.000000000000e+00 0.000000000000e+00 4.999999986748e+04 2.017405239265e+05 1.517405240591e+05 1.000000005301e-02 9.899999999470e-01 7.287246266643e-16 1.960227796008e-17 7.141521108082e-08 1.921026617178e-09 
1.075862068965e+00 0.000000000000e+00 0.000000000000e+00 4.999999986748e+04 2.017404609531e+05 1.517404610856e+05 1.000000005301e-02 9.899999999470e-01 6.772863419482e-16 1.741650131192e-17 6.637419456780e-08 1.706820652156e-09 
1.165517241378e+00 0.000000000000e+00 0.000000000000e+00 4.999999986748e+04 2.017404024821e+05 1.517404026146e+05 1.000000005301e-02 9.899999999470e-01 6.298324233725e-16 1.614825496253e-17 6.172370128908e-08 1.582532306835e-09 
1.255172413792e+00 0.000000000000e+00 0.000000000000e+00 4.999999986748e+04 2.017403480176e+05 1.517403481501e+05 1.000000005301e-02 9.899999999470e-01 5.882616486119e-16 1.469219465640e-17 5.764956583286e-08 1.439838362226e-09 
1.344827586206e+00 0.000000000000e+00 0.000000000000e+00 4.999999986783e+04 2.017402970010e+05 1.517402971332e+05 1.000000005287e-02 9.899999999471e-01 5.640167098828e-16 1.189260366608e-17 5.527355706430e-08 1.165476540787e-09 
1.255172413794e+00 5.000000000000e-01 0.000000000000e+00 4.999999986783e+04 2.017403392689e+05 1.517403394011e+05 1.000000005287e-02 9.899999999471e-01 6.157223266237e-16 -7.158324025250e-18 6.034071705210e-08 -7.015167601791e-10 
1.165517241380e+00 5.000000000000e-01 0.000000000000e+00 4.999999986748e+04 2.017403958195e+05 1.517403959520e+05 1.000000005301e-02 9.899999999470e-01 6.480553486515e-16 -1.085824915462e-17 6.350935986155e-08 -1.064110202959e-09 
1.075862068966e+00 5.000000000000e-01 0.000000000000e+00 4.999999986748e+04 2.017404554716e+05 1.517404556041e+05 1.000000005301e-02 9.899999999470e-01 6.863193827203e-16 -1.235341829504e-17 6.725943486588e-08 -1.210636932188e-09 
9.862068965524e-01 5.000000000000e-01 0.000000000000e+00 4.999999986748e+04 2.017405188836e+05 1.517405190161e+05 1.000000005301e-02 9.899999999470e-01 7.264722101379e-16 -1.129827541586e-17 7.119441989757e-08 -1.107233460436e-09 
8.965517241385e-01 5.000000000000e-01 0.000000000000e+00 4.999999986748e+04 2.017405857356e+05 1.517405858681e+05 1.000000005301e-02 9.899999999470e-01 7.609018511567e-16 -5.631609603547e-18 7.456872315882e-08 -5.518994200970e-10 
8.068965517245e-01 5.000000000000e-01 0.000000000000e+00 4.999999986783e+04 2.017406553215e+05 1.517406554537e+05 1.000000005287e-02 9.899999999471e-01 8.313244428742e-16 -4.619914632505e-19 8.147015063247e-08 -4.527527129921e-11 
8.068965517243e-01 4.166666666667e-01 0.000000000000e+00 4.999999986783e+04 2.017406552830e+05 1.517406554152e+05 1.000000005287e-02 9.899999999471e-01 8.298787054886e-16 1.520538369223e-17 8.132846843027e-08 1.490056050469e-09 
8.965517241383e-01 4.166666666667e-01 0.000000000000e+00 4.999999986748e+04 2.017405852662e+05 1.517405853988e+05 1.000000005301e-02 9.899999999470e-01 7.659379444900e-16 8.167847376193e-18 7.506226141881e-08 8.004505906346e-10 
9.862068965522e-01 4.166666666667e-01 0.000000000000e+00 4.999999986748e+04 2.017405179421e+05 1.517405180746e+05 1.000000005301e-02 9.899999999470e-01 7.295961277044e-16 4.919631701178e-18 7.150056396887e-08 4.821246000075e-10 
1.075862068966e+00 4.166666666666e-01 0.000000000000e+00 4.999999986748e+04 2.017404544421e+05 1.517404545746e+05 1.000000005301e-02 9.899999999470e-01 6.861148831867e-16 4.818834030126e-18 6.723939360691e-08 4.722467506506e-10 
1.165517241380e+00 4.166666666666e-01 0.000000000000e+00 4.999999986748e+04 2.017403949146e+05 1.517403950471e+05 1.000000005301e-02 9.899999999470e-01 6.456409616999e-16 6.489473373557e-18 6.327274951225e-08 6.359698176274e-10 
1.255172413794e+00 4.166666666666e-01 0.000000000000e+00 4.999999986783e+04 2.017403386724e+05 1.517403388045e+05 1.000000005287e-02 9.899999999471e-01 6.080351504131e-16 9.523957047441e-18 5.958737240335e-08 9.333497974218e-10 
8.068965517241e-01 3.333333333335e-01 0.000000000000e+00 4.999999986770e+04 2.017406578556e+05 1.517406579879e+05 1.000000005292e-02 9.899999999471e-01 8.266121985196e-16 2.964052389923e-17 8.100850313543e-08 2.904644906849e-09 
8.965517241380e-01 3.333333333334e-01 0.000000000000e+00 4.999999986748e+04 2.017405870969e+05 1.517405872294e+05 1.000000005301e-02 9.899999999470e-01 7.704623253079e-16 2.154695623469e-17 7.550558246290e-08 2.111606099291e-09 
9.862068965520e-01 3.333333333334e-01 0.000000000000e+00 4.999999986748e+04 2.017405197036e+05 1.517405198361e+05 1.000000005301e-02 9.899999999470e-01 7.295850755204e-16 2.029521851366e-17 7.149948116649e-08 1.988935483008e-09 
1.075862068966e+00 3.333333333334e-01 0.000000000000e+00 4.999999986748e+04 2.017404562747e+05 1.517404564072e+05 1.000000005301e-02 9.899999999470e-01 6.848602349489e-16 2.177017901599e-17 6.711643767679e-08 2.133481624222e-09 
1.165517241380e+00 3.333333333334e-01 0.000000000000e+00 4.999999986748e+04 2.017403969010e+05 1.517403970336e+05 1.000000005301e-02 9.899999999470e-01 6.436819965705e-16 2.441389254767e-17 6.308077049271e-08 2.392566370806e-09 
1.255172413794e+00 3.333333333333e-01 0.000000000000e+00 4.999999986783e+04 2.017403408562e+05 1.517403409884e+05 1.000000005287e-02 9.899999999471e-01 6.089168549320e-16 2.893793623256e-17 5.967378007721e-08 2.835849247936e-09 
6.275862068963e-01 2.500000000004e-01 0.000000000000e+00 4.999999986811e+04 2.017408189658e+05 1.517408190977e+05 1.000000005276e-02 9.899999999472e-01 9.519337721387e-16 1.948266140314e-17 9.327568965729e-08 1.909346262687e-09 
7.172413793101e-01 2.500000000004e-01 0.000000000000e+00 4.999999986776e+04 2.017407368875e+05 1.517407370198e+05 1.000000005290e-02 9.899999999471e-01 8.852943678745e-16 2.767454121416e-17 8.675929799462e-08 2.711739223309e-09 
8.068965517240e-01 2.500000000003e-01 0.000000000000e+00 4.999999986761e+04 2.017406602229e+05 1.517406603553e+05 1.000000005296e-02 9.899999999470e-01 8.255510011265e-16 2.780526056421e-17 8.090431347662e-08 2.724789079021e-09 
8.965517241378e-01 2.500000000003e-01 0.000000000000e+00 4.999999986748e+04 2.017405888574e+05 1.517405889899e+05 1.000000005301e-02 9.899999999470e-01 7.746242856243e-16 1.760855222984e-17 7.591340149475e-08 1.725641556564e-09 
9.862068965517e-01 2.500000000002e-01 0.000000000000e+00 4.999999986748e+04 2.017405213246e+05 1.517405214572e+05 1.000000005301e-02 9.899999999470e-01 7.293886452146e-16 1.611743882279e-17 7.148023094292e-08 1.579512282643e-09 
1.075862068966e+00 2.500000000002e-01 0.000000000000e+00 4.999999986748e+04 2.017404580705e+05 1.517404582030e+05 1.000000005301e-02 9.899999999470e-01 6.822866288246e-16 1.823479528329e-17 6.686422391024e-08 1.787013921131e-09 
1.165517241379e+00 2.500000000002e-01 0.000000000000e+00 4.999999986748e+04 2.017403989836e+05 1.517403991161e+05 1.000000005301e-02 9.899999999470e-01 6.389786234103e-16 2.197246569849e-17 6.261990777900e-08 2.153306019399e-09 
1.255172413793e+00 2.500000000001e-01 0.000000000000e+00 4.999999986770e+04 2.017403434952e+05 1.517403436275e+05 1.000000005292e-02 9.899999999471e-01 6.077953742351e-16 2.914369353035e-17 5.956379043523e-08 2.855955533850e-09 
2.689655172412e-01 1.666666666671e-01 0.000000000000e+00 8.670749493189e+03 2.017335269772e+05 1.930627774840e+05 2.574007332740e-01 7.425992667260e-01 2.248847379405e-05 1.340242105025e-11 -2.853134412567e-05 6.602627288037e-10 
3.586206896549e-01 1.666666666671e-01 0.000000000000e+00 4.114040757764e+04 2.017410895736e+05 1.606006819960e+05 5.536150147287e-03 9.944638498527e-01 -1.923649832598e-06 -1.043625419157e-13 -4.193227690403e-06 1.692890384274e-09 
6.275862068961e-01 1.666666666670e-01 0.000000000000e+00 4.999999986783e+04 2.017408220949e+05 1.517408222271e+05 1.000000005287e-02 9.899999999471e-01 9.437872100537e-16 2.291896735095e-17 9.247754679597e-08 2.246063087614e-09 
7.172413793100e-01 1.666666666670e-01 0.000000000000e+00 4.999999986748e+04 2.017407399294e+05 1.517407400619e+05 1.000000005301e-02 9.899999999470e-01 8.901042756048e-16 1.940554296482e-17 8.723058548311e-08 1.901821326734e-09 
8.068965517238e-01 1.666666666670e-01 0.000000000000e+00 4.999999986748e+04 2.017406624896e+05 1.517406626222e+05 1.000000005301e-02 9.899999999470e-01 8.359684062956e-16 1.276354973673e-17 8.192506828342e-08 1.250920445755e-09 
8.965517241376e-01 1.666666666669e-01 0.000000000000e+00 4.999999986748e+04 2.017405900316e+05 1.517405901641e+05 1.000000005301e-02 9.899999999470e-01 7.813260055248e-16 6.728444595376e-18 7.657010253715e-08 6.594632734277e-10 
9.862068965515e-01 1.666666666669e-01 0.000000000000e+00 4.999999986748e+04 2.017405223898e+05 1.517405225223e+05 1.000000005301e-02 9.899999999470e-01 7.290029902308e-16 5.810255888878e-18 7.144243632163e-08 5.694061891422e-10 