VARIABLES  = "X","Y","Z", "PRESSURE1", "PRESSURE2", "PRESSURE_W", "SATURATION1", SATURATION2, "VELOCITY_X1", "VELOCITY_Y1", "VELOCITY_X2", "VELOCITY_Y2"
ZONE T="0.000000000000e+00s", N=70, E=53, F=FEPOINT, ET=QUADRILATERAL
STRANDID=1, SOLUTIONTIME=0.000000000000e+00
8.068965517235e-01 0.000000000000e+00 0.000000000000e+00 5.000000000000e+04 0.000000000000e+00 -5.000000000000e+04 1.000000000000e-02 9.900000000000e-01 0.000000000000e+00 0.000000000000e+00 0.000000000000e+00 0.000000000000e+00 
8.965517241372e-01 0.000000000000e+00 0.000000000000e+00 5.000000000000e+04 0.000000000000e+00 -5.000000000000e+04 1.000000000000e-02 9.900000000000e-01 0.000000000000e+00 0.000000000000e+00 0.000000000000e+00 0.000000000000e+00 
9.862068965510e-01 0.000000000000e+00 0.000000000000e+00 5.000000000000e+04 0.000000000000e+00 -5.000000000000e+04 1.000000000000e-02 9.900000000000e-01 0.000000000000e+00 0.000000000000e+00 0.000000000000e+00 0.000000000000e+00 
1.075862068965e+00 0.000000000000e+00 0.000000000000e+00 5.000000000000e+04 0.000000000000e+00 -5.000000000000e+04 1.000000000000e-02 9.900000000000e-01 0.000000000000e+00 0.000000000000e+00 0.000000000000e+00 0.000000000000e+00 
1.165517241378e+00 0.000000000000e+00 0.000000000000e+00 5.000000000000e+04 0.000000000000e+00 -5.000000000000e+04 1.000000000000e-02 9.900000000000e-01 0.000000000000e+00 0.000000000000e+00 0.000000000000e+00 0.000000000000e+00 
1.255172413792e+00 0.000000000000e+00 0.000000000000e+00 5.000000000000e+04 0.000000000000e+00 -5.000000000000e+04 1.000000000000e-02 9.900000000000e-01 0.000000000000e+00 0.000000000000e+00 0.000000000000e+00 0.000000000000e+00 
1.344827586206e+00 0.000000000000e+00 0.000000000000e+00 5.000000000000e+04 0.000000000000e+00 -5.000000000000e+04 1.000000000000e-02 9.900000000000e-01 0.000000000000e+00 0.000000000000e+00 0.000000000000e+00 0.000000000000e+00 
1.165517241380e+00 5.000000000000e-01 0.000000000000e+00 5.000000000000e+04 0.000000000000e+00 -5.000000000000e+04 1.000000000000e-02 9.900000000000e-01 0.000000000000e+00 0.000000000000e+00 0.000000000000e+00 0.000000000000e+00 
1.075862068966e+00 5.000000000000e-01 0.000000000000e+00 5.000000000000e+04 0.000000000000e+00 -5.000000000000e+04 1.000000000000e-02 9.900000000000e-01 0.000000000000e+00 0.000000000000e+00 0.000000000000e+00 0.000000000000e+00 
9.862068965524e-01 5.000000000000e-01 0.000000000000e+00 5.000000000000e+04 0.000000000000e+00 -5.000000000000e+04 1.000000000000e-02 9.900000000000e-01 0.000000000000e+00 0.000000000000e+00 0.000000000000e+00 0.000000000000e+00 
8.965517241385e-01 5.000000000000e-01 0.000000000000e+00 5.000000000000e+04 0.000000000000e+00 -5.000000000000e+04 1.000000000000e-02 9.900000000000e-01 0.000000000000e+00 0.000000000000e+00 0.000000000000e+00 0.000000000000e+00 
8.068965517245e-01 5.000000000000e-01 0.000000000000e+00 5.000000000000e+04 0.000000000000e+00 -5.000000000000e+04 1.000000000000e-02 9.900000000000e-01 0.000000000000e+00 0.000000000000e+00 0.000000000000e+00 0.000000000000e+00 
7.172413793105e-01 5.000000000000e-01 0.000000000000e+00 5.000000000000e+04 0.000000000000e+00 -5.000000000000e+04 1.000000000000e-02 9.900000000000e-01 0.000000000000e+00 0.000000000000e+00 0.000000000000e+00 0.000000000000e+00 
6.275862068966e-01 5.000000000000e-01 0.000000000000e+00 5.000000000000e+04 0.000000000000e+00 -5.000000000000e+04 1.000000000000e-02 9.900000000000e-01 0.000000000000e+00 0.000000000000e+00 0.000000000000e+00 0.000000000000e+00 
6.275862068965e-01 4.166666666667e-01 0.000000000000e+00 5.000000000000e+04 0.000000000000e+00 -5.000000000000e+04 1.000000000000e-02 9.900000000000e-01 0.000000000000e+00 0.000000000000e+00 0.000000000000e+00 0.000000000000e+00 
7.172413793104e-01 4.166666666667e-01 0.000000000000e+00 5.000000000000e+04 0.000000000000e+00 -5.000000000000e+04 1.000000000000e-02 9.900000000000e-01 0.000000000000e+00 0.000000000000e+00 0.000000000000e+00 0.000000000000e+00 
8.068965517243e-01 4.166666666667e-01 0.000000000000e+00 5.000000000000e+04 0.000000000000e+00 -5.000000000000e+04 1.000000000000e-02 9.900000000000e-01 0.000000000000e+00 0.000000000000e+00 0.000000000000e+00 0.000000000000e+00 
8.965517241383e-01 4.166666666667e-01 0.000000000000e+00 5.000000000000e+04 0.000000000000e+00 -5.000000000000e+04 1.000000000000e-02 9.900000000000e-01 0.000000000000e+00 0.000000000000e+00 0.000000000000e+00 0.000000000000e+00 
9.862068965522e-01 4.166666666667e-01 0.000000000000e+00 5.000000000000e+04 0.000000000000e+00 -5.000000000000e+04 1.000000000000e-02 9.900000000000e-01 0.000000000000e+00 0.000000000000e+00 0.000000000000e+00 0.000000000000e+00 
1.075862068966e+00 4.166666666666e-01 0.000000000000e+00 5.000000000000e+04 0.000000000000e+00 -5.000000000000e+04 1.000000000000e-02 9.900000000000e-01 0.000000000000e+00 0.000000000000e+00 0.000000000000e+00 0.000000000000e+00 
1.165517241380e+00 4.166666666666e-01 0.000000000000e+00 5.000000000000e+04 0.000000000000e+00 -5.000000000000e+04 1.000000000000e-02 9.900000000000e-01 0.000000000000e+00 0.000000000000e+00 0.000000000000e+00 0.000000000000e+00 
6.275862068964e-01 3.333333333335e-01 0.000000000000e+00 5.000000000000e+04 0.000000000000e+00 -5.000000000000e+04 1.000000000000e-02 9.900000000000e-01 0.000000000000e+00 0.000000000000e+00 0.000000000000e+00 0.000000000000e+00 
7.172413793102e-01 3.333333333335e-01 0.000000000000e+00 5.000000000000e+04 0.000000000000e+00 -5.000000000000e+04 1.000000000000e-02 9.900000000000e-01 0.000000000000e+00 0.000000000000e+00 0.000000000000e+00 0.000000000000e+00 
8.068965517241e-01 3.333333333335e-01 0.000000000000e+00 5.000000000000e+04 0.000000000000e+00 -5.000000000000e+04 1.000000000000e-02 9.900000000000e-01 0.000000000000e+00 0.000000000000e+00 0.000000000000e+00 0.000000000000e+00 
8.965517241380e-01 3.333333333334e-01 0.000000000000e+00 5.000000000000e+04 0.000000000000e+00 -5.000000000000e+04 1.000000000000e-02 9.900000000000e-01 0.000000000000e+00 0.000000000000e+00 0.000000000000e+00 0.000000000000e+00 
9.862068965520e-01 3.333333333334e-01 0.000000000000e+00 5.000000000000e+04 0.000000000000e+00 -5.000000000000e+04 1.000000000000e-02 9.900000000000e-01 0.000000000000e+00 0.000000000000e+00 0.000000000000e+00 0.000000000000e+00 
1.075862068966e+00 3.333333333334e-01 0.000000000000e+00 5.000000000000e+04 0.000000000000e+00 -5.000000000000e+04 1.000000000000e-02 9.900000000000e-01 0.000000000000e+00 0.000000000000e+00 0.000000000000e+00 0.000000000000e+00 
1.165517241380e+00 3.333333333334e-01 0.000000000000e+00 5.000000000000e+04 0.000000000000e+00 -5.000000000000e+04 1.000000000000e-02 9.900000000000e-01 0.000000000000e+00 0.000000000000e+00 0.000000000000e+00 0.000000000000e+00 
1.255172413794e+00 3.333333333333e-01 0.000000000000e+00 5.000000000000e+04 0.000000000000e+00 -5.000000000000e+04 1.000000000000e-02 9.900000000000e-01 0.000000000000e+00 0.000000000000e+00 0.000000000000e+00 0.000000000000e+00 
6.275862068963e-01 2.500000000004e-01 0.000000000000e+00 5.000000000000e+04 0.000000000000e+00 -5.000000000000e+04 1.000000000000e-02 9.900000000000e-01 0.000000000000e+00 0.000000000000e+00 0.000000000000e+00 0.000000000000e+00 
7.172413793101e-01 2.500000000004e-01 0.000000000000e+00 5.000000000000e+04 0.000000000000e+00 -5.000000000000e+04 1.000000000000e-02 9.900000000000e-01 0.000000000000e+00 0.000000000000e+00 0.000000000000e+00 0.000000000000e+00 
8.068965517240e-01 2.500000000003e-01 0.000000000000e+00 5.000000000000e+04 0.000000000000e+00 -5.000000000000e+04 1.000000000000e-02 9.900000000000e-01 0.000000000000e+00 0.000000000000e+00 0.000000000000e+00 0.000000000000e+00 
8.965517241378e-01 2.500000000003e-01 0.000000000000e+00 5.000000000000e+04 0.000000000000e+00 -5.000000000000e+04 1.000000000000e-02 9.900000000000e-01 0.000000000000e+00 0.000000000000e+00 0.000000000000e+00 0.000000000000e+00 
9.862068965517e-01 2.500000000002e-01 0.000000000000e+00 5.000000000000e+04 0.000000000000e+00 -5.000000000000e+04 1.000000000000e-02 9.900000000000e-01 0.000000000000e+00 0.000000000000e+00 0.000000000000e+00 0.000000000000e+00 
1.075862068966e+00 2.500000000002e-01 0.000000000000e+00 5.000000000000e+04 0.000000000000e+00 -5.000000000000e+04 1.000000000000e-02 9.900000000000e-01 0.000000000000e+00 0.000000000000e+00 0.000000000000e+00 0.000000000000e+00 
1.165517241379e+00 2.500000000002e-01 0.000000000000e+00 5.000000000000e+04 0.000000000000e+00 -5.000000000000e+04 1.000000000000e-02 9.900000000000e-01 0.000000000000e+00 0.000000000000e+00 0.000000000000e+00 0.000000000000e+00 
1.255172413793e+00 2.500000000001e-01 0.000000000000e+00 5.000000000000e+04 0.000000000000e+00 -5.000000000000e+04 1.000000000000e-02 9.900000000000e-01 0.000000000000e+00 0.000000000000e+00 0.000000000000e+00 0.000000000000e+00 
7.172413793100e-01 1.666666666670e-01 0.000000000000e+00 5.000000000000e+04 0.000000000000e+00 -5.000000000000e+04 1.000000000000e-02 9.900000000000e-01 0.000000000000e+00 0.000000000000e+00 0.000000000000e+00 0.000000000000e+00 
8.068965517238e-01 1.666666666670e-01 0.000000000000e+00 5.000000000000e+04 0.000000000000e+00 -5.000000000000e+04 1.000000000000e-02 9.900000000000e-01 0.000000000000e+00 0.000000000000e+00 0.000000000000e+00 0.000000000000e+00 
8.965517241376e-01 1.666666666669e-01 0.000000000000e+00 5.000000000000e+04 0.000000000000e+00 -5.000000000000e+04 1.000000000000e-02 9.900000000000e-01 0.000000000000e+00 0.000000000000e+00 0.000000000000e+00 0.000000000000e+00 
9.862068965515e-01 1.666666666669e-01 0.000000000000e+00 5.000000000000e+04 0.000000000000e+00 -5.000000000000e+04 1.000000000000e-02 9.900000000000e-01 0.000000000000e+00 0.000000000000e+00 0.000000000000e+00 0.000000000000e+00 
1.075862068965e+00 1.666666666669e-01 0.000000000000e+00 5.000000000000e+04 0.000000000000e+00 -5.000000000000e+04 1.000000000000e-02 9.900000000000e-01 0.000000000000e+00 0.000000000000e+00 0.000000000000e+00 0.000000000000e+00 
1.165517241379e+00 1.666666666668e-01 0.000000000000e+00 5.000000000000e+04 0.000000000000e+00 -5.000000000000e+04 1.000000000000e-02 9.900000000000e-01 0.000000000000e+00 0.000000000000e+00 0.000000000000e+00 0.000000000000e+00 
1.255172413793e+00 1.666666666668e-01 0.000000000000e+00 5.000000000000e+04 0.000000000000e+00 -5.000000000000e+04 1.000000000000e-02 9.900000000000e-01 0.000000000000e+00 0.000000000000e+00 0.000000000000e+00 0.000000000000e+00 
1.344827586207e+00 1.666666666668e-01 0.000000000000e+00 5.000000000000e+04 0.000000000000e+00 -5.000000000000e+04 1.000000000000e-02 9.900000000000e-01 0.000000000000e+00 0.000000000000e+00 0.000000000000e+00 0.000000000000e+00 
8.068965517236e-01 8.333333333351e-02 0.000000000000e+00 5.000000000000e+04 0.000000000000e+00 -5.000000000000e+04 1.000000000000e-02 9.900000000000e-01 0.000000000000e+00 0.000000000000e+00 0.000000000000e+00 0.000000000000e+00 
8.965517241374e-01 8.333333333349e-02 0.000000000000e+00 5.000000000000e+04 0.000000000000e+00 -5.000000000000e+04 1.000000000000e-02 9.900000000000e-01 0.000000000000e+00 0.000000000000e+00 0.000000000000e+00 0.000000000000e+00 
9.862068965512e-01 8.333333333347e-02 0.000000000000e+00 5.000000000000e+04 0.000000000000e+00 -5.000000000000e+04 1.000000000000e-02 9.900000000000e-01 0.000000000000e+00 0.000000000000e+00 0.000000000000e+00 0.000000000000e+00 
1.075862068965e+00 8.333333333345e-02 0.000000000000e+00 5.000000000000e+04 0.000000000000e+00 -5.000000000000e+04 1.000000000000e-02 9.900000000000e-01 0.000000000000e+00 0.000000000000e+00 0.000000000000e+00 0.000000000000e+00 
1.165517241379e+00 8.333333333344e-02 0.000000000000e+00 5.000000000000e+04 0.000000000000e+00 -5.000000000000e+04 1.000000000000e-02 9.900000000000e-01 0.000000000000e+00 0.000000000000e+00 0.000000000000e+00 0.000000000000e+00 
1.255172413793e+00 8.333333333342e-02 0.000000000000e+00 5.000000000000e+04 0.000000000000e+00 -5.000000000000e+04 1.000000000000e-02 9.900000000000e-01 0.000000000000e+00 0.000000000000e+00 0.000000000000e+00 0.000000000000e+00 
1.344827586206e+00 8.333333333340e-02 0.000000000000e+00 5.000000000000e+04 0.000000000000e+00 -5.000000000000e+04 1.000000000000e-02 9.900000000000e-01 0.000000000000e+00 0.000000000000e+00 0.000000000000e+00 0.000000000000e+00 
7.172413793098e-01 8.333333333353e-02 0.000000000000e+00 5.000000000000e+04 0.000000000000e+00 -5.000000000000e+04 1.000000000000e-02 9.900000000000e-01 0.000000000000e+00 0.000000000000e+00 0.000000000000e+00 0.000000000000e+00 
7.172413793097e-01 0.000000000000e+00 0.000000000000e+00 5.000000000000e+04 0.000000000000e+00 -5.000000000000e+04 1.000000000000e-02 9.900000000000e-01 0.000000000000e+00 0.000000000000e+00 0.000000000000e+00 0.000000000000e+00 
1.434482758620e+00 0.000000000000e+00 0.000000000000e+00 5.000000000000e+04 0.000000000000e+00 -5.000000000000e+04 1.000000000000e-02 9.900000000000e-01 0.000000000000e+00 0.000000000000e+00 0.000000000000e+00 0.000000000000e+00 
1.434482758620e+00 8.333333333338e-02 0.000000000000e+00 5.000000000000e+04 0.000000000000e+00 -5.000000000000e+04 1.000000000000e-02 9.900000000000e-01 0.000000000000e+00 0.000000000000e+00 0.000000000000e+00 0.000000000000e+00 
1.255172413794e+00 4.166666666666e-01 0.000000000000e+00 5.000000000000e+04 0.000000000000e+00 -5.000000000000e+04 1.000000000000e-02 9.900000000000e-01 0.000000000000e+00 0.000000000000e+00 0.000000000000e+00 0.000000000000e+00 
1.255172413794e+00 5.000000000000e-01 0.000000000000e+00 5.000000000000e+04 0.000000000000e+00 -5.000000000000e+04 1.000000000000e-02 9.900000000000e-01 0.000000000000e+00 0.000000000000e+00 0.000000000000e+00 0.000000000000e+00 
5.379310344828e-01 5.000000000000e-01 0.000000000000e+00 5.000000000000e+04 0.000000000000e+00 -5.000000000000e+04 1.000000000000e-02 9.900000000000e-01 0.000000000000e+00 0.000000000000e+00 0.000000000000e+00 0.000000000000e+00 
5.379310344827e-01 4.166666666667e-01 0.000000000000e+00 5.000000000000e+04 0.000000000000e+00 -5.000000000000e+04 1.000000000000e-02 9.900000000000e-01 0.000000000000e+00 0.000000000000e+00 0.000000000000e+00 0.000000000000e+00 
5.379310344826e-01 3.333333333335e-01 0.000000000000e+00 5.000000000000e+04 0.000000000000e+00 -5.000000000000e+04 1.000000000000e-02 9.900000000000e-01 0.000000000000e+00 0.000000000000e+00 0.000000000000e+00 0.000000000000e+00 
5.379310344825e-01 2.500000000004e-01 0.000000000000e+00 5.000000000000e+04 0.000000000000e+00 -5.000000000000e+04 1.000000000000e-02 9.900000000000e-01 0.000000000000e+00 0.000000000000e+00 0.000000000000e+00 0.000000000000e+00 
1.344827586208e+00 3.333333333333e-01 0.000000000000e+00 5.000000000000e+04 0.000000000000e+00 -5.000000000000e+04 1.000000000000e-02 9.900000000000e-01 0.000000000000e+00 0.000000000000e+00 0.000000000000e+00 0.000000000000e+00 
1.344827586208e+00 4.166666666666e-01 0.000000000000e+00 5.000000000000e+04 0.000000000000e+00 -5.000000000000e+04 1.000000000000e-02 9.900000000000e-01 0.000000000000e+00 0.000000000000e+00 0.000000000000e+00 0.000000000000e+00 
1.344827586207e+00 2.500000000001e-01 0.000000000000e+00 5.000000000000e+04 0.000000000000e+00 -5.000000000000e+04 1.000000000000e-02 9.900000000000e-01 0.000000000000e+00 0.000000000000e+00 0.000000000000e+00 0.000000000000e+00 
5.379310344824e-01 1.666666666670e-01 0.000000000000e+00 5.000000000000e+04 0.000000000000e+00 -5.000000000000e+04 1.000000000000e-02 9.900000000000e-01 0.000000000000e+00 0.000000000000e+00 0.000000000000e+00 0.000000000000e+00 
6.275862068961e-01 1.666666666670e-01 0.000000000000e+00 5.000000000000e+04 0.000000000000e+00 -5.000000000000e+04 1.000000000000e-02 9.900000000000e-01 0.000000000000e+00 0.000000000000e+00 0.000000000000e+00 0.000000000000e+00 
6.275862068961e-01 8.333333333355e-02 0.000000000000e+00 5.000000000000e+04 0.000000000000e+00 -5.000000000000e+04 1.000000000000e-02 9.900000000000e-01 0.000000000000e+00 0.000000000000e+00 0.000000000000e+00 0.000000000000e+00 
1.434482758621e+00 1.666666666667e-01 0.000000000000e+00 5.000000000000e+04 0.000000000000e+00 -5.000000000000e+04 1.000000000000e-02 9.900000000000e-01 0.000000000000e+00 0.000000000000e+00 0.000000000000e+00 0.000000000000e+00 
1.434482758621e+00 2.500000000000e-01 0.000000000000e+00 5.000000000000e+04 0.000000000000e+00 -5.000000000000e+04 1.000000000000e-02 9.900000000000e-01 0.000000000000e+00 0.000000000000e+00 0.000000000000e+00 0.000000000000e+00 
46  1  2  47  
47  2  3  48  
48  3  4  49  
49  4  5  50  
50  5  6  51  
51  6  7  52  
9  20  21  8  
10  19  20  9  
11  18  19  10  
12  17  18  11  
13  16  17  12  
14  15  16  13  
15  22  23  16  
16  23  24  17  
17  24  25  18  
18  25  26  19  
19  26  27  20  
20  27  28  21  
22  30  31  23  
23  31  32  24  
24  32  33  25  
25  33  34  26  
26  34  35  27  
27  35  36  28  
28  36  37  29  
31  38  39  32  
32  39  40  33  
33  40  41  34  
34  41  42  35  
35  42  43  36  
36  43  44  37  
39  46  47  40  
40  47  48  41  
41  48  49  42  
42  49  50  43  
43  50  51  44  
44  51  52  45  
53  54  1  46  
52  7  55  56  
8  21  57  58  
59  60  15  14  
60  61  22  15  
21  28  29  57  
61  62  30  22  
57  29  63  64  
29  37  65  63  
62  66  67  30  
30  67  38  31  
37  44  45  65  
67  68  53  38  
38  53  46  39  
65  45  69  70  
45  52  56  69  
VARIABLES  = "X","Y","Z", "PRESSURE1", "PRESSURE2", "PRESSURE_W", "SATURATION1", SATURATION2, "VELOCITY_X1", "VELOCITY_Y1", "VELOCITY_X2", "VELOCITY_Y2"
ZONE T="5.000000000000e+02s", N=70, E=53, F=FEPOINT, ET=QUADRILATERAL
STRANDID=1, SOLUTIONTIME=5.000000000000e+02
8.068965517235e-01 0.000000000000e+00 0.000000000000e+00 5.000000001087e+04 2.017413703874e+05 1.517413703765e+05 9.999999995651e-03 9.900000000043e-01 5.483535449371e-16 -1.783714125973e-19 5.373910509682e-08 -1.733760990970e-11 
8.965517241372e-01 0.000000000000e+00 0.000000000000e+00 5.000000001053e+04 2.017413212419e+05 1.517413212314e+05 9.999999995787e-03 9.900000000042e-01 5.480848178049e-16 2.761184539938e-20 5.371260641751e-08 2.707238560251e-12 
9.862068965510e-01 0.000000000000e+00 0.000000000000e+00 5.000000001053e+04 2.017412721098e+05 1.517412720992e+05 9.999999995787e-03 9.900000000042e-01 5.477133787242e-16 1.571863856308e-19 5.367602020582e-08 1.540394053470e-11 
1.075862068965e+00 0.000000000000e+00 0.000000000000e+00 5.000000001053e+04 2.017412230313e+05 1.517412230207e+05 9.999999995787e-03 9.900000000042e-01 5.468195391977e-16 3.561670481580e-19 5.358842347721e-08 3.490467880376e-11 
1.165517241378e+00 0.000000000000e+00 0.000000000000e+00 5.000000001053e+04 2.017411740594e+05 1.517411740488e+05 9.999999995787e-03 9.900000000042e-01 5.452872374385e-16 7.749288802651e-19 5.343825800798e-08 7.594309646723e-11 
1.255172413792e+00 0.000000000000e+00 0.000000000000e+00 5.000000001053e+04 2.017411252556e+05 1.517411252451e+05 9.999999995787e-03 9.900000000042e-01 5.434219180782e-16 9.099710506693e-19 5.325526967590e-08 8.917696426255e-11 
1.344827586206e+00 0.000000000000e+00 0.000000000000e+00 5.000000001087e+04 2.017410766185e+05 1.517410766077e+05 9.999999995650e-03 9.900000000043e-01 5.381083829062e-16 -5.134220594370e-20 5.273454215202e-08 -5.031555258892e-12 
1.165517241380e+00 5.000000000000e-01 0.000000000000e+00 5.000000001087e+04 2.017411745035e+05 1.517411744926e+05 9.999999995651e-03 9.900000000043e-01 5.447202332089e-16 -6.772385012715e-19 5.338250457630e-08 -6.651166941275e-11 
1.075862068966e+00 5.000000000000e-01 0.000000000000e+00 5.000000001053e+04 2.017412234059e+05 1.517412233953e+05 9.999999995787e-03 9.900000000042e-01 5.462248978951e-16 -5.335618366326e-19 5.352996285927e-08 -5.228899736001e-11 
9.862068965524e-01 5.000000000000e-01 0.000000000000e+00 5.000000001053e+04 2.017412724469e+05 1.517412724364e+05 9.999999995787e-03 9.900000000042e-01 5.475533158575e-16 -2.938327404232e-19 5.366033403282e-08 -2.879525368152e-11 
8.965517241385e-01 5.000000000000e-01 0.000000000000e+00 5.000000001053e+04 2.017413215879e+05 1.517413215773e+05 9.999999995787e-03 9.900000000042e-01 5.483810638742e-16 -2.011366543151e-19 5.374145334940e-08 -1.971028482606e-11 
8.068965517245e-01 5.000000000000e-01 0.000000000000e+00 5.000000001053e+04 2.017413707773e+05 1.517413707668e+05 9.999999995787e-03 9.900000000042e-01 5.488298109294e-16 -1.696370029283e-19 5.378543117180e-08 -1.662496498316e-11 
7.172413793105e-01 5.000000000000e-01 0.000000000000e+00 5.000000001053e+04 2.017414199987e+05 1.517414199882e+05 9.999999995787e-03 9.900000000042e-01 5.491874528851e-16 -1.800749278744e-19 5.382066577208e-08 -1.764723543029e-11 
6.275862068966e-01 5.000000000000e-01 0.000000000000e+00 5.000000001087e+04 2.017414692527e+05 1.517414692418e+05 9.999999995651e-03 9.900000000043e-01 5.493622181801e-16 -2.778195114592e-19 5.382383023345e-08 -2.722610315649e-11 
6.275862068965e-01 4.166666666667e-01 0.000000000000e+00 5.000000001087e+04 2.017414692295e+05 1.517414692186e+05 9.999999995651e-03 9.900000000043e-01 5.493603548737e-16 -5.933662181808e-19 5.382364770978e-08 -5.814964889776e-11 
7.172413793104e-01 4.166666666667e-01 0.000000000000e+00 5.000000001053e+04 2.017414199837e+05 1.517414199732e+05 9.999999995787e-03 9.900000000042e-01 5.491371759507e-16 -5.246973605210e-19 5.381573898164e-08 -5.142036622964e-11 
8.068965517243e-01 4.166666666667e-01 0.000000000000e+00 5.000000001053e+04 2.017413707632e+05 1.517413707527e+05 9.999999995787e-03 9.900000000042e-01 5.488395993094e-16 -4.926455667118e-19 5.378638995437e-08 -4.827925632734e-11 
8.965517241383e-01 4.166666666667e-01 0.000000000000e+00 5.000000001053e+04 2.017413215711e+05 1.517413215606e+05 9.999999995787e-03 9.900000000042e-01 5.484387830904e-16 -4.746762677150e-19 5.374710942047e-08 -4.651807137134e-11 
9.862068965522e-01 4.166666666667e-01 0.000000000000e+00 5.000000001053e+04 2.017412724225e+05 1.517412724119e+05 9.999999995787e-03 9.900000000042e-01 5.477078085077e-16 -4.966992714404e-19 5.367547474932e-08 -4.867616042005e-11 
1.075862068966e+00 4.166666666666e-01 0.000000000000e+00 5.000000001053e+04 2.017412233614e+05 1.517412233509e+05 9.999999995787e-03 9.900000000042e-01 5.464030834867e-16 -6.357399442976e-19 5.354749134604e-08 -6.230209362283e-11 
1.165517241380e+00 4.166666666666e-01 0.000000000000e+00 5.000000001075e+04 2.017411744470e+05 1.517411744362e+05 9.999999995699e-03 9.900000000043e-01 5.451036165753e-16 -7.684248863450e-19 5.341999380809e-08 -7.543343891357e-11 
6.275862068964e-01 3.333333333335e-01 0.000000000000e+00 5.000000001087e+04 2.017414691538e+05 1.517414691429e+05 9.999999995650e-03 9.900000000043e-01 5.493605203030e-16 -1.121542139417e-18 5.382366371553e-08 -1.098231337491e-10 
7.172413793102e-01 3.333333333335e-01 0.000000000000e+00 5.000000001053e+04 2.017414199113e+05 1.517414199007e+05 9.999999995787e-03 9.900000000042e-01 5.490938346331e-16 -1.062327651521e-18 5.381149135550e-08 -1.040365128298e-10 
8.068965517241e-01 3.333333333335e-01 0.000000000000e+00 5.000000001053e+04 2.017413706952e+05 1.517413706847e+05 9.999999995787e-03 9.900000000042e-01 5.487833169053e-16 -9.804781970106e-19 5.378087456022e-08 -9.608683034768e-11 
8.965517241380e-01 3.333333333334e-01 0.000000000000e+00 5.000000001053e+04 2.017413215087e+05 1.517413214982e+05 9.999999995787e-03 9.900000000042e-01 5.483848312422e-16 -9.045781402440e-19 5.374182223291e-08 -8.864896207467e-11 
9.862068965520e-01 3.333333333334e-01 0.000000000000e+00 5.000000001053e+04 2.017412723642e+05 1.517412723536e+05 9.999999995786e-03 9.900000000042e-01 5.477030226665e-16 -8.521773438887e-19 5.367500509224e-08 -8.351386068973e-11 
1.075862068966e+00 3.333333333334e-01 0.000000000000e+00 5.000000001053e+04 2.017412232999e+05 1.517412232894e+05 9.999999995787e-03 9.900000000042e-01 5.464774637894e-16 -9.227464561888e-19 5.355483346054e-08 -9.042834728670e-11 
1.165517241380e+00 3.333333333334e-01 0.000000000000e+00 5.000000001066e+04 2.017411743752e+05 1.517411743646e+05 9.999999995738e-03 9.900000000043e-01 5.447686576983e-16 -1.089352556082e-18 5.338716864994e-08 -1.068856637489e-10 
1.255172413794e+00 3.333333333333e-01 0.000000000000e+00 5.000000001102e+04 2.017411256178e+05 1.517411256067e+05 9.999999995590e-03 9.900000000044e-01 5.411070310982e-16 -7.032680294688e-19 5.302854424953e-08 -6.908121477047e-11 
6.275862068963e-01 2.500000000004e-01 0.000000000000e+00 5.000000001102e+04 2.017414690427e+05 1.517414690317e+05 9.999999995591e-03 9.900000000044e-01 5.494170181365e-16 -1.318901082888e-18 5.382906694572e-08 -1.291654413576e-10 
7.172413793101e-01 2.500000000004e-01 0.000000000000e+00 5.000000001066e+04 2.017414198068e+05 1.517414197961e+05 9.999999995738e-03 9.900000000043e-01 5.490060587519e-16 -1.337488856006e-18 5.380297125031e-08 -1.308583296516e-10 
8.068965517240e-01 2.500000000003e-01 0.000000000000e+00 5.000000001053e+04 2.017413705998e+05 1.517413705893e+05 9.999999995787e-03 9.900000000042e-01 5.486929726582e-16 -1.221366798255e-18 5.377208742530e-08 -1.196221735840e-10 
8.965517241378e-01 2.500000000003e-01 0.000000000000e+00 5.000000001053e+04 2.017413214203e+05 1.517413214098e+05 9.999999995787e-03 9.900000000042e-01 5.483195287020e-16 -1.105553417737e-18 5.373542295419e-08 -1.083442769315e-10 
9.862068965517e-01 2.500000000002e-01 0.000000000000e+00 5.000000001053e+04 2.017412722804e+05 1.517412722699e+05 9.999999995787e-03 9.900000000042e-01 5.477246955558e-16 -1.071653883600e-18 5.367712872288e-08 -1.050229077538e-10 
1.075862068966e+00 2.500000000002e-01 0.000000000000e+00 5.000000001053e+04 2.017412232076e+05 1.517412231971e+05 9.999999995786e-03 9.900000000042e-01 5.466235347767e-16 -1.173692519862e-18 5.356921509957e-08 -1.150223650330e-10 
1.165517241379e+00 2.500000000002e-01 0.000000000000e+00 5.000000001053e+04 2.017411742652e+05 1.517411742546e+05 9.999999995787e-03 9.900000000042e-01 5.448996143871e-16 -1.433086587422e-18 5.340015189044e-08 -1.405155497331e-10 
1.255172413793e+00 2.500000000001e-01 0.000000000000e+00 5.000000001075e+04 2.017411255017e+05 1.517411254910e+05 9.999999995699e-03 9.900000000043e-01 5.423803960957e-16 -1.595299277732e-18 5.315311855518e-08 -1.565562349278e-10 
7.172413793100e-01 1.666666666670e-01 0.000000000000e+00 5.000000001090e+04 2.017414196887e+05 1.517414196778e+05 9.999999995640e-03 9.900000000044e-01 5.490031779653e-16 -1.349564036333e-18 5.380262104428e-08 -1.317523201391e-10 
8.068965517238e-01 1.666666666670e-01 0.000000000000e+00 5.000000001066e+04 2.017413704918e+05 1.517413704811e+05 9.999999995738e-03 9.900000000043e-01 5.485677357507e-16 -1.187274721826e-18 5.375994804568e-08 -1.162254945905e-10 
8.965517241376e-01 1.666666666669e-01 0.000000000000e+00 5.000000001053e+04 2.017413213245e+05 1.517413213140e+05 9.999999995787e-03 9.900000000042e-01 5.482456747530e-16 -1.084201865169e-18 5.372825236137e-08 -1.062523907845e-10 
9.862068965515e-01 1.666666666669e-01 0.000000000000e+00 5.000000001053e+04 2.017412721856e+05 1.517412721750e+05 9.999999995787e-03 9.900000000042e-01 5.477663567364e-16 -1.102537232956e-18 5.368121225133e-08 -1.080488765573e-10 
1.075862068965e+00 1.666666666669e-01 0.000000000000e+00 5.000000001053e+04 2.017412231043e+05 1.517412230938e+05 9.999999995787e-03 9.900000000042e-01 5.468134109763e-16 -1.236303752634e-18 5.358782344958e-08 -1.211585164317e-10 
1.165517241379e+00 1.666666666668e-01 0.000000000000e+00 5.000000001053e+04 2.017411741363e+05 1.517411741257e+05 9.999999995787e-03 9.900000000042e-01 5.451605359988e-16 -1.622282522143e-18 5.342577388947e-08 -1.589840076066e-10 
1.255172413793e+00 1.666666666668e-01 0.000000000000e+00 5.000000001066e+04 2.017411253515e+05 1.517411253409e+05 9.999999995738e-03 9.900000000043e-01 5.427944272991e-16 -1.930234511566e-18 5.319369313202e-08 -1.892915808150e-10 
1.344827586207e+00 1.666666666668e-01 0.000000000000e+00 5.000000001102e+04 2.017410768081e+05 1.517410767971e+05 9.999999995590e-03 9.900000000044e-01 5.369582174583e-16 -2.329681051322e-18 5.262195957435e-08 -2.283971902124e-10 
8.068965517236e-01 8.333333333351e-02 0.000000000000e+00 5.000000001075e+04 2.017413704021e+05 1.517413703914e+05 9.999999995700e-03 9.900000000043e-01 5.484463216534e-16 -6.277445515611e-19 5.374838553522e-08 -6.139225612061e-11 
8.965517241374e-01 8.333333333349e-02 0.000000000000e+00 5.000000001053e+04 2.017413212396e+05 1.517413212291e+05 9.999999995787e-03 9.900000000042e-01 5.482407660884e-16 -4.953124255271e-19 5.372782284794e-08 -4.854048540824e-11 
9.862068965512e-01 8.333333333347e-02 0.000000000000e+00 5.000000001053e+04 2.017412720967e+05 1.517412720861e+05 9.999999995787e-03 9.900000000042e-01 5.478660724439e-16 -4.546850651312e-19 5.369098377237e-08 -4.455934067710e-11 
1.075862068965e+00 8.333333333345e-02 0.000000000000e+00 5.000000001053e+04 2.017412230016e+05 1.517412229910e+05 9.999999995787e-03 9.900000000042e-01 5.471066311998e-16 -4.383151279673e-19 5.361655865315e-08 -4.295455845188e-11 
1.165517241379e+00 8.333333333344e-02 0.000000000000e+00 5.000000001053e+04 2.017411739948e+05 1.517411739843e+05 9.999999995787e-03 9.900000000042e-01 5.455446142707e-16 -4.612780598977e-19 5.346348070398e-08 -4.520488271468e-11 
1.255172413793e+00 8.333333333342e-02 0.000000000000e+00 5.000000001053e+04 2.017411251798e+05 1.517411251693e+05 9.999999995787e-03 9.900000000042e-01 5.430379140267e-16 -5.746286373839e-19 5.321763723384e-08 -5.638576647098e-11 
1.344827586206e+00 8.333333333340e-02 0.000000000000e+00 5.000000001087e+04 2.017410766228e+05 1.517410766119e+05 9.999999995650e-03 9.900000000043e-01 5.383982982446e-16 -1.136371729088e-18 5.276295424392e-08 -1.114527421713e-10 
7.172413793098e-01 8.333333333353e-02 0.000000000000e+00 5.000000001151e+04 2.017414195827e+05 1.517414195712e+05 9.999999995394e-03 9.900000000046e-01 5.488811666637e-16 -9.103300428453e-19 5.379074226817e-08 -8.886555150231e-11 
7.172413793097e-01 0.000000000000e+00 0.000000000000e+00 5.000000001117e+04 2.017414195680e+05 1.517414195569e+05 9.999999995532e-03 9.900000000045e-01 5.485500108639e-16 -1.720179149300e-19 5.375833793264e-08 -1.726172970492e-11 