VARIABLES  = "X","Y","Z", "PRESSURE1", "PRESSURE2", "PRESSURE_W", "SATURATION1", SATURATION2, "VELOCITY_X1", "VELOCITY_Y1", "VELOCITY_X2", "VELOCITY_Y2"
ZONE T="0.000000000000e+00s", N=63, E=47, F=FEPOINT, ET=QUADRILATERAL
STRANDID=1, SOLUTIONTIME=0.000000000000e+00
0.000000000000e+00 0.000000000000e+00 0.000000000000e+00 5.000000000000e+04 0.000000000000e+00 -5.000000000000e+04 1.000000000000e-02 9.900000000000e-01 0.000000000000e+00 0.000000000000e+00 0.000000000000e+00 0.000000000000e+00 
0.000000000000e+00 5.000000000000e-01 0.000000000000e+00 5.000000000000e+04 0.000000000000e+00 -5.000000000000e+04 1.000000000000e-02 9.900000000000e-01 0.000000000000e+00 0.000000000000e+00 0.000000000000e+00 0.000000000000e+00 
8.965517241371e-02 0.000000000000e+00 0.000000000000e+00 5.000000000000e+04 0.000000000000e+00 -5.000000000000e+04 1.000000000000e-02 9.900000000000e-01 0.000000000000e+00 0.000000000000e+00 0.000000000000e+00 0.000000000000e+00 
1.793103448274e-01 0.000000000000e+00 0.000000000000e+00 5.000000000000e+04 0.000000000000e+00 -5.000000000000e+04 1.000000000000e-02 9.900000000000e-01 0.000000000000e+00 0.000000000000e+00 0.000000000000e+00 0.000000000000e+00 
2.689655172411e-01 0.000000000000e+00 0.000000000000e+00 5.000000000000e+04 0.000000000000e+00 -5.000000000000e+04 1.000000000000e-02 9.900000000000e-01 0.000000000000e+00 0.000000000000e+00 0.000000000000e+00 0.000000000000e+00 
3.586206896548e-01 0.000000000000e+00 0.000000000000e+00 5.000000000000e+04 0.000000000000e+00 -5.000000000000e+04 1.000000000000e-02 9.900000000000e-01 0.000000000000e+00 0.000000000000e+00 0.000000000000e+00 0.000000000000e+00 
4.482758620685e-01 0.000000000000e+00 0.000000000000e+00 5.000000000000e+04 0.000000000000e+00 -5.000000000000e+04 1.000000000000e-02 9.900000000000e-01 0.000000000000e+00 0.000000000000e+00 0.000000000000e+00 0.000000000000e+00 
5.379310344822e-01 0.000000000000e+00 0.000000000000e+00 5.000000000000e+04 0.000000000000e+00 -5.000000000000e+04 1.000000000000e-02 9.900000000000e-01 0.000000000000e+00 0.000000000000e+00 0.000000000000e+00 0.000000000000e+00 
6.275862068960e-01 0.000000000000e+00 0.000000000000e+00 5.000000000000e+04 0.000000000000e+00 -5.000000000000e+04 1.000000000000e-02 9.900000000000e-01 0.000000000000e+00 0.000000000000e+00 0.000000000000e+00 0.000000000000e+00 
7.172413793097e-01 0.000000000000e+00 0.000000000000e+00 5.000000000000e+04 0.000000000000e+00 -5.000000000000e+04 1.000000000000e-02 9.900000000000e-01 0.000000000000e+00 0.000000000000e+00 0.000000000000e+00 0.000000000000e+00 
5.379310344828e-01 5.000000000000e-01 0.000000000000e+00 5.000000000000e+04 0.000000000000e+00 -5.000000000000e+04 1.000000000000e-02 9.900000000000e-01 0.000000000000e+00 0.000000000000e+00 0.000000000000e+00 0.000000000000e+00 
4.482758620690e-01 5.000000000000e-01 0.000000000000e+00 5.000000000000e+04 0.000000000000e+00 -5.000000000000e+04 1.000000000000e-02 9.900000000000e-01 0.000000000000e+00 0.000000000000e+00 0.000000000000e+00 0.000000000000e+00 
3.586206896552e-01 5.000000000000e-01 0.000000000000e+00 5.000000000000e+04 0.000000000000e+00 -5.000000000000e+04 1.000000000000e-02 9.900000000000e-01 0.000000000000e+00 0.000000000000e+00 0.000000000000e+00 0.000000000000e+00 
2.689655172414e-01 5.000000000000e-01 0.000000000000e+00 5.000000000000e+04 0.000000000000e+00 -5.000000000000e+04 1.000000000000e-02 9.900000000000e-01 0.000000000000e+00 0.000000000000e+00 0.000000000000e+00 0.000000000000e+00 
1.793103448276e-01 5.000000000000e-01 0.000000000000e+00 5.000000000000e+04 0.000000000000e+00 -5.000000000000e+04 1.000000000000e-02 9.900000000000e-01 0.000000000000e+00 0.000000000000e+00 0.000000000000e+00 0.000000000000e+00 
8.965517241379e-02 5.000000000000e-01 0.000000000000e+00 5.000000000000e+04 0.000000000000e+00 -5.000000000000e+04 1.000000000000e-02 9.900000000000e-01 0.000000000000e+00 0.000000000000e+00 0.000000000000e+00 0.000000000000e+00 
0.000000000000e+00 4.166666666668e-01 0.000000000000e+00 5.000000000000e+04 0.000000000000e+00 -5.000000000000e+04 1.000000000000e-02 9.900000000000e-01 0.000000000000e+00 0.000000000000e+00 0.000000000000e+00 0.000000000000e+00 
0.000000000000e+00 3.333333333337e-01 0.000000000000e+00 5.000000000000e+04 0.000000000000e+00 -5.000000000000e+04 1.000000000000e-02 9.900000000000e-01 0.000000000000e+00 0.000000000000e+00 0.000000000000e+00 0.000000000000e+00 
0.000000000000e+00 2.500000000007e-01 0.000000000000e+00 5.000000000000e+04 0.000000000000e+00 -5.000000000000e+04 1.000000000000e-02 9.900000000000e-01 0.000000000000e+00 0.000000000000e+00 0.000000000000e+00 0.000000000000e+00 
0.000000000000e+00 1.666666666672e-01 0.000000000000e+00 5.000000000000e+04 0.000000000000e+00 -5.000000000000e+04 1.000000000000e-02 9.900000000000e-01 0.000000000000e+00 0.000000000000e+00 0.000000000000e+00 0.000000000000e+00 
0.000000000000e+00 8.333333333368e-02 0.000000000000e+00 5.000000000000e+04 0.000000000000e+00 -5.000000000000e+04 1.000000000000e-02 9.900000000000e-01 0.000000000000e+00 0.000000000000e+00 0.000000000000e+00 0.000000000000e+00 
8.965517241378e-02 4.166666666668e-01 0.000000000000e+00 5.000000000000e+04 0.000000000000e+00 -5.000000000000e+04 1.000000000000e-02 9.900000000000e-01 0.000000000000e+00 0.000000000000e+00 0.000000000000e+00 0.000000000000e+00 
1.793103448276e-01 4.166666666668e-01 0.000000000000e+00 5.000000000000e+04 0.000000000000e+00 -5.000000000000e+04 1.000000000000e-02 9.900000000000e-01 0.000000000000e+00 0.000000000000e+00 0.000000000000e+00 0.000000000000e+00 
2.689655172413e-01 4.166666666667e-01 0.000000000000e+00 5.000000000000e+04 0.000000000000e+00 -5.000000000000e+04 1.000000000000e-02 9.900000000000e-01 0.000000000000e+00 0.000000000000e+00 0.000000000000e+00 0.000000000000e+00 
3.586206896551e-01 4.166666666667e-01 0.000000000000e+00 5.000000000000e+04 0.000000000000e+00 -5.000000000000e+04 1.000000000000e-02 9.900000000000e-01 0.000000000000e+00 0.000000000000e+00 0.000000000000e+00 0.000000000000e+00 
4.482758620689e-01 4.166666666667e-01 0.000000000000e+00 5.000000000000e+04 0.000000000000e+00 -5.000000000000e+04 1.000000000000e-02 9.900000000000e-01 0.000000000000e+00 0.000000000000e+00 0.000000000000e+00 0.000000000000e+00 
5.379310344827e-01 4.166666666667e-01 0.000000000000e+00 5.000000000000e+04 0.000000000000e+00 -5.000000000000e+04 1.000000000000e-02 9.900000000000e-01 0.000000000000e+00 0.000000000000e+00 0.000000000000e+00 0.000000000000e+00 
8.965517241376e-02 3.333333333337e-01 0.000000000000e+00 5.000000000000e+04 0.000000000000e+00 -5.000000000000e+04 1.000000000000e-02 9.900000000000e-01 0.000000000000e+00 0.000000000000e+00 0.000000000000e+00 0.000000000000e+00 
1.793103448275e-01 3.333333333336e-01 0.000000000000e+00 5.000000000000e+04 0.000000000000e+00 -5.000000000000e+04 1.000000000000e-02 9.900000000000e-01 0.000000000000e+00 0.000000000000e+00 0.000000000000e+00 0.000000000000e+00 
2.689655172413e-01 3.333333333336e-01 0.000000000000e+00 5.000000000000e+04 0.000000000000e+00 -5.000000000000e+04 1.000000000000e-02 9.900000000000e-01 0.000000000000e+00 0.000000000000e+00 0.000000000000e+00 0.000000000000e+00 
3.586206896551e-01 3.333333333336e-01 0.000000000000e+00 5.000000000000e+04 0.000000000000e+00 -5.000000000000e+04 1.000000000000e-02 9.900000000000e-01 0.000000000000e+00 0.000000000000e+00 0.000000000000e+00 0.000000000000e+00 
4.482758620688e-01 3.333333333336e-01 0.000000000000e+00 5.000000000000e+04 0.000000000000e+00 -5.000000000000e+04 1.000000000000e-02 9.900000000000e-01 0.000000000000e+00 0.000000000000e+00 0.000000000000e+00 0.000000000000e+00 
5.379310344826e-01 3.333333333335e-01 0.000000000000e+00 5.000000000000e+04 0.000000000000e+00 -5.000000000000e+04 1.000000000000e-02 9.900000000000e-01 0.000000000000e+00 0.000000000000e+00 0.000000000000e+00 0.000000000000e+00 
8.965517241375e-02 2.500000000007e-01 0.000000000000e+00 5.000000000000e+04 0.000000000000e+00 -5.000000000000e+04 1.000000000000e-02 9.900000000000e-01 0.000000000000e+00 0.000000000000e+00 0.000000000000e+00 0.000000000000e+00 
1.793103448275e-01 2.500000000006e-01 0.000000000000e+00 5.000000000000e+04 0.000000000000e+00 -5.000000000000e+04 1.000000000000e-02 9.900000000000e-01 0.000000000000e+00 0.000000000000e+00 0.000000000000e+00 0.000000000000e+00 
2.689655172413e-01 2.500000000006e-01 0.000000000000e+00 5.000000000000e+04 0.000000000000e+00 -5.000000000000e+04 1.000000000000e-02 9.900000000000e-01 0.000000000000e+00 0.000000000000e+00 0.000000000000e+00 0.000000000000e+00 
3.586206896550e-01 2.500000000005e-01 0.000000000000e+00 5.000000000000e+04 0.000000000000e+00 -5.000000000000e+04 1.000000000000e-02 9.900000000000e-01 0.000000000000e+00 0.000000000000e+00 0.000000000000e+00 0.000000000000e+00 
4.482758620688e-01 2.500000000005e-01 0.000000000000e+00 5.000000000000e+04 0.000000000000e+00 -5.000000000000e+04 1.000000000000e-02 9.900000000000e-01 0.000000000000e+00 0.000000000000e+00 0.000000000000e+00 0.000000000000e+00 
5.379310344825e-01 2.500000000004e-01 0.000000000000e+00 5.000000000000e+04 0.000000000000e+00 -5.000000000000e+04 1.000000000000e-02 9.900000000000e-01 0.000000000000e+00 0.000000000000e+00 0.000000000000e+00 0.000000000000e+00 
8.965517241374e-02 1.666666666672e-01 0.000000000000e+00 5.000000000000e+04 0.000000000000e+00 -5.000000000000e+04 1.000000000000e-02 9.900000000000e-01 0.000000000000e+00 0.000000000000e+00 0.000000000000e+00 0.000000000000e+00 
1.793103448275e-01 1.666666666672e-01 0.000000000000e+00 5.000000000000e+04 0.000000000000e+00 -5.000000000000e+04 1.000000000000e-02 9.900000000000e-01 0.000000000000e+00 0.000000000000e+00 0.000000000000e+00 0.000000000000e+00 
2.689655172412e-01 1.666666666671e-01 0.000000000000e+00 5.000000000000e+04 0.000000000000e+00 -5.000000000000e+04 1.000000000000e-02 9.900000000000e-01 0.000000000000e+00 0.000000000000e+00 0.000000000000e+00 0.000000000000e+00 
3.586206896549e-01 1.666666666671e-01 0.000000000000e+00 5.000000000000e+04 0.000000000000e+00 -5.000000000000e+04 1.000000000000e-02 9.900000000000e-01 0.000000000000e+00 0.000000000000e+00 0.000000000000e+00 0.000000000000e+00 
4.482758620687e-01 1.666666666671e-01 0.000000000000e+00 5.000000000000e+04 0.000000000000e+00 -5.000000000000e+04 1.000000000000e-02 9.900000000000e-01 0.000000000000e+00 0.000000000000e+00 0.000000000000e+00 0.000000000000e+00 
5.379310344824e-01 1.666666666670e-01 0.000000000000e+00 5.000000000000e+04 0.000000000000e+00 -5.000000000000e+04 1.000000000000e-02 9.900000000000e-01 0.000000000000e+00 0.000000000000e+00 0.000000000000e+00 0.000000000000e+00 
6.275862068961e-01 1.666666666670e-01 0.000000000000e+00 5.000000000000e+04 0.000000000000e+00 -5.000000000000e+04 1.000000000000e-02 9.900000000000e-01 0.000000000000e+00 0.000000000000e+00 0.000000000000e+00 0.000000000000e+00 
8.965517241372e-02 8.333333333366e-02 0.000000000000e+00 5.000000000000e+04 0.000000000000e+00 -5.000000000000e+04 1.000000000000e-02 9.900000000000e-01 0.000000000000e+00 0.000000000000e+00 0.000000000000e+00 0.000000000000e+00 
1.793103448274e-01 8.333333333364e-02 0.000000000000e+00 5.000000000000e+04 0.000000000000e+00 -5.000000000000e+04 1.000000000000e-02 9.900000000000e-01 0.000000000000e+00 0.000000000000e+00 0.000000000000e+00 0.000000000000e+00 
2.689655172412e-01 8.333333333362e-02 0.000000000000e+00 5.000000000000e+04 0.000000000000e+00 -5.000000000000e+04 1.000000000000e-02 9.900000000000e-01 0.000000000000e+00 0.000000000000e+00 0.000000000000e+00 0.000000000000e+00 
3.586206896549e-01 8.333333333360e-02 0.000000000000e+00 5.000000000000e+04 0.000000000000e+00 -5.000000000000e+04 1.000000000000e-02 9.900000000000e-01 0.000000000000e+00 0.000000000000e+00 0.000000000000e+00 0.000000000000e+00 
4.482758620686e-01 8.333333333359e-02 0.000000000000e+00 5.000000000000e+04 0.000000000000e+00 -5.000000000000e+04 1.000000000000e-02 9.900000000000e-01 0.000000000000e+00 0.000000000000e+00 0.000000000000e+00 0.000000000000e+00 
5.379310344823e-01 8.333333333357e-02 0.000000000000e+00 5.000000000000e+04 0.000000000000e+00 -5.000000000000e+04 1.000000000000e-02 9.900000000000e-01 0.000000000000e+00 0.000000000000e+00 0.000000000000e+00 0.000000000000e+00 
6.275862068961e-01 8.333333333355e-02 0.000000000000e+00 5.000000000000e+04 0.000000000000e+00 -5.000000000000e+04 1.000000000000e-02 9.900000000000e-01 0.000000000000e+00 0.000000000000e+00 0.000000000000e+00 0.000000000000e+00 
7.172413793098e-01 8.333333333353e-02 0.000000000000e+00 5.000000000000e+04 0.000000000000e+00 -5.000000000000e+04 1.000000000000e-02 9.900000000000e-01 0.000000000000e+00 0.000000000000e+00 0.000000000000e+00 0.000000000000e+00 
8.068965517235e-01 0.000000000000e+00 0.000000000000e+00 5.000000000000e+04 0.000000000000e+00 -5.000000000000e+04 1.000000000000e-02 9.900000000000e-01 0.000000000000e+00 0.000000000000e+00 0.000000000000e+00 0.000000000000e+00 
8.068965517236e-01 8.333333333351e-02 0.000000000000e+00 5.000000000000e+04 0.000000000000e+00 -5.000000000000e+04 1.000000000000e-02 9.900000000000e-01 0.000000000000e+00 0.000000000000e+00 0.000000000000e+00 0.000000000000e+00 
6.275862068965e-01 4.166666666667e-01 0.000000000000e+00 5.000000000000e+04 0.000000000000e+00 -5.000000000000e+04 1.000000000000e-02 9.900000000000e-01 0.000000000000e+00 0.000000000000e+00 0.000000000000e+00 0.000000000000e+00 
6.275862068966e-01 5.000000000000e-01 0.000000000000e+00 5.000000000000e+04 0.000000000000e+00 -5.000000000000e+04 1.000000000000e-02 9.900000000000e-01 0.000000000000e+00 0.000000000000e+00 0.000000000000e+00 0.000000000000e+00 
6.275862068964e-01 3.333333333335e-01 0.000000000000e+00 5.000000000000e+04 0.000000000000e+00 -5.000000000000e+04 1.000000000000e-02 9.900000000000e-01 0.000000000000e+00 0.000000000000e+00 0.000000000000e+00 0.000000000000e+00 
6.275862068963e-01 2.500000000004e-01 0.000000000000e+00 5.000000000000e+04 0.000000000000e+00 -5.000000000000e+04 1.000000000000e-02 9.900000000000e-01 0.000000000000e+00 0.000000000000e+00 0.000000000000e+00 0.000000000000e+00 
7.172413793100e-01 1.666666666670e-01 0.000000000000e+00 5.000000000000e+04 0.000000000000e+00 -5.000000000000e+04 1.000000000000e-02 9.900000000000e-01 0.000000000000e+00 0.000000000000e+00 0.000000000000e+00 0.000000000000e+00 
7.172413793101e-01 2.500000000004e-01 0.000000000000e+00 5.000000000000e+04 0.000000000000e+00 -5.000000000000e+04 1.000000000000e-02 9.900000000000e-01 0.000000000000e+00 0.000000000000e+00 0.000000000000e+00 0.000000000000e+00 
8.068965517238e-01 1.666666666670e-01 0.000000000000e+00 5.000000000000e+04 0.000000000000e+00 -5.000000000000e+04 1.000000000000e-02 9.900000000000e-01 0.000000000000e+00 0.000000000000e+00 0.000000000000e+00 0.000000000000e+00 
21  1  3  47  
2  17  22  16  
47  3  4  48  
48  4  5  49  
49  5  6  50  
50  6  7  51  
51  7  8  52  
52  8  9  53  
53  9  10  54  
12  26  27  11  
13  25  26  12  
14  24  25  13  
15  23  24  14  
16  22  23  15  
17  18  28  22  
18  19  34  28  
19  20  40  34  
20  21  47  40  
22  28  29  23  
23  29  30  24  
24  30  31  25  
25  31  32  26  
26  32  33  27  
28  34  35  29  
29  35  36  30  
30  36  37  31  
31  37  38  32  
32  38  39  33  
34  40  41  35  
35  41  42  36  
36  42  43  37  
37  43  44  38  
38  44  45  39  
40  47  48  41  
41  48  49  42  
42  49  50  43  
43  50  51  44  
44  51  52  45  
45  52  53  46  
54  10  55  56  
11  27  57  58  
27  33  59  57  
33  39  60  59  
39  45  46  60  
60  46  61  62  
46  53  54  61  
61  54  56  63  
VARIABLES  = "X","Y","Z", "PRESSURE1", "PRESSURE2", "PRESSURE_W", "SATURATION1", SATURATION2, "VELOCITY_X1", "VELOCITY_Y1", "VELOCITY_X2", "VELOCITY_Y2"
ZONE T="5.000000000000e+02s", N=63, E=47, F=FEPOINT, ET=QUADRILATERAL
STRANDID=1, SOLUTIONTIME=5.000000000000e+02
0.000000000000e+00 0.000000000000e+00 0.000000000000e+00 5.000000000000e+03 2.000000000000e+05 1.950000000000e+05 9.820239812170e-01 1.797601878302e-02 1.051781329200e-04 5.051932987476e-13 1.694078032220e-05 2.141045627439e-14 
0.000000000000e+00 5.000000000000e-01 0.000000000000e+00 5.000000000000e+03 2.000000000000e+05 1.950000000000e+05 9.820239777738e-01 1.797602222621e-02 1.051781281379e-04 2.751632551197e-13 1.694078608762e-05 9.525812093982e-14 
8.965517241371e-02 0.000000000000e+00 0.000000000000e+00 6.453591125868e+03 2.013441818998e+05 1.948905907739e+05 5.927387949489e-01 4.072612050511e-01 3.945256755037e-05 4.265978674824e-13 -8.532511839711e-05 -2.098041942993e-13 
1.793103448274e-01 0.000000000000e+00 0.000000000000e+00 7.231076566119e+03 2.016177005549e+05 1.943866239888e+05 4.749207051602e-01 5.250792948398e-01 4.928537015206e-05 -4.069000618153e-12 -4.576544957762e-05 5.352629422913e-13 
2.689655172411e-01 0.000000000000e+00 0.000000000000e+00 8.672410136262e+03 2.017340174891e+05 1.930616073529e+05 2.573007409875e-01 7.426992590125e-01 2.246024756596e-05 6.347502529980e-12 -2.856801478800e-05 -8.915949355198e-12 
3.586206896548e-01 0.000000000000e+00 0.000000000000e+00 4.114785509284e+04 2.017416166620e+05 1.605937615692e+05 5.534439314997e-03 9.944655606850e-01 -1.921105941461e-06 -5.171461585883e-14 -4.236344270793e-06 -2.332813412243e-12 
4.482758620685e-01 0.000000000000e+00 0.000000000000e+00 4.999931374088e+04 2.017415673867e+05 1.517422536458e+05 9.939445700260e-03 9.900605542997e-01 3.826558300037e-11 -3.777043543501e-18 5.386603928001e-08 -5.528711329187e-12 
5.379310344822e-01 0.000000000000e+00 0.000000000000e+00 4.999999998498e+04 2.017415181158e+05 1.517415181308e+05 1.000000000572e-02 9.899999999943e-01 4.376895557275e-15 -8.281704848617e-20 5.386297898003e-08 -8.116370911485e-12 
6.275862068960e-01 0.000000000000e+00 0.000000000000e+00 5.000000001077e+04 2.017414688340e+05 1.517414688232e+05 9.999999995690e-03 9.900000000043e-01 5.497393956946e-16 -2.219240063345e-19 5.386025853701e-08 -2.171935999375e-11 
7.172413793097e-01 0.000000000000e+00 0.000000000000e+00 5.000000001117e+04 2.017414195680e+05 1.517414195569e+05 9.999999995532e-03 9.900000000045e-01 5.490294559763e-16 -1.720178588135e-19 5.380494336828e-08 -1.726170928141e-11 
5.379310344828e-01 5.000000000000e-01 0.000000000000e+00 4.999999998533e+04 2.017415184798e+05 1.517415184945e+05 1.000000000559e-02 9.899999999944e-01 4.376292465286e-15 -1.840844652970e-19 5.380155820136e-08 -1.803994608526e-11 
4.482758620690e-01 5.000000000000e-01 0.000000000000e+00 4.999931373673e+04 2.017415676930e+05 1.517422539563e+05 9.939445278888e-03 9.900605547211e-01 3.826560406279e-11 -9.416096354638e-19 5.381074530004e-08 -1.120927531351e-11 
3.586206896552e-01 5.000000000000e-01 0.000000000000e+00 4.114782811678e+04 2.017416169249e+05 1.605937888081e+05 5.534450477993e-03 9.944655495220e-01 -1.921111646914e-06 -2.250610265051e-14 -4.236399425330e-06 -7.949464018530e-12 
2.689655172414e-01 5.000000000000e-01 0.000000000000e+00 8.672407114434e+03 2.017340176956e+05 1.930616105811e+05 2.573009478426e-01 7.426990521574e-01 2.246030450317e-05 3.200890238438e-12 -2.856802011306e-05 -9.637409480533e-12 
1.793103448276e-01 5.000000000000e-01 0.000000000000e+00 7.231076437901e+03 2.016177007184e+05 1.943866242805e+05 4.749207306324e-01 5.250792693676e-01 4.928530063247e-05 -3.006435307847e-12 -4.576544980841e-05 -1.161086556831e-12 
8.965517241379e-02 5.000000000000e-01 0.000000000000e+00 6.453591290315e+03 2.013441820665e+05 1.948905907762e+05 5.927387642441e-01 4.072612357559e-01 3.945253910996e-05 1.777799652276e-13 -8.532514567592e-05 -8.575469824281e-13 
0.000000000000e+00 4.166666666668e-01 0.000000000000e+00 5.000000000000e+03 2.000000000000e+05 1.950000000000e+05 9.820239779936e-01 1.797602200641e-02 1.051781255175e-04 -4.288002746455e-14 1.694078575794e-05 2.384111628885e-13 
0.000000000000e+00 3.333333333337e-01 0.000000000000e+00 5.000000000000e+03 2.000000000000e+05 1.950000000000e+05 9.820239785515e-01 1.797602144851e-02 1.051781295871e-04 -2.148299585071e-13 1.694078478057e-05 4.527177106378e-13 
0.000000000000e+00 2.500000000007e-01 0.000000000000e+00 5.000000000000e+03 2.000000000000e+05 1.950000000000e+05 9.820239794115e-01 1.797602058849e-02 1.051781309262e-04 -6.606662891267e-14 1.694078333861e-05 5.496245931149e-13 
0.000000000000e+00 1.666666666672e-01 0.000000000000e+00 5.000000000000e+03 2.000000000000e+05 1.950000000000e+05 9.820239803588e-01 1.797601964123e-02 1.051781322761e-04 -2.843879061686e-13 1.694078175203e-05 5.338493357363e-13 
0.000000000000e+00 8.333333333368e-02 0.000000000000e+00 5.000000000000e+03 2.000000000000e+05 1.950000000000e+05 9.820239810698e-01 1.797601893015e-02 1.051781379225e-04 -9.258234852930e-17 1.694078050029e-05 2.568659451041e-13 
8.965517241378e-02 4.166666666668e-01 0.000000000000e+00 6.453591279817e+03 2.013441820589e+05 1.948905907791e+05 5.927387660716e-01 4.072612339284e-01 3.945254395312e-05 -2.118353826438e-13 -8.532514422212e-05 -2.107379017349e-12 
1.793103448276e-01 4.166666666668e-01 0.000000000000e+00 7.231076495605e+03 2.016177007134e+05 1.943866242178e+05 4.749207240810e-01 5.250792759190e-01 4.928528945687e-05 -2.697753305215e-12 -4.576545058798e-05 -4.622656064910e-12 
2.689655172413e-01 4.166666666667e-01 0.000000000000e+00 8.672406749141e+03 2.017340176802e+05 1.930616109310e+05 2.573009682849e-01 7.426990317151e-01 2.246030946481e-05 -3.322883875379e-12 -2.856801806758e-05 -1.403320195309e-11 
3.586206896551e-01 4.166666666667e-01 0.000000000000e+00 4.114782772688e+04 2.017416169183e+05 1.605937891914e+05 5.534450105617e-03 9.944655498944e-01 -1.921112103977e-06 4.279922560716e-14 -4.236402765820e-06 -3.407415823263e-11 
4.482758620689e-01 4.166666666667e-01 0.000000000000e+00 4.999931373700e+04 2.017415676835e+05 1.517422539465e+05 9.939445272665e-03 9.900605547273e-01 3.826560441656e-11 6.099706663279e-18 5.381555540696e-08 -4.047608329408e-11 
5.379310344827e-01 4.166666666667e-01 0.000000000000e+00 4.999999998533e+04 2.017415184645e+05 1.517415184792e+05 1.000000000559e-02 9.899999999944e-01 4.376366948158e-15 -5.265246656741e-19 5.380900180641e-08 -5.159951758880e-11 
8.965517241376e-02 3.333333333337e-01 0.000000000000e+00 6.453591253172e+03 2.013441820285e+05 1.948905907753e+05 5.927387711918e-01 4.072612288082e-01 3.945254520482e-05 -5.332958094835e-13 -8.532513951891e-05 -3.989708176650e-12 
1.793103448275e-01 3.333333333336e-01 0.000000000000e+00 7.231076462158e+03 2.016177006815e+05 1.943866242193e+05 4.749207254546e-01 5.250792745454e-01 4.928531687356e-05 -4.391890461173e-12 -4.576544976771e-05 -9.267189532587e-12 
2.689655172413e-01 3.333333333336e-01 0.000000000000e+00 8.672407810827e+03 2.017340176499e+05 1.930616098390e+05 2.573009003680e-01 7.426990996320e-01 2.246029146868e-05 -8.374195428732e-12 -2.856801948994e-05 -2.574378583818e-11 
3.586206896551e-01 3.333333333336e-01 0.000000000000e+00 4.114783420660e+04 2.017416168672e+05 1.605937826606e+05 5.534447981553e-03 9.944655520184e-01 -1.921110342286e-06 9.941680507453e-14 -4.236386680893e-06 -7.042968404322e-11 
4.482758620688e-01 3.333333333336e-01 0.000000000000e+00 4.999931373767e+04 2.017415676242e+05 1.517422538865e+05 9.939445374013e-03 9.900605546260e-01 3.826559934719e-11 1.311284716111e-17 5.382717898693e-08 -8.165079055765e-11 
5.379310344826e-01 3.333333333335e-01 0.000000000000e+00 4.999999998533e+04 2.017415183921e+05 1.517415184068e+05 1.000000000559e-02 9.899999999944e-01 4.376454910030e-15 -1.001366750033e-18 5.381798722861e-08 -9.820618467425e-11 
8.965517241375e-02 2.500000000007e-01 0.000000000000e+00 6.453591212097e+03 2.013441819867e+05 1.948905907746e+05 5.927387788541e-01 4.072612211459e-01 3.945255255014e-05 -4.370205368891e-13 -8.532513264933e-05 -4.853919773604e-12 
1.793103448275e-01 2.500000000006e-01 0.000000000000e+00 7.231076496825e+03 2.016177006397e+05 1.943866241428e+05 4.749207188469e-01 5.250792811531e-01 4.928533330640e-05 -6.428543860177e-12 -4.576544952902e-05 -1.081682653192e-11 
2.689655172413e-01 2.500000000006e-01 0.000000000000e+00 8.672408529472e+03 2.017340175960e+05 1.930616090665e+05 2.573008509459e-01 7.426991490541e-01 2.246027783652e-05 -8.275092900354e-12 -2.856801746915e-05 -3.296305452609e-11 
3.586206896550e-01 2.500000000005e-01 0.000000000000e+00 4.114784076646e+04 2.017416167989e+05 1.605937760324e+05 5.534445240151e-03 9.944655547598e-01 -1.921108973783e-06 1.054285401644e-13 -4.236372511194e-06 -8.310337870483e-11 
4.482758620688e-01 2.500000000005e-01 0.000000000000e+00 4.999931373870e+04 2.017415675447e+05 1.517422538060e+05 9.939445476469e-03 9.900605545235e-01 3.826559423365e-11 1.490318888344e-17 5.384156528982e-08 -9.579886209441e-11 
5.379310344825e-01 2.500000000004e-01 0.000000000000e+00 4.999999998520e+04 2.017415182975e+05 1.517415183123e+05 1.000000000564e-02 9.899999999944e-01 4.376625541809e-15 -1.143368049956e-18 5.383519188644e-08 -1.121786389474e-10 
8.965517241374e-02 1.666666666672e-01 0.000000000000e+00 6.453591166856e+03 2.013441819408e+05 1.948905907739e+05 5.927387873379e-01 4.072612126621e-01 3.945255942930e-05 -6.185182843147e-13 -8.532512517034e-05 -4.706947773990e-12 
1.793103448275e-01 1.666666666672e-01 0.000000000000e+00 7.231076518432e+03 2.016177005951e+05 1.943866240767e+05 4.749207130996e-01 5.250792869004e-01 4.928535754404e-05 -4.587133002000e-12 -4.576544945311e-05 -1.087629621189e-11 
2.689655172412e-01 1.666666666671e-01 0.000000000000e+00 8.672409550919e+03 2.017340175423e+05 1.930616079914e+05 2.573007823443e-01 7.426992176557e-01 2.246025914280e-05 -1.083963274310e-11 -2.856801694877e-05 -2.831093400705e-11 
3.586206896549e-01 1.666666666671e-01 0.000000000000e+00 4.114784905343e+04 2.017416167264e+05 1.605937676730e+05 5.534441965491e-03 9.944655580345e-01 -1.921107112539e-06 1.256364074466e-13 -4.236356082739e-06 -7.967888814260e-11 
4.482758620687e-01 1.666666666671e-01 0.000000000000e+00 4.999931373982e+04 2.017415674613e+05 1.517422537215e+05 9.939445605976e-03 9.900605543940e-01 3.826558772682e-11 1.626492675710e-17 5.385451551662e-08 -9.011867785728e-11 
5.379310344824e-01 1.666666666670e-01 0.000000000000e+00 4.999999998511e+04 2.017415182013e+05 1.517415182162e+05 1.000000000567e-02 9.899999999943e-01 4.376760252022e-15 -1.047331439496e-18 5.384900619152e-08 -1.027670926959e-10 
6.275862068961e-01 1.666666666670e-01 0.000000000000e+00 5.000000001102e+04 2.017414689341e+05 1.517414689231e+05 9.999999995591e-03 9.900000000044e-01 5.495409537670e-16 -1.140326258826e-18 5.384102625665e-08 -1.119129736734e-10 
8.965517241372e-02 8.333333333366e-02 0.000000000000e+00 6.453591132895e+03 2.013441819015e+05 1.948905907686e+05 5.927387938756e-01 4.072612061244e-01 3.945256079279e-05 -2.007695024226e-13 -8.532511912028e-05 -2.269033469538e-12 
1.793103448274e-01 8.333333333364e-02 0.000000000000e+00 7.231076471482e+03 2.016177005534e+05 1.943866240819e+05 4.749207155730e-01 5.250792844270e-01 4.928539134689e-05 -3.390446508193e-12 -4.576544828463e-05 -5.016907657341e-12 
2.689655172412e-01 8.333333333362e-02 0.000000000000e+00 8.672410846167e+03 2.017340175033e+05 1.930616066571e+05 2.573006996693e-01 7.426993003307e-01 2.246023727361e-05 -2.841656181571e-12 -2.856801946201e-05 -1.633518640112e-11 
3.586206896549e-01 8.333333333360e-02 0.000000000000e+00 4.114785683826e+04 2.017416166637e+05 1.605937598255e+05 5.534439446344e-03 9.944655605537e-01 -1.921104972946e-06 3.971510228034e-14 -4.236338887891e-06 -3.807213825029e-11 
4.482758620686e-01 8.333333333359e-02 0.000000000000e+00 4.999931374058e+04 2.017415673914e+05 1.517422536508e+05 9.939445727754e-03 9.900605542722e-01 3.826558158536e-11 6.015554002279e-18 5.386321605809e-08 -4.386353718753e-11 
5.379310344823e-01 8.333333333357e-02 0.000000000000e+00 4.999999998499e+04 2.017415181227e+05 1.517415181377e+05 1.000000000572e-02 9.899999999943e-01 4.376820278508e-15 -5.122561872409e-19 5.385545496531e-08 -5.027329161615e-11 
6.275862068961e-01 8.333333333355e-02 0.000000000000e+00 5.000000001075e+04 2.017414688524e+05 1.517414688417e+05 9.999999995700e-03 9.900000000043e-01 5.496979401420e-16 -5.994731156820e-19 5.385600830816e-08 -5.889380334098e-11 
7.172413793098e-01 8.333333333353e-02 0.000000000000e+00 5.000000001151e+04 2.017414195827e+05 1.517414195712e+05 9.999999995394e-03 9.900000000046e-01 5.490496971910e-16 -7.257519937393e-19 5.380697973048e-08 -7.096456896964e-11 
8.068965517235e-01 0.000000000000e+00 0.000000000000e+00 5.000000001087e+04 2.017413703874e+05 1.517413703765e+05 9.999999995651e-03 9.900000000043e-01 5.485500107187e-16 -1.783714574304e-19 5.375833791984e-08 -1.733757235290e-11 
8.068965517236e-01 8.333333333351e-02 0.000000000000e+00 5.000000001075e+04 2.017413704021e+05 1.517413703914e+05 9.999999995700e-03 9.900000000043e-01 5.485441054978e-16 -6.277445861679e-19 5.375826736269e-08 -6.139225782755e-11 
6.275862068965e-01 4.166666666667e-01 0.000000000000e+00 5.000000001087e+04 2.017414692295e+05 1.517414692186e+05 9.999999995651e-03 9.900000000043e-01 5.494443111560e-16 -5.933662192194e-19 5.381772698490e-08 -5.814965415198e-11 
6.275862068966e-01 5.000000000000e-01 0.000000000000e+00 5.000000001087e+04 2.017414692527e+05 1.517414692418e+05 9.999999995651e-03 9.900000000043e-01 5.493571852467e-16 -2.778194658067e-19 5.380918862484e-08 -2.722607519522e-11 
6.275862068964e-01 3.333333333335e-01 0.000000000000e+00 5.000000001087e+04 2.017414691538e+05 1.517414691429e+05 9.999999995650e-03 9.900000000043e-01 5.494814430162e-16 -1.121542094601e-18 5.382136511725e-08 -1.098231223379e-10 
6.275862068963e-01 2.500000000004e-01 0.000000000000e+00 5.000000001102e+04 2.017414690427e+05 1.517414690317e+05 9.999999995591e-03 9.900000000044e-01 5.495005839748e-16 -1.313810817413e-18 5.383248550486e-08 -1.286962047572e-10 
7.172413793100e-01 1.666666666670e-01 0.000000000000e+00 5.000000001090e+04 2.017414196887e+05 1.517414196778e+05 9.999999995640e-03 9.900000000044e-01 5.490935026597e-16 -1.326204681940e-18 5.381145050340e-08 -1.293907008747e-10 