VARIABLES  = "X","Y","Z", "PRESSURE1", "PRESSURE2", "PRESSURE_W", "SATURATION1", SATURATION2, "VELOCITY_X1", "VELOCITY_Y1", "VELOCITY_X2", "VELOCITY_Y2"
ZONE T="0.000000000000e+00s", N=59, E=44, F=FEPOINT, ET=QUADRILATERAL
STRANDID=1, SOLUTIONTIME=0.000000000000e+00
2.600000000000e+00 0.000000000000e+00 0.000000000000e+00 5.000000000000e+04 0.000000000000e+00 -5.000000000000e+04 1.000000000000e-02 9.900000000000e-01 0.000000000000e+00 0.000000000000e+00 0.000000000000e+00 0.000000000000e+00 
2.600000000000e+00 5.000000000000e-01 0.000000000000e+00 5.000000000000e+04 0.000000000000e+00 -5.000000000000e+04 1.000000000000e-02 9.900000000000e-01 0.000000000000e+00 0.000000000000e+00 0.000000000000e+00 0.000000000000e+00 
2.062068965517e+00 0.000000000000e+00 0.000000000000e+00 5.000000000000e+04 0.000000000000e+00 -5.000000000000e+04 1.000000000000e-02 9.900000000000e-01 0.000000000000e+00 0.000000000000e+00 0.000000000000e+00 0.000000000000e+00 
2.151724137931e+00 0.000000000000e+00 0.000000000000e+00 5.000000000000e+04 0.000000000000e+00 -5.000000000000e+04 1.000000000000e-02 9.900000000000e-01 0.000000000000e+00 0.000000000000e+00 0.000000000000e+00 0.000000000000e+00 
2.241379310345e+00 0.000000000000e+00 0.000000000000e+00 5.000000000000e+04 0.000000000000e+00 -5.000000000000e+04 1.000000000000e-02 9.900000000000e-01 0.000000000000e+00 0.000000000000e+00 0.000000000000e+00 0.000000000000e+00 
2.331034482759e+00 0.000000000000e+00 0.000000000000e+00 5.000000000000e+04 0.000000000000e+00 -5.000000000000e+04 1.000000000000e-02 9.900000000000e-01 0.000000000000e+00 0.000000000000e+00 0.000000000000e+00 0.000000000000e+00 
2.420689655172e+00 0.000000000000e+00 0.000000000000e+00 5.000000000000e+04 0.000000000000e+00 -5.000000000000e+04 1.000000000000e-02 9.900000000000e-01 0.000000000000e+00 0.000000000000e+00 0.000000000000e+00 0.000000000000e+00 
2.510344827586e+00 0.000000000000e+00 0.000000000000e+00 5.000000000000e+04 0.000000000000e+00 -5.000000000000e+04 1.000000000000e-02 9.900000000000e-01 0.000000000000e+00 0.000000000000e+00 0.000000000000e+00 0.000000000000e+00 
2.600000000000e+00 8.333333333313e-02 0.000000000000e+00 5.000000000000e+04 0.000000000000e+00 -5.000000000000e+04 1.000000000000e-02 9.900000000000e-01 0.000000000000e+00 0.000000000000e+00 0.000000000000e+00 0.000000000000e+00 
2.600000000000e+00 1.666666666663e-01 0.000000000000e+00 5.000000000000e+04 0.000000000000e+00 -5.000000000000e+04 1.000000000000e-02 9.900000000000e-01 0.000000000000e+00 0.000000000000e+00 0.000000000000e+00 0.000000000000e+00 
2.600000000000e+00 2.499999999995e-01 0.000000000000e+00 5.000000000000e+04 0.000000000000e+00 -5.000000000000e+04 1.000000000000e-02 9.900000000000e-01 0.000000000000e+00 0.000000000000e+00 0.000000000000e+00 0.000000000000e+00 
2.600000000000e+00 3.333333333329e-01 0.000000000000e+00 5.000000000000e+04 0.000000000000e+00 -5.000000000000e+04 1.000000000000e-02 9.900000000000e-01 0.000000000000e+00 0.000000000000e+00 0.000000000000e+00 0.000000000000e+00 
2.600000000000e+00 4.166666666664e-01 0.000000000000e+00 5.000000000000e+04 0.000000000000e+00 -5.000000000000e+04 1.000000000000e-02 9.900000000000e-01 0.000000000000e+00 0.000000000000e+00 0.000000000000e+00 0.000000000000e+00 
2.510344827586e+00 5.000000000000e-01 0.000000000000e+00 5.000000000000e+04 0.000000000000e+00 -5.000000000000e+04 1.000000000000e-02 9.900000000000e-01 0.000000000000e+00 0.000000000000e+00 0.000000000000e+00 0.000000000000e+00 
2.420689655173e+00 5.000000000000e-01 0.000000000000e+00 5.000000000000e+04 0.000000000000e+00 -5.000000000000e+04 1.000000000000e-02 9.900000000000e-01 0.000000000000e+00 0.000000000000e+00 0.000000000000e+00 0.000000000000e+00 
2.331034482759e+00 5.000000000000e-01 0.000000000000e+00 5.000000000000e+04 0.000000000000e+00 -5.000000000000e+04 1.000000000000e-02 9.900000000000e-01 0.000000000000e+00 0.000000000000e+00 0.000000000000e+00 0.000000000000e+00 
2.241379310346e+00 5.000000000000e-01 0.000000000000e+00 5.000000000000e+04 0.000000000000e+00 -5.000000000000e+04 1.000000000000e-02 9.900000000000e-01 0.000000000000e+00 0.000000000000e+00 0.000000000000e+00 0.000000000000e+00 
2.151724137932e+00 5.000000000000e-01 0.000000000000e+00 5.000000000000e+04 0.000000000000e+00 -5.000000000000e+04 1.000000000000e-02 9.900000000000e-01 0.000000000000e+00 0.000000000000e+00 0.000000000000e+00 0.000000000000e+00 
2.062068965518e+00 5.000000000000e-01 0.000000000000e+00 5.000000000000e+04 0.000000000000e+00 -5.000000000000e+04 1.000000000000e-02 9.900000000000e-01 0.000000000000e+00 0.000000000000e+00 0.000000000000e+00 0.000000000000e+00 
1.972413793105e+00 5.000000000000e-01 0.000000000000e+00 5.000000000000e+04 0.000000000000e+00 -5.000000000000e+04 1.000000000000e-02 9.900000000000e-01 0.000000000000e+00 0.000000000000e+00 0.000000000000e+00 0.000000000000e+00 
1.972413793105e+00 4.166666666665e-01 0.000000000000e+00 5.000000000000e+04 0.000000000000e+00 -5.000000000000e+04 1.000000000000e-02 9.900000000000e-01 0.000000000000e+00 0.000000000000e+00 0.000000000000e+00 0.000000000000e+00 
2.062068965518e+00 4.166666666665e-01 0.000000000000e+00 5.000000000000e+04 0.000000000000e+00 -5.000000000000e+04 1.000000000000e-02 9.900000000000e-01 0.000000000000e+00 0.000000000000e+00 0.000000000000e+00 0.000000000000e+00 
2.151724137932e+00 4.166666666665e-01 0.000000000000e+00 5.000000000000e+04 0.000000000000e+00 -5.000000000000e+04 1.000000000000e-02 9.900000000000e-01 0.000000000000e+00 0.000000000000e+00 0.000000000000e+00 0.000000000000e+00 
2.241379310345e+00 4.166666666665e-01 0.000000000000e+00 5.000000000000e+04 0.000000000000e+00 -5.000000000000e+04 1.000000000000e-02 9.900000000000e-01 0.000000000000e+00 0.000000000000e+00 0.000000000000e+00 0.000000000000e+00 
2.331034482759e+00 4.166666666665e-01 0.000000000000e+00 5.000000000000e+04 0.000000000000e+00 -5.000000000000e+04 1.000000000000e-02 9.900000000000e-01 0.000000000000e+00 0.000000000000e+00 0.000000000000e+00 0.000000000000e+00 
2.420689655173e+00 4.166666666665e-01 0.000000000000e+00 5.000000000000e+04 0.000000000000e+00 -5.000000000000e+04 1.000000000000e-02 9.900000000000e-01 0.000000000000e+00 0.000000000000e+00 0.000000000000e+00 0.000000000000e+00 
2.510344827586e+00 4.166666666665e-01 0.000000000000e+00 5.000000000000e+04 0.000000000000e+00 -5.000000000000e+04 1.000000000000e-02 9.900000000000e-01 0.000000000000e+00 0.000000000000e+00 0.000000000000e+00 0.000000000000e+00 
2.062068965518e+00 3.333333333331e-01 0.000000000000e+00 5.000000000000e+04 0.000000000000e+00 -5.000000000000e+04 1.000000000000e-02 9.900000000000e-01 0.000000000000e+00 0.000000000000e+00 0.000000000000e+00 0.000000000000e+00 
2.151724137932e+00 3.333333333331e-01 0.000000000000e+00 5.000000000000e+04 0.000000000000e+00 -5.000000000000e+04 1.000000000000e-02 9.900000000000e-01 0.000000000000e+00 0.000000000000e+00 0.000000000000e+00 0.000000000000e+00 
2.241379310345e+00 3.333333333330e-01 0.000000000000e+00 5.000000000000e+04 0.000000000000e+00 -5.000000000000e+04 1.000000000000e-02 9.900000000000e-01 0.000000000000e+00 0.000000000000e+00 0.000000000000e+00 0.000000000000e+00 
2.331034482759e+00 3.333333333330e-01 0.000000000000e+00 5.000000000000e+04 0.000000000000e+00 -5.000000000000e+04 1.000000000000e-02 9.900000000000e-01 0.000000000000e+00 0.000000000000e+00 0.000000000000e+00 0.000000000000e+00 
2.420689655173e+00 3.333333333330e-01 0.000000000000e+00 5.000000000000e+04 0.000000000000e+00 -5.000000000000e+04 1.000000000000e-02 9.900000000000e-01 0.000000000000e+00 0.000000000000e+00 0.000000000000e+00 0.000000000000e+00 
2.510344827586e+00 3.333333333330e-01 0.000000000000e+00 5.000000000000e+04 0.000000000000e+00 -5.000000000000e+04 1.000000000000e-02 9.900000000000e-01 0.000000000000e+00 0.000000000000e+00 0.000000000000e+00 0.000000000000e+00 
2.062068965518e+00 2.499999999998e-01 0.000000000000e+00 5.000000000000e+04 0.000000000000e+00 -5.000000000000e+04 1.000000000000e-02 9.900000000000e-01 0.000000000000e+00 0.000000000000e+00 0.000000000000e+00 0.000000000000e+00 
2.151724137932e+00 2.499999999997e-01 0.000000000000e+00 5.000000000000e+04 0.000000000000e+00 -5.000000000000e+04 1.000000000000e-02 9.900000000000e-01 0.000000000000e+00 0.000000000000e+00 0.000000000000e+00 0.000000000000e+00 
2.241379310345e+00 2.499999999997e-01 0.000000000000e+00 5.000000000000e+04 0.000000000000e+00 -5.000000000000e+04 1.000000000000e-02 9.900000000000e-01 0.000000000000e+00 0.000000000000e+00 0.000000000000e+00 0.000000000000e+00 
2.331034482759e+00 2.499999999996e-01 0.000000000000e+00 5.000000000000e+04 0.000000000000e+00 -5.000000000000e+04 1.000000000000e-02 9.900000000000e-01 0.000000000000e+00 0.000000000000e+00 0.000000000000e+00 0.000000000000e+00 
2.420689655173e+00 2.499999999996e-01 0.000000000000e+00 5.000000000000e+04 0.000000000000e+00 -5.000000000000e+04 1.000000000000e-02 9.900000000000e-01 0.000000000000e+00 0.000000000000e+00 0.000000000000e+00 0.000000000000e+00 
2.510344827586e+00 2.499999999996e-01 0.000000000000e+00 5.000000000000e+04 0.000000000000e+00 -5.000000000000e+04 1.000000000000e-02 9.900000000000e-01 0.000000000000e+00 0.000000000000e+00 0.000000000000e+00 0.000000000000e+00 
2.062068965518e+00 1.666666666665e-01 0.000000000000e+00 5.000000000000e+04 0.000000000000e+00 -5.000000000000e+04 1.000000000000e-02 9.900000000000e-01 0.000000000000e+00 0.000000000000e+00 0.000000000000e+00 0.000000000000e+00 
2.151724137931e+00 1.666666666665e-01 0.000000000000e+00 5.000000000000e+04 0.000000000000e+00 -5.000000000000e+04 1.000000000000e-02 9.900000000000e-01 0.000000000000e+00 0.000000000000e+00 0.000000000000e+00 0.000000000000e+00 
2.241379310345e+00 1.666666666664e-01 0.000000000000e+00 5.000000000000e+04 0.000000000000e+00 -5.000000000000e+04 1.000000000000e-02 9.900000000000e-01 0.000000000000e+00 0.000000000000e+00 0.000000000000e+00 0.000000000000e+00 
2.331034482759e+00 1.666666666664e-01 0.000000000000e+00 5.000000000000e+04 0.000000000000e+00 -5.000000000000e+04 1.000000000000e-02 9.900000000000e-01 0.000000000000e+00 0.000000000000e+00 0.000000000000e+00 0.000000000000e+00 
2.420689655173e+00 1.666666666664e-01 0.000000000000e+00 5.000000000000e+04 0.000000000000e+00 -5.000000000000e+04 1.000000000000e-02 9.900000000000e-01 0.000000000000e+00 0.000000000000e+00 0.000000000000e+00 0.000000000000e+00 
2.510344827586e+00 1.666666666663e-01 0.000000000000e+00 5.000000000000e+04 0.000000000000e+00 -5.000000000000e+04 1.000000000000e-02 9.900000000000e-01 0.000000000000e+00 0.000000000000e+00 0.000000000000e+00 0.000000000000e+00 
2.062068965518e+00 8.333333333325e-02 0.000000000000e+00 5.000000000000e+04 0.000000000000e+00 -5.000000000000e+04 1.000000000000e-02 9.900000000000e-01 0.000000000000e+00 0.000000000000e+00 0.000000000000e+00 0.000000000000e+00 
2.151724137931e+00 8.333333333323e-02 0.000000000000e+00 5.000000000000e+04 0.000000000000e+00 -5.000000000000e+04 1.000000000000e-02 9.900000000000e-01 0.000000000000e+00 0.000000000000e+00 0.000000000000e+00 0.000000000000e+00 
2.241379310345e+00 8.333333333321e-02 0.000000000000e+00 5.000000000000e+04 0.000000000000e+00 -5.000000000000e+04 1.000000000000e-02 9.900000000000e-01 0.000000000000e+00 0.000000000000e+00 0.000000000000e+00 0.000000000000e+00 
2.331034482759e+00 8.333333333319e-02 0.000000000000e+00 5.000000000000e+04 0.000000000000e+00 -5.000000000000e+04 1.000000000000e-02 9.900000000000e-01 0.000000000000e+00 0.000000000000e+00 0.000000000000e+00 0.000000000000e+00 
2.420689655173e+00 8.333333333317e-02 0.000000000000e+00 5.000000000000e+04 0.000000000000e+00 -5.000000000000e+04 1.000000000000e-02 9.900000000000e-01 0.000000000000e+00 0.000000000000e+00 0.000000000000e+00 0.000000000000e+00 
2.510344827586e+00 8.333333333315e-02 0.000000000000e+00 5.000000000000e+04 0.000000000000e+00 -5.000000000000e+04 1.000000000000e-02 9.900000000000e-01 0.000000000000e+00 0.000000000000e+00 0.000000000000e+00 0.000000000000e+00 
1.972413793104e+00 8.333333333327e-02 0.000000000000e+00 5.000000000000e+04 0.000000000000e+00 -5.000000000000e+04 1.000000000000e-02 9.900000000000e-01 0.000000000000e+00 0.000000000000e+00 0.000000000000e+00 0.000000000000e+00 
1.972413793104e+00 0.000000000000e+00 0.000000000000e+00 5.000000000000e+04 0.000000000000e+00 -5.000000000000e+04 1.000000000000e-02 9.900000000000e-01 0.000000000000e+00 0.000000000000e+00 0.000000000000e+00 0.000000000000e+00 
1.882758620691e+00 5.000000000000e-01 0.000000000000e+00 5.000000000000e+04 0.000000000000e+00 -5.000000000000e+04 1.000000000000e-02 9.900000000000e-01 0.000000000000e+00 0.000000000000e+00 0.000000000000e+00 0.000000000000e+00 
1.882758620691e+00 4.166666666665e-01 0.000000000000e+00 5.000000000000e+04 0.000000000000e+00 -5.000000000000e+04 1.000000000000e-02 9.900000000000e-01 0.000000000000e+00 0.000000000000e+00 0.000000000000e+00 0.000000000000e+00 
1.882758620691e+00 3.333333333332e-01 0.000000000000e+00 5.000000000000e+04 0.000000000000e+00 -5.000000000000e+04 1.000000000000e-02 9.900000000000e-01 0.000000000000e+00 0.000000000000e+00 0.000000000000e+00 0.000000000000e+00 
1.972413793104e+00 3.333333333331e-01 0.000000000000e+00 5.000000000000e+04 0.000000000000e+00 -5.000000000000e+04 1.000000000000e-02 9.900000000000e-01 0.000000000000e+00 0.000000000000e+00 0.000000000000e+00 0.000000000000e+00 
1.972413793104e+00 2.499999999998e-01 0.000000000000e+00 5.000000000000e+04 0.000000000000e+00 -5.000000000000e+04 1.000000000000e-02 9.900000000000e-01 0.000000000000e+00 0.000000000000e+00 0.000000000000e+00 0.000000000000e+00 
1.972413793104e+00 1.666666666665e-01 0.000000000000e+00 5.000000000000e+04 0.000000000000e+00 -5.000000000000e+04 1.000000000000e-02 9.900000000000e-01 0.000000000000e+00 0.000000000000e+00 0.000000000000e+00 0.000000000000e+00 
51  8  1  9  
14  27  13  2  
46  3  4  47  
47  4  5  48  
48  5  6  49  
49  6  7  50  
50  7  8  51  
45  51  9  10  
39  45  10  11  
33  39  11  12  
27  33  12  13  
15  26  27  14  
16  25  26  15  
17  24  25  16  
18  23  24  17  
19  22  23  18  
20  21  22  19  
22  28  29  23  
23  29  30  24  
24  30  31  25  
25  31  32  26  
26  32  33  27  
28  34  35  29  
29  35  36  30  
30  36  37  31  
31  37  38  32  
32  38  39  33  
34  40  41  35  
35  41  42  36  
36  42  43  37  
37  43  44  38  
38  44  45  39  
40  46  47  41  
41  47  48  42  
42  48  49  43  
43  49  50  44  
44  50  51  45  
52  53  3  46  
54  55  21  20  
55  56  57  21  
21  57  28  22  
57  58  34  28  
58  59  40  34  
59  52  46  40  
VARIABLES  = "X","Y","Z", "PRESSURE1", "PRESSURE2", "PRESSURE_W", "SATURATION1", SATURATION2, "VELOCITY_X1", "VELOCITY_Y1", "VELOCITY_X2", "VELOCITY_Y2"
ZONE T="5.000000000000e+02s", N=59, E=44, F=FEPOINT, ET=QUADRILATERAL
STRANDID=1, SOLUTIONTIME=5.000000000000e+02
2.600000000000e+00 0.000000000000e+00 0.000000000000e+00 4.999999986849e+04 2.017399706063e+05 1.517399707378e+05 1.000000005260e-02 9.899999999474e-01 -3.836940293541e-18 2.030185313705e-18 -3.770169014878e-10 1.999647596235e-10 
2.600000000000e+00 5.000000000000e-01 0.000000000000e+00 4.999999986851e+04 2.017399703486e+05 1.517399704801e+05 1.000000005260e-02 9.899999999474e-01 1.600311863766e-18 1.343174318005e-19 1.558159319248e-10 1.213631571543e-11 
2.062068965517e+00 0.000000000000e+00 0.000000000000e+00 4.999999986783e+04 2.017399924311e+05 1.517399925632e+05 1.000000005287e-02 9.899999999471e-01 1.699374104614e-16 1.334273583546e-17 1.665409180133e-08 1.307590196436e-09 
2.151724137931e+00 0.000000000000e+00 0.000000000000e+00 4.999999986748e+04 2.017399816522e+05 1.517399817848e+05 1.000000005301e-02 9.899999999470e-01 9.904905088995e-17 1.647270420032e-17 9.707018338195e-09 1.614327825138e-09 
2.241379310345e+00 0.000000000000e+00 0.000000000000e+00 4.999999986748e+04 2.017399746702e+05 1.517399748027e+05 1.000000005301e-02 9.899999999470e-01 5.798099604328e-17 1.192499867534e-17 5.682148909173e-09 1.168651997882e-09 
2.331034482759e+00 0.000000000000e+00 0.000000000000e+00 4.999999986748e+04 2.017399712556e+05 1.517399713882e+05 1.000000005301e-02 9.899999999470e-01 2.512498445266e-17 6.547828488592e-18 2.462253372428e-09 6.416882079371e-10 
2.420689655172e+00 0.000000000000e+00 0.000000000000e+00 4.999999986748e+04 2.017399701650e+05 1.517399702975e+05 1.000000005301e-02 9.899999999470e-01 5.545641828155e-18 2.540502807665e-18 5.434201404974e-10 2.489700888448e-10 
2.510344827586e+00 0.000000000000e+00 0.000000000000e+00 4.999999986758e+04 2.017399702614e+05 1.517399703938e+05 1.000000005297e-02 9.899999999470e-01 -2.455211466305e-18 1.875238490877e-19 -2.411631303621e-10 1.834474833473e-11 
2.600000000000e+00 8.333333333313e-02 0.000000000000e+00 4.999999986763e+04 2.017399704362e+05 1.517399705686e+05 1.000000005295e-02 9.899999999471e-01 -2.124209771731e-18 1.962537277901e-18 -2.082033657228e-10 1.929227473186e-10 
2.600000000000e+00 1.666666666663e-01 0.000000000000e+00 4.999999986748e+04 2.017399702782e+05 1.517399704107e+05 1.000000005301e-02 9.899999999470e-01 -1.012253237243e-18 1.038125639976e-18 -9.920128388502e-11 1.018274035375e-10 
2.600000000000e+00 2.499999999995e-01 0.000000000000e+00 4.999999986748e+04 2.017399702631e+05 1.517399703956e+05 1.000000005301e-02 9.899999999470e-01 -2.528727569976e-19 -4.232414788329e-20 -2.478151078422e-11 -4.147704364590e-12 
2.600000000000e+00 3.333333333329e-01 0.000000000000e+00 4.999999986748e+04 2.017399702852e+05 1.517399704177e+05 1.000000005301e-02 9.899999999470e-01 1.404432043179e-20 -5.740622042420e-19 1.376529725213e-12 -5.634885636599e-11 
2.600000000000e+00 4.166666666664e-01 0.000000000000e+00 4.999999986763e+04 2.017399703589e+05 1.517399704913e+05 1.000000005295e-02 9.899999999471e-01 -7.313398049925e-19 -3.738988625024e-19 -7.170222140604e-11 -3.724592490568e-11 
2.510344827586e+00 5.000000000000e-01 0.000000000000e+00 4.999999986758e+04 2.017399704911e+05 1.517399706235e+05 1.000000005297e-02 9.899999999470e-01 4.424972746273e-18 -2.374219028294e-18 4.330867265590e-10 -2.326419639216e-10 
2.420689655173e+00 5.000000000000e-01 0.000000000000e+00 4.999999986748e+04 2.017399711410e+05 1.517399712735e+05 1.000000005301e-02 9.899999999470e-01 1.404652474682e-17 -5.546501543338e-18 1.376508492124e-09 -5.435578292834e-10 
2.331034482759e+00 5.000000000000e-01 0.000000000000e+00 4.999999986748e+04 2.017399730097e+05 1.517399731422e+05 1.000000005301e-02 9.899999999470e-01 3.285993673557e-17 -9.497100382734e-18 3.220280320705e-09 -9.307175259491e-10 
2.241379310346e+00 5.000000000000e-01 0.000000000000e+00 4.999999986748e+04 2.017399770331e+05 1.517399771656e+05 1.000000005301e-02 9.899999999470e-01 6.259053158148e-17 -1.348926040898e-17 6.133884192876e-09 -1.321949576019e-09 
2.151724137932e+00 5.000000000000e-01 0.000000000000e+00 4.999999986748e+04 2.017399842328e+05 1.517399843654e+05 1.000000005301e-02 9.899999999470e-01 1.046918756407e-16 -1.623121120155e-17 1.025982486460e-08 -1.590661225630e-09 
2.062068965518e+00 5.000000000000e-01 0.000000000000e+00 4.999999986748e+04 2.017399958054e+05 1.517399959380e+05 1.000000005301e-02 9.899999999470e-01 1.559795594880e-16 -2.305179577233e-17 1.528621972527e-08 -2.258931928603e-09 
1.972413793105e+00 5.000000000000e-01 0.000000000000e+00 4.999999986783e+04 2.017400122019e+05 1.517400123341e+05 1.000000005287e-02 9.899999999471e-01 2.406425696994e-16 -1.424369532760e-17 2.358321100190e-08 -1.395703445381e-09 
1.972413793105e+00 4.166666666665e-01 0.000000000000e+00 4.999999986799e+04 2.017400110151e+05 1.517400111471e+05 1.000000005281e-02 9.899999999472e-01 2.508490760733e-16 -3.726506244499e-18 2.458331260218e-08 -3.651077023027e-10 
2.062068965518e+00 4.166666666665e-01 0.000000000000e+00 4.999999986761e+04 2.017399938846e+05 1.517399940170e+05 1.000000005296e-02 9.899999999470e-01 1.569032448828e-16 -1.149812607222e-17 1.537682509870e-08 -1.126686772876e-09 
2.151724137932e+00 4.166666666665e-01 0.000000000000e+00 4.999999986748e+04 2.017399828802e+05 1.517399830128e+05 1.000000005301e-02 9.899999999470e-01 1.002477486502e-16 -6.677177093081e-18 9.824368280172e-09 -6.543642795998e-10 
2.241379310345e+00 4.166666666665e-01 0.000000000000e+00 4.999999986748e+04 2.017399759090e+05 1.517399760415e+05 1.000000005301e-02 9.899999999470e-01 5.946089686916e-17 -5.656446812016e-18 5.827179591537e-09 -5.543325240853e-10 
2.331034482759e+00 4.166666666665e-01 0.000000000000e+00 4.999999986748e+04 2.017399722183e+05 1.517399723508e+05 1.000000005301e-02 9.899999999470e-01 2.916859010135e-17 -4.109972901129e-18 2.858527752646e-09 -4.027781050856e-10 
2.420689655173e+00 4.166666666665e-01 0.000000000000e+00 4.999999986748e+04 2.017399706788e+05 1.517399708113e+05 1.000000005301e-02 9.899999999470e-01 1.073621110905e-17 -2.517212685827e-18 1.052082338460e-09 -2.466870792038e-10 
2.510344827586e+00 4.166666666665e-01 0.000000000000e+00 4.999999986761e+04 2.017399702933e+05 1.517399704257e+05 1.000000005296e-02 9.899999999470e-01 1.784848919587e-18 -1.227201442620e-18 1.748315216945e-10 -1.203237108769e-10 
2.062068965518e+00 3.333333333331e-01 0.000000000000e+00 4.999999986770e+04 2.017399938893e+05 1.517399940216e+05 1.000000005292e-02 9.899999999471e-01 1.587221704987e-16 -4.363932556749e-18 1.555507998169e-08 -4.275341113064e-10 
2.151724137932e+00 3.333333333331e-01 0.000000000000e+00 4.999999986748e+04 2.017399831200e+05 1.517399832525e+05 1.000000005301e-02 9.899999999470e-01 9.926210949192e-17 -7.416270679207e-19 9.727828906190e-09 -7.267962720612e-11 
2.241379310345e+00 3.333333333330e-01 0.000000000000e+00 4.999999986748e+04 2.017399760904e+05 1.517399762229e+05 1.000000005301e-02 9.899999999470e-01 6.020434797172e-17 -7.004217916156e-19 5.900038051177e-09 -6.864133823863e-11 
2.331034482759e+00 3.333333333330e-01 0.000000000000e+00 4.999999986748e+04 2.017399723247e+05 1.517399724572e+05 1.000000005301e-02 9.899999999470e-01 2.994205841354e-17 -6.945695909202e-19 2.934327796095e-09 -6.806806047082e-11 
2.420689655173e+00 3.333333333330e-01 0.000000000000e+00 4.999999986748e+04 2.017399707214e+05 1.517399708540e+05 1.000000005301e-02 9.899999999470e-01 1.136702559390e-17 -5.141503436988e-19 1.113970712106e-09 -5.038644475933e-11 
2.510344827586e+00 3.333333333330e-01 0.000000000000e+00 4.999999986748e+04 2.017399702865e+05 1.517399704190e+05 1.000000005301e-02 9.899999999470e-01 2.432790073134e-18 -3.166799135432e-19 2.384139198255e-10 -3.110869593985e-11 
2.062068965518e+00 2.499999999998e-01 0.000000000000e+00 4.999999986783e+04 2.017399931575e+05 1.517399932897e+05 1.000000005287e-02 9.899999999471e-01 1.657662797250e-16 -8.126721553754e-18 1.624532021463e-08 -7.963459054128e-10 
2.151724137932e+00 2.499999999997e-01 0.000000000000e+00 4.999999986748e+04 2.017399827566e+05 1.517399828891e+05 1.000000005301e-02 9.899999999470e-01 9.684256199810e-17 -7.568086785905e-18 9.490782005395e-09 -7.416741013189e-10 
2.241379310345e+00 2.499999999997e-01 0.000000000000e+00 4.999999986748e+04 2.017399757923e+05 1.517399759248e+05 1.000000005301e-02 9.899999999470e-01 5.941715739695e-17 -6.487579968022e-18 5.822893193942e-09 -6.357843087848e-10 
2.331034482759e+00 2.499999999996e-01 0.000000000000e+00 4.999999986748e+04 2.017399721025e+05 1.517399722350e+05 1.000000005301e-02 9.899999999470e-01 2.899545359846e-17 -4.580424958453e-18 2.841560069555e-09 -4.488824027061e-10 
2.420689655173e+00 2.499999999996e-01 0.000000000000e+00 4.999999986748e+04 2.017399705931e+05 1.517399707256e+05 1.000000005301e-02 9.899999999470e-01 1.038496739732e-17 -2.361142021160e-18 1.017729062104e-09 -2.313923479897e-10 
2.510344827586e+00 2.499999999996e-01 0.000000000000e+00 4.999999986748e+04 2.017399702404e+05 1.517399703729e+05 1.000000005301e-02 9.899999999470e-01 1.840535961440e-18 -5.944011394996e-19 1.803734552233e-10 -5.825162211187e-11 
2.062068965518e+00 1.666666666665e-01 0.000000000000e+00 4.999999986783e+04 2.017399925350e+05 1.517399926672e+05 1.000000005287e-02 9.899999999471e-01 1.692871046172e-16 -1.102999431944e-17 1.659036148799e-08 -1.080941708446e-09 
2.151724137931e+00 1.666666666665e-01 0.000000000000e+00 4.999999986748e+04 2.017399818586e+05 1.517399819911e+05 1.000000005301e-02 9.899999999470e-01 9.773854871434e-17 -1.486267323043e-17 9.578588977113e-09 -1.456544913705e-09 
2.241379310345e+00 1.666666666664e-01 0.000000000000e+00 4.999999986748e+04 2.017399750091e+05 1.517399751416e+05 1.000000005301e-02 9.899999999470e-01 5.742735469370e-17 -1.269500341058e-17 5.627891962018e-09 -1.244113015194e-09 
2.331034482759e+00 1.666666666664e-01 0.000000000000e+00 4.999999986748e+04 2.017399715613e+05 1.517399716938e+05 1.000000005301e-02 9.899999999470e-01 2.610658749308e-17 -8.355123830444e-18 2.558450662561e-09 -8.188036344859e-10 
2.420689655173e+00 1.666666666664e-01 0.000000000000e+00 4.999999986748e+04 2.017399703279e+05 1.517399704604e+05 1.000000005301e-02 9.899999999470e-01 7.662067925955e-18 -3.838664974477e-18 7.508844424617e-10 -3.761904202040e-10 
2.510344827586e+00 1.666666666663e-01 0.000000000000e+00 4.999999986748e+04 2.017399701874e+05 1.517399703199e+05 1.000000005301e-02 9.899999999470e-01 2.774782968797e-19 3.147552116965e-20 2.719295060072e-11 3.159122589703e-12 
2.062068965518e+00 8.333333333325e-02 0.000000000000e+00 4.999999986783e+04 2.017399913192e+05 1.517399914513e+05 1.000000005287e-02 9.899999999471e-01 1.736518939660e-16 -6.236092840931e-19 1.701811165397e-08 -6.111407510184e-11 
2.151724137931e+00 8.333333333323e-02 0.000000000000e+00 4.999999986748e+04 2.017399802795e+05 1.517399804120e+05 1.000000005301e-02 9.899999999470e-01 9.839016681745e-17 -1.238289888903e-18 9.642447675796e-09 -1.213528438345e-10 
2.241379310345e+00 8.333333333321e-02 0.000000000000e+00 4.999999986748e+04 2.017399736764e+05 1.517399738090e+05 1.000000005301e-02 9.899999999470e-01 5.336847361742e-17 -2.033529097681e-18 5.230120848758e-09 -1.992863090610e-10 
2.331034482759e+00 8.333333333319e-02 0.000000000000e+00 4.999999986748e+04 2.017399707100e+05 1.517399708425e+05 1.000000005301e-02 9.899999999470e-01 2.076360015364e-17 -1.833931875211e-18 2.034837132438e-09 -1.797258437602e-10 
2.420689655173e+00 8.333333333317e-02 0.000000000000e+00 4.999999986748e+04 2.017399699533e+05 1.517399700858e+05 1.000000005301e-02 9.899999999470e-01 2.589730722264e-18 -9.774597976441e-19 2.537252509002e-10 -9.579134169816e-11 
2.510344827586e+00 8.333333333315e-02 0.000000000000e+00 4.999999986761e+04 2.017399702458e+05 1.517399703781e+05 1.000000005296e-02 9.899999999470e-01 -2.692378611113e-18 4.430509852724e-19 -2.639380528079e-10 4.347712047885e-11 
1.972413793104e+00 8.333333333327e-02 0.000000000000e+00 4.999999986783e+04 2.017400114174e+05 1.517400115496e+05 1.000000005287e-02 9.899999999471e-01 2.241732090514e-16 -5.386506468147e-19 2.196901858756e-08 -5.278784394344e-11 
1.972413793104e+00 0.000000000000e+00 0.000000000000e+00 4.999999986783e+04 2.017400121241e+05 1.517400122563e+05 1.000000005287e-02 9.899999999471e-01 2.196535081120e-16 8.480160416078e-18 2.152608753475e-08 8.310575061212e-10 
1.882758620691e+00 5.000000000000e-01 0.000000000000e+00 4.999999986783e+04 2.017400389555e+05 1.517400390877e+05 1.000000005287e-02 9.899999999471e-01 2.984051657968e-16 -1.090209818558e-18 2.924376516395e-08 -1.069892245119e-10 
1.882758620691e+00 4.166666666665e-01 0.000000000000e+00 4.999999986770e+04 2.017400388645e+05 1.517400389968e+05 1.000000005292e-02 9.899999999471e-01 3.106311621869e-16 8.115508395693e-18 3.044160848813e-08 7.951891768432e-10 
1.882758620691e+00 3.333333333332e-01 0.000000000000e+00 4.999999986761e+04 2.017400403079e+05 1.517400404403e+05 1.000000005296e-02 9.899999999470e-01 3.204191679022e-16 1.732122669775e-17 3.140072733940e-08 1.697367578062e-09 
1.972413793104e+00 3.333333333331e-01 0.000000000000e+00 4.999999986798e+04 2.017400115810e+05 1.517400117130e+05 1.000000005281e-02 9.899999999472e-01 2.383578663540e-16 8.126078321419e-18 2.335918435335e-08 7.962969004254e-10 
1.972413793104e+00 2.499999999998e-01 0.000000000000e+00 4.999999986783e+04 2.017400124806e+05 1.517400126128e+05 1.000000005287e-02 9.899999999471e-01 2.155268337822e-16 3.798325281777e-18 2.112167236921e-08 3.721460034606e-10 
1.972413793104e+00 1.666666666665e-01 0.000000000000e+00 4.999999986783e+04 2.017400122139e+05 1.517400123461e+05 1.000000005287e-02 9.899999999471e-01 2.194955720303e-16 -6.378840388839e-18 2.151060935629e-08 -6.251279125134e-10 
51  8  1  9  
14  27  13  2  
46  3  4  47  
47  4  5  48  
48  5  6  49  
49  6  7  50  
50  7  8  51  
45  51  9  10  
39  45  10  11  
33  39  11  12  
27  33  12  13  
15  26  27  14  
16  25  26  15  
17  24  25  16  
18  23  24  17  
19  22  23  18  
20  21  22  19  
22  28  29  23  
23  29  30  24  
24  30  31  25  
25  31  32  26  
26  32  33  27  
28  34  35  29  
29  35  36  30  
30  36  37  31  
31  37  38  32  
32  38  39  33  
34  40  41  35  
35  41  42  36  
36  42  43  37  
37  43  44  38  
38  44  45  39  
40  46  47  41  
41  47  48  42  
42  48  49  43  
43  49  50  44  
44  50  51  45  
52  53  3  46  
54  55  21  20  
55  56  57  21  
21  57  28  22  
57  58  34  28  
58  59  40  34  
59  52  46  40  
VARIABLES  = "X","Y","Z", "PRESSURE1", "PRESSURE2", "PRESSURE_W", "SATURATION1", SATURATION2, "VELOCITY_X1", "VELOCITY_Y1", "VELOCITY_X2", "VELOCITY_Y2"
ZONE T="1.000000000000e+03s", N=59, E=44, F=FEPOINT, ET=QUADRILATERAL
STRANDID=1, SOLUTIONTIME=1.000000000000e+03
2.600000000000e+00 0.000000000000e+00 0.000000000000e+00 4.999999982345e+04 2.017190827532e+05 1.517190829298e+05 1.000000007062e-02 9.899999999294e-01 6.749297485811e-17 -4.648909263333e-17 6.612850710174e-09 -4.554451124941e-09 
2.600000000000e+00 5.000000000000e-01 0.000000000000e+00 4.999999982349e+04 2.017190961008e+05 1.517190962773e+05 1.000000007061e-02 9.899999999294e-01 1.321588704159e-17 -1.230889907081e-17 1.293646936527e-09 -1.207805418092e-09 