 TITLE = "Time curves in points"
 VARIABLES = "TIME"  "PRESSURE1"  "PRESSURE2"  "PRESSURE_W"  "SATURATION1" SATURATION2  "VELOCITY_X1"  "VELOCITY_Y1"  "VELOCITY_X2"  "VELOCITY_Y2" 
 ZONE T="POINT=POINT4"
0.000000000000e+00 5.000000000000e+04 0.000000000000e+00 -5.000000000000e+04 1.000000000000e-02 9.900000000000e-01 0.000000000000e+00 0.000000000000e+00 0.000000000000e+00 0.000000000000e+00 
5.000000000000e+00 4.999999999997e+03 1.999999999999e+05 1.949999999999e+05 3.345536072269e-01 6.654463927731e-01 3.574474618479e-04 1.439280484196e-16 -4.127749548836e-05 -4.153517669398e-14 
1.000000000000e+01 4.999999999999e+03 2.000000000000e+05 1.950000000000e+05 4.104308695533e-01 5.895691304467e-01 6.383562875092e-04 -3.062985668233e-17 -5.541064102795e-05 -7.334011331995e-14 
1.500000000000e+01 4.999999999994e+03 1.999999999997e+05 1.949999999998e+05 5.087275781872e-01 4.912724218128e-01 1.118491669594e-03 -1.103808494306e-15 -5.764885157443e-05 9.655293417954e-13 
2.000000000000e+01 5.000000000003e+03 2.000000000001e+05 1.950000000001e+05 6.174613394530e-01 3.825386605470e-01 1.719761617768e-03 1.991599964977e-13 -2.763832282606e-05 -7.528329331727e-13 
2.500000000000e+01 5.000000000074e+03 2.000000000030e+05 1.950000000029e+05 7.178522334158e-01 2.821477665842e-01 2.170028035270e-03 -2.088098602851e-13 2.850638934307e-05 2.627641053041e-12 
3.000000000000e+01 5.000000000005e+03 2.000000000002e+05 1.950000000002e+05 7.978659144387e-01 2.021340855613e-01 2.257872771812e-03 1.133078407442e-12 7.922755238468e-05 -2.050777118575e-12 
3.500000000000e+01 5.000000000001e+03 2.000000000000e+05 1.950000000000e+05 8.556477207545e-01 1.443522792455e-01 2.013392908776e-03 1.594442578670e-11 1.052979204363e-04 -3.358016584571e-11 
4.000000000000e+01 5.000000000002e+03 2.000000000001e+05 1.950000000001e+05 8.949868313515e-01 1.050131686485e-01 1.609531699714e-03 3.622148512411e-11 1.079279870049e-04 -6.134304780207e-11 
4.500000000000e+01 4.999999999999e+03 2.000000000000e+05 1.950000000000e+05 9.210683500299e-01 7.893164997008e-02 1.207669339267e-03 4.202708487554e-11 9.702378190026e-05 -6.600762951481e-11 
5.000000000000e+01 5.000000000000e+03 2.000000000000e+05 1.950000000000e+05 9.383640245278e-01 6.163597547225e-02 8.858806666171e-04 6.477006654829e-12 8.184104133773e-05 -3.626411624690e-11 
6.000000000000e+01 5.000000000005e+03 2.000000000002e+05 1.950000000002e+05 9.563447861176e-01 4.365521388241e-02 5.296466417931e-04 -4.695154337474e-11 5.840444770791e-05 1.019423654676e-11 
7.000000000000e+01 5.000000000745e+03 2.000000000298e+05 1.950000000291e+05 9.661971780181e-01 3.380282198186e-02 3.442606531699e-04 2.843575294969e-10 4.276067085308e-05 -1.662904767701e-10 
8.000000000000e+01 4.999999999974e+03 1.999999999990e+05 1.949999999990e+05 9.718209918724e-01 2.817900812762e-02 2.481408130269e-04 -2.493247935428e-11 3.340098777650e-05 -6.247294460113e-11 
9.000000000000e+01 5.000000000144e+03 2.000000000057e+05 1.950000000056e+05 9.749863489347e-01 2.501365106527e-02 1.987700826656e-04 -1.417188268791e-10 2.814120555664e-05 1.421051879690e-12 
1.000000000000e+02 5.000000000043e+03 2.000000000017e+05 1.950000000017e+05 9.765832806098e-01 2.341671939023e-02 1.755020408515e-04 -5.796953355878e-11 2.551876224587e-05 1.794037068420e-12 
1.100000000000e+02 5.000000000045e+03 2.000000000018e+05 1.950000000017e+05 9.771495871452e-01 2.285041285479e-02 1.675142192365e-04 -2.002262120817e-11 2.459720006985e-05 2.066847612117e-12 
1.200000000000e+02 4.999999999999e+03 2.000000000000e+05 1.950000000000e+05 9.770835082342e-01 2.291649176584e-02 1.684568141955e-04 4.535154719306e-12 2.470415437802e-05 -7.602871321434e-13 
1.300000000000e+02 4.999999999996e+03 1.999999999999e+05 1.949999999999e+05 9.766912591904e-01 2.330874080965e-02 1.739025931740e-04 6.030002416418e-12 2.534385296642e-05 -4.812025737796e-13 
1.400000000000e+02 5.000000000000e+03 2.000000000000e+05 1.950000000000e+05 9.761941629603e-01 2.380583703971e-02 1.810777158675e-04 5.943418352741e-12 2.615464022688e-05 -4.778013967009e-13 
1.500000000000e+02 5.000000000003e+03 2.000000000001e+05 1.950000000001e+05 9.757228156109e-01 2.427718438907e-02 1.879267090658e-04 6.794116853036e-12 2.692747508163e-05 -1.239490936591e-12 
1.600000000000e+02 5.000000000000e+03 2.000000000000e+05 1.950000000000e+05 9.753428869855e-01 2.465711301453e-02 1.935205806369e-04 1.828804381992e-12 2.755230526873e-05 -3.954448807651e-13 
1.700000000000e+02 5.000000000000e+03 2.000000000000e+05 1.950000000000e+05 9.750783978725e-01 2.492160212746e-02 1.974558217807e-04 2.296737709932e-12 2.798812917730e-05 -9.134700163412e-13 
1.800000000000e+02 5.000000000000e+03 2.000000000000e+05 1.950000000000e+05 9.749328556101e-01 2.506714438986e-02 1.996388180024e-04 1.023800973131e-12 2.822816086085e-05 -1.100551643313e-12 
1.900000000000e+02 5.000000000000e+03 2.000000000000e+05 1.950000000000e+05 9.749032975726e-01 2.509670242745e-02 2.000904458210e-04 -3.911110746253e-13 2.827679109521e-05 -1.222289581132e-12 
2.000000000000e+02 5.000000000000e+03 2.000000000000e+05 1.950000000000e+05 9.749891788721e-01 2.501082112786e-02 1.989216592742e-04 -1.850768336645e-12 2.813270362608e-05 -1.301033849397e-12 
2.100000000000e+02 5.000000000000e+03 2.000000000000e+05 1.950000000000e+05 9.751882398556e-01 2.481176014436e-02 1.959364548221e-04 -3.394224033381e-12 2.780472391157e-05 -1.327413552463e-12 
2.200000000000e+02 5.000000000000e+03 2.000000000000e+05 1.950000000000e+05 9.755016696246e-01 2.449833037543e-02 1.912834649630e-04 -4.980933635899e-12 2.728888621287e-05 -1.294371321625e-12 
2.300000000000e+02 5.000000000000e+03 2.000000000000e+05 1.950000000000e+05 9.759264749100e-01 2.407352509001e-02 1.850526761095e-04 -6.458740012712e-12 2.659137351665e-05 -1.206712091840e-12 
2.400000000000e+02 5.000000000000e+03 2.000000000000e+05 1.950000000000e+05 9.764510851267e-01 2.354891487329e-02 1.774725748445e-04 -7.601838830477e-12 2.573301415158e-05 -1.082041419555e-12 
2.500000000000e+02 5.000000000000e+03 2.000000000000e+05 1.950000000000e+05 9.770533634415e-01 2.294663655854e-02 1.689260586089e-04 -8.197199594537e-12 2.475228319440e-05 -9.446328111738e-13 
2.600000000000e+02 5.000000000000e+03 2.000000000000e+05 1.950000000000e+05 9.777022690779e-01 2.229773092207e-02 1.599070706763e-04 -8.143637103028e-12 2.370200647054e-05 -8.134373531030e-13 
2.700000000000e+02 5.000000000000e+03 2.000000000000e+05 1.950000000000e+05 9.783624397855e-01 2.163756021447e-02 1.509372507728e-04 -7.500274517975e-12 2.264114835661e-05 -6.935312257108e-13 
2.800000000000e+02 5.000000000000e+03 2.000000000000e+05 1.950000000000e+05 9.789996893394e-01 2.100031066057e-02 1.424802950679e-04 -6.459994668579e-12 2.162529986810e-05 -5.764281025089e-13 
2.900000000000e+02 5.000000000000e+03 2.000000000000e+05 1.950000000000e+05 9.795855769633e-01 2.041442303672e-02 1.348834738535e-04 -5.265533806452e-12 2.069915450798e-05 -4.490860470941e-13 
3.000000000000e+02 5.000000000000e+03 2.000000000000e+05 1.950000000000e+05 9.801001507885e-01 1.989984921154e-02 1.283552380532e-04 -4.128578879457e-12 1.989247765722e-05 -3.024777898909e-13 
3.100000000000e+02 5.000000000000e+03 2.000000000000e+05 1.950000000000e+05 9.805326419526e-01 1.946735804742e-02 1.229454088302e-04 -3.186243440606e-12 1.922013388819e-05 -1.350874503392e-13 
3.200000000000e+02 5.000000000000e+03 2.000000000000e+05 1.950000000000e+05 9.808812532351e-01 1.911874676494e-02 1.186807529381e-04 -2.483198438097e-12 1.868151433808e-05 4.628038713756e-14 
3.300000000000e+02 5.000000000000e+03 2.000000000000e+05 1.950000000000e+05 9.811507176327e-01 1.884928236735e-02 1.154549316806e-04 -2.010733420615e-12 1.826717557233e-05 2.327890787842e-13 
3.400000000000e+02 5.000000000000e+03 2.000000000000e+05 1.950000000000e+05 9.813500274302e-01 1.864997256983e-02 1.130732938026e-04 -1.722810881687e-12 1.796237363180e-05 4.147551536409e-13 
3.500000000000e+02 5.000000000000e+03 2.000000000000e+05 1.950000000000e+05 9.814906802795e-01 1.850931972048e-02 1.114050078316e-04 -1.563798653427e-12 1.774800115987e-05 5.843209946818e-13 
3.600000000000e+02 5.000000000000e+03 2.000000000000e+05 1.950000000000e+05 9.815846834403e-01 1.841531655968e-02 1.102954242775e-04 -1.478567733978e-12 1.760507454262e-05 7.350845943383e-13 
3.700000000000e+02 5.000000000000e+03 2.000000000000e+05 1.950000000000e+05 9.816433538778e-01 1.835664612219e-02 1.096046459866e-04 -1.440054615284e-12 1.751601745031e-05 8.659851251297e-13 
3.800000000000e+02 5.000000000000e+03 2.000000000000e+05 1.950000000000e+05 9.816765022006e-01 1.832349779940e-02 1.091923010272e-04 -1.411601659658e-12 1.746605580228e-05 9.740741858197e-13 
3.900000000000e+02 5.000000000000e+03 2.000000000000e+05 1.950000000000e+05 9.816927312950e-01 1.830726870498e-02 1.090025284590e-04 -1.391163535483e-12 1.744144763816e-05 1.061575176617e-12 
4.000000000000e+02 5.000000000000e+03 2.000000000000e+05 1.950000000000e+05 9.816988113415e-01 1.830118865851e-02 1.089316850306e-04 -1.366670870745e-12 1.743222771179e-05 1.128805873673e-12 
4.100000000000e+02 5.000000000000e+03 2.000000000000e+05 1.950000000000e+05 9.817001640228e-01 1.829983597715e-02 1.089162840513e-04 -1.349739251128e-12 1.743017184027e-05 1.179842220109e-12 
4.200000000000e+02 5.000000000000e+03 2.000000000000e+05 1.950000000000e+05 9.817011230885e-01 1.829887691150e-02 1.089057180956e-04 -1.346041115514e-12 1.742870950965e-05 1.217881391671e-12 
4.300000000000e+02 5.000000000000e+03 2.000000000000e+05 1.950000000000e+05 9.817052040825e-01 1.829479591753e-02 1.088590118399e-04 -1.359862293875e-12 1.742251085099e-05 1.245707402108e-12 
4.400000000000e+02 5.000000000000e+03 2.000000000000e+05 1.950000000000e+05 9.817153419051e-01 1.828465809486e-02 1.087420351157e-04 -1.387224738988e-12 1.740712799290e-05 1.264292920246e-12 
4.500000000000e+02 5.000000000000e+03 2.000000000000e+05 1.950000000000e+05 9.817340700576e-01 1.826592994236e-02 1.085254314025e-04 -1.398571945284e-12 1.737872775963e-05 1.268968887336e-12 
4.600000000000e+02 5.000000000000e+03 2.000000000000e+05 1.950000000000e+05 9.817636257835e-01 1.823637421645e-02 1.081833892344e-04 -1.342852078691e-12 1.733393885014e-05 1.249051170692e-12 
4.700000000000e+02 5.000000000000e+03 2.000000000000e+05 1.950000000000e+05 9.818059751250e-01 1.819402487503e-02 1.076933591942e-04 -1.176734470592e-12 1.726982122745e-05 1.192910297558e-12 
4.800000000000e+02 5.000000000000e+03 2.000000000000e+05 1.950000000000e+05 9.818627632126e-01 1.813723678745e-02 1.070367425630e-04 -6.253760480473e-13 1.718394740026e-05 1.042418383955e-12 
4.900000000000e+02 5.000000000000e+03 2.000000000000e+05 1.950000000000e+05 9.819352075390e-01 1.806479246096e-02 1.062003745697e-04 3.002991354848e-12 1.707456661689e-05 2.572944571729e-13 
5.000000000000e+02 5.000000000000e+03 2.000000000000e+05 1.950000000000e+05 9.820239626801e-01 1.797603731993e-02 1.051783228113e-04 -2.462456926949e-14 1.694080853430e-05 5.601281505942e-13 
5.100000000000e+02 5.000000000000e+03 2.000000000000e+05 1.950000000000e+05 9.821290634887e-01 1.787093651125e-02 1.039794146283e-04 -2.086356516470e-12 1.678267631053e-05 8.564950676137e-13 
5.200000000000e+02 5.000000000000e+03 2.000000000000e+05 1.950000000000e+05 9.822495994763e-01 1.775040052373e-02 1.026027447820e-04 -1.932860582438e-12 1.660189279717e-05 8.432617463279e-13 
5.300000000000e+02 5.000000000000e+03 2.000000000000e+05 1.950000000000e+05 9.823839673334e-01 1.761603266660e-02 1.010771625794e-04 -1.539403803886e-12 1.640094589149e-05 7.734812895277e-13 
5.400000000000e+02 5.000000000000e+03 2.000000000000e+05 1.950000000000e+05 9.825298364510e-01 1.747016354902e-02 9.943212287936e-05 1.966110047566e-12 1.618350073496e-05 1.142659356250e-13 
5.500000000000e+02 5.000000000000e+03 2.000000000000e+05 1.950000000000e+05 9.826842988624e-01 1.731570113760e-02 9.770299364162e-05 1.020914356481e-11 1.595405353047e-05 -1.556373924526e-12 
5.600000000000e+02 5.000000000000e+03 2.000000000000e+05 1.950000000000e+05 9.828440797923e-01 1.715592020769e-02 9.592833127876e-05 1.543118061853e-11 1.571759468310e-05 -3.026983399464e-12 
5.700000000000e+02 5.000000000000e+03 2.000000000000e+05 1.950000000000e+05 9.830057789657e-01 1.699422103428e-02 9.414694843924e-05 1.539151397565e-11 1.547923341030e-05 -3.731190389716e-12 
5.800000000000e+02 5.000000000000e+03 2.000000000000e+05 1.950000000000e+05 9.831660744735e-01 1.683392552651e-02 9.239144703130e-05 1.536063692283e-11 1.524393752004e-05 -4.352144966554e-12 
5.900000000000e+02 5.000000000000e+03 2.000000000000e+05 1.950000000000e+05 9.833220513442e-01 1.667794865578e-02 9.070139143725e-05 8.640461780796e-12 1.501585030053e-05 -3.758034333173e-12 
6.000000000000e+02 5.000000000000e+03 2.000000000000e+05 1.950000000000e+05 9.834712090750e-01 1.652879092496e-02 8.909797575323e-05 -2.903808369469e-12 1.479860068682e-05 -2.016096787861e-12 
6.100000000000e+02 5.000000000000e+03 2.000000000000e+05 1.950000000000e+05 9.836116083215e-01 1.638839167855e-02 8.759994590604e-05 -8.760332061274e-12 1.459489603612e-05 -7.373271118569e-13 
6.200000000000e+02 5.000000000000e+03 2.000000000000e+05 1.950000000000e+05 9.837418953035e-01 1.625810469647e-02 8.621919447083e-05 -8.846199689536e-13 1.440656166646e-05 -1.522326917514e-12 
6.300000000000e+02 5.000000000000e+03 2.000000000000e+05 1.950000000000e+05 9.838612732511e-01 1.613872674890e-02 8.496121506009e-05 3.035008341575e-11 1.423460394469e-05 -6.490401685482e-12 
6.400000000000e+02 5.000000000000e+03 2.000000000000e+05 1.950000000000e+05 9.839694336066e-01 1.603056639336e-02 8.382560133708e-05 1.324457952874e-11 1.407933196727e-05 -4.868936684008e-12 
6.500000000000e+02 5.000000000000e+03 2.000000000000e+05 1.950000000000e+05 9.840664541138e-01 1.593354588618e-02 8.280554315794e-05 -2.320886929980e-11 1.394053634525e-05 6.399156756846e-13 
6.600000000000e+02 5.000000000000e+03 2.000000000000e+05 1.950000000000e+05 9.841526129137e-01 1.584738708627e-02 8.187904049815e-05 -4.028916025779e-11 1.381788348328e-05 4.515810171764e-12 
6.700000000000e+02 5.000000000000e+03 2.000000000000e+05 1.950000000000e+05 9.842288549154e-01 1.577114508461e-02 8.109099667434e-05 1.343736473151e-12 1.370928605655e-05 -3.561030393971e-13 
6.800000000000e+02 5.000000000000e+03 2.000000000000e+05 1.950000000000e+05 9.842972082088e-01 1.570279179116e-02 8.055322113077e-05 2.249632810049e-12 1.361029800205e-05 -5.681944529540e-13 
6.900000000000e+02 5.000000000000e+03 2.000000000000e+05 1.950000000000e+05 9.843571223285e-01 1.564287767151e-02 7.992499523107e-05 4.109587423526e-11 1.352545907840e-05 -6.762963016846e-12 
7.000000000000e+02 5.000000000000e+03 2.000000000000e+05 1.950000000000e+05 9.844095974438e-01 1.559040255620e-02 7.937543475314e-05 1.215427765189e-11 1.345128873738e-05 -3.866321561391e-12 
7.100000000000e+02 5.000000000000e+03 2.000000000000e+05 1.950000000000e+05 9.844556942366e-01 1.554430576339e-02 7.890238872973e-05 -6.571868568688e-12 1.338613768459e-05 -1.306025866771e-12 
7.200000000000e+02 5.000000000000e+03 2.000000000000e+05 1.950000000000e+05 9.844963936986e-01 1.550360630144e-02 7.848979070639e-05 -6.521353074720e-13 1.332864630252e-05 -1.820115971309e-12 
7.300000000000e+02 5.000000000000e+03 2.000000000000e+05 1.950000000000e+05 9.845326249079e-01 1.546737509210e-02 7.812683463286e-05 -9.581783318143e-13 1.327748821938e-05 -1.636611891081e-12 
7.400000000000e+02 5.000000000000e+03 2.000000000000e+05 1.950000000000e+05 9.845652787695e-01 1.543472123055e-02 7.780567542690e-05 6.237795340429e-11 1.323137260663e-05 -1.128867806240e-11 
7.500000000000e+02 5.000000000000e+03 2.000000000000e+05 1.950000000000e+05 9.845921925071e-01 1.540780749288e-02 7.712597734232e-05 -1.470417641094e-11 1.319788113758e-05 -1.772280763307e-12 
7.600000000000e+02 5.000000000000e+03 2.000000000000e+05 1.950000000000e+05 9.846194120869e-01 1.538058791307e-02 7.713218661060e-05 -9.239238448334e-12 1.315655865557e-05 -1.789532659351e-12 
7.700000000000e+02 5.000000000000e+03 2.000000000000e+05 1.950000000000e+05 9.846462687799e-01 1.535373122014e-02 7.698967326279e-05 -7.180105310728e-12 1.311743307868e-05 -1.560382901400e-12 
7.800000000000e+02 5.000000000000e+03 2.000000000000e+05 1.950000000000e+05 9.846719065808e-01 1.532809341923e-02 7.665925027708e-05 -4.595193635191e-12 1.308220588009e-05 -1.535081751559e-12 
7.900000000000e+02 5.000000000000e+03 2.000000000000e+05 1.950000000000e+05 9.846977221815e-01 1.530227781846e-02 7.641877391451e-05 -3.350163297313e-12 1.304577763575e-05 -1.436853298203e-12 
8.000000000000e+02 5.000000000000e+03 2.000000000000e+05 1.950000000000e+05 9.847242651339e-01 1.527573486609e-02 7.616248818912e-05 7.071869435319e-13 1.300845508749e-05 -1.836474358152e-12 
8.100000000000e+02 5.000000000000e+03 2.000000000000e+05 1.950000000000e+05 9.847520984436e-01 1.524790155640e-02 7.589048062401e-05 2.250313343413e-11 1.296939130555e-05 -5.099759546694e-12 
8.200000000000e+02 5.000000000000e+03 2.000000000000e+05 1.950000000000e+05 9.847817544583e-01 1.521824554169e-02 7.559921414896e-05 6.991654914565e-11 1.292782790906e-05 -1.306368423155e-11 
8.300000000000e+02 5.000000000000e+03 2.000000000000e+05 1.950000000000e+05 9.848137144682e-01 1.518628553182e-02 7.528475646059e-05 4.244886462781e-11 1.288309125540e-05 -1.143920902827e-11 
8.400000000000e+02 5.000000000000e+03 2.000000000000e+05 1.950000000000e+05 9.848483906950e-01 1.515160930497e-02 7.494343924653e-05 -4.529801468420e-11 1.283461253604e-05 4.530656042111e-13 
8.500000000000e+02 5.000000000000e+03 2.000000000000e+05 1.950000000000e+05 9.848861104976e-01 1.511388950242e-02 7.457236915450e-05 -6.259188559297e-12 1.278194599830e-05 -3.330441819461e-12 
8.600000000000e+02 5.000000000000e+03 2.000000000000e+05 1.950000000000e+05 9.849271016604e-01 1.507289833957e-02 7.416960583477e-05 1.716200490442e-11 1.272478883948e-05 -6.368428096183e-12 
8.700000000000e+02 5.000000000000e+03 2.000000000000e+05 1.950000000000e+05 9.849714810818e-01 1.502851891819e-02 7.373430698487e-05 1.361700366743e-11 1.266299602463e-05 -6.280361575332e-12 
8.800000000000e+02 5.000000000000e+03 2.000000000000e+05 1.950000000000e+05 9.850192479944e-01 1.498075200562e-02 7.326680341872e-05 3.194019783865e-13 1.259658868495e-05 -4.590844558629e-12 
8.900000000000e+02 5.000000000000e+03 2.000000000000e+05 1.950000000000e+05 9.850702828307e-01 1.492971716930e-02 7.276859093241e-05 -2.880123224909e-12 1.252575458863e-05 -3.896996667265e-12 
9.000000000000e+02 5.000000000000e+03 2.000000000000e+05 1.950000000000e+05 9.851243527145e-01 1.487564728553e-02 7.224230830327e-05 -6.747276812869e-12 1.245083858225e-05 -3.013405186107e-12 
9.100000000000e+02 5.000000000000e+03 2.000000000000e+05 1.950000000000e+05 9.851811226758e-01 1.481887732416e-02 7.169154576176e-05 -7.406158746321e-12 1.237232610402e-05 -2.488842881352e-12 
9.200000000000e+02 5.000000000000e+03 2.000000000000e+05 1.950000000000e+05 9.852401726639e-01 1.475982733614e-02 7.112071329942e-05 -5.616851704267e-12 1.229081745988e-05 -2.328496803290e-12 
9.300000000000e+02 5.000000000000e+03 2.000000000000e+05 1.950000000000e+05 9.853010183793e-01 1.469898162066e-02 7.053478905871e-05 -2.076960287803e-12 1.220699786051e-05 -2.509661768678e-12 
9.400000000000e+02 5.000000000000e+03 2.000000000000e+05 1.950000000000e+05 9.853631342654e-01 1.463686573455e-02 6.993905504793e-05 1.216785708934e-12 1.212160474090e-05 -2.794325243465e-12 
9.500000000000e+02 4.999999999999e+03 1.999999999999e+05 1.949999999999e+05 9.854259770463e-01 1.457402295366e-02 6.933886461320e-05 -5.709062606682e-12 1.203539442649e-05 -1.750063618397e-12 
9.600000000000e+02 5.000000000001e+03 2.000000000000e+05 1.950000000000e+05 9.854890079424e-01 1.451099205759e-02 6.873940572819e-05 8.535885609868e-13 1.194911133882e-05 -2.378959849728e-12 
9.700000000000e+02 5.000000000000e+03 2.000000000000e+05 1.950000000000e+05 9.855517122206e-01 1.444828777944e-02 6.814551933828e-05 1.535612472095e-11 1.186346113239e-05 -4.346564219384e-12 
9.800000000000e+02 5.000000000000e+03 2.000000000000e+05 1.950000000000e+05 9.856136151681e-01 1.438638483186e-02 6.756155634727e-05 1.302392314894e-11 1.177908917553e-05 -4.429881889120e-12 
9.900000000000e+02 5.000000000000e+03 2.000000000000e+05 1.950000000000e+05 9.856742937862e-01 1.432570621381e-02 6.699125491729e-05 5.107868802568e-12 1.169656551242e-05 -3.631510324490e-12 
1.000000000000e+03 5.000000000000e+03 2.000000000000e+05 1.950000000000e+05 9.857333841061e-01 1.426661589390e-02 6.643765744552e-05 -8.042971087324e-12 1.161637608299e-05 -1.842641872810e-12 
1.010000000000e+03 5.000000000000e+03 2.000000000000e+05 1.950000000000e+05 9.857905838834e-01 1.420941611657e-02 6.590297765226e-05 -1.938689828181e-11 1.153892129064e-05 1.067243064559e-13 
1.020000000000e+03 4.999999999995e+03 1.999999999998e+05 1.949999999998e+05 9.858456497316e-01 1.415435026835e-02 6.538826349430e-05 -1.033410297377e-11 1.146452458247e-05 -4.014958055288e-13 
1.030000000000e+03 5.000000000000e+03 2.000000000000e+05 1.950000000000e+05 9.858983813020e-01 1.410161869805e-02 6.489180019811e-05 -1.682580171321e-11 1.139347158844e-05 8.692952852221e-13 
1.040000000000e+03 4.999999999997e+03 1.999999999999e+05 1.949999999999e+05 9.859484976897e-01 1.405150231032e-02 6.439249117795e-05 -1.832133009185e-11 1.132634717328e-05 1.635903760091e-12 
1.050000000000e+03 5.000000000036e+03 2.000000000014e+05 1.950000000014e+05 9.859969588580e-01 1.400304114200e-02 6.407524462578e-05 -4.827773751832e-11 1.125998712854e-05 6.239837553694e-12 
1.150000000000e+03 5.000000001496e+03 2.000000000598e+05 1.950000000583e+05 9.863043184759e-01 1.369568152410e-02 6.119285142614e-05 -5.869063996239e-12 1.085048758286e-05 6.199671145115e-12 
1.250000000000e+03 4.999999999958e+03 1.999999999983e+05 1.949999999984e+05 9.865406820556e-01 1.345931794443e-02 5.914378935930e-05 -1.295989553108e-11 1.053766208240e-05 7.363466100151e-12 
1.350000000000e+03 4.999999999999e+03 2.000000000000e+05 1.950000000000e+05 9.867794151099e-01 1.322058489014e-02 5.718941941650e-05 -1.599390247022e-11 1.022397676020e-05 -2.600995641980e-13 
1.450000000000e+03 4.999999998533e+03 1.999999999413e+05 1.949999999428e+05 9.870159187888e-01 1.298408121122e-02 5.498455526869e-05 3.872148209379e-11 9.918912561190e-06 -1.081679994450e-11 
1.550000000000e+03 5.000000000036e+03 2.000000000014e+05 1.950000000014e+05 9.872436883880e-01 1.275631161199e-02 5.303502567649e-05 -7.138732491743e-12 9.626739726229e-06 -3.359458687953e-12 
1.650000000000e+03 4.999999999683e+03 1.999999999873e+05 1.949999999876e+05 9.874455078950e-01 1.255449210503e-02 5.129981430355e-05 5.671999252389e-11 9.370552361035e-06 -2.043289121367e-11 
1.750000000000e+03 5.000000000509e+03 2.000000000204e+05 1.950000000199e+05 9.876215851639e-01 1.237841483605e-02 4.983825086151e-05 -2.723688307650e-11 9.148656142328e-06 -3.427039853666e-12 
1.850000000000e+03 4.999999999996e+03 1.999999999999e+05 1.949999999999e+05 9.877861072188e-01 1.221389278124e-02 4.852877305516e-05 8.253044020761e-12 8.942623806653e-06 -6.472277556334e-12 
1.925000000000e+03 4.999999999952e+03 1.999999999981e+05 1.949999999981e+05 9.878977741690e-01 1.210222583097e-02 4.724260199678e-05 -7.386022057043e-11 8.806910720185e-06 1.491391222333e-11 
2.000000000000e+03 5.000000000000e+03 2.000000000000e+05 1.950000000000e+05 9.880251356674e-01 1.197486433263e-02 4.660892052415e-05 1.331158407055e-11 8.646497614853e-06 2.705589040530e-12 
2.100000000000e+03 5.000000000217e+03 2.000000000087e+05 1.950000000085e+05 9.881928854408e-01 1.180711455919e-02 4.534538839926e-05 -1.125044057271e-11 8.440228879488e-06 6.059888217630e-12 
2.200000000000e+03 4.999999999773e+03 1.999999999909e+05 1.949999999911e+05 9.883522743209e-01 1.164772567915e-02 4.414090804951e-05 8.541247696318e-12 8.245988211608e-06 1.763575483998e-12 
2.300000000000e+03 5.000000002226e+03 2.000000000890e+05 1.950000000868e+05 9.884945816903e-01 1.150541830967e-02 4.303219612083e-05 -4.992774739595e-11 8.074235557274e-06 1.206044722241e-11 
2.400000000000e+03 4.999999999990e+03 1.999999999996e+05 1.949999999996e+05 9.886231031661e-01 1.137689683393e-02 4.202051541361e-05 1.092743519067e-11 7.920357697421e-06 3.197099705989e-12 
2.500000000000e+03 4.999999999263e+03 1.999999999705e+05 1.949999999713e+05 9.887431140254e-01 1.125688597461e-02 4.111017987167e-05 -2.695028325806e-12 7.777419138711e-06 1.758100612983e-12 
2.600000000000e+03 4.999999999978e+03 1.999999999991e+05 1.949999999992e+05 9.888619090130e-01 1.113809098696e-02 4.030729705938e-05 -5.333315745320e-12 7.636191902303e-06 2.357576590123e-12 
2.700000000000e+03 5.000000000011e+03 2.000000000004e+05 1.950000000004e+05 9.889713160285e-01 1.102868397148e-02 3.923259758634e-05 2.844716885216e-12 7.509350413413e-06 9.714521914713e-13 
2.800000000000e+03 4.999999999983e+03 1.999999999993e+05 1.949999999993e+05 9.890856446643e-01 1.091435533572e-02 3.860975952452e-05 7.377461525978e-12 7.374169133268e-06 -8.595585018194e-13 
2.900000000000e+03 5.000000000003e+03 2.000000000001e+05 1.950000000001e+05 9.891962609283e-01 1.080373907175e-02 3.787218693446e-05 1.736344707458e-11 7.245204991493e-06 -3.744948261144e-12 
3.000000000000e+03 5.000000000000e+03 2.000000000000e+05 1.950000000000e+05 9.892967844602e-01 1.070321553982e-02 3.704317150255e-05 -1.460626800581e-11 7.129835047285e-06 1.493268950683e-12 
3.100000000000e+03 4.999999999936e+03 1.999999999974e+05 1.949999999975e+05 9.893898726661e-01 1.061012733388e-02 3.633403943468e-05 -2.156715346576e-11 7.023228782210e-06 3.661178131059e-12 
3.200000000000e+03 4.999999999810e+03 1.999999999924e+05 1.949999999926e+05 9.894794503625e-01 1.052054963750e-02 3.574491232030e-05 2.712583554795e-12 6.920602431607e-06 1.497641215862e-12 
3.300000000000e+03 5.000000000014e+03 2.000000000006e+05 1.950000000006e+05 9.895651602229e-01 1.043483977714e-02 3.512558723868e-05 -1.158731599941e-12 6.823314962629e-06 1.363124987980e-12 
3.400000000000e+03 5.000000000000e+03 2.000000000000e+05 1.950000000000e+05 9.896503932982e-01 1.034960670176e-02 3.457761473537e-05 -3.238786254388e-12 6.726652157881e-06 1.584410721169e-12 
3.500000000000e+03 5.000000000000e+03 2.000000000000e+05 1.950000000000e+05 9.897347863683e-01 1.026521363171e-02 3.403236926211e-05 1.868132262807e-12 6.631484284529e-06 5.707367225262e-13 
3.600000000000e+03 5.000000000001e+03 2.000000000000e+05 1.950000000000e+05 9.898174134142e-01 1.018258658584e-02 3.349396308770e-05 -2.642430775774e-12 6.538845168765e-06 9.161369188275e-13 
3.700000000000e+03 5.000000000000e+03 2.000000000000e+05 1.950000000000e+05 9.898970222945e-01 1.010297770547e-02 3.296806978818e-05 3.321894767716e-11 6.450112111193e-06 -6.128024009276e-12 
3.800000000000e+03 4.999999999999e+03 1.999999999999e+05 1.949999999999e+05 9.899733102441e-01 1.002668975592e-02 3.247627529426e-05 6.822972954660e-11 6.365445806429e-06 -1.674705060199e-11 
3.900000000000e+03 4.999999999791e+03 1.999999999916e+05 1.949999999918e+05 9.900474360967e-01 9.952563903269e-03 3.205264284743e-05 -2.804532318702e-11 6.283262249430e-06 -2.130946978945e-12 
4.000000000000e+03 4.999999999983e+03 1.999999999993e+05 1.949999999994e+05 9.901166764470e-01 9.883323553022e-03 3.154978249967e-05 -2.976480017851e-11 6.207525681624e-06 2.821764585864e-12 
4.100000000000e+03 5.000000000000e+03 2.000000000000e+05 1.950000000000e+05 9.901837897146e-01 9.816210285359e-03 3.112123492866e-05 9.460967568902e-12 6.134099027541e-06 -1.398145514913e-12 
4.200000000000e+03 4.999999999993e+03 1.999999999997e+05 1.949999999997e+05 9.902482007011e-01 9.751799298891e-03 3.065834240212e-05 -1.038006752408e-11 6.064258207969e-06 1.576715871065e-12 
4.300000000000e+03 5.000000000000e+03 2.000000000000e+05 1.950000000000e+05 9.903139414270e-01 9.686058573010e-03 3.033826009830e-05 -1.813601999580e-11 5.992391235270e-06 4.143409022358e-12 
4.400000000000e+03 5.000000000003e+03 2.000000000001e+05 1.950000000001e+05 9.903802800416e-01 9.619719958406e-03 3.001878219299e-05 2.862371919754e-11 5.920194635805e-06 -3.165462993313e-12 
4.500000000000e+03 5.000000000000e+03 2.000000000000e+05 1.950000000000e+05 9.904418122291e-01 9.558187770889e-03 2.952469534662e-05 1.370835827785e-11 5.854692607787e-06 -3.611205925856e-12 
4.600000000000e+03 5.000000000000e+03 2.000000000000e+05 1.950000000000e+05 9.904987783504e-01 9.501221649646e-03 2.903821841448e-05 3.468600081893e-11 5.794469615433e-06 -8.002939382207e-12 
4.700000000000e+03 5.000000000000e+03 2.000000000000e+05 1.950000000000e+05 9.905541618391e-01 9.445838160942e-03 2.868335005910e-05 -3.195469528299e-11 5.735470916764e-06 1.203449756461e-12 
4.800000000000e+03 5.000000000000e+03 2.000000000000e+05 1.950000000000e+05 9.906085684164e-01 9.391431583581e-03 2.836986518492e-05 -3.946156202477e-14 5.677543551666e-06 -5.982892819717e-13 
4.900000000000e+03 5.000000000000e+03 2.000000000000e+05 1.950000000000e+05 9.906613687457e-01 9.338631254312e-03 2.804357988924e-05 3.332189418954e-12 5.621673347191e-06 -9.616594726929e-13 
5.000000000000e+03 5.000000000000e+03 2.000000000000e+05 1.950000000000e+05 9.907128497623e-01 9.287150237663e-03 2.772657496104e-05 -2.625393566895e-13 5.567402464161e-06 -4.951398394299e-13 
5.100000000000e+03 5.000000000000e+03 2.000000000000e+05 1.950000000000e+05 9.907633770614e-01 9.236622938566e-03 2.741986041566e-05 -5.958438060939e-13 5.514314306853e-06 -2.732979300088e-13 
5.200000000000e+03 5.000000000000e+03 2.000000000000e+05 1.950000000000e+05 9.908131033341e-01 9.186896665932e-03 2.711950082363e-05 -2.805757299609e-12 5.462255753071e-06 2.232687708201e-13 
5.300000000000e+03 5.000000000002e+03 2.000000000001e+05 1.950000000001e+05 9.908620490490e-01 9.137950950963e-03 2.682588418135e-05 1.679643317823e-12 5.411193987315e-06 4.458917260135e-13 