VARIABLES  = "X","Y","Z", "PRESSURE1", "PRESSURE2", "PRESSURE_W", "SATURATION1", SATURATION2, "VELOCITY_X1", "VELOCITY_Y1", "VELOCITY_X2", "VELOCITY_Y2"
ZONE T="0.000000000000e+00s", N=66, E=49, F=FEPOINT, ET=QUADRILATERAL
STRANDID=1, SOLUTIONTIME=0.000000000000e+00
0.000000000000e+00 0.000000000000e+00 0.000000000000e+00 5.000000000000e+04 0.000000000000e+00 -5.000000000000e+04 1.000000000000e-02 9.900000000000e-01 0.000000000000e+00 0.000000000000e+00 0.000000000000e+00 0.000000000000e+00 
0.000000000000e+00 5.000000000000e-01 0.000000000000e+00 5.000000000000e+04 0.000000000000e+00 -5.000000000000e+04 1.000000000000e-02 9.900000000000e-01 0.000000000000e+00 0.000000000000e+00 0.000000000000e+00 0.000000000000e+00 
8.965517241371e-02 0.000000000000e+00 0.000000000000e+00 5.000000000000e+04 0.000000000000e+00 -5.000000000000e+04 1.000000000000e-02 9.900000000000e-01 0.000000000000e+00 0.000000000000e+00 0.000000000000e+00 0.000000000000e+00 
1.793103448274e-01 0.000000000000e+00 0.000000000000e+00 5.000000000000e+04 0.000000000000e+00 -5.000000000000e+04 1.000000000000e-02 9.900000000000e-01 0.000000000000e+00 0.000000000000e+00 0.000000000000e+00 0.000000000000e+00 
2.689655172411e-01 0.000000000000e+00 0.000000000000e+00 5.000000000000e+04 0.000000000000e+00 -5.000000000000e+04 1.000000000000e-02 9.900000000000e-01 0.000000000000e+00 0.000000000000e+00 0.000000000000e+00 0.000000000000e+00 
3.586206896548e-01 0.000000000000e+00 0.000000000000e+00 5.000000000000e+04 0.000000000000e+00 -5.000000000000e+04 1.000000000000e-02 9.900000000000e-01 0.000000000000e+00 0.000000000000e+00 0.000000000000e+00 0.000000000000e+00 
4.482758620685e-01 0.000000000000e+00 0.000000000000e+00 5.000000000000e+04 0.000000000000e+00 -5.000000000000e+04 1.000000000000e-02 9.900000000000e-01 0.000000000000e+00 0.000000000000e+00 0.000000000000e+00 0.000000000000e+00 
5.379310344822e-01 0.000000000000e+00 0.000000000000e+00 5.000000000000e+04 0.000000000000e+00 -5.000000000000e+04 1.000000000000e-02 9.900000000000e-01 0.000000000000e+00 0.000000000000e+00 0.000000000000e+00 0.000000000000e+00 
6.275862068960e-01 0.000000000000e+00 0.000000000000e+00 5.000000000000e+04 0.000000000000e+00 -5.000000000000e+04 1.000000000000e-02 9.900000000000e-01 0.000000000000e+00 0.000000000000e+00 0.000000000000e+00 0.000000000000e+00 
7.172413793105e-01 5.000000000000e-01 0.000000000000e+00 5.000000000000e+04 0.000000000000e+00 -5.000000000000e+04 1.000000000000e-02 9.900000000000e-01 0.000000000000e+00 0.000000000000e+00 0.000000000000e+00 0.000000000000e+00 
6.275862068966e-01 5.000000000000e-01 0.000000000000e+00 5.000000000000e+04 0.000000000000e+00 -5.000000000000e+04 1.000000000000e-02 9.900000000000e-01 0.000000000000e+00 0.000000000000e+00 0.000000000000e+00 0.000000000000e+00 
5.379310344828e-01 5.000000000000e-01 0.000000000000e+00 5.000000000000e+04 0.000000000000e+00 -5.000000000000e+04 1.000000000000e-02 9.900000000000e-01 0.000000000000e+00 0.000000000000e+00 0.000000000000e+00 0.000000000000e+00 
4.482758620690e-01 5.000000000000e-01 0.000000000000e+00 5.000000000000e+04 0.000000000000e+00 -5.000000000000e+04 1.000000000000e-02 9.900000000000e-01 0.000000000000e+00 0.000000000000e+00 0.000000000000e+00 0.000000000000e+00 
3.586206896552e-01 5.000000000000e-01 0.000000000000e+00 5.000000000000e+04 0.000000000000e+00 -5.000000000000e+04 1.000000000000e-02 9.900000000000e-01 0.000000000000e+00 0.000000000000e+00 0.000000000000e+00 0.000000000000e+00 
2.689655172414e-01 5.000000000000e-01 0.000000000000e+00 5.000000000000e+04 0.000000000000e+00 -5.000000000000e+04 1.000000000000e-02 9.900000000000e-01 0.000000000000e+00 0.000000000000e+00 0.000000000000e+00 0.000000000000e+00 
1.793103448276e-01 5.000000000000e-01 0.000000000000e+00 5.000000000000e+04 0.000000000000e+00 -5.000000000000e+04 1.000000000000e-02 9.900000000000e-01 0.000000000000e+00 0.000000000000e+00 0.000000000000e+00 0.000000000000e+00 
8.965517241379e-02 5.000000000000e-01 0.000000000000e+00 5.000000000000e+04 0.000000000000e+00 -5.000000000000e+04 1.000000000000e-02 9.900000000000e-01 0.000000000000e+00 0.000000000000e+00 0.000000000000e+00 0.000000000000e+00 
0.000000000000e+00 4.166666666668e-01 0.000000000000e+00 5.000000000000e+04 0.000000000000e+00 -5.000000000000e+04 1.000000000000e-02 9.900000000000e-01 0.000000000000e+00 0.000000000000e+00 0.000000000000e+00 0.000000000000e+00 
0.000000000000e+00 3.333333333337e-01 0.000000000000e+00 5.000000000000e+04 0.000000000000e+00 -5.000000000000e+04 1.000000000000e-02 9.900000000000e-01 0.000000000000e+00 0.000000000000e+00 0.000000000000e+00 0.000000000000e+00 
0.000000000000e+00 2.500000000007e-01 0.000000000000e+00 5.000000000000e+04 0.000000000000e+00 -5.000000000000e+04 1.000000000000e-02 9.900000000000e-01 0.000000000000e+00 0.000000000000e+00 0.000000000000e+00 0.000000000000e+00 
0.000000000000e+00 1.666666666672e-01 0.000000000000e+00 5.000000000000e+04 0.000000000000e+00 -5.000000000000e+04 1.000000000000e-02 9.900000000000e-01 0.000000000000e+00 0.000000000000e+00 0.000000000000e+00 0.000000000000e+00 
0.000000000000e+00 8.333333333368e-02 0.000000000000e+00 5.000000000000e+04 0.000000000000e+00 -5.000000000000e+04 1.000000000000e-02 9.900000000000e-01 0.000000000000e+00 0.000000000000e+00 0.000000000000e+00 0.000000000000e+00 
8.965517241378e-02 4.166666666668e-01 0.000000000000e+00 5.000000000000e+04 0.000000000000e+00 -5.000000000000e+04 1.000000000000e-02 9.900000000000e-01 0.000000000000e+00 0.000000000000e+00 0.000000000000e+00 0.000000000000e+00 
1.793103448276e-01 4.166666666668e-01 0.000000000000e+00 5.000000000000e+04 0.000000000000e+00 -5.000000000000e+04 1.000000000000e-02 9.900000000000e-01 0.000000000000e+00 0.000000000000e+00 0.000000000000e+00 0.000000000000e+00 
2.689655172413e-01 4.166666666667e-01 0.000000000000e+00 5.000000000000e+04 0.000000000000e+00 -5.000000000000e+04 1.000000000000e-02 9.900000000000e-01 0.000000000000e+00 0.000000000000e+00 0.000000000000e+00 0.000000000000e+00 
3.586206896551e-01 4.166666666667e-01 0.000000000000e+00 5.000000000000e+04 0.000000000000e+00 -5.000000000000e+04 1.000000000000e-02 9.900000000000e-01 0.000000000000e+00 0.000000000000e+00 0.000000000000e+00 0.000000000000e+00 
4.482758620689e-01 4.166666666667e-01 0.000000000000e+00 5.000000000000e+04 0.000000000000e+00 -5.000000000000e+04 1.000000000000e-02 9.900000000000e-01 0.000000000000e+00 0.000000000000e+00 0.000000000000e+00 0.000000000000e+00 
5.379310344827e-01 4.166666666667e-01 0.000000000000e+00 5.000000000000e+04 0.000000000000e+00 -5.000000000000e+04 1.000000000000e-02 9.900000000000e-01 0.000000000000e+00 0.000000000000e+00 0.000000000000e+00 0.000000000000e+00 
6.275862068965e-01 4.166666666667e-01 0.000000000000e+00 5.000000000000e+04 0.000000000000e+00 -5.000000000000e+04 1.000000000000e-02 9.900000000000e-01 0.000000000000e+00 0.000000000000e+00 0.000000000000e+00 0.000000000000e+00 
7.172413793104e-01 4.166666666667e-01 0.000000000000e+00 5.000000000000e+04 0.000000000000e+00 -5.000000000000e+04 1.000000000000e-02 9.900000000000e-01 0.000000000000e+00 0.000000000000e+00 0.000000000000e+00 0.000000000000e+00 
8.965517241376e-02 3.333333333337e-01 0.000000000000e+00 5.000000000000e+04 0.000000000000e+00 -5.000000000000e+04 1.000000000000e-02 9.900000000000e-01 0.000000000000e+00 0.000000000000e+00 0.000000000000e+00 0.000000000000e+00 
1.793103448275e-01 3.333333333336e-01 0.000000000000e+00 5.000000000000e+04 0.000000000000e+00 -5.000000000000e+04 1.000000000000e-02 9.900000000000e-01 0.000000000000e+00 0.000000000000e+00 0.000000000000e+00 0.000000000000e+00 
2.689655172413e-01 3.333333333336e-01 0.000000000000e+00 5.000000000000e+04 0.000000000000e+00 -5.000000000000e+04 1.000000000000e-02 9.900000000000e-01 0.000000000000e+00 0.000000000000e+00 0.000000000000e+00 0.000000000000e+00 
3.586206896551e-01 3.333333333336e-01 0.000000000000e+00 5.000000000000e+04 0.000000000000e+00 -5.000000000000e+04 1.000000000000e-02 9.900000000000e-01 0.000000000000e+00 0.000000000000e+00 0.000000000000e+00 0.000000000000e+00 
4.482758620688e-01 3.333333333336e-01 0.000000000000e+00 5.000000000000e+04 0.000000000000e+00 -5.000000000000e+04 1.000000000000e-02 9.900000000000e-01 0.000000000000e+00 0.000000000000e+00 0.000000000000e+00 0.000000000000e+00 
5.379310344826e-01 3.333333333335e-01 0.000000000000e+00 5.000000000000e+04 0.000000000000e+00 -5.000000000000e+04 1.000000000000e-02 9.900000000000e-01 0.000000000000e+00 0.000000000000e+00 0.000000000000e+00 0.000000000000e+00 
6.275862068964e-01 3.333333333335e-01 0.000000000000e+00 5.000000000000e+04 0.000000000000e+00 -5.000000000000e+04 1.000000000000e-02 9.900000000000e-01 0.000000000000e+00 0.000000000000e+00 0.000000000000e+00 0.000000000000e+00 
7.172413793102e-01 3.333333333335e-01 0.000000000000e+00 5.000000000000e+04 0.000000000000e+00 -5.000000000000e+04 1.000000000000e-02 9.900000000000e-01 0.000000000000e+00 0.000000000000e+00 0.000000000000e+00 0.000000000000e+00 
8.965517241375e-02 2.500000000007e-01 0.000000000000e+00 5.000000000000e+04 0.000000000000e+00 -5.000000000000e+04 1.000000000000e-02 9.900000000000e-01 0.000000000000e+00 0.000000000000e+00 0.000000000000e+00 0.000000000000e+00 
1.793103448275e-01 2.500000000006e-01 0.000000000000e+00 5.000000000000e+04 0.000000000000e+00 -5.000000000000e+04 1.000000000000e-02 9.900000000000e-01 0.000000000000e+00 0.000000000000e+00 0.000000000000e+00 0.000000000000e+00 
2.689655172413e-01 2.500000000006e-01 0.000000000000e+00 5.000000000000e+04 0.000000000000e+00 -5.000000000000e+04 1.000000000000e-02 9.900000000000e-01 0.000000000000e+00 0.000000000000e+00 0.000000000000e+00 0.000000000000e+00 
3.586206896550e-01 2.500000000005e-01 0.000000000000e+00 5.000000000000e+04 0.000000000000e+00 -5.000000000000e+04 1.000000000000e-02 9.900000000000e-01 0.000000000000e+00 0.000000000000e+00 0.000000000000e+00 0.000000000000e+00 
4.482758620688e-01 2.500000000005e-01 0.000000000000e+00 5.000000000000e+04 0.000000000000e+00 -5.000000000000e+04 1.000000000000e-02 9.900000000000e-01 0.000000000000e+00 0.000000000000e+00 0.000000000000e+00 0.000000000000e+00 
5.379310344825e-01 2.500000000004e-01 0.000000000000e+00 5.000000000000e+04 0.000000000000e+00 -5.000000000000e+04 1.000000000000e-02 9.900000000000e-01 0.000000000000e+00 0.000000000000e+00 0.000000000000e+00 0.000000000000e+00 
8.965517241374e-02 1.666666666672e-01 0.000000000000e+00 5.000000000000e+04 0.000000000000e+00 -5.000000000000e+04 1.000000000000e-02 9.900000000000e-01 0.000000000000e+00 0.000000000000e+00 0.000000000000e+00 0.000000000000e+00 
1.793103448275e-01 1.666666666672e-01 0.000000000000e+00 5.000000000000e+04 0.000000000000e+00 -5.000000000000e+04 1.000000000000e-02 9.900000000000e-01 0.000000000000e+00 0.000000000000e+00 0.000000000000e+00 0.000000000000e+00 
4.482758620687e-01 1.666666666671e-01 0.000000000000e+00 5.000000000000e+04 0.000000000000e+00 -5.000000000000e+04 1.000000000000e-02 9.900000000000e-01 0.000000000000e+00 0.000000000000e+00 0.000000000000e+00 0.000000000000e+00 
5.379310344824e-01 1.666666666670e-01 0.000000000000e+00 5.000000000000e+04 0.000000000000e+00 -5.000000000000e+04 1.000000000000e-02 9.900000000000e-01 0.000000000000e+00 0.000000000000e+00 0.000000000000e+00 0.000000000000e+00 
8.965517241372e-02 8.333333333366e-02 0.000000000000e+00 5.000000000000e+04 0.000000000000e+00 -5.000000000000e+04 1.000000000000e-02 9.900000000000e-01 0.000000000000e+00 0.000000000000e+00 0.000000000000e+00 0.000000000000e+00 
1.793103448274e-01 8.333333333364e-02 0.000000000000e+00 5.000000000000e+04 0.000000000000e+00 -5.000000000000e+04 1.000000000000e-02 9.900000000000e-01 0.000000000000e+00 0.000000000000e+00 0.000000000000e+00 0.000000000000e+00 
2.689655172412e-01 8.333333333362e-02 0.000000000000e+00 5.000000000000e+04 0.000000000000e+00 -5.000000000000e+04 1.000000000000e-02 9.900000000000e-01 0.000000000000e+00 0.000000000000e+00 0.000000000000e+00 0.000000000000e+00 
3.586206896549e-01 8.333333333360e-02 0.000000000000e+00 5.000000000000e+04 0.000000000000e+00 -5.000000000000e+04 1.000000000000e-02 9.900000000000e-01 0.000000000000e+00 0.000000000000e+00 0.000000000000e+00 0.000000000000e+00 
4.482758620686e-01 8.333333333359e-02 0.000000000000e+00 5.000000000000e+04 0.000000000000e+00 -5.000000000000e+04 1.000000000000e-02 9.900000000000e-01 0.000000000000e+00 0.000000000000e+00 0.000000000000e+00 0.000000000000e+00 
5.379310344823e-01 8.333333333357e-02 0.000000000000e+00 5.000000000000e+04 0.000000000000e+00 -5.000000000000e+04 1.000000000000e-02 9.900000000000e-01 0.000000000000e+00 0.000000000000e+00 0.000000000000e+00 0.000000000000e+00 
6.275862068961e-01 8.333333333355e-02 0.000000000000e+00 5.000000000000e+04 0.000000000000e+00 -5.000000000000e+04 1.000000000000e-02 9.900000000000e-01 0.000000000000e+00 0.000000000000e+00 0.000000000000e+00 0.000000000000e+00 
7.172413793097e-01 0.000000000000e+00 0.000000000000e+00 5.000000000000e+04 0.000000000000e+00 -5.000000000000e+04 1.000000000000e-02 9.900000000000e-01 0.000000000000e+00 0.000000000000e+00 0.000000000000e+00 0.000000000000e+00 
7.172413793098e-01 8.333333333353e-02 0.000000000000e+00 5.000000000000e+04 0.000000000000e+00 -5.000000000000e+04 1.000000000000e-02 9.900000000000e-01 0.000000000000e+00 0.000000000000e+00 0.000000000000e+00 0.000000000000e+00 
8.068965517243e-01 4.166666666667e-01 0.000000000000e+00 5.000000000000e+04 0.000000000000e+00 -5.000000000000e+04 1.000000000000e-02 9.900000000000e-01 0.000000000000e+00 0.000000000000e+00 0.000000000000e+00 0.000000000000e+00 
8.068965517245e-01 5.000000000000e-01 0.000000000000e+00 5.000000000000e+04 0.000000000000e+00 -5.000000000000e+04 1.000000000000e-02 9.900000000000e-01 0.000000000000e+00 0.000000000000e+00 0.000000000000e+00 0.000000000000e+00 
8.068965517241e-01 3.333333333335e-01 0.000000000000e+00 5.000000000000e+04 0.000000000000e+00 -5.000000000000e+04 1.000000000000e-02 9.900000000000e-01 0.000000000000e+00 0.000000000000e+00 0.000000000000e+00 0.000000000000e+00 
6.275862068963e-01 2.500000000004e-01 0.000000000000e+00 5.000000000000e+04 0.000000000000e+00 -5.000000000000e+04 1.000000000000e-02 9.900000000000e-01 0.000000000000e+00 0.000000000000e+00 0.000000000000e+00 0.000000000000e+00 
7.172413793101e-01 2.500000000004e-01 0.000000000000e+00 5.000000000000e+04 0.000000000000e+00 -5.000000000000e+04 1.000000000000e-02 9.900000000000e-01 0.000000000000e+00 0.000000000000e+00 0.000000000000e+00 0.000000000000e+00 
8.068965517240e-01 2.500000000003e-01 0.000000000000e+00 5.000000000000e+04 0.000000000000e+00 -5.000000000000e+04 1.000000000000e-02 9.900000000000e-01 0.000000000000e+00 0.000000000000e+00 0.000000000000e+00 0.000000000000e+00 
2.689655172412e-01 1.666666666671e-01 0.000000000000e+00 5.000000000000e+04 0.000000000000e+00 -5.000000000000e+04 1.000000000000e-02 9.900000000000e-01 0.000000000000e+00 0.000000000000e+00 0.000000000000e+00 0.000000000000e+00 
3.586206896549e-01 1.666666666671e-01 0.000000000000e+00 5.000000000000e+04 0.000000000000e+00 -5.000000000000e+04 1.000000000000e-02 9.900000000000e-01 0.000000000000e+00 0.000000000000e+00 0.000000000000e+00 0.000000000000e+00 
6.275862068961e-01 1.666666666670e-01 0.000000000000e+00 5.000000000000e+04 0.000000000000e+00 -5.000000000000e+04 1.000000000000e-02 9.900000000000e-01 0.000000000000e+00 0.000000000000e+00 0.000000000000e+00 0.000000000000e+00 
22  1  3  49  
2  18  23  17  
49  3  4  50  
50  4  5  51  
51  5  6  52  
52  6  7  53  
53  7  8  54  
11  29  30  10  
12  28  29  11  
13  27  28  12  
14  26  27  13  
15  25  26  14  
16  24  25  15  
17  23  24  16  
18  19  31  23  
19  20  39  31  
20  21  45  39  
21  22  49  45  
23  31  32  24  
24  32  33  25  
25  33  34  26  
26  34  35  27  
27  35  36  28  
28  36  37  29  
29  37  38  30  
31  39  40  32  
32  40  41  33  
33  41  42  34  
34  42  43  35  
35  43  44  36  
39  45  46  40  
43  47  48  44  
45  49  50  46  
47  53  54  48  
54  8  9  55  
55  9  56  57  
10  30  58  59  
30  38  60  58  
36  44  61  37  
37  61  62  38  
38  62  63  60  
40  46  64  41  
41  64  65  42  
42  65  47  43  
44  48  66  61  
46  50  51  64  
65  52  53  47  
48  54  55  66  
64  51  52  65  
VARIABLES  = "X","Y","Z", "PRESSURE1", "PRESSURE2", "PRESSURE_W", "SATURATION1", SATURATION2, "VELOCITY_X1", "VELOCITY_Y1", "VELOCITY_X2", "VELOCITY_Y2"
ZONE T="5.000000000000e+02s", N=66, E=49, F=FEPOINT, ET=QUADRILATERAL
STRANDID=1, SOLUTIONTIME=5.000000000000e+02
0.000000000000e+00 0.000000000000e+00 0.000000000000e+00 4.999999997894e+03 1.999999999158e+05 1.949999999179e+05 9.820320600803e-01 1.796793991974e-02 1.051717856576e-04 -1.021951674738e-10 1.692748625950e-05 1.047359389516e-11 
0.000000000000e+00 5.000000000000e-01 0.000000000000e+00 4.999999997894e+03 1.999999999158e+05 1.949999999179e+05 9.820320782350e-01 1.796792176499e-02 1.051700717057e-04 -6.230541376173e-11 1.692747865694e-05 1.058017308405e-11 
8.965517241371e-02 0.000000000000e+00 0.000000000000e+00 6.453205288058e+03 2.013438088685e+05 1.948906035805e+05 5.928132675520e-01 4.071867324480e-01 3.946337623300e-05 -1.744147016629e-10 -8.525782087432e-05 -9.764052434423e-11 
1.793103448274e-01 0.000000000000e+00 0.000000000000e+00 7.230472054660e+03 2.016172576793e+05 1.943867856246e+05 4.750031060975e-01 5.249968939025e-01 4.929067088644e-05 -1.994061483753e-11 -4.573282335962e-05 -9.991236602691e-12 
2.689655172411e-01 0.000000000000e+00 0.000000000000e+00 8.670748876270e+03 2.017335274943e+05 1.930627786180e+05 2.574007653089e-01 7.425992346911e-01 2.248847456923e-05 9.254160173587e-12 -2.853180009340e-05 -2.100638171522e-10 
3.586206896548e-01 0.000000000000e+00 0.000000000000e+00 4.114040997167e+04 2.017410910500e+05 1.606006810784e+05 5.536147686526e-03 9.944638523135e-01 -1.923650302109e-06 -8.946943091222e-14 -4.193852761600e-06 1.720896561933e-10 
4.482758620685e-01 0.000000000000e+00 0.000000000000e+00 4.999931273214e+04 2.017410001803e+05 1.517416874482e+05 9.939329280719e-03 9.900606707193e-01 3.827189301136e-11 -4.691054623082e-18 9.870159039654e-08 6.108020758294e-10 
5.379310344822e-01 0.000000000000e+00 0.000000000000e+00 4.999999984216e+04 2.017409104789e+05 1.517409106367e+05 1.000000006285e-02 9.899999999371e-01 4.818191634170e-15 5.183133622010e-18 9.663676654790e-08 5.079811912823e-10 
6.275862068960e-01 0.000000000000e+00 0.000000000000e+00 4.999999986804e+04 2.017408233647e+05 1.517408234966e+05 1.000000005278e-02 9.899999999472e-01 9.515184051672e-16 6.948592004284e-18 9.323470765144e-08 6.808798801129e-10 
7.172413793105e-01 5.000000000000e-01 0.000000000000e+00 4.999999986783e+04 2.017407348010e+05 1.517407349331e+05 1.000000005287e-02 9.899999999471e-01 9.099071800340e-16 -8.742437985768e-18 8.917089014571e-08 -8.567604761860e-10 
6.275862068966e-01 5.000000000000e-01 0.000000000000e+00 4.999999986748e+04 2.017408184770e+05 1.517408186095e+05 1.000000005301e-02 9.899999999470e-01 9.517378362340e-16 -1.001971983873e-17 9.325632619419e-08 -9.819340880175e-10 
5.379310344828e-01 5.000000000000e-01 0.000000000000e+00 4.999999984191e+04 2.017409054315e+05 1.517409055896e+05 1.000000006295e-02 9.899999999370e-01 4.816291846740e-15 -2.220945359571e-18 9.645152015105e-08 -2.176544066490e-10 
4.482758620690e-01 5.000000000000e-01 0.000000000000e+00 4.999931273328e+04 2.017409949537e+05 1.517416822204e+05 9.939329457469e-03 9.900606705425e-01 3.827187960681e-11 1.385086811956e-17 9.815751869035e-08 -5.081074073788e-10 
3.586206896552e-01 5.000000000000e-01 0.000000000000e+00 4.114042125810e+04 2.017410850074e+05 1.606006637493e+05 5.536144456481e-03 9.944638555435e-01 -1.923646937936e-06 3.563361929170e-13 -4.193890849976e-06 4.283895646694e-10 
2.689655172414e-01 5.000000000000e-01 0.000000000000e+00 8.670751009371e+03 2.017335221713e+05 1.930627711619e+05 2.574006297739e-01 7.425993702261e-01 2.248846229339e-05 -3.631803374833e-11 -2.853072146415e-05 6.580262215712e-11 
1.793103448276e-01 5.000000000000e-01 0.000000000000e+00 7.230471303400e+03 2.016172561346e+05 1.943867848312e+05 4.750031959402e-01 5.249968040598e-01 4.929095101357e-05 -2.458739861717e-10 -4.573206485108e-05 -6.227686150422e-10 
8.965517241379e-02 5.000000000000e-01 0.000000000000e+00 6.453204420860e+03 2.013438097983e+05 1.948906053774e+05 5.928134333226e-01 4.071865666774e-01 3.946353365590e-05 -1.229719452806e-10 -8.525763009741e-05 -8.332192926019e-11 
0.000000000000e+00 4.166666666668e-01 0.000000000000e+00 4.999999997894e+03 1.999999999158e+05 1.949999999179e+05 9.820320821855e-01 1.796791781446e-02 1.051707052305e-04 -1.821256541360e-10 1.692746381501e-05 1.107700426086e-11 
0.000000000000e+00 3.333333333337e-01 0.000000000000e+00 4.999999997894e+03 1.999999999158e+05 1.949999999179e+05 9.820320349834e-01 1.796796501662e-02 1.051737257996e-04 -2.099313675563e-10 1.692750239274e-05 1.395967669801e-11 
0.000000000000e+00 2.500000000007e-01 0.000000000000e+00 4.999999997894e+03 1.999999999158e+05 1.949999999179e+05 9.820320363130e-01 1.796796368705e-02 1.051749201852e-04 -3.333449144262e-11 1.692748454168e-05 3.331266313129e-12 
0.000000000000e+00 1.666666666672e-01 0.000000000000e+00 4.999999997894e+03 1.999999999158e+05 1.949999999179e+05 9.820320314250e-01 1.796796857500e-02 1.051743978688e-04 2.068344527010e-10 1.692749947865e-05 -1.866332423420e-11 
0.000000000000e+00 8.333333333368e-02 0.000000000000e+00 4.999999997894e+03 1.999999999158e+05 1.949999999179e+05 9.820320650990e-01 1.796793490101e-02 1.051707551335e-04 1.301129425980e-10 1.692749145228e-05 -8.585024484363e-12 
8.965517241378e-02 4.166666666668e-01 0.000000000000e+00 6.453204232155e+03 2.013438089537e+05 1.948906047215e+05 5.928134648726e-01 4.071865351274e-01 3.946379230701e-05 -3.091529501009e-10 -8.525747701778e-05 -1.014139893233e-10 
1.793103448276e-01 4.166666666668e-01 0.000000000000e+00 7.230472828799e+03 2.016172537459e+05 1.943867809171e+05 4.750029817988e-01 5.249970182012e-01 4.929097451341e-05 -1.586932613481e-11 -4.573223266505e-05 -9.649182719598e-11 
2.689655172413e-01 4.166666666667e-01 0.000000000000e+00 8.670756320814e+03 2.017335223303e+05 1.930627660095e+05 2.574003326006e-01 7.425996673994e-01 2.248836882835e-05 5.329667596104e-12 -2.853140233796e-05 4.691254121474e-10 
3.586206896551e-01 4.166666666667e-01 0.000000000000e+00 4.114043070533e+04 2.017410853720e+05 1.606006546667e+05 5.536147607351e-03 9.944638523926e-01 -1.923639955891e-06 -3.320517840620e-14 -4.193574576095e-06 7.635738393650e-10 
4.482758620689e-01 4.166666666667e-01 0.000000000000e+00 4.999931273308e+04 2.017409945213e+05 1.517416817882e+05 9.939329605894e-03 9.900606703941e-01 3.827187425062e-11 3.235760141064e-18 9.845807519809e-08 4.379701609352e-10 
5.379310344827e-01 4.166666666667e-01 0.000000000000e+00 4.999999984191e+04 2.017409052464e+05 1.517409054045e+05 1.000000006295e-02 9.899999999370e-01 4.818538168208e-15 3.013032698233e-18 9.667154692065e-08 2.953527965220e-10 
6.275862068965e-01 4.166666666667e-01 0.000000000000e+00 4.999999986748e+04 2.017408176420e+05 1.517408177745e+05 1.000000005301e-02 9.899999999470e-01 9.547686506207e-16 2.222788514252e-18 9.355334668328e-08 2.179985969347e-10 
7.172413793104e-01 4.166666666667e-01 0.000000000000e+00 4.999999986783e+04 2.017407340724e+05 1.517407342046e+05 1.000000005287e-02 9.899999999471e-01 9.054652873927e-16 3.098122579216e-18 8.873558399152e-08 3.037815597355e-10 
8.965517241376e-02 3.333333333337e-01 0.000000000000e+00 6.453206486859e+03 2.013438080297e+05 1.948906015429e+05 5.928130426147e-01 4.071869573853e-01 3.946336807791e-05 -3.415177268656e-10 -8.525783818841e-05 -1.413393573339e-10 
1.793103448275e-01 3.333333333336e-01 0.000000000000e+00 7.230471516661e+03 2.016172554972e+05 1.943867839806e+05 4.750031721455e-01 5.249968278545e-01 4.929081265101e-05 1.871446170462e-10 -4.573246117328e-05 4.073682320182e-10 
2.689655172413e-01 3.333333333336e-01 0.000000000000e+00 8.670751555072e+03 2.017335237103e+05 1.930627721553e+05 2.574006012531e-01 7.425993987469e-01 2.248844281361e-05 3.210262489484e-11 -2.853111819948e-05 1.037662630560e-09 
3.586206896551e-01 3.333333333336e-01 0.000000000000e+00 4.114042111118e+04 2.017410862900e+05 1.606006651788e+05 5.536145450734e-03 9.944638545493e-01 -1.923646327680e-06 -3.017698819917e-13 -4.193455635337e-06 1.582486436249e-09 
4.482758620688e-01 3.333333333336e-01 0.000000000000e+00 4.999931273285e+04 2.017409956982e+05 1.517416829653e+05 9.939329455339e-03 9.900606705447e-01 3.827188340266e-11 -1.757975810654e-18 9.858405594617e-08 1.334361160634e-09 
5.379310344826e-01 3.333333333335e-01 0.000000000000e+00 4.999999984203e+04 2.017409059338e+05 1.517409060917e+05 1.000000006290e-02 9.899999999371e-01 4.818380191456e-15 1.384100665912e-17 9.665578854471e-08 1.356553248322e-09 
6.275862068964e-01 3.333333333335e-01 0.000000000000e+00 4.999999986776e+04 2.017408188477e+05 1.517408189799e+05 1.000000005290e-02 9.899999999471e-01 9.516587535978e-16 7.939396460499e-18 9.324849173275e-08 7.784337051845e-10 
7.172413793102e-01 3.333333333335e-01 0.000000000000e+00 4.999999986811e+04 2.017407353176e+05 1.517407354495e+05 1.000000005276e-02 9.899999999472e-01 8.978400243203e-16 1.689094362287e-17 8.798852909544e-08 1.655273911689e-09 
8.965517241375e-02 2.500000000007e-01 0.000000000000e+00 6.453206423349e+03 2.013438067249e+05 1.948906003016e+05 5.928130568605e-01 4.071869431395e-01 3.946316456818e-05 -5.007560028846e-11 -8.525792846837e-05 -3.828043204300e-11 
1.793103448275e-01 2.500000000006e-01 0.000000000000e+00 7.230470675268e+03 2.016172571082e+05 1.943867864329e+05 4.750032835904e-01 5.249967164096e-01 4.929075437587e-05 8.931036118339e-11 -4.573281459053e-05 2.638423907095e-10 
2.689655172413e-01 2.500000000006e-01 0.000000000000e+00 8.670750890183e+03 2.017335256437e+05 1.930627747536e+05 2.574006396782e-01 7.425993603218e-01 2.248845369867e-05 2.054024125289e-11 -2.853111530511e-05 1.009520724032e-09 
3.586206896550e-01 2.500000000005e-01 0.000000000000e+00 4.114041811439e+04 2.017410880282e+05 1.606006699138e+05 5.536146144823e-03 9.944638538552e-01 -1.923647358872e-06 -2.106494246320e-13 -4.192996259469e-06 1.947145227846e-09 
4.482758620688e-01 2.500000000005e-01 0.000000000000e+00 4.999931273227e+04 2.017409967901e+05 1.517416840579e+05 9.939329408523e-03 9.900606705915e-01 3.827188561169e-11 2.511721308459e-19 9.864892486188e-08 1.673351141381e-09 
5.379310344825e-01 2.500000000004e-01 0.000000000000e+00 4.999999984213e+04 2.017409075535e+05 1.517409077113e+05 1.000000006286e-02 9.899999999371e-01 4.823816314453e-15 1.920585792968e-17 9.718801871652e-08 1.882308793153e-09 
8.965517241374e-02 1.666666666672e-01 0.000000000000e+00 6.453206656832e+03 2.013438074979e+05 1.948906008411e+05 5.928130118329e-01 4.071869881671e-01 3.946315106431e-05 3.480585701286e-10 -8.525798498200e-05 1.723997560125e-10 
1.793103448275e-01 1.666666666672e-01 0.000000000000e+00 7.230471025383e+03 2.016172577007e+05 1.943867866753e+05 4.750032423706e-01 5.249967576294e-01 4.929068235953e-05 -1.757186863278e-11 -4.573289147124e-05 7.516169517031e-11 
4.482758620687e-01 1.666666666671e-01 0.000000000000e+00 4.999931273202e+04 2.017409985435e+05 1.517416858114e+05 9.939329243174e-03 9.900606707568e-01 3.827189395257e-11 1.210350067529e-17 9.862916107210e-08 1.688172686885e-09 
5.379310344824e-01 1.666666666670e-01 0.000000000000e+00 4.999999984226e+04 2.017409091350e+05 1.517409092927e+05 1.000000006281e-02 9.899999999372e-01 4.816143748984e-15 1.496062564772e-17 9.643612601955e-08 1.466145507199e-09 
8.965517241372e-02 8.333333333366e-02 0.000000000000e+00 6.453205048328e+03 2.013438097046e+05 1.948906046563e+05 5.928133139277e-01 4.071866860723e-01 3.946339167928e-05 2.170759641217e-10 -8.525779142259e-05 8.027350887719e-11 
1.793103448274e-01 8.333333333364e-02 0.000000000000e+00 7.230471641668e+03 2.016172577112e+05 1.943867860695e+05 4.750031559382e-01 5.249968440618e-01 4.929074183672e-05 -3.677541949054e-11 -4.573275151591e-05 -1.200836208144e-12 
2.689655172412e-01 8.333333333362e-02 0.000000000000e+00 8.670750115617e+03 2.017335278204e+05 1.930627777048e+05 2.574006889524e-01 7.425993110476e-01 2.248845453640e-05 6.103175994352e-12 -2.853170453941e-05 1.471490778137e-10 
3.586206896549e-01 8.333333333360e-02 0.000000000000e+00 4.114041512848e+04 2.017410908958e+05 1.606006757674e+05 5.536146650272e-03 9.944638533497e-01 -1.923648464777e-06 -2.884421173796e-14 -4.193385551385e-06 8.648973978335e-10 
4.482758620686e-01 8.333333333359e-02 0.000000000000e+00 4.999931273203e+04 2.017409996608e+05 1.517416869288e+05 9.939329361738e-03 9.900606706383e-01 3.827189005082e-11 1.143852519175e-17 9.885343430809e-08 9.625598260754e-10 
5.379310344823e-01 8.333333333357e-02 0.000000000000e+00 4.999999984213e+04 2.017409100469e+05 1.517409102048e+05 1.000000006286e-02 9.899999999371e-01 4.818524359483e-15 8.063835863870e-18 9.666927346492e-08 7.902005412232e-10 
6.275862068961e-01 8.333333333355e-02 0.000000000000e+00 4.999999986811e+04 2.017408227857e+05 1.517408229176e+05 1.000000005276e-02 9.899999999472e-01 9.563975611828e-16 7.394430603573e-18 9.370829894156e-08 7.247098630231e-10 
7.172413793097e-01 0.000000000000e+00 0.000000000000e+00 4.999999986829e+04 2.017407398879e+05 1.517407400196e+05 1.000000005268e-02 9.899999999473e-01 9.310896714832e-16 -2.812915602061e-18 9.124669460058e-08 -2.751886603160e-10 
7.172413793098e-01 8.333333333353e-02 0.000000000000e+00 4.999999986789e+04 2.017407401219e+05 1.517407402540e+05 1.000000005285e-02 9.899999999472e-01 9.220164757770e-16 -2.812915602169e-18 9.035804123207e-08 -2.751886603160e-10 
8.068965517243e-01 4.166666666667e-01 0.000000000000e+00 4.999999986783e+04 2.017406552830e+05 1.517406554152e+05 1.000000005287e-02 9.899999999471e-01 8.788047692155e-16 1.520538365418e-17 8.612303998056e-08 1.490056050042e-09 