 TITLE = "Time curves in points"
 VARIABLES = "TIME"  "PRESSURE1"  "PRESSURE2"  "PRESSURE_W"  "SATURATION1" SATURATION2  "VELOCITY_X1"  "VELOCITY_Y1"  "VELOCITY_X2"  "VELOCITY_Y2" 
 ZONE T="POINT=POINT4"
0.000000000000e+00 5.000000000000e+04 0.000000000000e+00 -5.000000000000e+04 1.000000000000e-02 9.900000000000e-01 0.000000000000e+00 0.000000000000e+00 0.000000000000e+00 0.000000000000e+00 
5.000000000000e+00 4.999999999986e+03 1.999999999995e+05 1.949999999995e+05 3.345535831814e-01 6.654464168186e-01 3.574472583127e-04 -4.154079067000e-14 -4.128319323141e-05 3.879528369949e-12 
1.000000000000e+01 4.999999999999e+03 2.000000000000e+05 1.950000000000e+05 4.104307977849e-01 5.895692022151e-01 6.383557035234e-04 2.571056093094e-14 -5.541442703590e-05 7.311882272586e-13 
1.500000000000e+01 5.000000000000e+03 2.000000000000e+05 1.950000000000e+05 5.087274660252e-01 4.912725339748e-01 1.118490787514e-03 1.412285902319e-13 -5.764971913816e-05 -5.660282177940e-13 
2.000000000000e+01 5.000000000000e+03 2.000000000000e+05 1.950000000000e+05 6.174610926721e-01 3.825389073279e-01 1.719757879107e-03 3.325499973638e-13 -2.763933587407e-05 -1.209432449200e-12 
2.500000000000e+01 5.000000000000e+03 2.000000000000e+05 1.950000000000e+05 7.178518642876e-01 2.821481357124e-01 2.170022382133e-03 -3.132227861785e-14 2.850675288742e-05 2.150735621112e-12 
3.000000000000e+01 4.999999999568e+03 1.999999999827e+05 1.949999999831e+05 7.978654157288e-01 2.021345842712e-01 2.257864610308e-03 -1.022543901194e-12 7.922881174686e-05 1.391736086992e-11 
3.500000000000e+01 5.000000000001e+03 2.000000000000e+05 1.950000000000e+05 8.556470638032e-01 1.443529361968e-01 2.013381822855e-03 5.934262426969e-12 1.052999517353e-04 2.069963053778e-12 
4.000000000000e+01 5.000000000095e+03 2.000000000038e+05 1.950000000037e+05 8.949860201008e-01 1.050139798992e-01 1.609519619025e-03 4.415723077642e-12 1.079304663036e-04 4.176826751599e-12 
4.500000000000e+01 5.000000000001e+03 2.000000000001e+05 1.950000000001e+05 9.210673127599e-01 7.893268724008e-02 1.207652980366e-03 6.218829093903e-12 9.702708055891e-05 1.380188835419e-12 
5.000000000000e+01 4.999999999991e+03 1.999999999997e+05 1.949999999997e+05 9.383627625981e-01 6.163723740187e-02 8.858636149755e-04 5.785993904950e-12 8.184480013313e-05 6.360337702688e-13 
6.000000000000e+01 4.999999999844e+03 1.999999999938e+05 1.949999999939e+05 9.563549649986e-01 4.364503500136e-02 5.299884732147e-04 -1.235845485654e-11 5.836828853051e-05 1.150786026751e-11 
7.000000000000e+01 4.999999999999e+03 1.999999999999e+05 1.949999999999e+05 9.662049614218e-01 3.379503857821e-02 3.442182189684e-04 5.697781490543e-13 4.274507630489e-05 5.268851015602e-12 
8.000000000000e+01 5.000000000029e+03 2.000000000012e+05 1.950000000011e+05 9.718306226870e-01 2.816937731302e-02 2.482436321145e-04 5.022121494659e-12 3.337900203762e-05 2.026595340530e-12 
9.000000000000e+01 5.000000000009e+03 2.000000000004e+05 1.950000000004e+05 9.749962935396e-01 2.500370646035e-02 1.988266591982e-04 1.493779307318e-11 2.812073778586e-05 -3.683507911210e-12 
1.000000000000e+02 4.999999999957e+03 1.999999999983e+05 1.949999999983e+05 9.765908770689e-01 2.340912293112e-02 1.754711836861e-04 -3.040006542723e-11 2.550496141465e-05 1.071089654059e-11 
1.100000000000e+02 4.999999999790e+03 1.999999999916e+05 1.949999999918e+05 9.771574569989e-01 2.284254300108e-02 1.675855588804e-04 1.434515738815e-11 2.458122455104e-05 -6.268320181727e-13 
1.200000000000e+02 4.999999999998e+03 1.999999999999e+05 1.949999999999e+05 9.770872385795e-01 2.291276142054e-02 1.683526917916e-04 -4.881851546923e-13 2.469901684898e-05 1.554805877511e-12 
1.300000000000e+02 4.999999998334e+03 1.999999999334e+05 1.949999999350e+05 9.766903519937e-01 2.330964800635e-02 1.737474702583e-04 1.577773339753e-11 2.534837679120e-05 -4.479479309118e-12 
1.400000000000e+02 4.999999999991e+03 1.999999999996e+05 1.949999999996e+05 9.761954563816e-01 2.380454361841e-02 1.811842993922e-04 -2.375527708125e-13 2.615019460738e-05 -1.522448099312e-12 
1.500000000000e+02 5.000000000098e+03 2.000000000039e+05 1.950000000038e+05 9.757267453159e-01 2.427325468412e-02 1.880646388700e-04 2.914481645725e-12 2.691729818412e-05 -2.330270442795e-12 
1.600000000000e+02 5.000000000608e+03 2.000000000243e+05 1.950000000237e+05 9.753450665609e-01 2.465493343910e-02 1.934692148280e-04 -1.236453151420e-11 2.754908645682e-05 2.815126176116e-12 
1.700000000000e+02 5.000000000137e+03 2.000000000055e+05 1.950000000053e+05 9.750809771474e-01 2.491902285256e-02 1.974884634079e-04 -4.059588217406e-11 2.798247571026e-05 1.476474649121e-11 
1.800000000000e+02 5.000000000000e+03 2.000000000000e+05 1.950000000000e+05 9.749366872360e-01 2.506331276401e-02 1.997153163454e-04 1.288126896125e-11 2.821918280012e-05 2.089341949626e-12 
1.900000000000e+02 5.000000000000e+03 2.000000000000e+05 1.950000000000e+05 9.749054422926e-01 2.509455770737e-02 2.000202087262e-04 8.662431772815e-12 2.827400535233e-05 1.354810610167e-12 
2.000000000000e+02 5.000000000000e+03 2.000000000000e+05 1.950000000000e+05 9.749889714270e-01 2.501102857300e-02 1.987934435539e-04 5.658909617394e-12 2.813564072989e-05 1.120336055972e-12 
2.100000000000e+02 5.000000000000e+03 2.000000000000e+05 1.950000000000e+05 9.751872361492e-01 2.481276385076e-02 1.958678338934e-04 4.539238509116e-12 2.780801308186e-05 8.692056864373e-13 
2.200000000000e+02 5.000000000000e+03 2.000000000000e+05 1.950000000000e+05 9.755003215624e-01 2.449967843763e-02 1.912287551432e-04 3.930611764565e-12 2.729254028697e-05 7.280730709924e-13 
2.300000000000e+02 5.000000000000e+03 2.000000000000e+05 1.950000000000e+05 9.759249703938e-01 2.407502960624e-02 1.850028767504e-04 3.727897532898e-12 2.659519244717e-05 6.130481302291e-13 
2.400000000000e+02 5.000000000000e+03 2.000000000000e+05 1.950000000000e+05 9.764494755278e-01 2.355052447215e-02 1.774237701623e-04 3.537706914337e-12 2.573696099446e-05 5.502878855248e-13 
2.500000000000e+02 5.000000000000e+03 2.000000000000e+05 1.950000000000e+05 9.770515949094e-01 2.294840509065e-02 1.688745228585e-04 3.368238952957e-12 2.475651264365e-05 4.958536327117e-13 
2.600000000000e+02 4.999999999998e+03 1.999999999999e+05 1.949999999999e+05 9.777030004446e-01 2.229699955537e-02 1.600587206392e-04 8.638055406829e-13 2.369805332220e-05 1.033114452639e-12 
2.700000000000e+02 4.999999999359e+03 1.999999999744e+05 1.949999999750e+05 9.783650824291e-01 2.163491757087e-02 1.510753824656e-04 2.378463760928e-11 2.263405035611e-05 -4.689982703309e-12 
2.800000000000e+02 5.000000000059e+03 2.000000000024e+05 1.950000000023e+05 9.790028424700e-01 2.099715753005e-02 1.425267091988e-04 -2.126140767394e-12 2.161889763078e-05 -2.004140956775e-13 
2.900000000000e+02 4.999999999701e+03 1.999999999880e+05 1.949999999883e+05 9.795876470819e-01 2.041235291807e-02 1.348014940918e-04 -1.931268118807e-11 2.069674869236e-05 3.995627365274e-12 
3.000000000000e+02 4.999999999987e+03 1.999999999995e+05 1.949999999995e+05 9.800991626648e-01 1.990083733519e-02 1.280931514497e-04 9.680839511073e-12 1.989810793716e-05 -1.250123670934e-12 
3.100000000000e+02 5.000000000368e+03 2.000000000147e+05 1.950000000144e+05 9.805292775507e-01 1.947072244926e-02 1.227211973390e-04 1.315380085323e-12 1.922919802327e-05 -2.484793082843e-13 
3.200000000000e+02 5.000000000061e+03 2.000000000024e+05 1.950000000024e+05 9.808778702089e-01 1.912212979110e-02 1.186655351707e-04 1.700881812258e-12 1.868752235468e-05 -4.645380789030e-13 
3.300000000000e+02 5.000000000000e+03 2.000000000000e+05 1.950000000000e+05 9.811487121207e-01 1.885128787928e-02 1.155693697031e-04 -7.537625011137e-13 1.826899105086e-05 -9.789744173088e-14 
3.400000000000e+02 5.000000000000e+03 2.000000000000e+05 1.950000000000e+05 9.813497877741e-01 1.865021222589e-02 1.132323867732e-04 -9.055853130215e-13 1.796059418049e-05 -4.550041415500e-14 
3.500000000000e+02 4.999999998083e+03 1.999999999233e+05 1.949999999252e+05 9.814921933592e-01 1.850780664083e-02 1.115722326452e-04 1.101039328670e-12 1.774318221424e-05 -2.401257182370e-13 
3.600000000000e+02 4.999999995624e+03 1.999999998250e+05 1.949999998294e+05 9.815877870299e-01 1.841221297014e-02 1.104562847134e-04 -1.982982984395e-11 1.759769595590e-05 3.865224224703e-12 
3.700000000000e+02 4.999999995128e+03 1.999999998051e+05 1.949999998100e+05 9.816478335105e-01 1.835216648946e-02 1.097534053260e-04 -2.373532116489e-11 1.750651495225e-05 5.459315232555e-12 
3.800000000000e+02 4.999999997688e+03 1.999999999075e+05 1.949999999098e+05 9.816821295433e-01 1.831787045668e-02 1.093266606045e-04 -1.192994651748e-11 1.745483640799e-05 3.808923812612e-12 
3.900000000000e+02 4.999999999716e+03 1.999999999886e+05 1.949999999889e+05 9.816992777046e-01 1.830072229543e-02 1.091211890024e-04 5.056497626693e-13 1.742890697980e-05 1.278032345679e-12 
4.000000000000e+02 4.999999999991e+03 1.999999999996e+05 1.949999999997e+05 9.817060299370e-01 1.829397006304e-02 1.090315989695e-04 1.248374478496e-12 1.741881685424e-05 4.925766378055e-13 
4.100000000000e+02 4.999999999997e+03 1.999999999999e+05 1.949999999999e+05 9.817071678086e-01 1.829283219141e-02 1.089352466558e-04 1.124413993889e-13 1.741820556647e-05 2.109635742150e-13 
4.200000000000e+02 5.000000001553e+03 2.000000000621e+05 1.950000000606e+05 9.817088348510e-01 1.829116514904e-02 1.090099455332e-04 -4.810853378162e-11 1.741441639113e-05 9.767907049252e-12 
4.300000000000e+02 5.000000001112e+03 2.000000000445e+05 1.950000000434e+05 9.817126634014e-01 1.828733659857e-02 1.088755841034e-04 2.449367530194e-11 1.740981619376e-05 -1.478323869836e-12 
4.400000000000e+02 5.000000001937e+03 2.000000000775e+05 1.950000000756e+05 9.817234593336e-01 1.827654066636e-02 1.088423220398e-04 -7.796483033765e-12 1.739221627512e-05 3.454157709321e-12 
4.500000000000e+02 5.000000000217e+03 2.000000000087e+05 1.950000000085e+05 9.817425473119e-01 1.825745268811e-02 1.086002755373e-04 -2.461748025836e-12 1.736356558189e-05 3.954705156000e-12 
4.600000000000e+02 4.999999999869e+03 1.999999999948e+05 1.949999999949e+05 9.817722820322e-01 1.822771796776e-02 1.082413997802e-04 3.582631564167e-11 1.731871729796e-05 -2.700451173726e-12 
4.700000000000e+02 5.000000000028e+03 2.000000000011e+05 1.950000000011e+05 9.818146675144e-01 1.818533248559e-02 1.077364037253e-04 5.751820319848e-12 1.725475897972e-05 1.613751513276e-12 
4.800000000000e+02 4.999999999938e+03 1.999999999975e+05 1.949999999976e+05 9.818713665151e-01 1.812863348486e-02 1.070648481618e-04 4.412265169392e-11 1.716925832417e-05 -5.859222758259e-12 
4.900000000000e+02 5.000000000002e+03 2.000000000001e+05 1.950000000001e+05 9.819436027152e-01 1.805639728485e-02 1.062129682101e-04 3.583636492778e-11 1.706046070260e-05 -6.593296472955e-12 
5.000000000000e+02 4.999999997894e+03 1.999999999158e+05 1.949999999179e+05 9.820320363130e-01 1.796796368705e-02 1.051749201852e-04 -3.333449144262e-11 1.692748454168e-05 3.331266313129e-12 
5.100000000000e+02 5.000000000528e+03 2.000000000211e+05 1.950000000206e+05 9.821367192252e-01 1.786328077484e-02 1.039601439731e-04 1.592459980627e-11 1.677028952274e-05 -3.417199008229e-12 
5.200000000000e+02 5.000000000313e+03 2.000000000125e+05 1.950000000122e+05 9.822568127976e-01 1.774318720242e-02 1.025746261510e-04 1.665209407292e-11 1.659039270519e-05 -3.866187849500e-12 
5.300000000000e+02 5.000000000502e+03 2.000000000201e+05 1.950000000196e+05 9.823908000504e-01 1.760919994956e-02 1.010498177323e-04 1.213414529689e-11 1.639010540205e-05 -3.281911146000e-12 
5.400000000000e+02 5.000000000181e+03 2.000000000072e+05 1.950000000071e+05 9.825363994401e-01 1.746360055988e-02 9.941240236416e-05 1.387466269100e-12 1.617305172131e-05 -1.380118277200e-12 
5.500000000000e+02 4.999999999881e+03 1.999999999952e+05 1.949999999954e+05 9.826906987044e-01 1.730930129558e-02 9.769273461194e-05 -3.301167395499e-12 1.594380125922e-05 -2.200273878905e-13 
5.600000000000e+02 4.999999999977e+03 1.999999999991e+05 1.949999999991e+05 9.828503943946e-01 1.714960560537e-02 9.592652041069e-05 -2.073498735840e-12 1.570742796839e-05 -4.558488881120e-15 
5.700000000000e+02 4.999999999907e+03 1.999999999963e+05 1.949999999964e+05 9.830120579790e-01 1.698794202103e-02 9.415201216326e-05 -1.574215129906e-11 1.546909404280e-05 2.632446882358e-12 
5.800000000000e+02 5.000000000052e+03 2.000000000021e+05 1.950000000020e+05 9.831723458380e-01 1.682765416196e-02 9.240196329851e-05 6.371785602234e-12 1.523379932097e-05 -3.679244276473e-13 
5.900000000000e+02 4.999999999531e+03 1.999999999812e+05 1.949999999817e+05 9.833283319856e-01 1.667166801443e-02 9.071656629383e-05 -1.486243080118e-11 1.500569670484e-05 2.963544506925e-12 
6.000000000000e+02 5.000000001929e+03 2.000000000772e+05 1.950000000752e+05 9.834775068554e-01 1.652249314460e-02 8.911737113922e-05 5.755480600259e-12 1.478842214714e-05 3.309078546680e-13 
6.100000000000e+02 4.999999999877e+03 1.999999999951e+05 1.949999999952e+05 9.836179613631e-01 1.638203863686e-02 8.762651243821e-05 -1.056495749080e-11 1.458459950342e-05 3.044868709161e-12 
6.200000000000e+02 5.000000000024e+03 2.000000000010e+05 1.950000000009e+05 9.837482583380e-01 1.625174166203e-02 8.624331636894e-05 6.587654615054e-12 1.439632678612e-05 7.503547185861e-13 
6.300000000000e+02 5.000000000074e+03 2.000000000029e+05 1.950000000029e+05 9.838676768895e-01 1.613232311047e-02 8.499122750507e-05 2.341305696401e-12 1.422428354444e-05 1.181862807776e-12 
6.400000000000e+02 4.999999999982e+03 1.999999999993e+05 1.949999999993e+05 9.839759180981e-01 1.602408190189e-02 8.386260395888e-05 6.559186602063e-12 1.406884883750e-05 4.872179781989e-13 
6.500000000000e+02 5.000000000102e+03 2.000000000041e+05 1.950000000040e+05 9.840731009928e-01 1.592689900718e-02 8.285472182955e-05 8.973182727903e-12 1.392970388634e-05 -5.607491437209e-14 
6.600000000000e+02 5.000000000148e+03 2.000000000059e+05 1.950000000058e+05 9.841596735045e-01 1.584032649550e-02 8.196173435503e-05 1.430201405033e-11 1.380607504975e-05 -1.150272107709e-12 
6.700000000000e+02 5.000000001105e+03 2.000000000442e+05 1.950000000431e+05 9.842367342250e-01 1.576326577501e-02 8.122952932112e-05 4.726200210788e-11 1.369563511254e-05 -5.704550086126e-12 
6.800000000000e+02 4.999999999973e+03 1.999999999989e+05 1.949999999989e+05 9.843042280281e-01 1.569577197187e-02 8.048494461263e-05 2.674503799560e-11 1.360029009171e-05 -4.661932399287e-12 
6.900000000000e+02 5.000000000207e+03 2.000000000083e+05 1.950000000081e+05 9.843635267458e-01 1.563647325420e-02 7.987960574293e-05 -7.518271441497e-12 1.351616122385e-05 -1.521546765178e-13 
7.000000000000e+02 5.000000000474e+03 2.000000000190e+05 1.950000000185e+05 9.844155830032e-01 1.558441699679e-02 7.934981764341e-05 -1.646056015191e-11 1.344243092455e-05 1.815314871432e-12 
7.100000000000e+02 5.000000000062e+03 2.000000000025e+05 1.950000000024e+05 9.844613575736e-01 1.553864242642e-02 7.888563129014e-05 -3.121281349406e-12 1.337768944789e-05 8.055549346139e-13 
7.200000000000e+02 5.000000001129e+03 2.000000000452e+05 1.950000000440e+05 9.845017853559e-01 1.549821464410e-02 7.847706082510e-05 -7.954051868612e-12 1.332057983295e-05 2.132357583232e-12 
7.300000000000e+02 4.999999994623e+03 1.999999997849e+05 1.949999997903e+05 9.845379824037e-01 1.546201759626e-02 7.814318750962e-05 -9.294124678061e-12 1.326917323663e-05 1.087436172908e-12 
7.400000000000e+02 4.999999997273e+03 1.999999998909e+05 1.949999998936e+05 9.845703258374e-01 1.542967416258e-02 7.778557289828e-05 -9.469231853567e-11 1.322393192558e-05 1.408331033603e-11 
7.500000000000e+02 4.999999999369e+03 1.999999999747e+05 1.949999999754e+05 9.845998821303e-01 1.540011786966e-02 7.748796095256e-05 -1.200578448042e-11 1.318231844604e-05 4.995089861940e-12 
7.600000000000e+02 5.000000000963e+03 2.000000000385e+05 1.950000000376e+05 9.846274169572e-01 1.537258304278e-02 7.721129392226e-05 2.724233889892e-11 1.314358396715e-05 -6.042489837554e-13 
7.700000000000e+02 5.000000002683e+03 2.000000001073e+05 1.950000001046e+05 9.846536575359e-01 1.534634246407e-02 7.694791064620e-05 -7.162270377309e-12 1.310670218062e-05 3.696858908303e-12 
7.800000000000e+02 4.999999997803e+03 1.999999999121e+05 1.949999999143e+05 9.846793040029e-01 1.532069599706e-02 7.669109878306e-05 -3.671347998508e-11 1.307068588920e-05 8.650408755193e-12 
7.900000000000e+02 5.000000000098e+03 2.000000000039e+05 1.950000000038e+05 9.847050103529e-01 1.529498964706e-02 7.643375423047e-05 -2.673450698476e-11 1.303461364988e-05 8.715638088295e-12 
8.000000000000e+02 5.000000000066e+03 2.000000000026e+05 1.950000000026e+05 9.847314098410e-01 1.526859015901e-02 7.617005534654e-05 -1.440617808401e-11 1.299759835700e-05 7.966347543207e-12 
8.100000000000e+02 5.000000000016e+03 2.000000000007e+05 1.950000000006e+05 9.847590923321e-01 1.524090766793e-02 7.589403525590e-05 5.778244088725e-12 1.295881646504e-05 5.564594817125e-12 
8.200000000000e+02 4.999999999909e+03 1.999999999963e+05 1.949999999964e+05 9.847886032737e-01 1.521139672631e-02 7.560044915816e-05 1.768501547089e-11 1.291750842999e-05 3.609089551901e-12 
8.300000000000e+02 4.999999999925e+03 1.999999999970e+05 1.949999999971e+05 9.848204299164e-01 1.517957008358e-02 7.528458128201e-05 1.985131871256e-11 1.287300014694e-05 2.583566072043e-12 
8.400000000000e+02 4.999999999994e+03 1.999999999998e+05 1.949999999998e+05 9.848549877546e-01 1.514501224538e-02 7.494246644325e-05 1.807992958102e-12 1.282472131798e-05 4.494748410915e-12 
8.500000000000e+02 4.999999999187e+03 1.999999999675e+05 1.949999999683e+05 9.848926066392e-01 1.510739336080e-02 7.457111786534e-05 -5.681066312131e-11 1.277222418858e-05 1.305099952160e-11 
8.600000000000e+02 4.999999997644e+03 1.999999999058e+05 1.949999999081e+05 9.849335144639e-01 1.506648553607e-02 7.416843429616e-05 -1.538278616421e-10 1.271520760341e-05 2.897479033321e-11 
8.700000000000e+02 4.999999997553e+03 1.999999999021e+05 1.949999999046e+05 9.849778248805e-01 1.502217511952e-02 7.373332457985e-05 -2.029500691996e-10 1.265353289994e-05 4.066063405409e-11 
8.800000000000e+02 4.999999998790e+03 1.999999999516e+05 1.949999999528e+05 9.850255337512e-01 1.497446624880e-02 7.326597573037e-05 -1.857962335888e-10 1.258722789878e-05 4.372044043613e-11 
8.900000000000e+02 5.000000000573e+03 2.000000000229e+05 1.950000000223e+05 9.850765184035e-01 1.492348159647e-02 7.276778628199e-05 -1.254245100175e-10 1.251648646314e-05 3.957935464051e-11 
9.000000000000e+02 5.000000001342e+03 2.000000000537e+05 1.950000000524e+05 9.851305436450e-01 1.486945635504e-02 7.224138081728e-05 -5.974158659126e-11 1.244165785584e-05 3.264819557844e-11 
9.100000000000e+02 5.000000000957e+03 2.000000000383e+05 1.950000000373e+05 9.851872718621e-01 1.481272813791e-02 7.169042101556e-05 -7.901435661184e-12 1.236323066600e-05 2.564307455969e-11 
9.200000000000e+02 5.000000000132e+03 2.000000000053e+05 1.950000000052e+05 9.852462791028e-01 1.475372089720e-02 7.111921050325e-05 2.495995726665e-11 1.228181149011e-05 1.976416303791e-11 
9.300000000000e+02 4.999999999996e+03 1.999999999998e+05 1.949999999999e+05 9.853070747995e-01 1.469292520046e-02 7.053244676477e-05 3.789973545470e-11 1.219809676026e-05 1.576512624618e-11 
9.400000000000e+02 4.999999999428e+03 1.999999999771e+05 1.949999999777e+05 9.853691151865e-01 1.463088481346e-02 6.993326361981e-05 5.356126210337e-11 1.211287264218e-05 1.122914044239e-11 
9.500000000000e+02 5.000000001122e+03 2.000000000449e+05 1.950000000438e+05 9.854311441884e-01 1.456885581165e-02 6.922613388284e-05 -3.584409353194e-11 1.202895143519e-05 2.051237022885e-11 
9.600000000000e+02 5.000000000006e+03 2.000000000002e+05 1.950000000002e+05 9.854942936444e-01 1.450570635563e-02 6.875647883835e-05 3.131517389688e-11 1.194121246184e-05 1.178538977076e-11 
9.700000000000e+02 4.999999999995e+03 1.999999999998e+05 1.949999999998e+05 9.855570609684e-01 1.444293903156e-02 6.815764682758e-05 4.460599908783e-11 1.185554091675e-05 8.401309677091e-12 
9.800000000000e+02 5.000000000023e+03 2.000000000009e+05 1.950000000009e+05 9.856189983545e-01 1.438100164548e-02 6.757195681513e-05 1.123268753450e-11 1.177115713659e-05 1.119408825966e-11 
9.900000000000e+02 4.999999999932e+03 1.999999999973e+05 1.949999999974e+05 9.856796929319e-01 1.432030706812e-02 6.700100722821e-05 -3.717171162730e-12 1.168863764065e-05 1.264704621756e-11 
1.000000000000e+03 5.000000000088e+03 2.000000000035e+05 1.950000000034e+05 9.857387873055e-01 1.426121269452e-02 6.644747436109e-05 3.007518635311e-11 1.160846206620e-05 7.907085201833e-12 
1.010000000000e+03 5.000000000107e+03 2.000000000043e+05 1.950000000042e+05 9.857959885377e-01 1.420401146227e-02 6.591406252456e-05 -5.503395726919e-12 1.153101269022e-05 1.137473444168e-11 
1.020000000000e+03 4.999999999736e+03 1.999999999894e+05 1.949999999897e+05 9.858510650899e-01 1.414893491014e-02 6.540225260053e-05 -6.600057369645e-12 1.145659189847e-05 1.117782394938e-11 
1.030000000000e+03 5.000000000139e+03 2.000000000055e+05 1.950000000054e+05 9.859038477574e-01 1.409615224263e-02 6.491354652226e-05 1.209061133404e-11 1.138540918541e-05 8.283328711025e-12 
1.040000000000e+03 5.000000000351e+03 2.000000000140e+05 1.950000000137e+05 9.859542259724e-01 1.404577402756e-02 6.444875049447e-05 1.122848895929e-11 1.131759655681e-05 7.514249693089e-12 
1.050000000000e+03 5.000000000316e+03 2.000000000127e+05 1.950000000123e+05 9.860021403082e-01 1.399785969184e-02 6.400807980021e-05 1.999910614858e-11 1.125321754183e-05 5.718123561808e-12 
1.150000000000e+03 4.999999999265e+03 1.999999999706e+05 1.949999999713e+05 9.863116362638e-01 1.368836373617e-02 6.125476543333e-05 4.086367424569e-11 1.083959232007e-05 -1.017147541294e-11 
1.250000000000e+03 5.000000000003e+03 2.000000000001e+05 1.950000000001e+05 9.865432423520e-01 1.345675764795e-02 5.906070830751e-05 1.818551900834e-11 1.053484393807e-05 -7.927127093294e-12 
1.350000000000e+03 5.000000000083e+03 2.000000000033e+05 1.950000000032e+05 9.867791174605e-01 1.322088253947e-02 5.718237012276e-05 -3.911603872447e-12 1.022444988373e-05 -1.574175130113e-12 
1.450000000000e+03 4.999999999974e+03 1.999999999989e+05 1.949999999990e+05 9.870142818832e-01 1.298571811678e-02 5.491453518536e-05 -2.368974728170e-12 9.921751595186e-06 -5.470244840414e-13 
1.550000000000e+03 5.000000000070e+03 2.000000000028e+05 1.950000000027e+05 9.872404669503e-01 1.275953304965e-02 5.296354689214e-05 7.256373450785e-12 9.631689961870e-06 -1.987167648076e-12 
1.650000000000e+03 5.000000000116e+03 2.000000000046e+05 1.950000000045e+05 9.874392414071e-01 1.256075859288e-02 5.120315423472e-05 -2.246369384276e-11 9.379720125423e-06 4.884718684111e-12 
1.750000000000e+03 4.999999999999e+03 2.000000000000e+05 1.950000000000e+05 9.876188159391e-01 1.238118406092e-02 4.988431793204e-05 6.500054135539e-11 9.151943020310e-06 -1.625940462780e-11 
1.850000000000e+03 5.000000000000e+03 2.000000000000e+05 1.950000000000e+05 9.877844863960e-01 1.221551360403e-02 4.854710655773e-05 -1.334975052844e-11 8.944601645178e-06 -3.691771319516e-12 
1.925000000000e+03 4.999999999987e+03 1.999999999995e+05 1.949999999995e+05 9.879095170833e-01 1.209048291670e-02 4.763577844001e-05 -1.698866399729e-11 8.788500950320e-06 1.506753785976e-13 
2.000000000000e+03 5.000000000006e+03 2.000000000002e+05 1.950000000002e+05 9.880321706797e-01 1.196782932025e-02 4.652807224157e-05 -1.815925581413e-12 8.638027691466e-06 -5.940576711574e-13 
2.100000000000e+03 4.999999999999e+03 2.000000000000e+05 1.950000000000e+05 9.881979685405e-01 1.180203145951e-02 4.532641694938e-05 1.397343455328e-11 8.433859446813e-06 -3.792749795435e-12 
2.200000000000e+03 5.000000000000e+03 2.000000000000e+05 1.950000000000e+05 9.883509230687e-01 1.164907693129e-02 4.402356980061e-05 -2.767358071716e-12 8.248589411661e-06 -1.153168417506e-12 
2.300000000000e+03 5.000000000000e+03 2.000000000000e+05 1.950000000000e+05 9.884955215568e-01 1.150447844321e-02 4.306927346774e-05 8.652916333836e-13 8.072777381439e-06 -1.118363631340e-12 
2.400000000000e+03 5.000000000000e+03 2.000000000000e+05 1.950000000000e+05 9.886243189578e-01 1.137568104215e-02 4.202494218192e-05 4.365022082113e-11 7.918804950806e-06 -1.117966426687e-11 
2.500000000000e+03 5.000000000000e+03 2.000000000000e+05 1.950000000000e+05 9.887400547612e-01 1.125994523876e-02 4.097865291039e-05 -8.993332631756e-11 7.782166845528e-06 1.332003662168e-11 
2.600000000000e+03 5.000000000000e+03 2.000000000000e+05 1.950000000000e+05 9.888597054935e-01 1.114029450652e-02 4.030644116345e-05 5.946206801201e-12 7.638914633475e-06 1.994952773027e-12 
2.700000000000e+03 5.000000000000e+03 2.000000000000e+05 1.950000000000e+05 9.889760367578e-01 1.102396324216e-02 3.942800330409e-05 -9.805211519928e-13 7.502197670881e-06 9.955830494951e-13 
2.800000000000e+03 5.000000000000e+03 2.000000000000e+05 1.950000000000e+05 9.890890831510e-01 1.091091684899e-02 3.859068189064e-05 7.683968629450e-12 7.370120574741e-06 -1.361406782427e-12 
2.900000000000e+03 4.999999999999e+03 1.999999999999e+05 1.949999999999e+05 9.891944504748e-01 1.080554952524e-02 3.771797616972e-05 -2.295554861918e-12 7.248446106870e-06 1.424692677906e-13 
3.000000000000e+03 5.000000000000e+03 2.000000000000e+05 1.950000000000e+05 9.892957566491e-01 1.070424335091e-02 3.704984480763e-05 -4.558428457075e-11 7.131023320246e-06 8.231227311474e-12 
3.100000000000e+03 5.000000000000e+03 2.000000000000e+05 1.950000000000e+05 9.893937762238e-01 1.060622377619e-02 3.648352300006e-05 4.184461777177e-12 7.017575078528e-06 1.870666963308e-12 
3.200000000000e+03 5.000000000004e+03 2.000000000001e+05 1.950000000001e+05 9.894852618202e-01 1.051473817980e-02 3.582803093056e-05 -1.214679010399e-11 6.913163347641e-06 3.018554317870e-12 
3.300000000000e+03 5.000000000000e+03 2.000000000000e+05 1.950000000000e+05 9.895730091808e-01 1.042699081916e-02 3.521641055811e-05 1.569834138606e-11 6.813468652468e-06 -1.547513677890e-12 
3.400000000000e+03 5.000000000004e+03 2.000000000001e+05 1.950000000001e+05 9.896603586586e-01 1.033964134139e-02 3.468416791447e-05 3.781768352933e-12 6.714283164930e-06 -7.797392108890e-13 
3.500000000000e+03 5.000000000000e+03 2.000000000000e+05 1.950000000000e+05 9.897428032483e-01 1.025719675168e-02 3.400730448901e-05 6.990644515849e-12 6.622300246449e-06 -1.578437209767e-12 
3.600000000000e+03 5.000000000000e+03 2.000000000000e+05 1.950000000000e+05 9.898233997341e-01 1.017660026587e-02 3.344891631961e-05 4.737030484589e-12 6.532191262843e-06 -1.368880478942e-12 
3.700000000000e+03 5.000000000005e+03 2.000000000002e+05 1.950000000002e+05 9.899045961166e-01 1.009540388337e-02 3.303494498984e-05 5.696573664436e-12 6.440962719091e-06 -1.615467312116e-12 
3.800000000000e+03 4.999999999997e+03 1.999999999999e+05 1.949999999999e+05 9.899780796959e-01 1.002192030408e-02 3.239573560367e-05 -1.520694098210e-12 6.360475759964e-06 -4.810067320862e-13 
3.900000000000e+03 5.000000000003e+03 2.000000000001e+05 1.950000000001e+05 9.900458349720e-01 9.954165028034e-03 3.182775093478e-05 1.522220481793e-11 6.286471550552e-06 -3.190380676556e-12 
4.000000000000e+03 4.999999999997e+03 1.999999999999e+05 1.949999999999e+05 9.901117484887e-01 9.888251511263e-03 3.139597533597e-05 -5.168091974883e-12 6.214059641324e-06 -5.105979165349e-13 
4.100000000000e+03 5.000000000005e+03 2.000000000002e+05 1.950000000002e+05 9.901831721279e-01 9.816827872107e-03 3.123892639084e-05 9.114872019272e-12 6.134086523438e-06 -2.096275404688e-12 
4.200000000000e+03 4.999999999986e+03 1.999999999994e+05 1.949999999994e+05 9.902473773003e-01 9.752622699688e-03 3.064046017675e-05 2.697649783669e-11 6.065291511355e-06 -7.079757650764e-12 
4.300000000000e+03 5.000000000000e+03 2.000000000000e+05 1.950000000000e+05 9.903140501434e-01 9.685949856596e-03 3.036321713370e-05 -6.646538640003e-12 5.992121495504e-06 -3.064452569720e-12 
4.400000000000e+03 4.999999999998e+03 1.999999999999e+05 1.949999999999e+05 9.903793749134e-01 9.620625086633e-03 2.997669666716e-05 -3.745948522161e-12 5.921450416963e-06 -2.113844409716e-12 
4.500000000000e+03 5.000000000000e+03 2.000000000000e+05 1.950000000000e+05 9.904426327473e-01 9.557367252670e-03 2.958155854384e-05 -3.252942038497e-11 5.853451198793e-06 4.443285078798e-12 
4.600000000000e+03 5.000000000000e+03 2.000000000000e+05 1.950000000000e+05 9.905000770632e-01 9.499922936846e-03 2.906049534647e-05 -2.256153987103e-11 5.792906468242e-06 5.569341389144e-12 
4.700000000000e+03 5.000000000187e+03 2.000000000075e+05 1.950000000073e+05 9.905589753298e-01 9.441024670223e-03 2.882690335238e-05 -1.169159912109e-11 5.729353960146e-06 4.759486416619e-12 
4.800000000000e+03 4.999999999951e+03 1.999999999980e+05 1.949999999981e+05 9.906148897361e-01 9.385110263900e-03 2.845507645512e-05 1.376404948641e-11 5.670135931559e-06 6.154955530422e-13 
4.900000000000e+03 5.000000000000e+03 2.000000000000e+05 1.950000000000e+05 9.906682816238e-01 9.331718376201e-03 2.809700831701e-05 -2.974500561176e-11 5.613831476565e-06 6.002828250606e-12 
5.000000000000e+03 5.000000000594e+03 2.000000000238e+05 1.950000000232e+05 9.907194769377e-01 9.280523062349e-03 2.774307780818e-05 1.396489251666e-11 5.560109527066e-06 1.619135746596e-12 
5.100000000000e+03 4.999999999958e+03 1.999999999983e+05 1.949999999984e+05 9.907707904089e-01 9.229209591146e-03 2.747617633276e-05 1.646590345027e-12 5.505977984782e-06 1.411065151356e-12 
5.200000000000e+03 5.000000000061e+03 2.000000000024e+05 1.950000000024e+05 9.908219560810e-01 9.178043918959e-03 2.720643390297e-05 2.838112768961e-12 5.452232093011e-06 5.757428283090e-13 
5.300000000000e+03 5.000000000383e+03 2.000000000153e+05 1.950000000149e+05 9.908660996106e-01 9.133900389446e-03 2.665406378142e-05 -4.206958386359e-12 5.407786993997e-06 4.447273628513e-13 
5.400000000000e+03 4.999999999580e+03 1.999999999832e+05 1.949999999836e+05 9.909140822046e-01 9.085917795394e-03 2.653569330741e-05 -5.924180889095e-14 5.357000065773e-06 3.581737407492e-13 