VARIABLES  = "X","Y","Z", "PRESSURE1", "PRESSURE2", "PRESSURE_W", "SATURATION1", SATURATION2, "VELOCITY_X1", "VELOCITY_Y1", "VELOCITY_X2", "VELOCITY_Y2"
ZONE T="0.000000000000e+00s", N=70, E=53, F=FEPOINT, ET=QUADRILATERAL
STRANDID=1, SOLUTIONTIME=0.000000000000e+00
8.068965517235e-01 0.000000000000e+00 0.000000000000e+00 5.000000000000e+04 0.000000000000e+00 -5.000000000000e+04 1.000000000000e-02 9.900000000000e-01 0.000000000000e+00 0.000000000000e+00 0.000000000000e+00 0.000000000000e+00 
8.965517241372e-01 0.000000000000e+00 0.000000000000e+00 5.000000000000e+04 0.000000000000e+00 -5.000000000000e+04 1.000000000000e-02 9.900000000000e-01 0.000000000000e+00 0.000000000000e+00 0.000000000000e+00 0.000000000000e+00 
9.862068965510e-01 0.000000000000e+00 0.000000000000e+00 5.000000000000e+04 0.000000000000e+00 -5.000000000000e+04 1.000000000000e-02 9.900000000000e-01 0.000000000000e+00 0.000000000000e+00 0.000000000000e+00 0.000000000000e+00 
1.075862068965e+00 0.000000000000e+00 0.000000000000e+00 5.000000000000e+04 0.000000000000e+00 -5.000000000000e+04 1.000000000000e-02 9.900000000000e-01 0.000000000000e+00 0.000000000000e+00 0.000000000000e+00 0.000000000000e+00 
1.165517241378e+00 0.000000000000e+00 0.000000000000e+00 5.000000000000e+04 0.000000000000e+00 -5.000000000000e+04 1.000000000000e-02 9.900000000000e-01 0.000000000000e+00 0.000000000000e+00 0.000000000000e+00 0.000000000000e+00 
1.255172413792e+00 0.000000000000e+00 0.000000000000e+00 5.000000000000e+04 0.000000000000e+00 -5.000000000000e+04 1.000000000000e-02 9.900000000000e-01 0.000000000000e+00 0.000000000000e+00 0.000000000000e+00 0.000000000000e+00 
1.344827586206e+00 0.000000000000e+00 0.000000000000e+00 5.000000000000e+04 0.000000000000e+00 -5.000000000000e+04 1.000000000000e-02 9.900000000000e-01 0.000000000000e+00 0.000000000000e+00 0.000000000000e+00 0.000000000000e+00 
1.165517241380e+00 5.000000000000e-01 0.000000000000e+00 5.000000000000e+04 0.000000000000e+00 -5.000000000000e+04 1.000000000000e-02 9.900000000000e-01 0.000000000000e+00 0.000000000000e+00 0.000000000000e+00 0.000000000000e+00 
1.075862068966e+00 5.000000000000e-01 0.000000000000e+00 5.000000000000e+04 0.000000000000e+00 -5.000000000000e+04 1.000000000000e-02 9.900000000000e-01 0.000000000000e+00 0.000000000000e+00 0.000000000000e+00 0.000000000000e+00 
9.862068965524e-01 5.000000000000e-01 0.000000000000e+00 5.000000000000e+04 0.000000000000e+00 -5.000000000000e+04 1.000000000000e-02 9.900000000000e-01 0.000000000000e+00 0.000000000000e+00 0.000000000000e+00 0.000000000000e+00 
8.965517241385e-01 5.000000000000e-01 0.000000000000e+00 5.000000000000e+04 0.000000000000e+00 -5.000000000000e+04 1.000000000000e-02 9.900000000000e-01 0.000000000000e+00 0.000000000000e+00 0.000000000000e+00 0.000000000000e+00 
8.068965517245e-01 5.000000000000e-01 0.000000000000e+00 5.000000000000e+04 0.000000000000e+00 -5.000000000000e+04 1.000000000000e-02 9.900000000000e-01 0.000000000000e+00 0.000000000000e+00 0.000000000000e+00 0.000000000000e+00 
7.172413793105e-01 5.000000000000e-01 0.000000000000e+00 5.000000000000e+04 0.000000000000e+00 -5.000000000000e+04 1.000000000000e-02 9.900000000000e-01 0.000000000000e+00 0.000000000000e+00 0.000000000000e+00 0.000000000000e+00 
6.275862068966e-01 5.000000000000e-01 0.000000000000e+00 5.000000000000e+04 0.000000000000e+00 -5.000000000000e+04 1.000000000000e-02 9.900000000000e-01 0.000000000000e+00 0.000000000000e+00 0.000000000000e+00 0.000000000000e+00 
6.275862068965e-01 4.166666666667e-01 0.000000000000e+00 5.000000000000e+04 0.000000000000e+00 -5.000000000000e+04 1.000000000000e-02 9.900000000000e-01 0.000000000000e+00 0.000000000000e+00 0.000000000000e+00 0.000000000000e+00 
7.172413793104e-01 4.166666666667e-01 0.000000000000e+00 5.000000000000e+04 0.000000000000e+00 -5.000000000000e+04 1.000000000000e-02 9.900000000000e-01 0.000000000000e+00 0.000000000000e+00 0.000000000000e+00 0.000000000000e+00 
8.068965517243e-01 4.166666666667e-01 0.000000000000e+00 5.000000000000e+04 0.000000000000e+00 -5.000000000000e+04 1.000000000000e-02 9.900000000000e-01 0.000000000000e+00 0.000000000000e+00 0.000000000000e+00 0.000000000000e+00 
8.965517241383e-01 4.166666666667e-01 0.000000000000e+00 5.000000000000e+04 0.000000000000e+00 -5.000000000000e+04 1.000000000000e-02 9.900000000000e-01 0.000000000000e+00 0.000000000000e+00 0.000000000000e+00 0.000000000000e+00 
9.862068965522e-01 4.166666666667e-01 0.000000000000e+00 5.000000000000e+04 0.000000000000e+00 -5.000000000000e+04 1.000000000000e-02 9.900000000000e-01 0.000000000000e+00 0.000000000000e+00 0.000000000000e+00 0.000000000000e+00 
1.075862068966e+00 4.166666666666e-01 0.000000000000e+00 5.000000000000e+04 0.000000000000e+00 -5.000000000000e+04 1.000000000000e-02 9.900000000000e-01 0.000000000000e+00 0.000000000000e+00 0.000000000000e+00 0.000000000000e+00 
1.165517241380e+00 4.166666666666e-01 0.000000000000e+00 5.000000000000e+04 0.000000000000e+00 -5.000000000000e+04 1.000000000000e-02 9.900000000000e-01 0.000000000000e+00 0.000000000000e+00 0.000000000000e+00 0.000000000000e+00 
6.275862068964e-01 3.333333333335e-01 0.000000000000e+00 5.000000000000e+04 0.000000000000e+00 -5.000000000000e+04 1.000000000000e-02 9.900000000000e-01 0.000000000000e+00 0.000000000000e+00 0.000000000000e+00 0.000000000000e+00 
7.172413793102e-01 3.333333333335e-01 0.000000000000e+00 5.000000000000e+04 0.000000000000e+00 -5.000000000000e+04 1.000000000000e-02 9.900000000000e-01 0.000000000000e+00 0.000000000000e+00 0.000000000000e+00 0.000000000000e+00 
8.068965517241e-01 3.333333333335e-01 0.000000000000e+00 5.000000000000e+04 0.000000000000e+00 -5.000000000000e+04 1.000000000000e-02 9.900000000000e-01 0.000000000000e+00 0.000000000000e+00 0.000000000000e+00 0.000000000000e+00 
8.965517241380e-01 3.333333333334e-01 0.000000000000e+00 5.000000000000e+04 0.000000000000e+00 -5.000000000000e+04 1.000000000000e-02 9.900000000000e-01 0.000000000000e+00 0.000000000000e+00 0.000000000000e+00 0.000000000000e+00 
9.862068965520e-01 3.333333333334e-01 0.000000000000e+00 5.000000000000e+04 0.000000000000e+00 -5.000000000000e+04 1.000000000000e-02 9.900000000000e-01 0.000000000000e+00 0.000000000000e+00 0.000000000000e+00 0.000000000000e+00 
1.075862068966e+00 3.333333333334e-01 0.000000000000e+00 5.000000000000e+04 0.000000000000e+00 -5.000000000000e+04 1.000000000000e-02 9.900000000000e-01 0.000000000000e+00 0.000000000000e+00 0.000000000000e+00 0.000000000000e+00 
1.165517241380e+00 3.333333333334e-01 0.000000000000e+00 5.000000000000e+04 0.000000000000e+00 -5.000000000000e+04 1.000000000000e-02 9.900000000000e-01 0.000000000000e+00 0.000000000000e+00 0.000000000000e+00 0.000000000000e+00 
1.255172413794e+00 3.333333333333e-01 0.000000000000e+00 5.000000000000e+04 0.000000000000e+00 -5.000000000000e+04 1.000000000000e-02 9.900000000000e-01 0.000000000000e+00 0.000000000000e+00 0.000000000000e+00 0.000000000000e+00 
6.275862068963e-01 2.500000000004e-01 0.000000000000e+00 5.000000000000e+04 0.000000000000e+00 -5.000000000000e+04 1.000000000000e-02 9.900000000000e-01 0.000000000000e+00 0.000000000000e+00 0.000000000000e+00 0.000000000000e+00 
7.172413793101e-01 2.500000000004e-01 0.000000000000e+00 5.000000000000e+04 0.000000000000e+00 -5.000000000000e+04 1.000000000000e-02 9.900000000000e-01 0.000000000000e+00 0.000000000000e+00 0.000000000000e+00 0.000000000000e+00 
8.068965517240e-01 2.500000000003e-01 0.000000000000e+00 5.000000000000e+04 0.000000000000e+00 -5.000000000000e+04 1.000000000000e-02 9.900000000000e-01 0.000000000000e+00 0.000000000000e+00 0.000000000000e+00 0.000000000000e+00 
8.965517241378e-01 2.500000000003e-01 0.000000000000e+00 5.000000000000e+04 0.000000000000e+00 -5.000000000000e+04 1.000000000000e-02 9.900000000000e-01 0.000000000000e+00 0.000000000000e+00 0.000000000000e+00 0.000000000000e+00 
9.862068965517e-01 2.500000000002e-01 0.000000000000e+00 5.000000000000e+04 0.000000000000e+00 -5.000000000000e+04 1.000000000000e-02 9.900000000000e-01 0.000000000000e+00 0.000000000000e+00 0.000000000000e+00 0.000000000000e+00 
1.075862068966e+00 2.500000000002e-01 0.000000000000e+00 5.000000000000e+04 0.000000000000e+00 -5.000000000000e+04 1.000000000000e-02 9.900000000000e-01 0.000000000000e+00 0.000000000000e+00 0.000000000000e+00 0.000000000000e+00 
1.165517241379e+00 2.500000000002e-01 0.000000000000e+00 5.000000000000e+04 0.000000000000e+00 -5.000000000000e+04 1.000000000000e-02 9.900000000000e-01 0.000000000000e+00 0.000000000000e+00 0.000000000000e+00 0.000000000000e+00 
1.255172413793e+00 2.500000000001e-01 0.000000000000e+00 5.000000000000e+04 0.000000000000e+00 -5.000000000000e+04 1.000000000000e-02 9.900000000000e-01 0.000000000000e+00 0.000000000000e+00 0.000000000000e+00 0.000000000000e+00 
7.172413793100e-01 1.666666666670e-01 0.000000000000e+00 5.000000000000e+04 0.000000000000e+00 -5.000000000000e+04 1.000000000000e-02 9.900000000000e-01 0.000000000000e+00 0.000000000000e+00 0.000000000000e+00 0.000000000000e+00 
8.068965517238e-01 1.666666666670e-01 0.000000000000e+00 5.000000000000e+04 0.000000000000e+00 -5.000000000000e+04 1.000000000000e-02 9.900000000000e-01 0.000000000000e+00 0.000000000000e+00 0.000000000000e+00 0.000000000000e+00 
8.965517241376e-01 1.666666666669e-01 0.000000000000e+00 5.000000000000e+04 0.000000000000e+00 -5.000000000000e+04 1.000000000000e-02 9.900000000000e-01 0.000000000000e+00 0.000000000000e+00 0.000000000000e+00 0.000000000000e+00 
9.862068965515e-01 1.666666666669e-01 0.000000000000e+00 5.000000000000e+04 0.000000000000e+00 -5.000000000000e+04 1.000000000000e-02 9.900000000000e-01 0.000000000000e+00 0.000000000000e+00 0.000000000000e+00 0.000000000000e+00 
1.075862068965e+00 1.666666666669e-01 0.000000000000e+00 5.000000000000e+04 0.000000000000e+00 -5.000000000000e+04 1.000000000000e-02 9.900000000000e-01 0.000000000000e+00 0.000000000000e+00 0.000000000000e+00 0.000000000000e+00 
1.165517241379e+00 1.666666666668e-01 0.000000000000e+00 5.000000000000e+04 0.000000000000e+00 -5.000000000000e+04 1.000000000000e-02 9.900000000000e-01 0.000000000000e+00 0.000000000000e+00 0.000000000000e+00 0.000000000000e+00 
1.255172413793e+00 1.666666666668e-01 0.000000000000e+00 5.000000000000e+04 0.000000000000e+00 -5.000000000000e+04 1.000000000000e-02 9.900000000000e-01 0.000000000000e+00 0.000000000000e+00 0.000000000000e+00 0.000000000000e+00 
1.344827586207e+00 1.666666666668e-01 0.000000000000e+00 5.000000000000e+04 0.000000000000e+00 -5.000000000000e+04 1.000000000000e-02 9.900000000000e-01 0.000000000000e+00 0.000000000000e+00 0.000000000000e+00 0.000000000000e+00 
8.068965517236e-01 8.333333333351e-02 0.000000000000e+00 5.000000000000e+04 0.000000000000e+00 -5.000000000000e+04 1.000000000000e-02 9.900000000000e-01 0.000000000000e+00 0.000000000000e+00 0.000000000000e+00 0.000000000000e+00 
8.965517241374e-01 8.333333333349e-02 0.000000000000e+00 5.000000000000e+04 0.000000000000e+00 -5.000000000000e+04 1.000000000000e-02 9.900000000000e-01 0.000000000000e+00 0.000000000000e+00 0.000000000000e+00 0.000000000000e+00 
9.862068965512e-01 8.333333333347e-02 0.000000000000e+00 5.000000000000e+04 0.000000000000e+00 -5.000000000000e+04 1.000000000000e-02 9.900000000000e-01 0.000000000000e+00 0.000000000000e+00 0.000000000000e+00 0.000000000000e+00 
1.075862068965e+00 8.333333333345e-02 0.000000000000e+00 5.000000000000e+04 0.000000000000e+00 -5.000000000000e+04 1.000000000000e-02 9.900000000000e-01 0.000000000000e+00 0.000000000000e+00 0.000000000000e+00 0.000000000000e+00 
1.165517241379e+00 8.333333333344e-02 0.000000000000e+00 5.000000000000e+04 0.000000000000e+00 -5.000000000000e+04 1.000000000000e-02 9.900000000000e-01 0.000000000000e+00 0.000000000000e+00 0.000000000000e+00 0.000000000000e+00 
1.255172413793e+00 8.333333333342e-02 0.000000000000e+00 5.000000000000e+04 0.000000000000e+00 -5.000000000000e+04 1.000000000000e-02 9.900000000000e-01 0.000000000000e+00 0.000000000000e+00 0.000000000000e+00 0.000000000000e+00 
1.344827586206e+00 8.333333333340e-02 0.000000000000e+00 5.000000000000e+04 0.000000000000e+00 -5.000000000000e+04 1.000000000000e-02 9.900000000000e-01 0.000000000000e+00 0.000000000000e+00 0.000000000000e+00 0.000000000000e+00 
7.172413793098e-01 8.333333333353e-02 0.000000000000e+00 5.000000000000e+04 0.000000000000e+00 -5.000000000000e+04 1.000000000000e-02 9.900000000000e-01 0.000000000000e+00 0.000000000000e+00 0.000000000000e+00 0.000000000000e+00 
7.172413793097e-01 0.000000000000e+00 0.000000000000e+00 5.000000000000e+04 0.000000000000e+00 -5.000000000000e+04 1.000000000000e-02 9.900000000000e-01 0.000000000000e+00 0.000000000000e+00 0.000000000000e+00 0.000000000000e+00 
1.434482758620e+00 0.000000000000e+00 0.000000000000e+00 5.000000000000e+04 0.000000000000e+00 -5.000000000000e+04 1.000000000000e-02 9.900000000000e-01 0.000000000000e+00 0.000000000000e+00 0.000000000000e+00 0.000000000000e+00 
1.434482758620e+00 8.333333333338e-02 0.000000000000e+00 5.000000000000e+04 0.000000000000e+00 -5.000000000000e+04 1.000000000000e-02 9.900000000000e-01 0.000000000000e+00 0.000000000000e+00 0.000000000000e+00 0.000000000000e+00 
1.255172413794e+00 4.166666666666e-01 0.000000000000e+00 5.000000000000e+04 0.000000000000e+00 -5.000000000000e+04 1.000000000000e-02 9.900000000000e-01 0.000000000000e+00 0.000000000000e+00 0.000000000000e+00 0.000000000000e+00 
1.255172413794e+00 5.000000000000e-01 0.000000000000e+00 5.000000000000e+04 0.000000000000e+00 -5.000000000000e+04 1.000000000000e-02 9.900000000000e-01 0.000000000000e+00 0.000000000000e+00 0.000000000000e+00 0.000000000000e+00 
5.379310344828e-01 5.000000000000e-01 0.000000000000e+00 5.000000000000e+04 0.000000000000e+00 -5.000000000000e+04 1.000000000000e-02 9.900000000000e-01 0.000000000000e+00 0.000000000000e+00 0.000000000000e+00 0.000000000000e+00 
5.379310344827e-01 4.166666666667e-01 0.000000000000e+00 5.000000000000e+04 0.000000000000e+00 -5.000000000000e+04 1.000000000000e-02 9.900000000000e-01 0.000000000000e+00 0.000000000000e+00 0.000000000000e+00 0.000000000000e+00 
5.379310344826e-01 3.333333333335e-01 0.000000000000e+00 5.000000000000e+04 0.000000000000e+00 -5.000000000000e+04 1.000000000000e-02 9.900000000000e-01 0.000000000000e+00 0.000000000000e+00 0.000000000000e+00 0.000000000000e+00 
5.379310344825e-01 2.500000000004e-01 0.000000000000e+00 5.000000000000e+04 0.000000000000e+00 -5.000000000000e+04 1.000000000000e-02 9.900000000000e-01 0.000000000000e+00 0.000000000000e+00 0.000000000000e+00 0.000000000000e+00 
1.344827586208e+00 3.333333333333e-01 0.000000000000e+00 5.000000000000e+04 0.000000000000e+00 -5.000000000000e+04 1.000000000000e-02 9.900000000000e-01 0.000000000000e+00 0.000000000000e+00 0.000000000000e+00 0.000000000000e+00 
1.344827586208e+00 4.166666666666e-01 0.000000000000e+00 5.000000000000e+04 0.000000000000e+00 -5.000000000000e+04 1.000000000000e-02 9.900000000000e-01 0.000000000000e+00 0.000000000000e+00 0.000000000000e+00 0.000000000000e+00 
1.344827586207e+00 2.500000000001e-01 0.000000000000e+00 5.000000000000e+04 0.000000000000e+00 -5.000000000000e+04 1.000000000000e-02 9.900000000000e-01 0.000000000000e+00 0.000000000000e+00 0.000000000000e+00 0.000000000000e+00 
5.379310344824e-01 1.666666666670e-01 0.000000000000e+00 5.000000000000e+04 0.000000000000e+00 -5.000000000000e+04 1.000000000000e-02 9.900000000000e-01 0.000000000000e+00 0.000000000000e+00 0.000000000000e+00 0.000000000000e+00 
6.275862068961e-01 1.666666666670e-01 0.000000000000e+00 5.000000000000e+04 0.000000000000e+00 -5.000000000000e+04 1.000000000000e-02 9.900000000000e-01 0.000000000000e+00 0.000000000000e+00 0.000000000000e+00 0.000000000000e+00 
6.275862068961e-01 8.333333333355e-02 0.000000000000e+00 5.000000000000e+04 0.000000000000e+00 -5.000000000000e+04 1.000000000000e-02 9.900000000000e-01 0.000000000000e+00 0.000000000000e+00 0.000000000000e+00 0.000000000000e+00 
1.434482758621e+00 1.666666666667e-01 0.000000000000e+00 5.000000000000e+04 0.000000000000e+00 -5.000000000000e+04 1.000000000000e-02 9.900000000000e-01 0.000000000000e+00 0.000000000000e+00 0.000000000000e+00 0.000000000000e+00 
1.434482758621e+00 2.500000000000e-01 0.000000000000e+00 5.000000000000e+04 0.000000000000e+00 -5.000000000000e+04 1.000000000000e-02 9.900000000000e-01 0.000000000000e+00 0.000000000000e+00 0.000000000000e+00 0.000000000000e+00 
46  1  2  47  
47  2  3  48  
48  3  4  49  
49  4  5  50  
50  5  6  51  
51  6  7  52  
9  20  21  8  
10  19  20  9  
11  18  19  10  
12  17  18  11  
13  16  17  12  
14  15  16  13  
15  22  23  16  
16  23  24  17  
17  24  25  18  
18  25  26  19  
19  26  27  20  
20  27  28  21  
22  30  31  23  
23  31  32  24  
24  32  33  25  
25  33  34  26  
26  34  35  27  
27  35  36  28  
28  36  37  29  
31  38  39  32  
32  39  40  33  
33  40  41  34  
34  41  42  35  
35  42  43  36  
36  43  44  37  
39  46  47  40  
40  47  48  41  
41  48  49  42  
42  49  50  43  
43  50  51  44  
44  51  52  45  
53  54  1  46  
52  7  55  56  
8  21  57  58  
59  60  15  14  
60  61  22  15  
21  28  29  57  
61  62  30  22  
57  29  63  64  
29  37  65  63  
62  66  67  30  
30  67  38  31  
37  44  45  65  
67  68  53  38  
38  53  46  39  
65  45  69  70  
45  52  56  69  
VARIABLES  = "X","Y","Z", "PRESSURE1", "PRESSURE2", "PRESSURE_W", "SATURATION1", SATURATION2, "VELOCITY_X1", "VELOCITY_Y1", "VELOCITY_X2", "VELOCITY_Y2"
ZONE T="5.000000000000e+02s", N=70, E=53, F=FEPOINT, ET=QUADRILATERAL
STRANDID=1, SOLUTIONTIME=5.000000000000e+02
8.068965517235e-01 0.000000000000e+00 0.000000000000e+00 5.000000001062e+04 2.017413709968e+05 1.517413709862e+05 9.999999995751e-03 9.900000000042e-01 5.483508974087e-16 -1.783584673727e-19 5.373886647742e-08 -1.732702172029e-11 
8.965517241372e-01 0.000000000000e+00 0.000000000000e+00 5.000000001026e+04 2.017413218516e+05 1.517413218413e+05 9.999999995894e-03 9.900000000041e-01 5.480822736985e-16 2.769437930340e-20 5.371236848587e-08 2.713405547673e-12 
9.862068965510e-01 0.000000000000e+00 0.000000000000e+00 5.000000001026e+04 2.017412727196e+05 1.517412727094e+05 9.999999995894e-03 9.900000000041e-01 5.477108101121e-16 1.572661102984e-19 5.367576891452e-08 1.541118019347e-11 
1.075862068965e+00 0.000000000000e+00 0.000000000000e+00 5.000000001026e+04 2.017412236413e+05 1.517412236311e+05 9.999999995895e-03 9.900000000041e-01 5.468168163793e-16 3.562619537382e-19 5.358815681004e-08 3.491296192424e-11 
1.165517241378e+00 0.000000000000e+00 0.000000000000e+00 5.000000001026e+04 2.017411746697e+05 1.517411746595e+05 9.999999995894e-03 9.900000000041e-01 5.452843178999e-16 7.750401338821e-19 5.343797139341e-08 7.595365095761e-11 
1.255172413792e+00 0.000000000000e+00 0.000000000000e+00 5.000000001026e+04 2.017411258662e+05 1.517411258560e+05 9.999999995894e-03 9.900000000041e-01 5.434188734740e-16 9.100940543179e-19 5.325496055226e-08 8.918838453576e-11 
1.344827586206e+00 0.000000000000e+00 0.000000000000e+00 5.000000001063e+04 2.017410772295e+05 1.517410772188e+05 9.999999995750e-03 9.900000000043e-01 5.381052216536e-16 -5.125806236959e-20 5.273422129426e-08 -5.023987165703e-12 
1.165517241380e+00 5.000000000000e-01 0.000000000000e+00 5.000000001063e+04 2.017411751138e+05 1.517411751031e+05 9.999999995750e-03 9.900000000043e-01 5.447174994111e-16 -6.771677176322e-19 5.338222649827e-08 -6.651654670945e-11 
1.075862068966e+00 5.000000000000e-01 0.000000000000e+00 5.000000001027e+04 2.017412240159e+05 1.517412240056e+05 9.999999995894e-03 9.900000000041e-01 5.462221478598e-16 -5.336009799450e-19 5.352968215050e-08 -5.229321953096e-11 
9.862068965524e-01 5.000000000000e-01 0.000000000000e+00 5.000000001026e+04 2.017412730567e+05 1.517412730464e+05 9.999999995894e-03 9.900000000041e-01 5.475506382094e-16 -2.938461621700e-19 5.366007124272e-08 -2.879634330089e-11 
8.965517241385e-01 5.000000000000e-01 0.000000000000e+00 5.000000001026e+04 2.017413221974e+05 1.517413221871e+05 9.999999995894e-03 9.900000000041e-01 5.483785203949e-16 -2.011342266928e-19 5.374120367979e-08 -1.971018363878e-11 
8.068965517245e-01 5.000000000000e-01 0.000000000000e+00 5.000000001026e+04 2.017413713866e+05 1.517413713764e+05 9.999999995895e-03 9.900000000041e-01 5.488273567752e-16 -1.696587803793e-19 5.378519019215e-08 -1.662492587718e-11 
7.172413793105e-01 5.000000000000e-01 0.000000000000e+00 5.000000001026e+04 2.017414206078e+05 1.517414205975e+05 9.999999995894e-03 9.900000000041e-01 5.491849585312e-16 -1.800921878455e-19 5.382043221765e-08 -1.764717338630e-11 
6.275862068966e-01 5.000000000000e-01 0.000000000000e+00 5.000000001062e+04 2.017414698615e+05 1.517414698509e+05 9.999999995750e-03 9.900000000042e-01 5.493599589218e-16 -2.778008036840e-19 5.382362028587e-08 -2.722431948642e-11 
6.275862068965e-01 4.166666666667e-01 0.000000000000e+00 5.000000001062e+04 2.017414698384e+05 1.517414698278e+05 9.999999995750e-03 9.900000000042e-01 5.493580823771e-16 -5.932834963874e-19 5.382343570939e-08 -5.814138239955e-11 
7.172413793104e-01 4.166666666667e-01 0.000000000000e+00 5.000000001027e+04 2.017414205928e+05 1.517414205825e+05 9.999999995894e-03 9.900000000041e-01 5.491346999487e-16 -5.245818456057e-19 5.381550617952e-08 -5.140841277429e-11 
8.068965517243e-01 4.166666666667e-01 0.000000000000e+00 5.000000001026e+04 2.017413713725e+05 1.517413713622e+05 9.999999995894e-03 9.900000000041e-01 5.488371358026e-16 -4.925179701946e-19 5.378614894625e-08 -4.826554507072e-11 
8.965517241383e-01 4.166666666667e-01 0.000000000000e+00 5.000000001027e+04 2.017413221806e+05 1.517413221703e+05 9.999999995894e-03 9.900000000041e-01 5.484362356227e-16 -4.745353460733e-19 5.374686021990e-08 -4.650426590695e-11 
9.862068965522e-01 4.166666666667e-01 0.000000000000e+00 5.000000001027e+04 2.017412730322e+05 1.517412730219e+05 9.999999995894e-03 9.900000000041e-01 5.477051496340e-16 -4.965640083418e-19 5.367521400326e-08 -4.866339213103e-11 
1.075862068966e+00 4.166666666666e-01 0.000000000000e+00 5.000000001026e+04 2.017412239714e+05 1.517412239611e+05 9.999999995894e-03 9.900000000041e-01 5.464002938607e-16 -6.356289123446e-19 5.354721233680e-08 -6.229209461677e-11 
1.165517241380e+00 4.166666666666e-01 0.000000000000e+00 5.000000001049e+04 2.017411750572e+05 1.517411750467e+05 9.999999995802e-03 9.900000000042e-01 5.451009046693e-16 -7.682559201294e-19 5.341971386027e-08 -7.542518203263e-11 
6.275862068964e-01 3.333333333335e-01 0.000000000000e+00 5.000000001062e+04 2.017414697627e+05 1.517414697520e+05 9.999999995750e-03 9.900000000042e-01 5.493580837435e-16 -1.121404087546e-18 5.382343615563e-08 -1.098050594226e-10 
7.172413793102e-01 3.333333333335e-01 0.000000000000e+00 5.000000001027e+04 2.017414205204e+05 1.517414205101e+05 9.999999995894e-03 9.900000000041e-01 5.490912980326e-16 -1.062074182099e-18 5.381125273601e-08 -1.040077356554e-10 
8.068965517241e-01 3.333333333335e-01 0.000000000000e+00 5.000000001027e+04 2.017413713046e+05 1.517413712943e+05 9.999999995894e-03 9.900000000041e-01 5.487808392606e-16 -9.801496332813e-19 5.378063183200e-08 -9.605476102145e-11 
8.965517241380e-01 3.333333333334e-01 0.000000000000e+00 5.000000001026e+04 2.017413221183e+05 1.517413221080e+05 9.999999995894e-03 9.900000000041e-01 5.483822812169e-16 -9.042534302223e-19 5.374157343004e-08 -8.861731412135e-11 
9.862068965520e-01 3.333333333334e-01 0.000000000000e+00 5.000000001026e+04 2.017412729739e+05 1.517412729637e+05 9.999999995894e-03 9.900000000041e-01 5.477003723546e-16 -8.518705186719e-19 5.367474583898e-08 -8.348371160376e-11 
1.075862068966e+00 3.333333333334e-01 0.000000000000e+00 5.000000001026e+04 2.017412239099e+05 1.517412238997e+05 9.999999995894e-03 9.900000000041e-01 5.464746815671e-16 -9.224599619008e-19 5.355455684384e-08 -9.040120185889e-11 
1.165517241380e+00 3.333333333334e-01 0.000000000000e+00 5.000000001039e+04 2.017411749855e+05 1.517411749751e+05 9.999999995842e-03 9.900000000042e-01 5.447657713197e-16 -1.089052507550e-18 5.338687040777e-08 -1.068622300361e-10 
1.255172413794e+00 3.333333333333e-01 0.000000000000e+00 5.000000001078e+04 2.017411262283e+05 1.517411262175e+05 9.999999995687e-03 9.900000000043e-01 5.411038904352e-16 -7.027385662151e-19 5.302823361254e-08 -6.903758503019e-11 
6.275862068963e-01 2.500000000004e-01 0.000000000000e+00 5.000000001078e+04 2.017414696516e+05 1.517414696409e+05 9.999999995687e-03 9.900000000043e-01 5.494144547294e-16 -1.318737718650e-18 5.382881902010e-08 -1.291440638558e-10 
7.172413793101e-01 2.500000000004e-01 0.000000000000e+00 5.000000001039e+04 2.017414204159e+05 1.517414204055e+05 9.999999995842e-03 9.900000000042e-01 5.490034060830e-16 -1.337232199248e-18 5.380272550458e-08 -1.308212004511e-10 
8.068965517240e-01 2.500000000003e-01 0.000000000000e+00 5.000000001027e+04 2.017413712091e+05 1.517413711989e+05 9.999999995894e-03 9.900000000041e-01 5.486904435932e-16 -1.220999758608e-18 5.377184373681e-08 -1.195829658298e-10 
8.965517241378e-01 2.500000000003e-01 0.000000000000e+00 5.000000001026e+04 2.017413220299e+05 1.517413220196e+05 9.999999995894e-03 9.900000000041e-01 5.483170018521e-16 -1.105183889781e-18 5.373517559556e-08 -1.083084743965e-10 
9.862068965517e-01 2.500000000002e-01 0.000000000000e+00 5.000000001026e+04 2.017412728902e+05 1.517412728800e+05 9.999999995894e-03 9.900000000041e-01 5.477220724083e-16 -1.071317928818e-18 5.367687214262e-08 -1.049896639112e-10 
1.075862068966e+00 2.500000000002e-01 0.000000000000e+00 5.000000001026e+04 2.017412238177e+05 1.517412238074e+05 9.999999995894e-03 9.900000000041e-01 5.466207517501e-16 -1.173394201523e-18 5.356894237376e-08 -1.149925128410e-10 
1.165517241379e+00 2.500000000002e-01 0.000000000000e+00 5.000000001027e+04 2.017411748755e+05 1.517411748652e+05 9.999999995894e-03 9.900000000041e-01 5.448966763362e-16 -1.432799022254e-18 5.339985662350e-08 -1.404906958765e-10 
1.255172413793e+00 2.500000000001e-01 0.000000000000e+00 5.000000001050e+04 2.017411261123e+05 1.517411261018e+05 9.999999995802e-03 9.900000000042e-01 5.423774669995e-16 -1.594951852252e-18 5.315281679688e-08 -1.565344329159e-10 
7.172413793100e-01 1.666666666670e-01 0.000000000000e+00 5.000000001065e+04 2.017414202979e+05 1.517414202872e+05 9.999999995739e-03 9.900000000043e-01 5.490004518497e-16 -1.349484831577e-18 5.380236581366e-08 -1.317162309584e-10 
8.068965517238e-01 1.666666666670e-01 0.000000000000e+00 5.000000001039e+04 2.017413711012e+05 1.517413710908e+05 9.999999995842e-03 9.900000000042e-01 5.485651535985e-16 -1.186971349979e-18 5.375970656571e-08 -1.161887004371e-10 
8.965517241376e-01 1.666666666669e-01 0.000000000000e+00 5.000000001026e+04 2.017413219341e+05 1.517413219238e+05 9.999999995894e-03 9.900000000041e-01 5.482431537223e-16 -1.083880514234e-18 5.372800913335e-08 -1.062205257907e-10 
9.862068965515e-01 1.666666666669e-01 0.000000000000e+00 5.000000001026e+04 2.017412727954e+05 1.517412727851e+05 9.999999995894e-03 9.900000000041e-01 5.477637731684e-16 -1.102248653514e-18 5.368095860299e-08 -1.080205272354e-10 
1.075862068965e+00 1.666666666669e-01 0.000000000000e+00 5.000000001027e+04 2.017412237144e+05 1.517412237041e+05 9.999999995894e-03 9.900000000041e-01 5.468106737776e-16 -1.236047368120e-18 5.358755460138e-08 -1.211333699784e-10 
1.165517241379e+00 1.666666666668e-01 0.000000000000e+00 5.000000001026e+04 2.017411747466e+05 1.517411747363e+05 9.999999995894e-03 9.900000000041e-01 5.451576035650e-16 -1.622074329632e-18 5.342548302647e-08 -1.589638978309e-10 
1.255172413793e+00 1.666666666668e-01 0.000000000000e+00 5.000000001039e+04 2.017411259621e+05 1.517411259517e+05 9.999999995842e-03 9.900000000042e-01 5.427913691536e-16 -1.930012229490e-18 5.319337833013e-08 -1.892773391148e-10 
1.344827586207e+00 1.666666666668e-01 0.000000000000e+00 5.000000001078e+04 2.017410774190e+05 1.517410774082e+05 9.999999995686e-03 9.900000000043e-01 5.369549002002e-16 -2.329334641252e-18 5.262163172095e-08 -2.283676069391e-10 
8.068965517236e-01 8.333333333351e-02 0.000000000000e+00 5.000000001049e+04 2.017413710115e+05 1.517413710010e+05 9.999999995802e-03 9.900000000042e-01 5.484435679312e-16 -6.276120227585e-19 5.374814582148e-08 -6.137098082880e-11 
8.965517241374e-01 8.333333333349e-02 0.000000000000e+00 5.000000001026e+04 2.017413218493e+05 1.517413218390e+05 9.999999995894e-03 9.900000000041e-01 5.482382527312e-16 -4.951346162301e-19 5.372758331602e-08 -4.852343656111e-11 
9.862068965512e-01 8.333333333347e-02 0.000000000000e+00 5.000000001026e+04 2.017412727065e+05 1.517412726963e+05 9.999999995894e-03 9.900000000041e-01 5.478635096624e-16 -4.545273926133e-19 5.369073346403e-08 -4.454379477555e-11 
1.075862068965e+00 8.333333333345e-02 0.000000000000e+00 5.000000001026e+04 2.017412236117e+05 1.517412236014e+05 9.999999995894e-03 9.900000000041e-01 5.471039230093e-16 -4.381537998654e-19 5.361629356981e-08 -4.294008532629e-11 
1.165517241379e+00 8.333333333344e-02 0.000000000000e+00 5.000000001026e+04 2.017411746051e+05 1.517411745949e+05 9.999999995894e-03 9.900000000041e-01 5.455417078340e-16 -4.611357989499e-19 5.346319556228e-08 -4.519168968153e-11 
1.255172413793e+00 8.333333333342e-02 0.000000000000e+00 5.000000001026e+04 2.017411257904e+05 1.517411257801e+05 9.999999995894e-03 9.900000000041e-01 5.430348563847e-16 -5.744810543379e-19 5.321732667923e-08 -5.637584562212e-11 
1.344827586206e+00 8.333333333340e-02 0.000000000000e+00 5.000000001063e+04 2.017410772337e+05 1.517410772231e+05 9.999999995750e-03 9.900000000043e-01 5.383950949949e-16 -1.136243874697e-18 5.276263036105e-08 -1.114456623530e-10 
7.172413793098e-01 8.333333333353e-02 0.000000000000e+00 5.000000001130e+04 2.017414201919e+05 1.517414201806e+05 9.999999995479e-03 9.900000000045e-01 5.488783859658e-16 -9.102906879075e-19 5.379048541550e-08 -8.884160749413e-11 
7.172413793097e-01 0.000000000000e+00 0.000000000000e+00 5.000000001094e+04 2.017414201772e+05 1.517414201663e+05 9.999999995624e-03 9.900000000044e-01 5.485473111207e-16 -1.717066804846e-19 5.375809169455e-08 -1.725309944126e-11 