VARIABLES  = "X","Y","Z", "DISPLACEMENT_X1", "DISPLACEMENT_Y1", "DISPLACEMENT_Z1", "STRESS_XX", "STRESS_XY", "STRESS_YY", "STRESS_ZZ", "STRESS_XZ", "STRESS_YZ", "STRAIN_XX", "STRAIN_XY", "STRAIN_YY", "STRAIN_ZZ", "STRAIN_XZ", "STRAIN_YZ"
ZONE T="0.000000000000e+00s", N=12, E=2, F=FEPOINT, ET=BRICK
STRANDID=1, SOLUTIONTIME=0.000000000000e+00
6.666666666667e-01 0.000000000000e+00 0.000000000000e+00 0.000000000000e+00 0.000000000000e+00 0.000000000000e+00 0.000000000000e+00 0.000000000000e+00 0.000000000000e+00 0.000000000000e+00 0.000000000000e+00 0.000000000000e+00 0.000000000000e+00 0.000000000000e+00 0.000000000000e+00 0.000000000000e+00 0.000000000000e+00 0.000000000000e+00 
1.000000000000e+00 0.000000000000e+00 0.000000000000e+00 0.000000000000e+00 0.000000000000e+00 0.000000000000e+00 0.000000000000e+00 0.000000000000e+00 0.000000000000e+00 0.000000000000e+00 0.000000000000e+00 0.000000000000e+00 0.000000000000e+00 0.000000000000e+00 0.000000000000e+00 0.000000000000e+00 0.000000000000e+00 0.000000000000e+00 
6.666666666667e-01 1.000000000000e-01 0.000000000000e+00 0.000000000000e+00 0.000000000000e+00 0.000000000000e+00 0.000000000000e+00 0.000000000000e+00 0.000000000000e+00 0.000000000000e+00 0.000000000000e+00 0.000000000000e+00 0.000000000000e+00 0.000000000000e+00 0.000000000000e+00 0.000000000000e+00 0.000000000000e+00 0.000000000000e+00 
1.000000000000e+00 1.000000000000e-01 0.000000000000e+00 0.000000000000e+00 0.000000000000e+00 0.000000000000e+00 0.000000000000e+00 0.000000000000e+00 0.000000000000e+00 0.000000000000e+00 0.000000000000e+00 0.000000000000e+00 0.000000000000e+00 0.000000000000e+00 0.000000000000e+00 0.000000000000e+00 0.000000000000e+00 0.000000000000e+00 
6.666666666667e-01 0.000000000000e+00 1.000000000000e-01 0.000000000000e+00 0.000000000000e+00 0.000000000000e+00 0.000000000000e+00 0.000000000000e+00 0.000000000000e+00 0.000000000000e+00 0.000000000000e+00 0.000000000000e+00 0.000000000000e+00 0.000000000000e+00 0.000000000000e+00 0.000000000000e+00 0.000000000000e+00 0.000000000000e+00 
1.000000000000e+00 0.000000000000e+00 1.000000000000e-01 0.000000000000e+00 0.000000000000e+00 0.000000000000e+00 0.000000000000e+00 0.000000000000e+00 0.000000000000e+00 0.000000000000e+00 0.000000000000e+00 0.000000000000e+00 0.000000000000e+00 0.000000000000e+00 0.000000000000e+00 0.000000000000e+00 0.000000000000e+00 0.000000000000e+00 
6.666666666667e-01 1.000000000000e-01 1.000000000000e-01 0.000000000000e+00 0.000000000000e+00 0.000000000000e+00 0.000000000000e+00 0.000000000000e+00 0.000000000000e+00 0.000000000000e+00 0.000000000000e+00 0.000000000000e+00 0.000000000000e+00 0.000000000000e+00 0.000000000000e+00 0.000000000000e+00 0.000000000000e+00 0.000000000000e+00 
1.000000000000e+00 1.000000000000e-01 1.000000000000e-01 0.000000000000e+00 0.000000000000e+00 0.000000000000e+00 0.000000000000e+00 0.000000000000e+00 0.000000000000e+00 0.000000000000e+00 0.000000000000e+00 0.000000000000e+00 0.000000000000e+00 0.000000000000e+00 0.000000000000e+00 0.000000000000e+00 0.000000000000e+00 0.000000000000e+00 
3.333333333333e-01 0.000000000000e+00 0.000000000000e+00 0.000000000000e+00 0.000000000000e+00 0.000000000000e+00 0.000000000000e+00 0.000000000000e+00 0.000000000000e+00 0.000000000000e+00 0.000000000000e+00 0.000000000000e+00 0.000000000000e+00 0.000000000000e+00 0.000000000000e+00 0.000000000000e+00 0.000000000000e+00 0.000000000000e+00 
3.333333333333e-01 1.000000000000e-01 0.000000000000e+00 0.000000000000e+00 0.000000000000e+00 0.000000000000e+00 0.000000000000e+00 0.000000000000e+00 0.000000000000e+00 0.000000000000e+00 0.000000000000e+00 0.000000000000e+00 0.000000000000e+00 0.000000000000e+00 0.000000000000e+00 0.000000000000e+00 0.000000000000e+00 0.000000000000e+00 
3.333333333333e-01 0.000000000000e+00 1.000000000000e-01 0.000000000000e+00 0.000000000000e+00 0.000000000000e+00 0.000000000000e+00 0.000000000000e+00 0.000000000000e+00 0.000000000000e+00 0.000000000000e+00 0.000000000000e+00 0.000000000000e+00 0.000000000000e+00 0.000000000000e+00 0.000000000000e+00 0.000000000000e+00 0.000000000000e+00 
3.333333333333e-01 1.000000000000e-01 1.000000000000e-01 0.000000000000e+00 0.000000000000e+00 0.000000000000e+00 0.000000000000e+00 0.000000000000e+00 0.000000000000e+00 0.000000000000e+00 0.000000000000e+00 0.000000000000e+00 0.000000000000e+00 0.000000000000e+00 0.000000000000e+00 0.000000000000e+00 0.000000000000e+00 0.000000000000e+00 
1  2  4  3  5  6  8  7  
9  1  3  10  11  5  7  12  
VARIABLES  = "X","Y","Z", "DISPLACEMENT_X1", "DISPLACEMENT_Y1", "DISPLACEMENT_Z1", "STRESS_XX", "STRESS_XY", "STRESS_YY", "STRESS_ZZ", "STRESS_XZ", "STRESS_YZ", "STRAIN_XX", "STRAIN_XY", "STRAIN_YY", "STRAIN_ZZ", "STRAIN_XZ", "STRAIN_YZ"
ZONE T="1.000000000000e+00s", N=12, E=2, F=FEPOINT, ET=BRICK
STRANDID=1, SOLUTIONTIME=1.000000000000e+00
6.666666666667e-01 0.000000000000e+00 0.000000000000e+00 -9.259259259638e-06 1.000000000000e-20 1.000000000000e-20 6.666666666573e+05 1.124721681803e-05 2.222222222232e+05 2.222222222170e+05 1.121957524437e-05 -1.872865207149e-07 2.222222222189e-05 1.124721681803e-15 1.865017523664e-16 -1.251034468536e-16 1.121957524437e-15 -1.872865207149e-17 
1.000000000000e+00 0.000000000000e+00 0.000000000000e+00 1.000000000000e-20 1.000000000000e-20 1.000000000000e-20 1.000000000034e+06 -6.154801936317e-08 3.333333333425e+05 3.333333333455e+05 -3.210145857616e-08 9.460762624728e-08 3.333333333449e-05 -6.154801936317e-18 -9.449164443527e-17 5.229851499677e-17 -3.210145857616e-18 9.460762624728e-18 
6.666666666667e-01 1.000000000000e-01 0.000000000000e+00 -9.259259259636e-06 1.000000000000e-20 1.000000000000e-20 6.666666666565e+05 -1.041166507590e-05 2.222222222147e+05 2.222222222209e+05 1.392677231820e-05 -1.872865207149e-07 2.222222222190e-05 -1.041166507590e-15 -1.865017523664e-16 1.225841943523e-16 1.392677231820e-15 -1.872865207149e-17 
1.000000000000e+00 1.000000000000e-01 0.000000000000e+00 1.000000000000e-20 1.000000000000e-20 1.000000000000e-20 1.000000000034e+06 -5.735400288024e-08 3.333333333468e+05 3.333333333437e+05 -1.670007486717e-07 9.460762624728e-08 3.333333333446e-05 -5.735400288024e-18 9.449164443527e-17 -6.359661670969e-17 -1.670007486717e-17 9.460762624728e-18 
6.666666666667e-01 0.000000000000e+00 1.000000000000e-01 -9.259259259629e-06 1.000000000000e-20 1.000000000000e-20 6.666666666568e+05 1.223334798960e-05 2.222222222131e+05 2.222222222206e+05 -9.981555134703e-06 -1.872865207149e-07 2.222222222193e-05 1.223334798960e-15 -2.484724095543e-16 1.251034468536e-16 -9.981555134703e-16 -1.872865207149e-17 
1.000000000000e+00 0.000000000000e+00 1.000000000000e-01 1.000000000000e-20 1.000000000000e-20 1.000000000000e-20 1.000000000035e+06 1.102275124732e-07 3.333333333478e+05 3.333333333444e+05 -2.818609943530e-08 9.460762624728e-08 3.333333333448e-05 1.102275124732e-17 1.160111135185e-16 -5.229851499677e-17 -2.818609943530e-18 9.460762624728e-18 
6.666666666667e-01 1.000000000000e-01 1.000000000000e-01 -9.259259259628e-06 1.000000000000e-20 1.000000000000e-20 6.666666666582e+05 -1.149988825513e-05 2.222222222252e+05 2.222222222178e+05 -1.244343823784e-05 -1.872865207149e-07 2.222222222190e-05 -1.149988825513e-15 2.484724095543e-16 -1.225841943523e-16 -1.244343823784e-15 -1.872865207149e-17 
1.000000000000e+00 1.000000000000e-01 1.000000000000e-01 1.000000000000e-20 1.000000000000e-20 1.000000000000e-20 1.000000000034e+06 1.140467842030e-07 3.333333333419e+05 3.333333333455e+05 -1.632710802496e-07 9.460762624728e-08 3.333333333447e-05 1.140467842030e-17 -1.160111135185e-16 6.359661670969e-17 -1.632710802496e-17 9.460762624728e-18 
3.333333333333e-01 0.000000000000e+00 0.000000000000e+00 -1.481481481462e-05 1.000000000000e-20 1.000000000000e-20 3.333333332852e+05 2.296292063589e-06 1.111111110897e+05 1.111111111043e+05 2.014935070228e-07 -5.276032769220e-08 1.111111110947e-05 2.296292063589e-16 -3.078492367236e-16 4.245707282092e-16 2.014935070228e-17 -5.276032769220e-18 
3.333333333333e-01 1.000000000000e-01 0.000000000000e+00 -1.481481481461e-05 1.000000000000e-20 1.000000000000e-20 3.333333332819e+05 -5.765368756883e-07 1.111111110999e+05 1.111111110868e+05 -6.826785772517e-07 -5.276032769220e-08 1.111111110941e-05 -5.765368756883e-17 3.078492367236e-16 -3.448655624678e-16 -6.826785772517e-17 -5.276032769220e-18 
3.333333333333e-01 0.000000000000e+00 1.000000000000e-01 -1.481481481460e-05 1.000000000000e-20 1.000000000000e-20 3.333333332789e+05 -4.855383084520e-06 1.111111111010e+05 1.111111110844e+05 1.230013135500e-06 -5.276032769220e-08 1.111111110930e-05 -4.855383084520e-16 4.088267262611e-16 -4.245707282092e-16 1.230013135500e-16 -5.276032769220e-18 
3.333333333333e-01 1.000000000000e-01 1.000000000000e-01 -1.481481481460e-05 1.000000000000e-20 1.000000000000e-20 3.333333332801e+05 5.689275338022e-06 1.111111110848e+05 1.111111110998e+05 2.524619894458e-06 -5.276032769220e-08 1.111111110936e-05 5.689275338022e-16 -4.088267262611e-16 3.448655624678e-16 2.524619894458e-16 -5.276032769220e-18 
1  2  4  3  5  6  8  7  
9  1  3  10  11  5  7  12  
