VARIABLES  = "X","Y","Z", "DISPLACEMENT_X1", "DISPLACEMENT_Y1", "DISPLACEMENT_Z1", "STRESS_XX", "STRESS_XY", "STRESS_YY", "STRESS_ZZ", "STRESS_XZ", "STRESS_YZ", "STRAIN_XX", "STRAIN_XY", "STRAIN_YY", "STRAIN_ZZ", "STRAIN_XZ", "STRAIN_YZ"
ZONE T="0.000000000000e+00s", N=12, E=2, F=FEPOINT, ET=BRICK
STRANDID=1, SOLUTIONTIME=0.000000000000e+00
0.000000000000e+00 0.000000000000e+00 0.000000000000e+00 0.000000000000e+00 0.000000000000e+00 0.000000000000e+00 0.000000000000e+00 0.000000000000e+00 0.000000000000e+00 0.000000000000e+00 0.000000000000e+00 0.000000000000e+00 0.000000000000e+00 0.000000000000e+00 0.000000000000e+00 0.000000000000e+00 0.000000000000e+00 0.000000000000e+00 
3.333333333333e-01 0.000000000000e+00 0.000000000000e+00 0.000000000000e+00 0.000000000000e+00 0.000000000000e+00 0.000000000000e+00 0.000000000000e+00 0.000000000000e+00 0.000000000000e+00 0.000000000000e+00 0.000000000000e+00 0.000000000000e+00 0.000000000000e+00 0.000000000000e+00 0.000000000000e+00 0.000000000000e+00 0.000000000000e+00 
0.000000000000e+00 1.000000000000e-01 0.000000000000e+00 0.000000000000e+00 0.000000000000e+00 0.000000000000e+00 0.000000000000e+00 0.000000000000e+00 0.000000000000e+00 0.000000000000e+00 0.000000000000e+00 0.000000000000e+00 0.000000000000e+00 0.000000000000e+00 0.000000000000e+00 0.000000000000e+00 0.000000000000e+00 0.000000000000e+00 
3.333333333333e-01 1.000000000000e-01 0.000000000000e+00 0.000000000000e+00 0.000000000000e+00 0.000000000000e+00 0.000000000000e+00 0.000000000000e+00 0.000000000000e+00 0.000000000000e+00 0.000000000000e+00 0.000000000000e+00 0.000000000000e+00 0.000000000000e+00 0.000000000000e+00 0.000000000000e+00 0.000000000000e+00 0.000000000000e+00 
0.000000000000e+00 0.000000000000e+00 1.000000000000e-01 0.000000000000e+00 0.000000000000e+00 0.000000000000e+00 0.000000000000e+00 0.000000000000e+00 0.000000000000e+00 0.000000000000e+00 0.000000000000e+00 0.000000000000e+00 0.000000000000e+00 0.000000000000e+00 0.000000000000e+00 0.000000000000e+00 0.000000000000e+00 0.000000000000e+00 
3.333333333333e-01 0.000000000000e+00 1.000000000000e-01 0.000000000000e+00 0.000000000000e+00 0.000000000000e+00 0.000000000000e+00 0.000000000000e+00 0.000000000000e+00 0.000000000000e+00 0.000000000000e+00 0.000000000000e+00 0.000000000000e+00 0.000000000000e+00 0.000000000000e+00 0.000000000000e+00 0.000000000000e+00 0.000000000000e+00 
0.000000000000e+00 1.000000000000e-01 1.000000000000e-01 0.000000000000e+00 0.000000000000e+00 0.000000000000e+00 0.000000000000e+00 0.000000000000e+00 0.000000000000e+00 0.000000000000e+00 0.000000000000e+00 0.000000000000e+00 0.000000000000e+00 0.000000000000e+00 0.000000000000e+00 0.000000000000e+00 0.000000000000e+00 0.000000000000e+00 
3.333333333333e-01 1.000000000000e-01 1.000000000000e-01 0.000000000000e+00 0.000000000000e+00 0.000000000000e+00 0.000000000000e+00 0.000000000000e+00 0.000000000000e+00 0.000000000000e+00 0.000000000000e+00 0.000000000000e+00 0.000000000000e+00 0.000000000000e+00 0.000000000000e+00 0.000000000000e+00 0.000000000000e+00 0.000000000000e+00 
6.666666666667e-01 0.000000000000e+00 0.000000000000e+00 0.000000000000e+00 0.000000000000e+00 0.000000000000e+00 0.000000000000e+00 0.000000000000e+00 0.000000000000e+00 0.000000000000e+00 0.000000000000e+00 0.000000000000e+00 0.000000000000e+00 0.000000000000e+00 0.000000000000e+00 0.000000000000e+00 0.000000000000e+00 0.000000000000e+00 
6.666666666667e-01 1.000000000000e-01 0.000000000000e+00 0.000000000000e+00 0.000000000000e+00 0.000000000000e+00 0.000000000000e+00 0.000000000000e+00 0.000000000000e+00 0.000000000000e+00 0.000000000000e+00 0.000000000000e+00 0.000000000000e+00 0.000000000000e+00 0.000000000000e+00 0.000000000000e+00 0.000000000000e+00 0.000000000000e+00 
6.666666666667e-01 0.000000000000e+00 1.000000000000e-01 0.000000000000e+00 0.000000000000e+00 0.000000000000e+00 0.000000000000e+00 0.000000000000e+00 0.000000000000e+00 0.000000000000e+00 0.000000000000e+00 0.000000000000e+00 0.000000000000e+00 0.000000000000e+00 0.000000000000e+00 0.000000000000e+00 0.000000000000e+00 0.000000000000e+00 
6.666666666667e-01 1.000000000000e-01 1.000000000000e-01 0.000000000000e+00 0.000000000000e+00 0.000000000000e+00 0.000000000000e+00 0.000000000000e+00 0.000000000000e+00 0.000000000000e+00 0.000000000000e+00 0.000000000000e+00 0.000000000000e+00 0.000000000000e+00 0.000000000000e+00 0.000000000000e+00 0.000000000000e+00 0.000000000000e+00 
1  2  4  3  5  6  8  7  
2  9  10  4  6  11  12  8  
VARIABLES  = "X","Y","Z", "DISPLACEMENT_X1", "DISPLACEMENT_Y1", "DISPLACEMENT_Z1", "STRESS_XX", "STRESS_XY", "STRESS_YY", "STRESS_ZZ", "STRESS_XZ", "STRESS_YZ", "STRAIN_XX", "STRAIN_XY", "STRAIN_YY", "STRAIN_ZZ", "STRAIN_XZ", "STRAIN_YZ"
ZONE T="1.000000000000e+00s", N=12, E=2, F=FEPOINT, ET=BRICK
STRANDID=1, SOLUTIONTIME=1.000000000000e+00
0.000000000000e+00 0.000000000000e+00 0.000000000000e+00 -1.666666666606e-05 1.000000000000e-20 1.000000000000e-20 -1.882838816025e-05 -1.480392980584e-05 7.160204113050e-06 -1.312273409177e-05 1.262418832703e-06 -5.991107391951e-07 -6.935101577903e-16 -1.480392980584e-15 6.059192862178e-16 -4.082275113818e-16 1.262418832703e-16 -5.991107391951e-17 
3.333333333333e-01 0.000000000000e+00 0.000000000000e+00 -1.481481481462e-05 1.000000000000e-20 1.000000000000e-20 3.333333332845e+05 1.778387201288e-06 1.111111110894e+05 1.111111111041e+05 -5.597932466079e-07 -5.276032769220e-08 1.111111110944e-05 1.778387201288e-16 -3.078492367236e-16 4.245707282092e-16 -5.597932466079e-17 -5.276032769220e-18 
0.000000000000e+00 1.000000000000e-01 0.000000000000e+00 -1.666666666604e-05 1.000000000000e-20 1.000000000000e-20 -3.266011843010e-05 1.500190867630e-05 -2.609982942099e-05 -1.114728624287e-05 -2.894827258368e-06 -5.991107391951e-07 -9.339331871845e-16 1.500190867630e-15 -6.059192862178e-16 1.417079351488e-16 -2.894827258368e-16 -5.991107391951e-17 
3.333333333333e-01 1.000000000000e-01 0.000000000000e+00 -1.481481481461e-05 1.000000000000e-20 1.000000000000e-20 3.333333332854e+05 -1.094643868001e-06 1.111111111010e+05 1.111111110880e+05 -1.293099517107e-06 -5.276032769220e-08 1.111111110953e-05 -1.094643868001e-16 3.078492367236e-16 -3.448655624678e-16 -1.293099517107e-16 -5.276032769220e-18 
0.000000000000e+00 0.000000000000e+00 1.000000000000e-01 -1.666666666598e-05 1.000000000000e-20 1.000000000000e-20 -5.038265938490e-05 -8.596647367226e-06 -2.855609231956e-05 -9.529004237296e-06 1.091670346335e-05 -5.991107391951e-07 -1.634455922526e-15 -8.596647367226e-16 -5.431268995078e-16 4.082275113818e-16 1.091670346335e-15 -5.991107391951e-17 
3.333333333333e-01 0.000000000000e+00 1.000000000000e-01 -1.481481481460e-05 1.000000000000e-20 1.000000000000e-20 3.333333332886e+05 -4.422125630238e-06 1.111111111043e+05 1.111111110876e+05 4.679251429575e-07 -5.276032769220e-08 1.111111110962e-05 -4.422125630238e-16 4.088267262611e-16 -4.245707282092e-16 4.679251429575e-17 -5.276032769220e-18 
0.000000000000e+00 1.000000000000e-01 1.000000000000e-01 -1.666666666596e-05 1.000000000000e-20 1.000000000000e-20 -4.031187211580e-05 1.228932301788e-05 1.013773061178e-07 -1.359531515598e-05 1.665795688094e-05 -5.991107391951e-07 -1.477535006242e-15 1.228932301788e-15 5.431268995078e-16 -1.417079351488e-16 1.665795688094e-15 -5.991107391951e-17 
3.333333333333e-01 1.000000000000e-01 1.000000000000e-01 -1.481481481460e-05 1.000000000000e-20 1.000000000000e-20 3.333333332860e+05 6.122704083613e-06 1.111111110867e+05 1.111111111018e+05 1.912868197284e-06 -5.276032769220e-08 1.111111110956e-05 6.122704083613e-16 -4.088267262611e-16 3.448655624678e-16 1.912868197284e-16 -5.276032769220e-18 
6.666666666667e-01 0.000000000000e+00 0.000000000000e+00 -9.259259259638e-06 1.000000000000e-20 1.000000000000e-20 6.666666666177e+05 1.127163757655e-05 2.222222222100e+05 2.222222222038e+05 1.089827169248e-05 -1.872865207149e-07 2.222222222057e-05 1.127163757655e-15 1.865017523664e-16 -1.251034468536e-16 1.089827169248e-15 -1.872865207149e-17 
6.666666666667e-01 1.000000000000e-01 0.000000000000e+00 -9.259259259636e-06 1.000000000000e-20 1.000000000000e-20 6.666666666175e+05 -1.038637199621e-05 2.222222222017e+05 2.222222222078e+05 1.400164672422e-05 -1.872865207149e-07 2.222222222060e-05 -1.038637199621e-15 -1.865017523664e-16 1.225841943523e-16 1.400164672422e-15 -1.872865207149e-17 
6.666666666667e-01 0.000000000000e+00 1.000000000000e-01 -9.259259259629e-06 1.000000000000e-20 1.000000000000e-20 6.666666666200e+05 1.217614063340e-05 2.222222222009e+05 2.222222222084e+05 -1.030326533911e-05 -1.872865207149e-07 2.222222222071e-05 1.217614063340e-15 -2.484724095543e-16 1.251034468536e-16 -1.030326533911e-15 -1.872865207149e-17 
6.666666666667e-01 1.000000000000e-01 1.000000000000e-01 -9.259259259628e-06 1.000000000000e-20 1.000000000000e-20 6.666666666207e+05 -1.155706280046e-05 2.222222222127e+05 2.222222222053e+05 -1.237033305145e-05 -1.872865207149e-07 2.222222222065e-05 -1.155706280046e-15 2.484724095543e-16 -1.225841943523e-16 -1.237033305145e-15 -1.872865207149e-17 
1  2  4  3  5  6  8  7  
2  9  10  4  6  11  12  8  
