VARIABLES  = "X","Y","Z", "DISPLACEMENT_X1", "DISPLACEMENT_Y1", "DISPLACEMENT_Z1", "STRESS_XX", "STRESS_XY", "STRESS_YY", "STRESS_ZZ", "STRESS_XZ", "STRESS_YZ", "STRAIN_XX", "STRAIN_XY", "STRAIN_YY", "STRAIN_ZZ", "STRAIN_XZ", "STRAIN_YZ"
ZONE T="0.000000000000e+00s", N=12, E=2, F=FEPOINT, ET=BRICK
STRANDID=1, SOLUTIONTIME=0.000000000000e+00
0.000000000000e+00 0.000000000000e+00 0.000000000000e+00 0.000000000000e+00 0.000000000000e+00 0.000000000000e+00 0.000000000000e+00 0.000000000000e+00 0.000000000000e+00 0.000000000000e+00 0.000000000000e+00 0.000000000000e+00 0.000000000000e+00 0.000000000000e+00 0.000000000000e+00 0.000000000000e+00 0.000000000000e+00 0.000000000000e+00 
3.333333333333e-01 0.000000000000e+00 0.000000000000e+00 0.000000000000e+00 0.000000000000e+00 0.000000000000e+00 0.000000000000e+00 0.000000000000e+00 0.000000000000e+00 0.000000000000e+00 0.000000000000e+00 0.000000000000e+00 0.000000000000e+00 0.000000000000e+00 0.000000000000e+00 0.000000000000e+00 0.000000000000e+00 0.000000000000e+00 
0.000000000000e+00 1.000000000000e-01 0.000000000000e+00 0.000000000000e+00 0.000000000000e+00 0.000000000000e+00 0.000000000000e+00 0.000000000000e+00 0.000000000000e+00 0.000000000000e+00 0.000000000000e+00 0.000000000000e+00 0.000000000000e+00 0.000000000000e+00 0.000000000000e+00 0.000000000000e+00 0.000000000000e+00 0.000000000000e+00 
3.333333333333e-01 1.000000000000e-01 0.000000000000e+00 0.000000000000e+00 0.000000000000e+00 0.000000000000e+00 0.000000000000e+00 0.000000000000e+00 0.000000000000e+00 0.000000000000e+00 0.000000000000e+00 0.000000000000e+00 0.000000000000e+00 0.000000000000e+00 0.000000000000e+00 0.000000000000e+00 0.000000000000e+00 0.000000000000e+00 
0.000000000000e+00 0.000000000000e+00 1.000000000000e-01 0.000000000000e+00 0.000000000000e+00 0.000000000000e+00 0.000000000000e+00 0.000000000000e+00 0.000000000000e+00 0.000000000000e+00 0.000000000000e+00 0.000000000000e+00 0.000000000000e+00 0.000000000000e+00 0.000000000000e+00 0.000000000000e+00 0.000000000000e+00 0.000000000000e+00 
3.333333333333e-01 0.000000000000e+00 1.000000000000e-01 0.000000000000e+00 0.000000000000e+00 0.000000000000e+00 0.000000000000e+00 0.000000000000e+00 0.000000000000e+00 0.000000000000e+00 0.000000000000e+00 0.000000000000e+00 0.000000000000e+00 0.000000000000e+00 0.000000000000e+00 0.000000000000e+00 0.000000000000e+00 0.000000000000e+00 
0.000000000000e+00 1.000000000000e-01 1.000000000000e-01 0.000000000000e+00 0.000000000000e+00 0.000000000000e+00 0.000000000000e+00 0.000000000000e+00 0.000000000000e+00 0.000000000000e+00 0.000000000000e+00 0.000000000000e+00 0.000000000000e+00 0.000000000000e+00 0.000000000000e+00 0.000000000000e+00 0.000000000000e+00 0.000000000000e+00 
3.333333333333e-01 1.000000000000e-01 1.000000000000e-01 0.000000000000e+00 0.000000000000e+00 0.000000000000e+00 0.000000000000e+00 0.000000000000e+00 0.000000000000e+00 0.000000000000e+00 0.000000000000e+00 0.000000000000e+00 0.000000000000e+00 0.000000000000e+00 0.000000000000e+00 0.000000000000e+00 0.000000000000e+00 0.000000000000e+00 
6.666666666667e-01 0.000000000000e+00 0.000000000000e+00 0.000000000000e+00 0.000000000000e+00 0.000000000000e+00 0.000000000000e+00 0.000000000000e+00 0.000000000000e+00 0.000000000000e+00 0.000000000000e+00 0.000000000000e+00 0.000000000000e+00 0.000000000000e+00 0.000000000000e+00 0.000000000000e+00 0.000000000000e+00 0.000000000000e+00 
6.666666666667e-01 1.000000000000e-01 0.000000000000e+00 0.000000000000e+00 0.000000000000e+00 0.000000000000e+00 0.000000000000e+00 0.000000000000e+00 0.000000000000e+00 0.000000000000e+00 0.000000000000e+00 0.000000000000e+00 0.000000000000e+00 0.000000000000e+00 0.000000000000e+00 0.000000000000e+00 0.000000000000e+00 0.000000000000e+00 
6.666666666667e-01 0.000000000000e+00 1.000000000000e-01 0.000000000000e+00 0.000000000000e+00 0.000000000000e+00 0.000000000000e+00 0.000000000000e+00 0.000000000000e+00 0.000000000000e+00 0.000000000000e+00 0.000000000000e+00 0.000000000000e+00 0.000000000000e+00 0.000000000000e+00 0.000000000000e+00 0.000000000000e+00 0.000000000000e+00 
6.666666666667e-01 1.000000000000e-01 1.000000000000e-01 0.000000000000e+00 0.000000000000e+00 0.000000000000e+00 0.000000000000e+00 0.000000000000e+00 0.000000000000e+00 0.000000000000e+00 0.000000000000e+00 0.000000000000e+00 0.000000000000e+00 0.000000000000e+00 0.000000000000e+00 0.000000000000e+00 0.000000000000e+00 0.000000000000e+00 
1  2  4  3  5  6  8  7  
2  9  10  4  6  11  12  8  
VARIABLES  = "X","Y","Z", "DISPLACEMENT_X1", "DISPLACEMENT_Y1", "DISPLACEMENT_Z1", "STRESS_XX", "STRESS_XY", "STRESS_YY", "STRESS_ZZ", "STRESS_XZ", "STRESS_YZ", "STRAIN_XX", "STRAIN_XY", "STRAIN_YY", "STRAIN_ZZ", "STRAIN_XZ", "STRAIN_YZ"
ZONE T="1.000000000000e+00s", N=12, E=2, F=FEPOINT, ET=BRICK
STRANDID=1, SOLUTIONTIME=1.000000000000e+00
0.000000000000e+00 0.000000000000e+00 0.000000000000e+00 -1.666666666598e-05 1.000000000000e-20 1.000000000000e-20 -1.759626741205e-05 -1.775853816576e-05 4.794491866278e-05 -3.379120090585e-05 -4.821460133899e-06 -2.420213833197e-06 -8.453887107199e-16 -1.775853816576e-15 2.431671493578e-15 -1.655134216647e-15 -4.821460133899e-16 -2.420213833197e-16 
3.333333333333e-01 0.000000000000e+00 0.000000000000e+00 -1.481481481458e-05 1.000000000000e-20 1.000000000000e-20 3.333333332801e+05 -2.384185927142e-06 1.111111110549e+05 1.111111111257e+05 -3.044863218038e-06 1.019189433576e-06 1.111111110940e-05 -2.384185927142e-16 -1.861331570393e-15 1.676528832845e-15 -3.044863218038e-16 1.019189433576e-16 
0.000000000000e+00 1.000000000000e-01 0.000000000000e+00 -1.666666666597e-05 1.000000000000e-20 1.000000000000e-20 -4.156278464507e-05 1.669241364919e-05 -6.949063299544e-05 6.767386366846e-06 -2.106707485903e-07 -2.420213833197e-06 -1.035278131787e-15 1.669241364919e-15 -2.431671493578e-15 1.381229470503e-15 -2.106707485903e-17 -2.420213833197e-16 
3.333333333333e-01 1.000000000000e-01 0.000000000000e+00 -1.481481481458e-05 1.000000000000e-20 1.000000000000e-20 3.333333332831e+05 7.256049076315e-07 1.111111111332e+05 1.111111110637e+05 -2.203310314454e-06 1.019189433576e-06 1.111111110936e-05 7.256049076315e-17 1.861331570393e-15 -1.615480563795e-15 -2.203310314454e-16 1.019189433576e-16 
0.000000000000e+00 0.000000000000e+00 1.000000000000e-01 -1.666666666590e-05 1.000000000000e-20 1.000000000000e-20 -6.254668460315e-05 -1.196205362344e-05 -9.047882804225e-05 3.121980171272e-06 1.796409341610e-05 -2.420213833197e-06 -1.628298603654e-15 -1.196205362344e-15 -3.024906026769e-15 1.655134216647e-15 1.796409341610e-15 -2.420213833197e-16 
3.333333333333e-01 0.000000000000e+00 1.000000000000e-01 -1.481481481456e-05 1.000000000000e-20 1.000000000000e-20 3.333333332915e+05 -3.078563048282e-06 1.111111111513e+05 1.111111110688e+05 2.747692482932e-06 1.019189433576e-06 1.111111110946e-05 -3.078563048282e-16 2.449867259823e-15 -1.676528832845e-15 2.747692482932e-16 1.019189433576e-16 
0.000000000000e+00 1.000000000000e-01 1.000000000000e-01 -1.666666666588e-05 1.000000000000e-20 1.000000000000e-20 -3.514819400152e-05 2.186595678179e-05 5.973989755148e-05 -2.838281579898e-05 1.467101730123e-05 -2.420213833197e-06 -1.719498905783e-15 2.186595678179e-15 3.024906026769e-15 -1.381229470503e-15 1.467101730123e-15 -2.420213833197e-16 
3.333333333333e-01 1.000000000000e-01 1.000000000000e-01 -1.481481481457e-05 1.000000000000e-20 1.000000000000e-20 3.333333332761e+05 3.553974681349e-06 1.111111110375e+05 1.111111111188e+05 2.359250498560e-06 1.019189433576e-06 1.111111110948e-05 3.553974681349e-16 -2.449867259823e-15 1.615480563795e-15 2.359250498560e-16 1.019189433576e-16 
6.666666666667e-01 0.000000000000e+00 0.000000000000e+00 -9.259259259627e-06 1.000000000000e-20 1.000000000000e-20 6.666666666183e+05 1.018970688269e-05 2.222222222247e+05 2.222222221990e+05 1.331926503476e-05 -9.732947765909e-07 2.222222222049e-05 1.018970688269e-15 8.170408467439e-16 -4.705826433007e-16 1.331926503476e-15 -9.732947765909e-17 
6.666666666667e-01 1.000000000000e-01 0.000000000000e+00 -9.259259259623e-06 1.000000000000e-20 1.000000000000e-20 6.666666666171e+05 -1.049687178502e-05 2.222222221872e+05 2.222222222135e+05 8.027842857952e-06 -9.732947765909e-07 2.222222222068e-05 -1.049687178502e-15 -8.170408467439e-16 4.960325698421e-16 8.027842857952e-16 -9.732947765909e-17 
6.666666666667e-01 0.000000000000e+00 1.000000000000e-01 -9.259259259657e-06 1.000000000000e-20 1.000000000000e-20 6.666666666099e+05 1.207946694664e-05 2.222222221765e+05 2.222222222084e+05 -2.099188661213e-05 -9.732947765909e-07 2.222222222055e-05 1.207946694664e-15 -1.122869142990e-15 4.705826433007e-16 -2.099188661213e-15 -9.732947765909e-17 
6.666666666667e-01 1.000000000000e-01 1.000000000000e-01 -9.259259259661e-06 1.000000000000e-20 1.000000000000e-20 6.666666666162e+05 -1.519435554045e-05 2.222222222320e+05 2.222222221996e+05 -1.219829660341e-05 -9.732947765909e-07 2.222222222033e-05 -1.519435554045e-15 1.122869142990e-15 -4.960325698421e-16 -1.219829660341e-15 -9.732947765909e-17 
1  2  4  3  5  6  8  7  
2  9  10  4  6  11  12  8  
