VARIABLES  = "X","Y","Z", "DISPLACEMENT_X1", "DISPLACEMENT_Y1", "DISPLACEMENT_Z1", "STRESS_XX", "STRESS_XY", "STRESS_YY", "STRESS_ZZ", "STRESS_XZ", "STRESS_YZ", "STRAIN_XX", "STRAIN_XY", "STRAIN_YY", "STRAIN_ZZ", "STRAIN_XZ", "STRAIN_YZ"
ZONE T="0.000000000000e+00s", N=12, E=2, F=FEPOINT, ET=BRICK
STRANDID=1, SOLUTIONTIME=0.000000000000e+00
6.666666666667e-01 0.000000000000e+00 0.000000000000e+00 0.000000000000e+00 0.000000000000e+00 0.000000000000e+00 0.000000000000e+00 0.000000000000e+00 0.000000000000e+00 0.000000000000e+00 0.000000000000e+00 0.000000000000e+00 0.000000000000e+00 0.000000000000e+00 0.000000000000e+00 0.000000000000e+00 0.000000000000e+00 0.000000000000e+00 
1.000000000000e+00 0.000000000000e+00 0.000000000000e+00 0.000000000000e+00 0.000000000000e+00 0.000000000000e+00 0.000000000000e+00 0.000000000000e+00 0.000000000000e+00 0.000000000000e+00 0.000000000000e+00 0.000000000000e+00 0.000000000000e+00 0.000000000000e+00 0.000000000000e+00 0.000000000000e+00 0.000000000000e+00 0.000000000000e+00 
6.666666666667e-01 1.000000000000e-01 0.000000000000e+00 0.000000000000e+00 0.000000000000e+00 0.000000000000e+00 0.000000000000e+00 0.000000000000e+00 0.000000000000e+00 0.000000000000e+00 0.000000000000e+00 0.000000000000e+00 0.000000000000e+00 0.000000000000e+00 0.000000000000e+00 0.000000000000e+00 0.000000000000e+00 0.000000000000e+00 
1.000000000000e+00 1.000000000000e-01 0.000000000000e+00 0.000000000000e+00 0.000000000000e+00 0.000000000000e+00 0.000000000000e+00 0.000000000000e+00 0.000000000000e+00 0.000000000000e+00 0.000000000000e+00 0.000000000000e+00 0.000000000000e+00 0.000000000000e+00 0.000000000000e+00 0.000000000000e+00 0.000000000000e+00 0.000000000000e+00 
6.666666666667e-01 0.000000000000e+00 1.000000000000e-01 0.000000000000e+00 0.000000000000e+00 0.000000000000e+00 0.000000000000e+00 0.000000000000e+00 0.000000000000e+00 0.000000000000e+00 0.000000000000e+00 0.000000000000e+00 0.000000000000e+00 0.000000000000e+00 0.000000000000e+00 0.000000000000e+00 0.000000000000e+00 0.000000000000e+00 
1.000000000000e+00 0.000000000000e+00 1.000000000000e-01 0.000000000000e+00 0.000000000000e+00 0.000000000000e+00 0.000000000000e+00 0.000000000000e+00 0.000000000000e+00 0.000000000000e+00 0.000000000000e+00 0.000000000000e+00 0.000000000000e+00 0.000000000000e+00 0.000000000000e+00 0.000000000000e+00 0.000000000000e+00 0.000000000000e+00 
6.666666666667e-01 1.000000000000e-01 1.000000000000e-01 0.000000000000e+00 0.000000000000e+00 0.000000000000e+00 0.000000000000e+00 0.000000000000e+00 0.000000000000e+00 0.000000000000e+00 0.000000000000e+00 0.000000000000e+00 0.000000000000e+00 0.000000000000e+00 0.000000000000e+00 0.000000000000e+00 0.000000000000e+00 0.000000000000e+00 
1.000000000000e+00 1.000000000000e-01 1.000000000000e-01 0.000000000000e+00 0.000000000000e+00 0.000000000000e+00 0.000000000000e+00 0.000000000000e+00 0.000000000000e+00 0.000000000000e+00 0.000000000000e+00 0.000000000000e+00 0.000000000000e+00 0.000000000000e+00 0.000000000000e+00 0.000000000000e+00 0.000000000000e+00 0.000000000000e+00 
3.333333333333e-01 0.000000000000e+00 0.000000000000e+00 0.000000000000e+00 0.000000000000e+00 0.000000000000e+00 0.000000000000e+00 0.000000000000e+00 0.000000000000e+00 0.000000000000e+00 0.000000000000e+00 0.000000000000e+00 0.000000000000e+00 0.000000000000e+00 0.000000000000e+00 0.000000000000e+00 0.000000000000e+00 0.000000000000e+00 
3.333333333333e-01 1.000000000000e-01 0.000000000000e+00 0.000000000000e+00 0.000000000000e+00 0.000000000000e+00 0.000000000000e+00 0.000000000000e+00 0.000000000000e+00 0.000000000000e+00 0.000000000000e+00 0.000000000000e+00 0.000000000000e+00 0.000000000000e+00 0.000000000000e+00 0.000000000000e+00 0.000000000000e+00 0.000000000000e+00 
3.333333333333e-01 0.000000000000e+00 1.000000000000e-01 0.000000000000e+00 0.000000000000e+00 0.000000000000e+00 0.000000000000e+00 0.000000000000e+00 0.000000000000e+00 0.000000000000e+00 0.000000000000e+00 0.000000000000e+00 0.000000000000e+00 0.000000000000e+00 0.000000000000e+00 0.000000000000e+00 0.000000000000e+00 0.000000000000e+00 
3.333333333333e-01 1.000000000000e-01 1.000000000000e-01 0.000000000000e+00 0.000000000000e+00 0.000000000000e+00 0.000000000000e+00 0.000000000000e+00 0.000000000000e+00 0.000000000000e+00 0.000000000000e+00 0.000000000000e+00 0.000000000000e+00 0.000000000000e+00 0.000000000000e+00 0.000000000000e+00 0.000000000000e+00 0.000000000000e+00 
1  2  4  3  5  6  8  7  
9  1  3  10  11  5  7  12  
VARIABLES  = "X","Y","Z", "DISPLACEMENT_X1", "DISPLACEMENT_Y1", "DISPLACEMENT_Z1", "STRESS_XX", "STRESS_XY", "STRESS_YY", "STRESS_ZZ", "STRESS_XZ", "STRESS_YZ", "STRAIN_XX", "STRAIN_XY", "STRAIN_YY", "STRAIN_ZZ", "STRAIN_XZ", "STRAIN_YZ"
ZONE T="1.000000000000e+00s", N=12, E=2, F=FEPOINT, ET=BRICK
STRANDID=1, SOLUTIONTIME=1.000000000000e+00
6.666666666667e-01 0.000000000000e+00 0.000000000000e+00 -9.259259259514e-06 1.000000000000e-20 1.000000000000e-20 6.666666666555e+05 7.424860093991e-06 2.222222222067e+05 2.222222222220e+05 7.698117562654e-06 6.500271142714e-07 2.222222222193e-05 7.424860093991e-16 -5.086251483196e-16 2.585187715718e-16 7.698117562654e-16 6.500271142714e-17 
1.000000000000e+00 0.000000000000e+00 0.000000000000e+00 1.000000000000e-20 1.000000000000e-20 1.000000000000e-20 1.000000000026e+06 -3.952225038307e-07 3.333333333474e+05 3.333333333410e+05 6.650665110449e-07 -3.314178743075e-07 3.333333333415e-05 -3.952225038307e-17 2.284092256599e-16 -9.279585162068e-17 6.650665110449e-17 -3.314178743075e-17 
6.666666666667e-01 1.000000000000e-01 0.000000000000e+00 -9.259259259473e-06 1.000000000000e-20 1.000000000000e-20 6.666666666590e+05 -1.766391652010e-06 2.222222222310e+05 2.222222222142e+05 1.432763939146e-06 6.500271142714e-07 2.222222222191e-05 -1.766391652010e-16 5.086251483196e-16 -3.331958160125e-16 1.432763939146e-16 6.500271142714e-17 
1.000000000000e+00 1.000000000000e-01 0.000000000000e+00 1.000000000000e-20 1.000000000000e-20 1.000000000000e-20 1.000000000026e+06 -3.912591742126e-07 3.333333333372e+05 3.333333333454e+05 1.049752374754e-06 -3.314178743075e-07 3.333333333422e-05 -3.912591742126e-17 -2.284092256599e-16 1.823528652453e-16 1.049752374754e-16 -3.314178743075e-17 
6.666666666667e-01 0.000000000000e+00 1.000000000000e-01 -9.259259259578e-06 1.000000000000e-20 1.000000000000e-20 6.666666666624e+05 1.551039188134e-05 2.222222222386e+05 2.222222222188e+05 -1.696744739443e-05 6.500271142714e-07 2.222222222192e-05 1.551039188134e-15 7.331165535362e-16 -2.585187715718e-16 -1.696744739443e-15 6.500271142714e-17 
1.000000000000e+00 0.000000000000e+00 1.000000000000e-01 1.000000000000e-20 1.000000000000e-20 1.000000000000e-20 1.000000000020e+06 -8.213208687132e-07 3.333333333304e+05 3.333333333398e+05 6.691492476639e-07 -3.314178743075e-07 3.333333333408e-05 -8.213208687132e-17 -3.781573655135e-16 9.279585162068e-17 6.691492476639e-17 -3.314178743075e-17 
6.666666666667e-01 1.000000000000e-01 1.000000000000e-01 -9.259259259532e-06 1.000000000000e-20 1.000000000000e-20 6.666666666569e+05 -9.113254408710e-06 2.222222222016e+05 2.222222222230e+05 -1.111816972035e-05 6.500271142714e-07 2.222222222203e-05 -9.113254408710e-16 -7.331165535362e-16 3.331958160125e-16 -1.111816972035e-15 6.500271142714e-17 
1.000000000000e+00 1.000000000000e-01 1.000000000000e-01 1.000000000000e-20 1.000000000000e-20 1.000000000000e-20 1.000000000025e+06 -8.175514486598e-07 3.333333333506e+05 3.333333333394e+05 1.053200448819e-06 -3.314178743075e-07 3.333333333411e-05 -8.175514486598e-17 3.781573655135e-16 -1.823528652453e-16 1.053200448819e-16 -3.314178743075e-17 
3.333333333333e-01 0.000000000000e+00 0.000000000000e+00 -1.481481481464e-05 1.000000000000e-20 1.000000000000e-20 3.333333332958e+05 -1.117036025897e-06 1.111111111198e+05 1.111111110797e+05 2.630142391727e-06 -6.605058010793e-07 1.111111110984e-05 -1.117036025897e-16 1.038518039119e-15 -9.685980352724e-16 2.630142391727e-16 -6.605058010793e-17 
3.333333333333e-01 1.000000000000e-01 0.000000000000e+00 -1.481481481462e-05 1.000000000000e-20 1.000000000000e-20 3.333333332924e+05 1.545849181832e-06 1.111111110769e+05 1.111111111191e+05 -4.040036370551e-06 -6.605058010793e-07 1.111111110974e-05 1.545849181832e-16 -1.038518039119e-15 1.070231702351e-15 -4.040036370551e-16 -6.605058010793e-17 
3.333333333333e-01 0.000000000000e+00 1.000000000000e-01 -1.481481481464e-05 1.000000000000e-20 1.000000000000e-20 3.333333332907e+05 -1.541321373122e-06 1.111111110591e+05 1.111111111117e+05 8.681920976010e-09 -6.605058010793e-07 1.111111110992e-05 -1.541321373122e-16 -1.660817499583e-15 9.685980352724e-16 8.681920976010e-19 -6.605058010793e-17 
3.333333333333e-01 1.000000000000e-01 1.000000000000e-01 -1.481481481462e-05 1.000000000000e-20 1.000000000000e-20 3.333333332932e+05 3.538493547830e-06 1.111111111349e+05 1.111111110803e+05 4.303190682681e-06 -6.605058010793e-07 1.111111110958e-05 3.538493547830e-16 1.660817499583e-15 -1.070231702351e-15 4.303190682681e-16 -6.605058010793e-17 
1  2  4  3  5  6  8  7  
9  1  3  10  11  5  7  12  
