VARIABLES  = "X","Y","Z", "DISPLACEMENT_X1", "DISPLACEMENT_Y1", "DISPLACEMENT_Z1", "STRESS_XX", "STRESS_XY", "STRESS_YY", "STRESS_ZZ", "STRESS_XZ", "STRESS_YZ", "STRAIN_XX", "STRAIN_XY", "STRAIN_YY", "STRAIN_ZZ", "STRAIN_XZ", "STRAIN_YZ"
ZONE T="0.000000000000e+00s", N=12, E=2, F=FEPOINT, ET=BRICK
STRANDID=1, SOLUTIONTIME=0.000000000000e+00
0.000000000000e+00 0.000000000000e+00 0.000000000000e+00 0.000000000000e+00 0.000000000000e+00 0.000000000000e+00 0.000000000000e+00 0.000000000000e+00 0.000000000000e+00 0.000000000000e+00 0.000000000000e+00 0.000000000000e+00 0.000000000000e+00 0.000000000000e+00 0.000000000000e+00 0.000000000000e+00 0.000000000000e+00 0.000000000000e+00 
3.333333333333e-01 0.000000000000e+00 0.000000000000e+00 0.000000000000e+00 0.000000000000e+00 0.000000000000e+00 0.000000000000e+00 0.000000000000e+00 0.000000000000e+00 0.000000000000e+00 0.000000000000e+00 0.000000000000e+00 0.000000000000e+00 0.000000000000e+00 0.000000000000e+00 0.000000000000e+00 0.000000000000e+00 0.000000000000e+00 
0.000000000000e+00 1.000000000000e-01 0.000000000000e+00 0.000000000000e+00 0.000000000000e+00 0.000000000000e+00 0.000000000000e+00 0.000000000000e+00 0.000000000000e+00 0.000000000000e+00 0.000000000000e+00 0.000000000000e+00 0.000000000000e+00 0.000000000000e+00 0.000000000000e+00 0.000000000000e+00 0.000000000000e+00 0.000000000000e+00 
3.333333333333e-01 1.000000000000e-01 0.000000000000e+00 0.000000000000e+00 0.000000000000e+00 0.000000000000e+00 0.000000000000e+00 0.000000000000e+00 0.000000000000e+00 0.000000000000e+00 0.000000000000e+00 0.000000000000e+00 0.000000000000e+00 0.000000000000e+00 0.000000000000e+00 0.000000000000e+00 0.000000000000e+00 0.000000000000e+00 
0.000000000000e+00 0.000000000000e+00 1.000000000000e-01 0.000000000000e+00 0.000000000000e+00 0.000000000000e+00 0.000000000000e+00 0.000000000000e+00 0.000000000000e+00 0.000000000000e+00 0.000000000000e+00 0.000000000000e+00 0.000000000000e+00 0.000000000000e+00 0.000000000000e+00 0.000000000000e+00 0.000000000000e+00 0.000000000000e+00 
3.333333333333e-01 0.000000000000e+00 1.000000000000e-01 0.000000000000e+00 0.000000000000e+00 0.000000000000e+00 0.000000000000e+00 0.000000000000e+00 0.000000000000e+00 0.000000000000e+00 0.000000000000e+00 0.000000000000e+00 0.000000000000e+00 0.000000000000e+00 0.000000000000e+00 0.000000000000e+00 0.000000000000e+00 0.000000000000e+00 
0.000000000000e+00 1.000000000000e-01 1.000000000000e-01 0.000000000000e+00 0.000000000000e+00 0.000000000000e+00 0.000000000000e+00 0.000000000000e+00 0.000000000000e+00 0.000000000000e+00 0.000000000000e+00 0.000000000000e+00 0.000000000000e+00 0.000000000000e+00 0.000000000000e+00 0.000000000000e+00 0.000000000000e+00 0.000000000000e+00 
3.333333333333e-01 1.000000000000e-01 1.000000000000e-01 0.000000000000e+00 0.000000000000e+00 0.000000000000e+00 0.000000000000e+00 0.000000000000e+00 0.000000000000e+00 0.000000000000e+00 0.000000000000e+00 0.000000000000e+00 0.000000000000e+00 0.000000000000e+00 0.000000000000e+00 0.000000000000e+00 0.000000000000e+00 0.000000000000e+00 
6.666666666667e-01 0.000000000000e+00 0.000000000000e+00 0.000000000000e+00 0.000000000000e+00 0.000000000000e+00 0.000000000000e+00 0.000000000000e+00 0.000000000000e+00 0.000000000000e+00 0.000000000000e+00 0.000000000000e+00 0.000000000000e+00 0.000000000000e+00 0.000000000000e+00 0.000000000000e+00 0.000000000000e+00 0.000000000000e+00 
6.666666666667e-01 1.000000000000e-01 0.000000000000e+00 0.000000000000e+00 0.000000000000e+00 0.000000000000e+00 0.000000000000e+00 0.000000000000e+00 0.000000000000e+00 0.000000000000e+00 0.000000000000e+00 0.000000000000e+00 0.000000000000e+00 0.000000000000e+00 0.000000000000e+00 0.000000000000e+00 0.000000000000e+00 0.000000000000e+00 
6.666666666667e-01 0.000000000000e+00 1.000000000000e-01 0.000000000000e+00 0.000000000000e+00 0.000000000000e+00 0.000000000000e+00 0.000000000000e+00 0.000000000000e+00 0.000000000000e+00 0.000000000000e+00 0.000000000000e+00 0.000000000000e+00 0.000000000000e+00 0.000000000000e+00 0.000000000000e+00 0.000000000000e+00 0.000000000000e+00 
6.666666666667e-01 1.000000000000e-01 1.000000000000e-01 0.000000000000e+00 0.000000000000e+00 0.000000000000e+00 0.000000000000e+00 0.000000000000e+00 0.000000000000e+00 0.000000000000e+00 0.000000000000e+00 0.000000000000e+00 0.000000000000e+00 0.000000000000e+00 0.000000000000e+00 0.000000000000e+00 0.000000000000e+00 0.000000000000e+00 
1  2  4  3  5  6  8  7  
2  9  10  4  6  11  12  8  
VARIABLES  = "X","Y","Z", "DISPLACEMENT_X1", "DISPLACEMENT_Y1", "DISPLACEMENT_Z1", "STRESS_XX", "STRESS_XY", "STRESS_YY", "STRESS_ZZ", "STRESS_XZ", "STRESS_YZ", "STRAIN_XX", "STRAIN_XY", "STRAIN_YY", "STRAIN_ZZ", "STRAIN_XZ", "STRAIN_YZ"
ZONE T="1.000000000000e+00s", N=12, E=2, F=FEPOINT, ET=BRICK
STRANDID=1, SOLUTIONTIME=1.000000000000e+00
0.000000000000e+00 0.000000000000e+00 0.000000000000e+00 -1.666666666617e-05 1.000000000000e-20 1.000000000000e-20 -3.025868500117e-05 -1.212272011733e-05 -5.785397553382e-05 5.994666821607e-06 -1.752118413222e-06 1.990636170559e-06 -6.917541791494e-16 -1.212272011733e-15 -2.071518707296e-15 1.120913273798e-15 -1.752118413222e-16 1.990636170559e-16 
3.333333333333e-01 0.000000000000e+00 0.000000000000e+00 -1.481481481464e-05 1.000000000000e-20 1.000000000000e-20 3.333333332976e+05 -4.863435555020e-08 1.111111111204e+05 1.111111110803e+05 6.986907794150e-07 -6.605058010793e-07 1.111111110990e-05 -4.863435555020e-18 1.038518039119e-15 -9.685980352724e-16 6.986907794150e-17 -6.605058010793e-17 
0.000000000000e+00 1.000000000000e-01 0.000000000000e+00 -1.666666666617e-05 1.000000000000e-20 1.000000000000e-20 -1.086955580831e-05 1.304324707238e-05 4.222302550261e-05 -2.739023921094e-05 3.313014415218e-07 1.990636170559e-06 -5.831097099280e-16 1.304324707238e-15 2.071518707296e-15 -1.409144194947e-15 3.313014415218e-17 1.990636170559e-16 
3.333333333333e-01 1.000000000000e-01 0.000000000000e+00 -1.481481481462e-05 1.000000000000e-20 1.000000000000e-20 3.333333332958e+05 2.613495223360e-06 1.111111110780e+05 1.111111111202e+05 -3.720007839431e-06 -6.605058010793e-07 1.111111110985e-05 2.613495223360e-16 -1.038518039119e-15 1.070231702351e-15 -3.720007839431e-16 -6.605058010793e-17 
0.000000000000e+00 0.000000000000e+00 1.000000000000e-01 -1.666666666609e-05 1.000000000000e-20 1.000000000000e-20 -3.256530271756e-05 -1.247739207487e-05 4.698348129750e-05 -2.441828974042e-05 1.188131456228e-05 1.990636170559e-06 -1.528263694946e-15 -1.247739207487e-15 2.449174932008e-15 -1.120913273798e-15 1.188131456228e-15 1.990636170559e-16 
3.333333333333e-01 0.000000000000e+00 1.000000000000e-01 -1.481481481464e-05 1.000000000000e-20 1.000000000000e-20 3.333333332969e+05 -9.746381636773e-07 1.111111110611e+05 1.111111111137e+05 -1.924129319110e-06 -6.605058010793e-07 1.111111111013e-05 -9.746381636773e-17 -1.660817499583e-15 9.685980352724e-16 -1.924129319110e-16 -6.605058010793e-17 
0.000000000000e+00 1.000000000000e-01 1.000000000000e-01 -1.666666666612e-05 1.000000000000e-20 1.000000000000e-20 -3.699921944644e-05 8.095566453308e-06 -6.825010859757e-05 8.916274964577e-06 1.157401103245e-05 1.990636170559e-06 -8.866302552308e-16 8.095566453308e-16 -2.449174932008e-15 1.409144194947e-15 1.157401103245e-15 1.990636170559e-16 
3.333333333333e-01 1.000000000000e-01 1.000000000000e-01 -1.481481481462e-05 1.000000000000e-20 1.000000000000e-20 3.333333332988e+05 4.104531485154e-06 1.111111111368e+05 1.111111110821e+05 4.622868874072e-06 -6.605058010793e-07 1.111111110976e-05 4.104531485154e-16 1.660817499583e-15 -1.070231702351e-15 4.622868874072e-16 -6.605058010793e-17 
6.666666666667e-01 0.000000000000e+00 0.000000000000e+00 -9.259259259514e-06 1.000000000000e-20 1.000000000000e-20 6.666666666283e+05 7.106557723749e-06 2.222222221976e+05 2.222222222130e+05 7.970649889327e-06 6.500271142714e-07 2.222222222103e-05 7.106557723749e-16 -5.086251483196e-16 2.585187715718e-16 7.970649889327e-16 6.500271142714e-17 
6.666666666667e-01 1.000000000000e-01 0.000000000000e+00 -9.259259259473e-06 1.000000000000e-20 1.000000000000e-20 6.666666666398e+05 -2.083859644793e-06 2.222222222246e+05 2.222222222078e+05 7.125045178616e-07 6.500271142714e-07 2.222222222127e-05 -2.083859644793e-16 5.086251483196e-16 -3.331958160125e-16 7.125045178616e-17 6.500271142714e-17 
6.666666666667e-01 0.000000000000e+00 1.000000000000e-01 -9.259259259578e-06 1.000000000000e-20 1.000000000000e-20 6.666666666229e+05 1.559091906637e-05 2.222222222255e+05 2.222222222056e+05 -1.669426291672e-05 6.500271142714e-07 2.222222222060e-05 1.559091906637e-15 7.331165535362e-16 -2.585187715718e-16 -1.669426291672e-15 6.500271142714e-17 
6.666666666667e-01 1.000000000000e-01 1.000000000000e-01 -9.259259259532e-06 1.000000000000e-20 1.000000000000e-20 6.666666666286e+05 -9.032430385459e-06 2.222222221922e+05 2.222222222135e+05 -1.183945728877e-05 6.500271142714e-07 2.222222222109e-05 -9.032430385459e-16 -7.331165535362e-16 3.331958160125e-16 -1.183945728877e-15 6.500271142714e-17 
1  2  4  3  5  6  8  7  
2  9  10  4  6  11  12  8  
