VARIABLES  = "X","Y","Z", "DISPLACEMENT_X1", "DISPLACEMENT_Y1", "DISPLACEMENT_Z1", "STRESS_XX", "STRESS_XY", "STRESS_YY", "STRESS_ZZ", "STRESS_XZ", "STRESS_YZ", "STRAIN_XX", "STRAIN_XY", "STRAIN_YY", "STRAIN_ZZ", "STRAIN_XZ", "STRAIN_YZ"
ZONE T="0.000000000000e+00s", N=12, E=2, F=FEPOINT, ET=BRICK
STRANDID=1, SOLUTIONTIME=0.000000000000e+00
6.666666666667e-01 0.000000000000e+00 0.000000000000e+00 0.000000000000e+00 0.000000000000e+00 0.000000000000e+00 0.000000000000e+00 0.000000000000e+00 0.000000000000e+00 0.000000000000e+00 0.000000000000e+00 0.000000000000e+00 0.000000000000e+00 0.000000000000e+00 0.000000000000e+00 0.000000000000e+00 0.000000000000e+00 0.000000000000e+00 
1.000000000000e+00 0.000000000000e+00 0.000000000000e+00 0.000000000000e+00 0.000000000000e+00 0.000000000000e+00 0.000000000000e+00 0.000000000000e+00 0.000000000000e+00 0.000000000000e+00 0.000000000000e+00 0.000000000000e+00 0.000000000000e+00 0.000000000000e+00 0.000000000000e+00 0.000000000000e+00 0.000000000000e+00 0.000000000000e+00 
6.666666666667e-01 1.000000000000e-01 0.000000000000e+00 0.000000000000e+00 0.000000000000e+00 0.000000000000e+00 0.000000000000e+00 0.000000000000e+00 0.000000000000e+00 0.000000000000e+00 0.000000000000e+00 0.000000000000e+00 0.000000000000e+00 0.000000000000e+00 0.000000000000e+00 0.000000000000e+00 0.000000000000e+00 0.000000000000e+00 
1.000000000000e+00 1.000000000000e-01 0.000000000000e+00 0.000000000000e+00 0.000000000000e+00 0.000000000000e+00 0.000000000000e+00 0.000000000000e+00 0.000000000000e+00 0.000000000000e+00 0.000000000000e+00 0.000000000000e+00 0.000000000000e+00 0.000000000000e+00 0.000000000000e+00 0.000000000000e+00 0.000000000000e+00 0.000000000000e+00 
6.666666666667e-01 0.000000000000e+00 1.000000000000e-01 0.000000000000e+00 0.000000000000e+00 0.000000000000e+00 0.000000000000e+00 0.000000000000e+00 0.000000000000e+00 0.000000000000e+00 0.000000000000e+00 0.000000000000e+00 0.000000000000e+00 0.000000000000e+00 0.000000000000e+00 0.000000000000e+00 0.000000000000e+00 0.000000000000e+00 
1.000000000000e+00 0.000000000000e+00 1.000000000000e-01 0.000000000000e+00 0.000000000000e+00 0.000000000000e+00 0.000000000000e+00 0.000000000000e+00 0.000000000000e+00 0.000000000000e+00 0.000000000000e+00 0.000000000000e+00 0.000000000000e+00 0.000000000000e+00 0.000000000000e+00 0.000000000000e+00 0.000000000000e+00 0.000000000000e+00 
6.666666666667e-01 1.000000000000e-01 1.000000000000e-01 0.000000000000e+00 0.000000000000e+00 0.000000000000e+00 0.000000000000e+00 0.000000000000e+00 0.000000000000e+00 0.000000000000e+00 0.000000000000e+00 0.000000000000e+00 0.000000000000e+00 0.000000000000e+00 0.000000000000e+00 0.000000000000e+00 0.000000000000e+00 0.000000000000e+00 
1.000000000000e+00 1.000000000000e-01 1.000000000000e-01 0.000000000000e+00 0.000000000000e+00 0.000000000000e+00 0.000000000000e+00 0.000000000000e+00 0.000000000000e+00 0.000000000000e+00 0.000000000000e+00 0.000000000000e+00 0.000000000000e+00 0.000000000000e+00 0.000000000000e+00 0.000000000000e+00 0.000000000000e+00 0.000000000000e+00 
3.333333333333e-01 0.000000000000e+00 0.000000000000e+00 0.000000000000e+00 0.000000000000e+00 0.000000000000e+00 0.000000000000e+00 0.000000000000e+00 0.000000000000e+00 0.000000000000e+00 0.000000000000e+00 0.000000000000e+00 0.000000000000e+00 0.000000000000e+00 0.000000000000e+00 0.000000000000e+00 0.000000000000e+00 0.000000000000e+00 
3.333333333333e-01 1.000000000000e-01 0.000000000000e+00 0.000000000000e+00 0.000000000000e+00 0.000000000000e+00 0.000000000000e+00 0.000000000000e+00 0.000000000000e+00 0.000000000000e+00 0.000000000000e+00 0.000000000000e+00 0.000000000000e+00 0.000000000000e+00 0.000000000000e+00 0.000000000000e+00 0.000000000000e+00 0.000000000000e+00 
3.333333333333e-01 0.000000000000e+00 1.000000000000e-01 0.000000000000e+00 0.000000000000e+00 0.000000000000e+00 0.000000000000e+00 0.000000000000e+00 0.000000000000e+00 0.000000000000e+00 0.000000000000e+00 0.000000000000e+00 0.000000000000e+00 0.000000000000e+00 0.000000000000e+00 0.000000000000e+00 0.000000000000e+00 0.000000000000e+00 
3.333333333333e-01 1.000000000000e-01 1.000000000000e-01 0.000000000000e+00 0.000000000000e+00 0.000000000000e+00 0.000000000000e+00 0.000000000000e+00 0.000000000000e+00 0.000000000000e+00 0.000000000000e+00 0.000000000000e+00 0.000000000000e+00 0.000000000000e+00 0.000000000000e+00 0.000000000000e+00 0.000000000000e+00 0.000000000000e+00 
1  2  4  3  5  6  8  7  
9  1  3  10  11  5  7  12  
VARIABLES  = "X","Y","Z", "DISPLACEMENT_X1", "DISPLACEMENT_Y1", "DISPLACEMENT_Z1", "STRESS_XX", "STRESS_XY", "STRESS_YY", "STRESS_ZZ", "STRESS_XZ", "STRESS_YZ", "STRAIN_XX", "STRAIN_XY", "STRAIN_YY", "STRAIN_ZZ", "STRAIN_XZ", "STRAIN_YZ"
ZONE T="1.000000000000e+00s", N=12, E=2, F=FEPOINT, ET=BRICK
STRANDID=1, SOLUTIONTIME=1.000000000000e+00
6.666666666667e-01 0.000000000000e+00 0.000000000000e+00 -9.259259259627e-06 1.000000000000e-20 1.000000000000e-20 6.666666666577e+05 9.827578878013e-06 2.222222222379e+05 2.222222222121e+05 1.426479583845e-05 -9.732947765909e-07 2.222222222181e-05 9.827578878013e-16 8.170408467439e-16 -4.705826433007e-16 1.426479583845e-15 -9.732947765909e-17 
1.000000000000e+00 0.000000000000e+00 0.000000000000e+00 1.000000000000e-20 1.000000000000e-20 1.000000000000e-20 1.000000000033e+06 -5.594211703829e-07 3.333333333354e+05 3.333333333479e+05 7.043981977646e-07 5.051009158840e-07 3.333333333447e-05 -5.594211703829e-17 -3.880247799540e-16 2.339690022123e-16 7.043981977646e-17 5.051009158840e-17 
6.666666666667e-01 1.000000000000e-01 0.000000000000e+00 -9.259259259623e-06 1.000000000000e-20 1.000000000000e-20 6.666666666531e+05 -1.085925203704e-05 2.222222221992e+05 2.222222222255e+05 7.405889238692e-06 -9.732947765909e-07 2.222222222188e-05 -1.085925203704e-15 -8.170408467439e-16 4.960325698421e-16 7.405889238692e-16 -9.732947765909e-17 
1.000000000000e+00 1.000000000000e-01 0.000000000000e+00 1.000000000000e-20 1.000000000000e-20 1.000000000000e-20 1.000000000038e+06 -5.554467951048e-07 3.333333333549e+05 3.333333333428e+05 1.415574700142e-07 5.051009158840e-07 3.333333333454e-05 -5.554467951048e-17 3.880247799540e-16 -2.154192557618e-16 1.415574700142e-17 5.051009158840e-17 
6.666666666667e-01 0.000000000000e+00 1.000000000000e-01 -9.259259259657e-06 1.000000000000e-20 1.000000000000e-20 6.666666666520e+05 1.237652000595e-05 2.222222221905e+05 2.222222222224e+05 -2.004680019590e-05 -9.732947765909e-07 2.222222222195e-05 1.237652000595e-15 -1.122869142990e-15 4.705826433007e-16 -2.004680019590e-15 -9.732947765909e-17 
1.000000000000e+00 0.000000000000e+00 1.000000000000e-01 1.000000000000e-20 1.000000000000e-20 1.000000000000e-20 1.000000000035e+06 1.744380085563e-07 3.333333333587e+05 3.333333333427e+05 7.083799660586e-07 5.051009158840e-07 3.333333333440e-05 1.744380085563e-17 5.664643939041e-16 -2.339690022123e-16 7.083799660586e-17 5.051009158840e-17 
6.666666666667e-01 1.000000000000e-01 1.000000000000e-01 -9.259259259661e-06 1.000000000000e-20 1.000000000000e-20 6.666666666605e+05 -1.489914262887e-05 2.222222222468e+05 2.222222222144e+05 -1.282019589546e-05 -9.732947765909e-07 2.222222222181e-05 -1.489914262887e-15 1.122869142990e-15 -4.960325698421e-16 -1.282019589546e-15 -9.732947765909e-17 
1.000000000000e+00 1.000000000000e-01 1.000000000000e-01 1.000000000000e-20 1.000000000000e-20 1.000000000000e-20 1.000000000033e+06 1.782239307804e-07 3.333333333305e+05 3.333333333462e+05 1.454193091870e-07 5.051009158840e-07 3.333333333454e-05 1.782239307804e-17 -5.664643939041e-16 2.154192557618e-16 1.454193091870e-17 5.051009158840e-17 
3.333333333333e-01 0.000000000000e+00 0.000000000000e+00 -1.481481481458e-05 1.000000000000e-20 1.000000000000e-20 3.333333332798e+05 -1.404728898330e-06 1.111111110548e+05 1.111111111256e+05 -3.160768305347e-06 1.019189433576e-06 1.111111110939e-05 -1.404728898330e-16 -1.861331570393e-15 1.676528832845e-15 -3.160768305347e-16 1.019189433576e-16 
3.333333333333e-01 1.000000000000e-01 0.000000000000e+00 -1.481481481458e-05 1.000000000000e-20 1.000000000000e-20 3.333333332781e+05 1.705565106561e-06 1.111111111316e+05 1.111111110620e+05 -3.698043322911e-07 1.019189433576e-06 1.111111110919e-05 1.705565106561e-16 1.861331570393e-15 -1.615480563795e-15 -3.698043322911e-17 1.019189433576e-16 
3.333333333333e-01 0.000000000000e+00 1.000000000000e-01 -1.481481481456e-05 1.000000000000e-20 1.000000000000e-20 3.333333332813e+05 -4.138126772875e-06 1.111111111479e+05 1.111111110654e+05 2.630669178880e-06 1.019189433576e-06 1.111111110912e-05 -4.138126772875e-16 2.449867259823e-15 -1.676528832845e-15 2.630669178880e-16 1.019189433576e-16 
3.333333333333e-01 1.000000000000e-01 1.000000000000e-01 -1.481481481457e-05 1.000000000000e-20 1.000000000000e-20 3.333333332705e+05 2.494139987439e-06 1.111111110356e+05 1.111111111169e+05 4.193282321876e-06 1.019189433576e-06 1.111111110929e-05 2.494139987439e-16 -2.449867259823e-15 1.615480563795e-15 4.193282321876e-16 1.019189433576e-16 
1  2  4  3  5  6  8  7  
9  1  3  10  11  5  7  12  
