<!--Time step: 120 -->
<VTKFile type="PolyData" version="1.0" byte_order="LittleEndian" header_type="UInt64">
 <PolyData>
  <Piece NumberOfPoints="500" NumberOfVerts="500" NumberOfLines="0" NumberOfStrips="0" NumberOfPolys="0">
   <PointData Scalars ="identity" Vectors ="velocity">
    <DataArray type = "Int32" Name = "identity" format = "ascii " RangeMin = "0" RangeMax = "0"> 
0 0 0 0 0 0 
0 0 0 0 0 0 
0 0 0 0 0 0 
0 0 0 0 0 0 
0 0 0 0 0 0 
0 0 0 0 0 0 
0 0 0 0 0 0 
0 0 0 0 0 0 
0 0 0 0 0 0 
0 0 0 0 0 0 
0 0 0 0 0 0 
0 0 0 0 0 0 
0 0 0 0 0 0 
0 0 0 0 0 0 
0 0 0 0 0 0 
0 0 0 0 0 0 
0 0 0 0 0 0 
0 0 0 0 0 0 
0 0 0 0 0 0 
0 0 0 0 0 0 
0 0 0 0 0 0 
0 0 0 0 0 0 
0 0 0 0 0 0 
0 0 0 0 0 0 
0 0 0 0 0 0 
0 0 0 0 0 0 
0 0 0 0 0 0 
0 0 0 0 0 0 
0 0 0 0 0 0 
0 0 0 0 0 0 
0 0 0 0 0 0 
0 0 0 0 0 0 
0 0 0 0 0 0 
0 0 0 0 0 0 
0 0 0 0 0 0 
0 0 0 0 0 0 
0 0 0 0 0 0 
0 0 0 0 0 0 
0 0 0 0 0 0 
0 0 0 0 0 0 
0 0 0 0 0 0 
0 0 0 0 0 0 
0 0 0 0 0 0 
0 0 0 0 0 0 
0 0 0 0 0 0 
0 0 0 0 0 0 
0 0 0 0 0 0 
0 0 0 0 0 0 
0 0 0 0 0 0 
0 0 0 0 0 0 
0 0 0 0 0 0 
0 0 0 0 0 0 
0 0 0 0 0 0 
0 0 0 0 0 0 
0 0 0 0 0 0 
0 0 0 0 0 0 
0 0 0 0 0 0 
0 0 0 0 0 0 
0 0 0 0 0 0 
0 0 0 0 0 0 
0 0 0 0 0 0 
0 0 0 0 0 0 
0 0 0 0 0 0 
0 0 0 0 0 0 
0 0 0 0 0 0 
0 0 0 0 0 0 
0 0 0 0 0 0 
0 0 0 0 0 0 
0 0 0 0 0 0 
0 0 0 0 0 0 
0 0 0 0 0 0 
0 0 0 0 0 0 
0 0 0 0 0 0 
0 0 0 0 0 0 
0 0 0 0 0 0 
0 0 0 0 0 0 
0 0 0 0 0 0 
0 0 0 0 0 0 
0 0 0 0 0 0 
0 0 0 0 0 0 
0 0 0 0 0 0 
0 0 0 0 0 0 
0 0 0 0 0 0 
0 0 
    </DataArray>
    <DataArray type = "Int32" Name = "on_boundary" format = "ascii " RangeMin = "0.000000000000e+00" RangeMax = "5.704743322681e+01"> 
0 0 0 0 0 0 
0 0 0 0 0 0 
0 0 0 0 0 0 
0 0 0 0 0 0 
0 0 0 0 0 0 
0 0 0 0 0 0 
0 0 0 0 0 0 
0 0 0 0 0 0 
0 0 0 0 0 0 
0 0 0 0 0 0 
0 0 0 0 0 0 
0 0 0 0 0 0 
0 0 0 0 0 0 
0 0 0 0 0 0 
0 0 0 0 0 0 
0 0 0 0 0 0 
0 0 0 0 0 0 
0 0 0 0 0 0 
0 0 0 0 0 0 
0 0 0 0 0 0 
0 0 0 0 0 0 
0 0 0 0 0 0 
0 0 0 0 0 0 
0 0 0 0 0 0 
0 0 0 0 0 0 
0 0 0 0 0 0 
0 0 0 0 0 0 
0 0 0 0 0 0 
0 0 0 0 0 0 
0 0 0 0 0 0 
0 0 0 0 0 0 
0 0 0 0 0 0 
0 0 0 0 0 0 
0 0 0 0 0 0 
0 0 0 0 0 0 
0 0 0 0 0 0 
0 0 0 0 0 0 
0 0 0 0 0 0 
0 0 0 0 0 0 
0 0 0 0 0 0 
0 0 0 0 0 0 
0 0 0 0 0 0 
0 0 0 0 0 0 
0 0 0 0 0 0 
0 0 0 0 0 0 
0 0 0 0 0 0 
0 0 0 0 0 0 
0 0 0 0 0 0 
0 0 0 0 0 0 
0 0 0 0 0 0 
0 0 0 0 0 0 
0 0 0 0 0 0 
0 0 0 0 0 0 
0 0 0 0 0 0 
0 0 0 0 0 0 
0 0 0 0 0 0 
0 0 0 0 0 0 
0 0 0 0 0 0 
0 0 0 0 0 0 
0 0 0 0 0 0 
0 0 0 0 0 0 
0 0 0 0 0 0 
0 0 0 0 0 0 
0 0 0 0 0 0 
0 0 0 0 0 0 
0 0 0 0 0 0 
0 0 0 0 0 0 
0 0 0 0 0 0 
0 0 0 0 0 0 
0 0 0 0 0 0 
0 0 0 0 0 0 
0 0 0 0 0 0 
0 0 0 0 0 0 
0 0 0 0 0 0 
0 0 0 0 0 0 
0 0 0 0 0 0 
0 0 0 0 0 0 
0 0 0 0 0 0 
0 0 0 0 0 0 
0 0 0 0 0 0 
0 0 0 0 0 0 
0 0 0 0 0 0 
0 0 0 0 0 0 
0 0 
    </DataArray>
    <DataArray type = "Float64" Name = "velocity" NumberOfComponents="3" format = "ascii " RangeMin = "0.000000000000e+00" RangeMax = "1.926685045287e-07"> 
1.798867527239e-07 1.603943484090e-07 1.869391826554e-07 1.744470999982e-07 1.708963581108e-07 1.799230553906e-07 
1.846027902070e-07 1.679091208430e-07 1.842471641628e-07 1.851663919199e-07 1.695597398815e-07 1.859690241958e-07 
1.624206830192e-07 1.715997319017e-07 1.796922856905e-07 1.679782365354e-07 1.679207297355e-07 1.871156436987e-07 
1.773370596328e-07 1.789390909935e-07 1.861920887481e-07 1.772076119408e-07 1.710362992300e-07 1.788797302065e-07 
1.812743938288e-07 1.653403150235e-07 1.742388411716e-07 1.810820585433e-07 1.749975266338e-07 1.774365069331e-07 
1.707874028864e-07 1.801004888501e-07 1.861343964316e-07 1.698039393856e-07 1.869533892707e-07 1.684490276405e-07 
1.836608483767e-07 1.767926640071e-07 1.695899134579e-07 1.752352528665e-07 1.779837716427e-07 1.870903555140e-07 
1.780132601639e-07 1.707127683301e-07 1.783614708277e-07 1.640661211351e-07 1.850509510271e-07 1.912375655836e-07 
1.815294581289e-07 1.840863118048e-07 1.805522257723e-07 1.805616016387e-07 1.795153966866e-07 1.840400614891e-07 
1.754393365056e-07 1.742556551688e-07 1.802847323061e-07 1.782926481591e-07 1.789214989688e-07 1.854974095440e-07 
1.842015026582e-07 1.787156682544e-07 1.740230825027e-07 1.701816358651e-07 1.715555887826e-07 1.843395476985e-07 
1.766933116159e-07 1.706492565454e-07 1.788796641540e-07 1.864185184292e-07 1.782507787470e-07 1.743711982597e-07 
1.766581956255e-07 1.840048459543e-07 1.815232787858e-07 1.696649455505e-07 1.790586442426e-07 1.868376836715e-07 
1.759711283103e-07 1.700656972287e-07 1.789029332152e-07 1.779710116868e-07 1.795550157491e-07 1.862485390883e-07 
1.845231602418e-07 1.787943976204e-07 1.740079819018e-07 1.760142680953e-07 1.702763050342e-07 1.788025856135e-07 
1.786365107523e-07 1.790049145032e-07 1.852372808222e-07 1.878611566250e-07 1.626986284543e-07 1.819712554704e-07 
1.814274694635e-07 1.841414972293e-07 1.803671149270e-07 1.790484732897e-07 1.792715988605e-07 1.848544341448e-07 
1.716409345769e-07 1.737275949142e-07 1.836797867277e-07 1.755994304096e-07 1.835478422243e-07 1.811902869325e-07 
1.743293009191e-07 1.778374183625e-07 1.878386030807e-07 1.797621809840e-07 1.789708781345e-07 1.843378887462e-07 
1.784254288966e-07 1.707864274172e-07 1.783186501514e-07 1.629573461142e-07 1.718338484034e-07 1.836984169428e-07 
1.832691170106e-07 1.783486156169e-07 1.741694131899e-07 1.754153816841e-07 1.780909127064e-07 1.870587445783e-07 
1.762900180674e-07 1.840090256222e-07 1.817266565193e-07 1.787822177491e-07 1.706121268986e-07 1.780113026528e-07 
1.818579439529e-07 1.839928135508e-07 1.801283496673e-07 1.698405828146e-07 1.717115567955e-07 1.847580989292e-07 
1.850870942372e-07 1.830781172635e-07 1.784634457444e-07 1.773703485564e-07 1.839587496810e-07 1.811421401272e-07 
1.803370607447e-07 1.791841767533e-07 1.841950970753e-07 1.693172328209e-07 1.860209405718e-07 1.685924756076e-07 
1.737441355585e-07 1.740525641073e-07 1.809091285772e-07 1.779842173150e-07 1.690225769109e-07 1.777470514133e-07 
1.571137234149e-07 1.767662122264e-07 1.854261502258e-07 1.847553210547e-07 1.677900759580e-07 1.846695317587e-07 
1.751897716602e-07 1.658816652350e-07 1.776160173674e-07 1.707114995259e-07 1.796392253604e-07 1.863836986914e-07 
1.870293995191e-07 1.696713038490e-07 1.854499810245e-07 1.696859213422e-07 1.790687962764e-07 1.867762533135e-07 
1.767524089440e-07 1.710865653461e-07 1.791809873549e-07 1.839661029719e-07 1.790415437858e-07 1.738745198916e-07 
1.725740169993e-07 1.709721329617e-07 1.814972871066e-07 1.743996819432e-07 1.710621370428e-07 1.805446091436e-07 
1.701553300161e-07 1.794805204696e-07 1.865895774641e-07 1.780726636239e-07 1.789259143810e-07 1.855647917958e-07 
1.841150697547e-07 1.707028028699e-07 1.877943803759e-07 1.646262855841e-07 1.809980316873e-07 1.923749361149e-07 
1.787753767880e-07 1.816427024980e-07 1.817346762406e-07 1.736619058797e-07 1.828945778494e-07 1.809023252692e-07 
1.737884092951e-07 1.740488480056e-07 1.810624458635e-07 1.754228283091e-07 1.704931413775e-07 1.793735829139e-07 
1.645629483833e-07 1.845430910969e-07 1.919128379863e-07 1.760765727971e-07 1.743378028106e-07 1.797225547401e-07 
1.705619156578e-07 1.803855929611e-07 1.854005090851e-07 1.786299028878e-07 1.843733474740e-07 1.814502085925e-07 
1.836031721506e-07 1.670178332724e-07 1.838530749998e-07 1.715966835347e-07 1.711212299728e-07 1.826082694268e-07 
1.766005478453e-07 1.697326903269e-07 1.784138455951e-07 1.816307148649e-07 1.843968878633e-07 1.810363352319e-07 
1.863031684246e-07 1.694477265105e-07 1.847609647384e-07 1.747896902277e-07 1.710744226251e-07 1.797554627771e-07 
1.750050508199e-07 1.705582278871e-07 1.796161243130e-07 1.704188592013e-07 1.803400752612e-07 1.862352413284e-07 
1.751694935636e-07 1.832558425394e-07 1.808308370389e-07 1.747268683976e-07 1.702490838903e-07 1.797207288145e-07 
1.811158290146e-07 1.840437114541e-07 1.797533816599e-07 1.831927605839e-07 1.699736300919e-07 1.872816501079e-07 
1.715785160783e-07 1.765485942792e-07 1.890316032037e-07 1.789829739587e-07 1.842717057275e-07 1.808733715371e-07 
1.748398982279e-07 1.812894106564e-07 1.813320096779e-07 1.790277739330e-07 1.705129929617e-07 1.778845117533e-07 
1.823335892479e-07 1.839355181344e-07 1.799469883900e-07 1.786637587352e-07 1.787742881238e-07 1.848710773917e-07 
1.853246201209e-07 1.692587997015e-07 1.861381709355e-07 1.642522516406e-07 1.702443502483e-07 1.855345784445e-07 
1.802921266942e-07 1.633071440090e-07 1.743828867903e-07 1.698882250693e-07 1.792553311043e-07 1.868277335957e-07 
1.557796703511e-07 1.784137234943e-07 1.830795056059e-07 1.691305958589e-07 1.784453064043e-07 1.878635579497e-07 
1.781168812472e-07 1.709935061611e-07 1.786317360045e-07 1.767415167811e-07 1.645872692603e-07 1.906669982082e-07 
1.702422834972e-07 1.792599792652e-07 1.863593432102e-07 1.711139483553e-07 1.736671508081e-07 1.838491331239e-07 
1.841941729991e-07 1.672021139689e-07 1.851019825574e-07 1.710500229210e-07 1.715025685505e-07 1.829340126895e-07 
1.745704241600e-07 1.700544099987e-07 1.796534990529e-07 1.831782382406e-07 1.665682117467e-07 1.842275683747e-07 
1.778354307828e-07 1.745694569556e-07 1.788942782228e-07 1.848326581197e-07 1.771602750865e-07 1.704358786737e-07 
1.733932081138e-07 1.913426667135e-07 1.786023949603e-07 1.804995025287e-07 1.611206745932e-07 1.880440416041e-07 
1.700551869658e-07 1.715481943401e-07 1.843624849099e-07 1.693731443357e-07 1.783636423099e-07 1.878151788041e-07 
1.838792157807e-07 1.676021343439e-07 1.848950324065e-07 1.758825197109e-07 1.709457807696e-07 1.793645731063e-07 
1.755899826369e-07 1.701217410982e-07 1.791098119349e-07 1.711026909027e-07 1.712668859882e-07 1.831398779388e-07 
1.644668546957e-07 1.835897140959e-07 1.918304733344e-07 1.702097063602e-07 1.803944398707e-07 1.848466910957e-07 
1.801228042122e-07 1.847039206204e-07 1.815650928454e-07 1.844030514145e-07 1.685492182281e-07 1.851746149509e-07 
1.797635065054e-07 1.714259108925e-07 1.781718936939e-07 1.798424711366e-07 1.708231441261e-07 1.777472730955e-07 
1.772587880779e-07 1.681329017248e-07 1.776951314210e-07 1.698810993126e-07 1.801300961654e-07 1.842609140887e-07 
1.765017597221e-07 1.710224932494e-07 1.789330776696e-07 1.563517519514e-07 1.771357312910e-07 1.844708635381e-07 
1.847739114340e-07 1.779754214486e-07 1.743097866364e-07 1.794792814393e-07 1.747762423655e-07 1.779077972635e-07 
1.842536647298e-07 1.780874364034e-07 1.742812771562e-07 1.768401188888e-07 1.709248880748e-07 1.789992313930e-07 
1.838520279410e-07 1.835635169706e-07 1.794366231484e-07 1.787862680654e-07 1.791172073493e-07 1.852544453517e-07 
1.736823601983e-07 1.710669996448e-07 1.808005259376e-07 1.817944172968e-07 1.665087050967e-07 1.738452494078e-07 
1.795585876085e-07 1.713882654237e-07 1.781228878627e-07 1.897639756126e-07 1.643251237683e-07 1.823219469375e-07 
1.806217236757e-07 1.795819349196e-07 1.842114467460e-07 1.695257179913e-07 1.786458721584e-07 1.870625490450e-07 
1.699979985760e-07 1.802286133813e-07 1.861770763468e-07 1.758012905275e-07 1.836755614094e-07 1.813666002979e-07 
1.701464402640e-07 1.792979804292e-07 1.869194568572e-07 1.805129402982e-07 1.749183473089e-07 1.776436471640e-07 
1.570101953188e-07 1.766367596902e-07 1.851074171868e-07 1.841312784595e-07 1.670317300986e-07 1.849240793780e-07 
1.770167582292e-07 1.683778029795e-07 1.777412217528e-07 1.827863519948e-07 1.837893545382e-07 1.802822863224e-07 
1.763141863202e-07 1.710256573069e-07 1.793978879624e-07 1.815291489129e-07 1.660123912953e-07 1.738068458793e-07 
1.746326586865e-07 1.780379351043e-07 1.877501087935e-07 1.722299392041e-07 1.711297214928e-07 1.819241905396e-07 
1.791758237734e-07 1.699808099191e-07 1.777286621873e-07 1.697454087527e-07 1.793580008099e-07 1.874932892168e-07 
1.796709090298e-07 1.842595015210e-07 1.804411191416e-07 1.764495690470e-07 1.785328759626e-07 1.865650112934e-07 
1.747858304914e-07 1.710846478969e-07 1.801363028715e-07 1.816488202498e-07 1.782098855802e-07 1.741954233963e-07 
1.699975325907e-07 1.797422537904e-07 1.869838536184e-07 1.653614315607e-07 1.638489449002e-07 1.832409736236e-07 
1.776646888322e-07 1.709723488540e-07 1.786691308451e-07 1.821992872349e-07 1.841899700309e-07 1.797989786721e-07 
1.740741657972e-07 1.923354544721e-07 1.778850916196e-07 1.835539163747e-07 1.676040252755e-07 1.845763120409e-07 
1.691256840388e-07 1.777434569102e-07 1.878655512660e-07 1.844104509476e-07 1.832893525525e-07 1.795508554714e-07 
1.709533374860e-07 1.713273169597e-07 1.832736270665e-07 1.743048014309e-07 1.777365142462e-07 1.876707641647e-07 
1.697216537916e-07 1.786453180781e-07 1.874544294067e-07 1.819534585427e-07 1.656923162523e-07 1.742491328791e-07 
1.776730529063e-07 1.709172741799e-07 1.786368809567e-07 1.777382159927e-07 1.842224395482e-07 1.814377654031e-07 
1.812443285951e-07 1.842682199906e-07 1.807471534383e-07 1.757651826318e-07 1.838862538793e-07 1.816381256368e-07 
1.766652804472e-07 1.691650542016e-07 1.781820220950e-07 1.841475259341e-07 1.833640624975e-07 1.791119109277e-07 
1.740073022353e-07 1.774886577877e-07 1.877178477718e-07 1.772399323598e-07 1.705967067547e-07 1.787527337321e-07 
1.832673113204e-07 1.838443586886e-07 1.791306608346e-07 1.737090012578e-07 1.826636872656e-07 1.805292058201e-07 
1.793391650626e-07 1.713573461544e-07 1.782510844479e-07 1.797084959692e-07 1.790125262582e-07 1.844254219254e-07 
1.702256100345e-07 1.797834803927e-07 1.861788756595e-07 1.690657217294e-07 1.781586226584e-07 1.880197121968e-07 
1.876529042077e-07 1.628481992766e-07 1.820327853425e-07 1.700267879056e-07 1.801369068381e-07 1.860388332596e-07 
1.638149920581e-07 1.722921123924e-07 1.885458945465e-07 1.794255701977e-07 1.795590601208e-07 1.849609739045e-07 
1.786480934265e-07 1.841759246214e-07 1.810354681671e-07 1.748974274590e-07 1.741945315057e-07 1.802269351497e-07 
1.689238139204e-07 1.777943922601e-07 1.883017325709e-07 1.559997512636e-07 1.775934473791e-07 1.840507051918e-07 
1.763142967182e-07 1.743678169130e-07 1.794011275151e-07 1.830262995220e-07 1.839144539630e-07 1.790743964433e-07 
1.704032548371e-07 1.864392537525e-07 1.689258161797e-07 1.777964563459e-07 1.838707029873e-07 1.808425299175e-07 
1.787886774455e-07 1.838750422214e-07 1.806905484987e-07 1.698849031869e-07 1.796444687376e-07 1.861681187782e-07 
1.819598163588e-07 1.841057157871e-07 1.801322627570e-07 1.784886629542e-07 1.795847130717e-07 1.857997245546e-07 
1.778128977715e-07 1.745647234617e-07 1.783699605175e-07 1.565172993280e-07 1.772681180222e-07 1.847118805142e-07 
1.714461287284e-07 1.799250918813e-07 1.848799145520e-07 1.709336398873e-07 1.714916915074e-07 1.835773030937e-07 
1.704849041184e-07 1.795195668382e-07 1.871520754070e-07 1.757353452655e-07 1.742952275725e-07 1.799234750053e-07 
1.732932886104e-07 1.588916911173e-07 1.838197461292e-07 1.909019582935e-07 1.653131654380e-07 1.824997629604e-07 
1.695731180091e-07 1.782300464685e-07 1.875189250165e-07 1.755180763651e-07 1.706151050072e-07 1.793054697225e-07 
1.851778265345e-07 1.700235229037e-07 1.864547757290e-07 1.837514994029e-07 1.793072480046e-07 1.737011162730e-07 
1.700356919623e-07 1.790677153586e-07 1.868759643859e-07 1.701397447440e-07 1.795030799488e-07 1.857419696137e-07 
1.691743361427e-07 1.856603566107e-07 1.684844141606e-07 1.763320703889e-07 1.710331456606e-07 1.792729213652e-07 
1.882674102772e-07 1.768791710656e-07 1.737988083985e-07 1.700109253804e-07 1.800543132591e-07 1.867249755983e-07 
1.831225200805e-07 1.785263708996e-07 1.740858651060e-07 1.702772981958e-07 1.795305859992e-07 1.868289463308e-07 
1.776231889235e-07 1.788335373073e-07 1.858351652606e-07 1.704830988120e-07 1.715618541449e-07 1.838292984806e-07 
1.746166462294e-07 1.705378802725e-07 1.798453365096e-07 1.705507559548e-07 1.802441621288e-07 1.869096501440e-07 
1.798362237967e-07 1.638215134645e-07 1.744049353819e-07 1.779811089863e-07 1.712063976663e-07 1.786296797746e-07 
1.910176727440e-07 1.647696706002e-07 1.826692448685e-07 1.560837708796e-07 1.778678490939e-07 1.836709316700e-07 
1.774570757246e-07 1.709764410782e-07 1.788538599904e-07 1.798046562373e-07 1.789215641722e-07 1.842179285297e-07 
1.696235180884e-07 1.782628505613e-07 1.873153237852e-07 1.784147837916e-07 1.619745426038e-07 1.747105446655e-07 
1.743165174809e-07 1.926685045287e-07 1.772010623777e-07 1.766985766160e-07 1.702257058380e-07 1.784791362728e-07 
1.770293050789e-07 1.787845965043e-07 1.863035591176e-07 1.743989857803e-07 1.779262573827e-07 1.878375425808e-07 
1.694230849908e-07 1.782768632619e-07 1.876871275447e-07 1.853476028847e-07 1.830682443617e-07 1.780613541570e-07 
1.770200307969e-07 1.710270943072e-07 1.787955494819e-07 1.764118349175e-07 1.743939599200e-07 1.791017022388e-07 
1.778990133857e-07 1.789828964223e-07 1.858152054992e-07 1.858691330911e-07 1.794292046186e-07 1.926240400698e-07 
1.777042925374e-07 1.788452474112e-07 1.858953770731e-07 1.770730976167e-07 1.704795171345e-07 1.787707361917e-07 
1.845880036119e-07 1.681586044702e-07 1.846160557833e-07 1.686867941453e-07 1.718723435856e-07 1.862717376269e-07 
1.792010668661e-07 1.711583573395e-07 1.782529382743e-07 1.700393776426e-07 1.797501337500e-07 1.866363624598e-07 
1.825910690753e-07 1.781661223317e-07 1.741528040417e-07 1.766354404101e-07 1.712520885322e-07 1.795040900671e-07 
1.780899039803e-07 1.708140133219e-07 1.783246644770e-07 1.721492315374e-07 1.709805718527e-07 1.819308136472e-07 
1.738475235046e-07 1.920319837089e-07 1.784610174955e-07 1.814570681074e-07 1.651449364567e-07 1.740969567255e-07 
1.826409274755e-07 1.840540024242e-07 1.800510609912e-07 1.791607530970e-07 1.794635131908e-07 1.852981679695e-07 
1.758387861561e-07 1.711040854880e-07 1.794406421827e-07 1.825787080551e-07 1.669258821398e-07 1.739269785210e-07 
1.853648954622e-07 1.765386130351e-07 1.708436888250e-07 1.747600215450e-07 1.926200064333e-07 1.781628542478e-07 
1.564406729059e-07 1.768972349924e-07 1.846116685179e-07 1.724285398482e-07 1.738469369250e-07 1.827315788583e-07 
1.849479809596e-07 1.683165291052e-07 1.850520039396e-07 1.891354651285e-07 1.623938754291e-07 1.821501605865e-07 
1.856546515044e-07 1.790445173996e-07 1.739717773253e-07 1.765350367773e-07 1.709310991913e-07 1.791202898222e-07 
1.699817189690e-07 1.790117015445e-07 1.873853522483e-07 1.698116962630e-07 1.717079604540e-07 1.848627913329e-07 
1.773378447499e-07 1.705493677776e-07 1.786615715343e-07 1.783900647680e-07 1.713196848449e-07 1.785774391277e-07 
1.924847614894e-07 1.661106722741e-07 1.827470525957e-07 1.693530389481e-07 1.785326001916e-07 1.878121028022e-07 
1.700692942176e-07 1.799853992884e-07 1.864238490335e-07 1.769283448590e-07 1.704525069869e-07 1.787549877533e-07 
1.768989958229e-07 1.696620239907e-07 1.783489698958e-07 1.701608767640e-07 1.790177390230e-07 1.868927546571e-07 
1.770634936504e-07 1.711695270086e-07 1.790934141583e-07 1.800073313597e-07 1.637433766600e-07 1.744005327479e-07 
1.664603856497e-07 1.750599070498e-07 1.901891887700e-07 1.823492085612e-07 1.789033477278e-07 1.824376649408e-07 
1.825851631076e-07 1.781430584141e-07 1.741999039556e-07 1.697762889626e-07 1.802073209737e-07 1.849967376304e-07 
1.847918056761e-07 1.692022951264e-07 1.858501044452e-07 1.782028674688e-07 1.845599880318e-07 1.819711027789e-07 
1.773775698623e-07 1.791126441664e-07 1.862934739291e-07 1.705776029299e-07 1.795639835240e-07 1.869132877263e-07 
1.564865274941e-07 1.769594433210e-07 1.846906304828e-07 1.702964423512e-07 1.801186622640e-07 1.865679582024e-07 
1.740824409397e-07 1.740754679565e-07 1.812547242364e-07 1.700034551957e-07 1.795667529766e-07 1.863058425815e-07 
1.737554932705e-07 1.709879000583e-07 1.808182421922e-07 1.823814190983e-07 1.785018580406e-07 1.740798034583e-07 
1.783529542736e-07 1.706575264201e-07 1.781972036390e-07 1.913317252695e-07 1.655063861057e-07 1.825867521387e-07 
1.773212565121e-07 1.711197797121e-07 1.786335951428e-07 1.832908567917e-07 1.838925358364e-07 1.793279500325e-07 
1.837085680976e-07 1.835979735380e-07 1.792949100464e-07 1.784126557633e-07 1.840948138020e-07 1.810911749251e-07 
1.553110491784e-07 1.783528198041e-07 1.833433947099e-07 1.701653977581e-07 1.735108593379e-07 1.852011691425e-07 
1.704379893336e-07 1.797438726968e-07 1.874992831864e-07 1.771847567360e-07 1.788624246768e-07 1.861660860575e-07 
1.655805029346e-07 1.731211347987e-07 1.884101460026e-07 1.844021861071e-07 1.680362841608e-07 1.846831448773e-07 
1.799383088005e-07 1.790556822692e-07 1.843541134812e-07 1.643037970616e-07 1.852086233701e-07 1.915492245642e-07 
1.751069678128e-07 1.781187395660e-07 1.873334578611e-07 1.704272866967e-07 1.801502669646e-07 1.860828330777e-07 
1.753954548539e-07 1.706091930703e-07 1.795432628076e-07 1.836743497564e-07 1.681261211173e-07 1.857434985973e-07 
1.777068641149e-07 1.797873379348e-07 1.867108122564e-07 1.703613698573e-07 1.790267994966e-07 1.868586188832e-07 
1.739955034791e-07 1.921025663202e-07 1.788511344463e-07 1.840825917998e-07 1.795347114156e-07 1.736581026531e-07 
1.697813788822e-07 1.716664791521e-07 1.848139525012e-07 1.750354156986e-07 1.833812188619e-07 1.811222678885e-07 
1.700713703939e-07 1.788028771416e-07 1.871334018951e-07 1.774787780867e-07 1.745264161437e-07 1.789804078112e-07 
1.731123181357e-07 1.739398711078e-07 1.821762214028e-07 1.796031257986e-07 1.844202814234e-07 1.813941758942e-07 
1.783908709818e-07 1.705898236200e-07 1.782831821200e-07 1.556957503735e-07 1.781039106065e-07 1.833739614242e-07 
1.769824822011e-07 1.704222292207e-07 1.787794401202e-07 1.664893952562e-07 1.734734823692e-07 1.860243870443e-07 
1.775733431125e-07 1.790790046123e-07 1.860383211891e-07 1.805700279926e-07 1.842802901098e-07 1.810644647434e-07 
1.803058194958e-07 1.709331215438e-07 1.886995489172e-07 1.712395810446e-07 1.796224352964e-07 1.852056038046e-07 
1.604166457036e-07 1.746787489121e-07 1.886393563703e-07 1.745720086850e-07 1.692063289829e-07 1.789921398962e-07 
1.856570882287e-07 1.787647725490e-07 1.741074201163e-07 1.772947772435e-07 1.709007313870e-07 1.789499844517e-07 
1.628898007516e-07 1.717799874236e-07 1.836575156601e-07 1.632613818009e-07 1.707502822158e-07 1.870731498934e-07 
1.836714719169e-07 1.671923011835e-07 1.838412074277e-07 1.682321092418e-07 1.676669240004e-07 1.867149783812e-07 
1.699935235982e-07 1.716959920695e-07 1.843621092588e-07 1.562350037135e-07 1.775164757178e-07 1.840369972995e-07 
1.756799775586e-07 1.708253365857e-07 1.792269507441e-07 1.836501506589e-07 1.671811595337e-07 1.843600812321e-07 
1.745935078472e-07 1.833186037664e-07 1.812405591405e-07 1.729072783316e-07 1.770366318939e-07 1.882552999151e-07 
1.831176106665e-07 1.782966857825e-07 1.741008299385e-07 1.744496491019e-07 1.711735646233e-07 1.805087642384e-07 
1.709048177595e-07 1.715244217640e-07 1.838071611381e-07 1.839899353008e-07 1.674577668240e-07 1.852098181405e-07 
1.706758381027e-07 1.799633496929e-07 1.855793734128e-07 1.701103474502e-07 1.715582038292e-07 1.845063985275e-07 
1.865700988053e-07 1.782128717503e-07 1.743613149255e-07 1.821622896636e-07 1.784799553604e-07 1.740891411271e-07 
1.649178883358e-07 1.713760704831e-07 1.868483664320e-07 1.777115176162e-07 1.704672166348e-07 1.783909399674e-07 
1.748242748791e-07 1.741840371011e-07 1.804753242059e-07 1.693994948300e-07 1.780936461355e-07 1.876555342621e-07 
1.825398677198e-07 1.795484692015e-07 1.792405303422e-07 1.697583057474e-07 1.789579156709e-07 1.870238614814e-07 
1.739402062481e-07 1.710138219125e-07 1.807356745825e-07 1.754121734326e-07 1.704799656984e-07 1.794984730763e-07 
1.830109175089e-07 1.670309769459e-07 1.742255721188e-07 1.693610233096e-07 1.802793811401e-07 1.844199004768e-07 
1.750044813009e-07 1.711143945950e-07 1.798906753045e-07 1.709084172530e-07 1.790973220286e-07 1.859259074511e-07 
1.793603371091e-07 1.842150136852e-07 1.804643113256e-07 1.833799723821e-07 1.839945000111e-07 1.786045429871e-07 
1.815297890373e-07 1.655773765419e-07 1.742488578239e-07 1.770237765705e-07 1.840066487119e-07 1.815096532152e-07 
1.857856993947e-07 1.765952232001e-07 1.709594347356e-07 1.807992756788e-07 1.842772735728e-07 1.809036350082e-07 
1.762202955143e-07 1.837408984910e-07 1.813632555114e-07 1.689296547076e-07 1.801341679942e-07 1.840471371693e-07 
1.659189715522e-07 1.732650900814e-07 1.874873108352e-07 1.844259761685e-07 1.683096988900e-07 1.742940940520e-07 
1.814632215570e-07 1.843528250823e-07 1.811729293700e-07 1.825731278910e-07 1.839792137579e-07 1.794834327801e-07 
1.792954278329e-07 1.794962417752e-07 1.852584317217e-07 1.771461319196e-07 1.701318958114e-07 1.783950981497e-07 
1.767398762253e-07 1.708278927697e-07 1.790003470569e-07 1.703406924167e-07 1.808541716906e-07 1.864154383995e-07 
1.839890619394e-07 1.760468551298e-07 1.698930948070e-07 1.750528235107e-07 1.831386546429e-07 1.806837560631e-07 
1.880148956741e-07 1.631882013533e-07 1.821139428364e-07 1.772969795916e-07 1.705358160541e-07 1.785312084209e-07 
1.704336023943e-07 1.803864346842e-07 1.865330895509e-07 1.686955967819e-07 1.670934350447e-07 1.860584904741e-07 
1.726749509561e-07 1.712258245842e-07 1.815703494708e-07 1.569528038834e-07 1.766342942971e-07 1.851395695390e-07 
1.830619287981e-07 1.751588057082e-07 1.692620210143e-07 1.667161915311e-07 1.696579199802e-07 1.885631598765e-07 
1.625139374476e-07 1.585222418713e-07 1.867952615997e-07 1.754980717232e-07 1.699862111040e-07 1.788761328917e-07 
1.753261546474e-07 1.694277283776e-07 1.786627993680e-07 1.833201233008e-07 1.798741497195e-07 1.795404484135e-07 
1.844952285046e-07 1.698837790523e-07 1.866667469547e-07 1.723503033274e-07 1.713222991308e-07 1.820847392690e-07 
1.796503215376e-07 1.842957937634e-07 1.804397635460e-07 1.733076897165e-07 1.739865670845e-07 1.816272097511e-07 
1.745031351039e-07 1.703621857759e-07 1.798003634944e-07 1.706896946137e-07 1.796500297361e-07 1.866314260934e-07 
1.696602081896e-07 1.781976230104e-07 1.871520054296e-07 1.816173604370e-07 1.660407224755e-07 1.838504604629e-07 
1.838918800992e-07 1.683121748839e-07 1.852340642050e-07 1.773285459283e-07 1.700839606750e-07 1.783209238408e-07 
1.776649322274e-07 1.841241762573e-07 1.815116440761e-07 1.658084848426e-07 1.732122897196e-07 1.878065725920e-07 
1.709707503468e-07 1.890646614968e-07 1.786597854146e-07 1.791180844409e-07 1.844626471829e-07 1.815370730721e-07 
1.694827654421e-07 1.717797375533e-07 1.852341523510e-07 1.692825334691e-07 1.777685385752e-07 1.875370408691e-07 
1.760091377172e-07 1.835084589143e-07 1.810412239951e-07 1.691422183662e-07 1.663821283934e-07 1.856179321051e-07 
1.815641956427e-07 1.719602372352e-07 1.776593175963e-07 1.758876486684e-07 1.783838013228e-07 1.869191627408e-07 
1.908894164308e-07 1.654081681966e-07 1.823731211971e-07 1.733931961664e-07 1.739830940189e-07 1.819110198335e-07 
1.811475359565e-07 1.792733578049e-07 1.836828887343e-07 1.703398692822e-07 1.792007013785e-07 1.864963974016e-07 
1.724320511156e-07 1.912155951465e-07 1.780810545000e-07 1.750557381650e-07 1.779113744644e-07 1.871950748583e-07 
1.831824487046e-07 1.840165222170e-07 1.797156329225e-07 1.811872576554e-07 1.750233166620e-07 1.775864053729e-07 
1.567088397650e-07 1.770917291689e-07 1.851756914309e-07 1.708450863553e-07 1.794148691745e-07 1.856049246620e-07 
1.699052613574e-07 1.791087961856e-07 1.870576571166e-07 1.793674926668e-07 1.789905511071e-07 1.845250557416e-07 
1.782013038244e-07 1.709317060564e-07 1.785497715641e-07 1.734341450017e-07 1.712054303596e-07 1.811804391154e-07 
1.826758500048e-07 1.787236767873e-07 1.740020496181e-07 1.824907549069e-07 1.751912310762e-07 1.770804163754e-07 
1.692706082878e-07 1.782752144107e-07 1.875131428061e-07 1.847297088238e-07 1.680843791388e-07 1.851772040577e-07 
1.873657853894e-07 1.700351861032e-07 1.847695781391e-07 1.763834992533e-07 1.837822863449e-07 1.812487511324e-07 
1.642342506156e-07 1.843156618449e-07 1.913699157695e-07 1.756507568644e-07 1.697057036720e-07 1.788026515824e-07 
1.769596036842e-07 1.842282869046e-07 1.818752738301e-07 1.786346458517e-07 1.843928171297e-07 1.812907660390e-07 
1.796610667633e-07 1.841672368062e-07 1.804835858973e-07 1.753489841190e-07 1.742428831634e-07 1.803050037760e-07 
1.701495016770e-07 1.802432150540e-07 1.867780797318e-07 1.902293740272e-07 1.647099377615e-07 1.824992379320e-07 
1.792061740455e-07 1.602490054143e-07 1.861598618292e-07 1.789276163074e-07 1.713995083678e-07 1.783893016182e-07 
1.855557988772e-07 1.688801866873e-07 1.846089716161e-07 1.770042411998e-07 1.786370122430e-07 1.862308595624e-07 
1.824074117221e-07 1.841552051088e-07 1.799534431310e-07 1.741723132534e-07 1.740883198283e-07 1.811093270311e-07 
1.819143719186e-07 1.840050190288e-07 1.804602408359e-07 1.793894663649e-07 1.747623024639e-07 1.778512129200e-07 
1.564472140932e-07 1.773208971391e-07 1.845978149609e-07 1.880709506330e-07 1.634813540383e-07 1.817299227819e-07 
1.782244493243e-07 1.844933838434e-07 1.817378580665e-07 1.736176054792e-07 1.710891857644e-07 1.810213496652e-07 
1.731392348269e-07 1.709690955373e-07 1.812414523587e-07 1.744965309766e-07 1.711215367141e-07 1.801564156664e-07 
1.707006954502e-07 1.736051031777e-07 1.843786978189e-07 1.867108566631e-07 1.696179812638e-07 1.849412609002e-07 
1.751606096013e-07 1.812514180178e-07 1.812911377933e-07 1.814368940690e-07 1.655565193565e-07 1.742078135236e-07 
1.702295314742e-07 1.787466046334e-07 1.868027397853e-07 1.859633151862e-07 1.690995408303e-07 1.857871361856e-07 
1.902217560161e-07 1.650442507816e-07 1.820681005515e-07 1.841055113261e-07 1.782450947723e-07 1.741338038785e-07 
1.705656469159e-07 1.795231784397e-07 1.864295469370e-07 1.796262408457e-07 1.797657339835e-07 1.852559293876e-07 
1.821801232809e-07 1.706272161140e-07 1.880222854859e-07 1.798874076182e-07 1.631177773882e-07 1.742675883808e-07 
1.711845253862e-07 1.801150148715e-07 1.862781108267e-07 1.693435677197e-07 1.806211052065e-07 1.845576939084e-07 
1.788512756905e-07 1.711920727651e-07 1.783891585210e-07 1.810038939770e-07 1.645176899891e-07 1.742902609249e-07 
1.780596903355e-07 1.709518771572e-07 1.786006359706e-07 1.836719276963e-07 1.669690473666e-07 1.848422537055e-07 