<?xml version="1.0"?>
<!-- Time step: 120 | Time: 1.036800000000e+08 -->
<VTKFile type="UnstructuredGrid" version="0.1" byte_order="LittleEndian">
  <UnstructuredGrid>
    <Piece NumberOfPoints="1266" NumberOfCells="5963">
      <Points>
        <DataArray type="Float64" NumberOfComponents="3" format="ascii">
          0.000000000000e+00 0.000000000000e+00 0.000000000000e+00
          1.000000000000e+02 0.000000000000e+00 0.000000000000e+00
          1.000000000000e+02 1.000000000000e+02 0.000000000000e+00
          0.000000000000e+00 1.000000000000e+02 0.000000000000e+00
          0.000000000000e+00 1.000000000000e+02 1.000000000000e+02
          1.000000000000e+02 1.000000000000e+02 1.000000000000e+02
          1.000000000000e+02 0.000000000000e+00 1.000000000000e+02
          0.000000000000e+00 0.000000000000e+00 1.000000000000e+02
          1.111111111106e+01 1.000000000000e+02 0.000000000000e+00
          2.222222222212e+01 1.000000000000e+02 0.000000000000e+00
          3.333333333320e+01 1.000000000000e+02 0.000000000000e+00
          4.444444444427e+01 1.000000000000e+02 0.000000000000e+00
          5.555555555537e+01 1.000000000000e+02 0.000000000000e+00
          6.666666666651e+01 1.000000000000e+02 0.000000000000e+00
          7.777777777765e+01 1.000000000000e+02 0.000000000000e+00
          8.888888888883e+01 1.000000000000e+02 0.000000000000e+00
          1.000000000000e+02 8.888888888897e+01 0.000000000000e+00
          1.000000000000e+02 7.777777777794e+01 0.000000000000e+00
          1.000000000000e+02 6.666666666687e+01 0.000000000000e+00
          1.000000000000e+02 5.555555555580e+01 0.000000000000e+00
          1.000000000000e+02 4.444444444469e+01 0.000000000000e+00
          1.000000000000e+02 3.333333333354e+01 0.000000000000e+00
          1.000000000000e+02 2.222222222238e+01 0.000000000000e+00
          1.000000000000e+02 1.111111111119e+01 0.000000000000e+00
          8.888888888897e+01 0.000000000000e+00 0.000000000000e+00
          7.777777777794e+01 0.000000000000e+00 0.000000000000e+00
          6.666666666687e+01 0.000000000000e+00 0.000000000000e+00
          5.555555555580e+01 0.000000000000e+00 0.000000000000e+00
          4.444444444469e+01 0.000000000000e+00 0.000000000000e+00
          3.333333333354e+01 0.000000000000e+00 0.000000000000e+00
          2.222222222238e+01 0.000000000000e+00 0.000000000000e+00
          1.111111111119e+01 0.000000000000e+00 0.000000000000e+00
          0.000000000000e+00 1.111111111106e+01 0.000000000000e+00
          0.000000000000e+00 2.222222222212e+01 0.000000000000e+00
          0.000000000000e+00 3.333333333320e+01 0.000000000000e+00
          0.000000000000e+00 4.444444444427e+01 0.000000000000e+00
          0.000000000000e+00 5.555555555537e+01 0.000000000000e+00
          0.000000000000e+00 6.666666666651e+01 0.000000000000e+00
          0.000000000000e+00 7.777777777765e+01 0.000000000000e+00
          0.000000000000e+00 8.888888888883e+01 0.000000000000e+00
          1.111111111106e+01 1.000000000000e+02 1.000000000000e+02
          2.222222222212e+01 1.000000000000e+02 1.000000000000e+02
          3.333333333320e+01 1.000000000000e+02 1.000000000000e+02
          4.444444444427e+01 1.000000000000e+02 1.000000000000e+02
          5.555555555537e+01 1.000000000000e+02 1.000000000000e+02
          6.666666666651e+01 1.000000000000e+02 1.000000000000e+02
          7.777777777765e+01 1.000000000000e+02 1.000000000000e+02
          8.888888888883e+01 1.000000000000e+02 1.000000000000e+02
          1.000000000000e+02 8.888888888897e+01 1.000000000000e+02
          1.000000000000e+02 7.777777777794e+01 1.000000000000e+02
          1.000000000000e+02 6.666666666687e+01 1.000000000000e+02
          1.000000000000e+02 5.555555555580e+01 1.000000000000e+02
          1.000000000000e+02 4.444444444469e+01 1.000000000000e+02
          1.000000000000e+02 3.333333333354e+01 1.000000000000e+02
          1.000000000000e+02 2.222222222238e+01 1.000000000000e+02
          1.000000000000e+02 1.111111111119e+01 1.000000000000e+02
          8.888888888897e+01 0.000000000000e+00 1.000000000000e+02
          7.777777777794e+01 0.000000000000e+00 1.000000000000e+02
          6.666666666687e+01 0.000000000000e+00 1.000000000000e+02
          5.555555555580e+01 0.000000000000e+00 1.000000000000e+02
          4.444444444469e+01 0.000000000000e+00 1.000000000000e+02
          3.333333333354e+01 0.000000000000e+00 1.000000000000e+02
          2.222222222238e+01 0.000000000000e+00 1.000000000000e+02
          1.111111111119e+01 0.000000000000e+00 1.000000000000e+02
          0.000000000000e+00 1.111111111106e+01 1.000000000000e+02
          0.000000000000e+00 2.222222222212e+01 1.000000000000e+02
          0.000000000000e+00 3.333333333320e+01 1.000000000000e+02
          0.000000000000e+00 4.444444444427e+01 1.000000000000e+02
          0.000000000000e+00 5.555555555537e+01 1.000000000000e+02
          0.000000000000e+00 6.666666666651e+01 1.000000000000e+02
          0.000000000000e+00 7.777777777765e+01 1.000000000000e+02
          0.000000000000e+00 8.888888888883e+01 1.000000000000e+02
          0.000000000000e+00 1.000000000000e+02 1.111111111106e+01
          0.000000000000e+00 1.000000000000e+02 2.222222222212e+01
          0.000000000000e+00 1.000000000000e+02 3.333333333320e+01
          0.000000000000e+00 1.000000000000e+02 4.444444444427e+01
          0.000000000000e+00 1.000000000000e+02 5.555555555537e+01
          0.000000000000e+00 1.000000000000e+02 6.666666666651e+01
          0.000000000000e+00 1.000000000000e+02 7.777777777765e+01
          0.000000000000e+00 1.000000000000e+02 8.888888888883e+01
          1.000000000000e+02 1.000000000000e+02 1.111111111106e+01
          1.000000000000e+02 1.000000000000e+02 2.222222222212e+01
          1.000000000000e+02 1.000000000000e+02 3.333333333320e+01
          1.000000000000e+02 1.000000000000e+02 4.444444444427e+01
          1.000000000000e+02 1.000000000000e+02 5.555555555537e+01
          1.000000000000e+02 1.000000000000e+02 6.666666666651e+01
          1.000000000000e+02 1.000000000000e+02 7.777777777765e+01
          1.000000000000e+02 1.000000000000e+02 8.888888888883e+01
          1.000000000000e+02 0.000000000000e+00 1.111111111106e+01
          1.000000000000e+02 0.000000000000e+00 2.222222222212e+01
          1.000000000000e+02 0.000000000000e+00 3.333333333320e+01
          1.000000000000e+02 0.000000000000e+00 4.444444444427e+01
          1.000000000000e+02 0.000000000000e+00 5.555555555537e+01
          1.000000000000e+02 0.000000000000e+00 6.666666666651e+01
          1.000000000000e+02 0.000000000000e+00 7.777777777765e+01
          1.000000000000e+02 0.000000000000e+00 8.888888888883e+01
          0.000000000000e+00 0.000000000000e+00 1.111111111106e+01
          0.000000000000e+00 0.000000000000e+00 2.222222222212e+01
          0.000000000000e+00 0.000000000000e+00 3.333333333320e+01
          0.000000000000e+00 0.000000000000e+00 4.444444444427e+01
          0.000000000000e+00 0.000000000000e+00 5.555555555537e+01
          0.000000000000e+00 0.000000000000e+00 6.666666666651e+01
          0.000000000000e+00 0.000000000000e+00 7.777777777765e+01
          0.000000000000e+00 0.000000000000e+00 8.888888888883e+01
          5.972450389358e+01 5.926588690043e+01 0.000000000000e+00
          2.088626712144e+01 7.016502048604e+01 0.000000000000e+00
          8.254583870360e+01 7.466289679013e+01 0.000000000000e+00
          6.909235246993e+01 1.825446745136e+01 0.000000000000e+00
          1.606706646292e+01 9.230869923411e+01 0.000000000000e+00
          8.094958735630e+01 1.288644198869e+01 0.000000000000e+00
          4.944636406688e+01 2.684338343643e+01 0.000000000000e+00
          5.623350872403e+01 7.870115704183e+01 0.000000000000e+00
          4.329323963657e+01 4.644108473743e+01 0.000000000000e+00
          4.041549052266e+01 6.615753266278e+01 0.000000000000e+00
          6.516957939864e+01 4.081982933660e+01 0.000000000000e+00
          8.563501255860e+01 3.429953625468e+01 0.000000000000e+00
          5.311460899389e+01 1.447037716446e+01 0.000000000000e+00
          1.127246287801e+01 6.084192116848e+01 0.000000000000e+00
          8.915493002185e+01 2.335515947183e+01 0.000000000000e+00
          7.394684926206e+01 7.344972703236e+01 0.000000000000e+00
          3.226849252942e+01 8.423663649433e+01 0.000000000000e+00
          1.148380667910e+01 7.346553533214e+01 0.000000000000e+00
          6.968904048703e+01 9.144313763763e+01 0.000000000000e+00
          6.155727522621e+01 9.587306770864e+00 0.000000000000e+00
          9.210429382256e+01 1.247518231117e+01 0.000000000000e+00
          1.547380559855e+01 1.010547412439e+01 0.000000000000e+00
          8.779254543699e+00 8.467479040449e+01 0.000000000000e+00
          9.056540731776e+01 8.128053614282e+01 0.000000000000e+00
          2.075815589967e+01 8.234700969929e+01 0.000000000000e+00
          5.675713868719e+01 6.922394791826e+01 0.000000000000e+00
          4.512446167379e+01 8.360205177447e+01 0.000000000000e+00
          4.308392138833e+01 2.091739116723e+01 0.000000000000e+00
          7.012178347756e+01 5.753621427371e+01 0.000000000000e+00
          4.289062983740e+01 1.195148649998e+01 0.000000000000e+00
          3.685371198137e+01 2.907200866676e+01 0.000000000000e+00
          5.970181510844e+01 2.393471151025e+01 0.000000000000e+00
          7.290016107361e+01 4.782543021411e+01 0.000000000000e+00
          3.745795405733e+01 7.563399187031e+01 0.000000000000e+00
          4.991290681920e+01 6.285175530851e+01 0.000000000000e+00
          5.500499009499e+01 4.349909440388e+01 0.000000000000e+00
          5.741300731456e+01 3.395877240255e+01 0.000000000000e+00
          4.724046210050e+01 7.269898498582e+01 0.000000000000e+00
          4.424703619441e+01 5.746130674926e+01 0.000000000000e+00
          6.481660657681e+01 7.378769339917e+01 0.000000000000e+00
[...]
      <PointData Scalars="HEAD">
        <DataArray type="Float64" Name="HEAD" format="ascii">
          1.000000000000e+00 5.148675771092e-01 5.080797291203e-01 5.148255410011e-01 5.081123073928e-01 0.000000000000e+00 5.081319715847e-01 5.147928810696e-01 5.145799603603e-01 5.140003124498e-01 5.131298155539e-01 5.120552032535e-01 5.108992891236e-01 5.098122776938e-01 5.088565164973e-01 5.082740721421e-01 5.083090576678e-01 5.089212336119e-01 5.098493346060e-01 5.108992003270e-01 5.120653330224e-01 5.130748837042e-01 5.140503995703e-01 5.147083147327e-01 5.152980690659e-01 5.166153839734e-01 5.188739452099e-01 5.225418292273e-01 5.285389097880e-01 5.381176258976e-01 5.574413929325e-01 6.123645378543e-01 6.133648098000e-01 5.607808748709e-01 5.385843536798e-01 5.283931918497e-01 5.227010895916e-01 5.189712812418e-01 5.165313535696e-01 5.152505989353e-01 5.076345255748e-01 5.063059394096e-01 5.040389790064e-01 5.000737299034e-01 4.937601022253e-01 4.844211522102e-01 4.649260568750e-01 4.197421988629e-01 4.165890946666e-01 4.639605448514e-01 4.844340613091e-01 4.947707363274e-01 5.003165894867e-01 5.040554793491e-01 5.063718681261e-01 5.077048482524e-01 5.083951235287e-01 5.089238635660e-01 5.097974363247e-01 5.109248470593e-01 5.120920312107e-01 5.131136307707e-01 5.140251472916e-01 5.145920895791e-01 5.145844920526e-01 5.140188709075e-01 5.131440499720e-01 5.120442282356e-01 5.108822984665e-01 5.097653996142e-01 5.088547470293e-01 5.083102090644e-01 5.145945600970e-01 5.140057217724e-01 5.131004843271e-01 5.120566459693e-01 5.108856243595e-01 5.097919034948e-01 5.089076930049e-01 5.083318375675e-01 5.076881266039e-01 5.064069318984e-01 5.039683223956e-01 5.003015434458e-01 4.940808618192e-01 4.840231691473e-01 4.622058172584e-01 4.180463477566e-01 5.146840254975e-01 5.140908479016e-01 5.131456391975e-01 5.121021040737e-01 5.109056790986e-01 5.098325323305e-01 5.089088482191e-01 5.083878547363e-01 6.084758218808e-01 5.592517846296e-01 5.382415540054e-01 5.285039529400e-01 5.226454229878e-01 5.188800590533e-01 5.165636640227e-01 5.152603121991e-01 5.136533298150e-01 5.170568098664e-01 5.097108971564e-01 5.175072971579e-01 5.145522146973e-01 5.159673778711e-01 5.221812333565e-01 5.118104359866e-01 5.191678031627e-01 5.153957650602e-01 5.155907126635e-01 5.136023811050e-01 5.228200382361e-01 5.202889219791e-01 5.143272008124e-01 5.104301104201e-01 5.139855076059e-01 5.169813641587e-01 5.097163474759e-01 5.201288072917e-01 5.148458789453e-01 5.719131136750e-01 5.154797778561e-01 5.088980726878e-01 5.152159247280e-01 5.128107899983e-01 5.126445627974e-01 5.262241561983e-01 5.125235933261e-01 5.287340360568e-01 5.268831790606e-01 5.192241756765e-01 5.134078300381e-01 5.143300403879e-01 5.145600076795e-01 5.171156070067e-01 5.183149421645e-01 5.135385085920e-01 5.164609189122e-01 5.113288845653e-01 5.347748771648e-01 5.194663341362e-01 5.348939924791e-01 5.108529929403e-01 5.207195867085e-01 5.107665911081e-01 5.144857647984e-01 5.166483667115e-01 5.146080872789e-01 5.158142790462e-01 5.129362609350e-01 5.128613820939e-01 5.183190499598e-01 5.118754331224e-01 5.138816442133e-01 5.154065346262e-01 5.152756866224e-01 5.195630089756e-01 5.104358949300e-01 5.465747019637e-01 5.164987294446e-01 5.092565102580e-01 5.148865026507e-01 5.083711148442e-01 5.123294969340e-01 5.116157596864e-01 5.237980646231e-01 5.246259575901e-01 5.118039764641e-01 5.298001915576e-01 5.356391586105e-01 5.695203905047e-01 5.099026435768e-01 5.300511302248e-01 6.317586445151e-01 5.225154702617e-01 5.240830525831e-01 5.277860253719e-01 5.428501805242e-01 5.234466360311e-01 5.493497563052e-01 5.109791418558e-01 5.148911146761e-01 5.176696178395e-01 5.031122747006e-01 5.079758366808e-01 5.065329251036e-01 5.115467383023e-01 4.790163723030e-01 5.074044700963e-01 5.068555960899e-01 4.977247029628e-01 5.088549656681e-01 5.098239996153e-01 5.112041791806e-01 4.991599455326e-01 5.109241465554e-01 5.037846610794e-01 5.067921757643e-01 5.103733498978e-01 4.975546456236e-01 5.127828364776e-01 5.130926947695e-01 5.057276503521e-01 5.137715959628e-01 5.082925972245e-01 4.553023121296e-01 5.139721474199e-01 5.109332196067e-01 5.103226145888e-01 5.026600766973e-01 5.095125075504e-01 5.046483568692e-01 4.902825181379e-01 5.078662302564e-01 5.081214138611e-01 5.004234117351e-01 5.007713138512e-01 5.064811441896e-01 5.117014359284e-01 5.126035345210e-01 4.899425515009e-01 5.093696461505e-01 5.053963117003e-01 4.967686416353e-01 4.972588859140e-01 5.027717365828e-01 4.799067126447e-01 5.097838486045e-01 5.009625835536e-01 5.023825026056e-01 5.083940636461e-01 4.514403321920e-01 4.963021930318e-01 5.028583442524e-01 5.129210269002e-01 5.052555855105e-01 4.895245057876e-01 5.103401255133e-01 4.914930297419e-01 5.057022636175e-01 5.052756962668e-01 5.078484786007e-01 5.112275223884e-01 4.799637208557e-01 4.920207126390e-01 5.087865070236e-01 5.145272636816e-01 5.120981754095e-01 5.052657287786e-01 4.984098341101e-01 4.800546027237e-01 5.075237508947e-01 5.121819581013e-01 5.097552559597e-01 5.089284871669e-01 5.057671985375e-01 5.101908011101e-01 5.090476944977e-01 5.080187078375e-01 3.977458734924e-01 5.029171558394e-01 5.081132492363e-01 5.075850712576e-01 5.034591133149e-01 5.068923061399e-01 5.067705459816e-01 4.866494000655e-01 5.070998748600e-01 5.141189842435e-01 4.528944621343e-01 5.081952910484e-01 5.079924030219e-01 5.094434620636e-01 5.105807386344e-01 4.998791357226e-01 5.018393246025e-01 5.119799159394e-01 5.044960399327e-01 5.111017531417e-01 4.893145820447e-01 5.091867482173e-01 5.024309747882e-01 5.046230340544e-01 4.982947259401e-01 5.086259342830e-01 5.133763061696e-01 5.055522736789e-01 4.710573993648e-01 5.057154599389e-01 4.429440566297e-01 5.060380936718e-01 5.078524729269e-01 5.073489446475e-01 5.099949587910e-01 5.079959924035e-01 5.108200914091e-01 5.054852553257e-01 5.113232564293e-01 5.072943318166e-01 5.001654845026e-01 5.090322211598e-01 5.089823102341e-01 4.974268318002e-01 5.066916370900e-01 5.108921944760e-01 5.047304310567e-01 4.938328593871e-01 5.123713302307e-01 4.908395780748e-01 5.016499930638e-01 5.025180903664e-01 5.016328715155e-01 4.952671702712e-01 5.120842378072e-01 4.911560981762e-01 5.095727699308e-01 4.822790200911e-01 5.077325439522e-01 4.974030068627e-01 5.115056247218e-01 5.087639332488e-01 4.990496715508e-01 3.903517276222e-01 5.073563795048e-01 5.062625650177e-01 4.947467220199e-01 5.087190083691e-01 4.783118393586e-01 5.026413395432e-01 5.103134649562e-01 5.101099582560e-01 5.130835425796e-01 4.986714545385e-01 5.083218542127e-01 5.121640237864e-01 5.131461030919e-01 5.073697154298e-01 5.125224475307e-01 4.773074057414e-01 5.047800762979e-01 5.146081756097e-01 5.089788866293e-01 5.096683968257e-01 5.141413137412e-01 5.073698731206e-01 5.080571832282e-01 5.145428786072e-01 5.162522943735e-01 5.154285240599e-01 5.102601164218e-01 5.149704097456e-01 5.660098929454e-01 5.087662853019e-01 5.154434796491e-01 5.149182832555e-01 5.214098132192e-01 5.230902549337e-01 5.123378152803e-01 5.128867383477e-01 5.294076321823e-01 5.154273361765e-01 5.240490975068e-01 5.103447608844e-01 5.182476766986e-01 5.128512467390e-01 5.136589426152e-01 5.123168120540e-01 5.164955515476e-01 5.425356643304e-01 5.152956407725e-01 5.092412971591e-01 5.140029039203e-01 5.086904382047e-01 5.140535856023e-01 5.164101370392e-01 5.146328530535e-01 5.229768450962e-01 5.183246497742e-01 5.242712383418e-01 5.156790332418e-01 5.270974774893e-01 5.179558375493e-01 5.131329849701e-01 5.189673440710e-01 5.207351832238e-01 5.115386643182e-01 5.169010309640e-01 5.250751783265e-01 5.144332477898e-01 5.111003744304e-01 5.318521388849e-01 5.104976953141e-01 5.125596917633e-01 5.134777724964e-01 5.135191609456e-01 5.115393980391e-01 5.309899179159e-01 5.107766370001e-01 5.210038482845e-01 5.097147713173e-01 5.172349011658e-01 5.115667665540e-01 5.259872711753e-01 5.195558621063e-01 5.121843703389e-01 5.083548475006e-01 5.180542375853e-01 5.150350692079e-01 5.115094052345e-01 5.172205212308e-01 5.095961953669e-01 5.136276928795e-01 5.210510458705e-01 5.201512257026e-01 5.418291781554e-01 5.122579797831e-01 5.157455051102e-01 5.316011816743e-01 5.398742204631e-01 5.152558122281e-01 5.323984999840e-01 5.095288774157e-01 5.141699927746e-01 6.110210129187e-01 5.170185419938e-01 5.202731820782e-01 5.640766612481e-01 5.146997816084e-01 5.148972915652e-01 5.143340862253e-01 5.160098762268e-01 5.161440434184e-01 5.091483011714e-01 5.146197415340e-01 5.705128243790e-01 6.268470459081e-01 5.196575375502e-01 5.114783724840e-01 5.274162851415e-01 5.214117586755e-01 5.115476688211e-01 5.207269853839e-01 5.129181593693e-01 5.154400136349e-01 5.101093502310e-01 5.187915217361e-01 5.240400884256e-01 5.145199336091e-01 5.456928442883e-01 5.205904248594e-01 5.139167633260e-01 5.171282488087e-01 5.163468107300e-01 5.095097007596e-01 5.385963656730e-01 5.155408740674e-01 5.471930472593e-01 5.148430490526e-01 5.129905784919e-01 5.682189141147e-01 5.154311528609e-01 5.169345000586e-01 5.222088672832e-01 5.125382320200e-01 5.117517841634e-01 5.126897064544e-01 5.252507310527e-01 5.108632320482e-01 5.176616634541e-01 5.145072436399e-01 5.138745432146e-01 5.203378051063e-01 5.172911921285e-01 5.149871969551e-01 5.133219165237e-01 5.127994508957e-01 5.179416701537e-01 5.118550926062e-01 5.229147962813e-01 5.217428568012e-01 5.274003926782e-01 5.142236818403e-01 5.107476611267e-01 5.166268793755e-01 5.179413399091e-01 5.122628554888e-01 5.268046783785e-01 5.157498170920e-01 5.096580771703e-01 5.177236205517e-01 5.107917906465e-01 5.282223458320e-01 5.330221718266e-01 5.182901008142e-01 5.129065624637e-01 5.202667943181e-01 5.141890328456e-01 5.299446564070e-01 5.148815898586e-01 5.252661079664e-01 5.091779591290e-01 5.345489487916e-01 5.340343361605e-01 5.106029169546e-01 5.100790516932e-01 5.086444311465e-01 5.085681202321e-01 5.153434057304e-01 5.117092002684e-01 5.082971381045e-01 5.226834036807e-01 5.148478283772e-01 5.041841603225e-01 5.079028693600e-01 5.125372279607e-01 4.848158459572e-01 5.087583476378e-01 5.141737034416e-01 5.083445180412e-01 4.514455687067e-01 4.985205498154e-01 5.004291911083e-01 5.104973049321e-01 5.114301210638e-01 5.062303451557e-01 5.095799419106e-01 5.052444012136e-01 5.095195907805e-01 5.060270226056e-01 5.112714382680e-01 5.067835804924e-01 5.134199124025e-01 5.085872310577e-01 5.092801994955e-01 5.077153428117e-01 5.142198165999e-01 5.071693729814e-01 4.601441574494e-01 5.051873017918e-01 5.136640209180e-01 5.004042150428e-01 5.078505654965e-01 5.105244902431e-01 5.028683403608e-01 5.079384765756e-01 5.013982072601e-01 5.095762233800e-01 5.108257440606e-01 5.055740966120e-01 5.046412831559e-01 5.052273074205e-01 5.074331221719e-01 5.087061295683e-01 5.115553839931e-01 5.093335767374e-01 5.029387205977e-01 5.115460186590e-01 4.983051078041e-01 5.098744847100e-01 5.077467829808e-01 5.118586174040e-01 5.035339934243e-01 4.987002751790e-01 5.099919575642e-01 5.071690837712e-01 5.121519832863e-01 5.112675700120e-01 4.929363752322e-01 5.127498192575e-01 5.035496194268e-01 5.025251943499e-01 5.124179769952e-01 5.125556676861e-01 4.896872117870e-01 5.061812188218e-01 4.961761532723e-01 5.041125589002e-01 5.135498239147e-01 5.101177936331e-01 5.084382007024e-01 3.856362786117e-01 5.146091243043e-01 4.847940016850e-01 4.950175291838e-01 4.942330213432e-01 5.020376299627e-01 4.993832274848e-01 4.886419531198e-01 4.764198444383e-01 4.727753766000e-01 5.080436426525e-01 5.081611742236e-01 5.114193630986e-01 5.005845288259e-01 5.139927207372e-01 5.183909965353e-01 5.089508649739e-01 5.088801808240e-01 5.139386186568e-01 5.089480461385e-01 5.113008519341e-01 5.191247364424e-01 5.080510841032e-01 5.073771198546e-01 5.146522723704e-01 5.145732541108e-01 5.153326786306e-01 5.021703335132e-01 5.024319249966e-01 5.114580386338e-01 5.208058368720e-01 5.114754063377e-01 5.069614081052e-01 5.021555506427e-01 5.115067969994e-01 5.116095667064e-01 5.298037238225e-01 5.114915921856e-01 5.109390056745e-01 4.855573351106e-01 5.130487369859e-01 5.198446616730e-01 5.200489042448e-01 5.145875768925e-01 5.069250175084e-01 5.082532564414e-01 5.082684381252e-01 5.207699428144e-01 5.158440391643e-01 5.135228680468e-01 5.060375650307e-01 5.022132105229e-01 5.067838137063e-01 5.164807413013e-01 5.158121791459e-01 5.079621188438e-01 5.104485704857e-01 5.062102694466e-01 5.090915927061e-01 5.155335785754e-01 5.014538801286e-01 5.114316526131e-01 5.209998875889e-01 5.106667695333e-01 5.152722937770e-01 4.980984414935e-01 5.114516023204e-01 5.094430628390e-01 5.124706980592e-01 5.163145942366e-01 5.135002267005e-01 5.086061926180e-01 5.119754964758e-01 5.111089485837e-01 5.118036759937e-01 5.137400670009e-01 5.078996478962e-01 5.129289489386e-01 5.149412202775e-01 5.121393216649e-01 5.079595449755e-01 5.165499754098e-01 4.942353636980e-01 4.958272070004e-01 5.047288195068e-01 5.064731584893e-01 5.162094266910e-01 5.275306616590e-01 4.948923213502e-01 5.049487570006e-01 5.135551804354e-01 5.101437384345e-01 5.061617791198e-01 5.098677138646e-01 5.125145846176e-01 5.097875861556e-01 5.268451857717e-01 5.082026294031e-01 5.116366829829e-01 5.132854524814e-01 5.308514907915e-01 5.099235185611e-01 5.200917834145e-01 5.064372342789e-01 5.487162325679e-01 5.194412238072e-01 5.031775477141e-01 5.147535650195e-01 5.212916295299e-01 5.098313679512e-01 5.093938888091e-01 5.166882607053e-01 5.037979718090e-01 5.055769763783e-01 5.146375802448e-01 5.173272646422e-01 5.147533762420e-01 5.147646511781e-01 4.963953413882e-01 5.113337101813e-01 5.039992352888e-01 5.074800284908e-01 5.178266651109e-01 5.098734771878e-01 5.138773199063e-01 5.133571831640e-01 5.143297956211e-01 5.112180986902e-01 5.076060678195e-01 5.121096458838e-01 4.975340811782e-01 4.971882265489e-01 5.119387820140e-01 5.208676630803e-01 5.085236597445e-01 4.971315191578e-01 5.048251824246e-01 5.046467401909e-01 5.115560239992e-01 5.090493013896e-01 5.131564901279e-01 5.179219296598e-01 5.071181224029e-01 5.111742998500e-01 5.073065978049e-01 5.104516521506e-01 5.103348605573e-01 5.172074430296e-01 5.170939203253e-01 5.096320860522e-01 5.171349741673e-01 5.104300874069e-01 5.145940774210e-01 5.174518223451e-01 5.137281440448e-01 5.081586009628e-01 5.149339306123e-01 5.130360393708e-01 5.210575617372e-01 5.112816881447e-01 5.028230167436e-01 5.079437002696e-01 5.040122311813e-01 5.016729717755e-01 5.104045015982e-01 5.118680286830e-01 5.261416220413e-01 5.169304300569e-01 4.856213720364e-01 5.016059061708e-01 5.111300193316e-01 5.205864858670e-01 5.281008471189e-01 5.025366277777e-01 5.055260998616e-01 5.187443599408e-01 5.115577753446e-01 5.112797136182e-01 5.115952371770e-01 4.817555142199e-01 5.142342907477e-01 5.076208682477e-01 5.134912171950e-01 5.118271847429e-01 5.258998238871e-01 5.094097553847e-01 5.023479718911e-01 5.191150444533e-01 5.136894864635e-01 5.164176452012e-01 5.091542540667e-01 4.835463631488e-01 5.004170352319e-01 5.063065979607e-01 5.136326557476e-01 5.102046310545e-01 5.002635315807e-01 5.137419824305e-01 5.021573794841e-01 5.231420143151e-01 5.156197051843e-01 5.153196472822e-01 5.133305386372e-01 5.081174256290e-01 5.238258782409e-01 5.143431649112e-01 4.622532630839e-01 5.096905973960e-01 5.114629103079e-01 5.055767758089e-01 5.112387614529e-01 5.190145680911e-01 4.948549610509e-01 4.889090439077e-01 5.037014544374e-01 5.104746218439e-01 5.122483024642e-01 4.959460434614e-01 5.092295162736e-01 5.085507044885e-01 5.137435310343e-01 5.063804022902e-01 5.064496902880e-01 5.133372161350e-01 5.089990887696e-01 5.178153338987e-01 5.075917823789e-01 5.086710620251e-01 5.341719818967e-01 5.094808956819e-01 5.129689129557e-01 5.134619762067e-01 5.089140534792e-01 5.395862195901e-01 5.113076237947e-01 5.147770322214e-01 5.243759147786e-01 5.167604828064e-01 5.084072842101e-01 5.113832373285e-01 5.173635986838e-01 5.094335004895e-01 5.061762697143e-01 4.866724730714e-01 5.012535229743e-01 5.054081358046e-01 5.067305843234e-01 5.151894300433e-01 5.130760159873e-01 5.165930251145e-01 5.237790572419e-01 5.077313978830e-01 5.128617766462e-01 5.119603172219e-01 5.355431062761e-01 5.098101770166e-01 5.039678235197e-01 4.949840180293e-01 5.041596187027e-01 5.208652591409e-01 5.154226892814e-01 5.058740746511e-01 5.159698169342e-01 5.083383001879e-01 5.214614352940e-01 5.122610534501e-01 5.131140107857e-01 5.047858711085e-01 5.059393914846e-01 5.089147877825e-01 5.184504163531e-01 5.072905808577e-01 5.235094127831e-01 5.104620132221e-01 4.959141109583e-01 5.017245559294e-01 5.117013410202e-01 5.162051542854e-01 5.113672216617e-01 5.137070871831e-01 5.165889785578e-01 5.157121747763e-01 5.106281711599e-01 5.062510334455e-01 5.126765537240e-01 5.128932355290e-01 5.132427993883e-01 5.090046724550e-01 5.097842916746e-01 5.095352941203e-01 5.163906876356e-01 5.084473801168e-01 5.102462020488e-01 5.136335325930e-01 5.101363263886e-01 5.250793067479e-01 5.119248753030e-01 5.124787484421e-01 5.124887039115e-01 5.074915057606e-01 5.243441273116e-01 5.097668591204e-01 4.970298095170e-01 5.017309984691e-01 5.123867889370e-01 5.013966898520e-01 5.140128434449e-01 4.959350716928e-01 5.125249133680e-01 5.118938171829e-01 5.065233460147e-01 5.116659600699e-01 5.054930072444e-01 5.250572655337e-01 4.993182862246e-01 5.092958609490e-01 5.171920207355e-01 5.130097299192e-01 5.130760570969e-01 5.149058823631e-01 5.093413981484e-01 5.108533493777e-01 5.117145319476e-01 5.133201166036e-01 5.095766136222e-01 5.142538629324e-01 5.093598071403e-01 5.188393298293e-01 5.105111124810e-01 5.128385521240e-01 5.127047849853e-01 5.377216146589e-01 5.176264543561e-01 5.040005372694e-01 5.202918643484e-01 4.997769632432e-01 5.044456793146e-01 5.163623648603e-01 5.068615077417e-01 5.113796888783e-01 5.214158876066e-01 5.092505985225e-01 4.871067134721e-01 5.138775422303e-01 5.165775601990e-01 5.159377822940e-01 5.107584849663e-01 5.149247052597e-01 5.107134217590e-01 5.143733819863e-01 5.131230278959e-01 5.000021686760e-01 5.091969502705e-01 5.090658944809e-01 5.155262502363e-01 5.133722214425e-01 5.085253479276e-01 5.138294570452e-01 5.025361652785e-01 5.778478840934e-01 5.100016154930e-01 5.048710336375e-01 5.217645000737e-01 5.094997694868e-01 5.061770132179e-01 5.165950925326e-01 5.140051684662e-01 5.182980662060e-01 5.216844107302e-01 5.061578992304e-01 5.092671500265e-01 5.133618747041e-01 5.235645728016e-01 5.274198218024e-01 5.106531926522e-01 5.120629585266e-01 5.148573163017e-01 4.896014364613e-01 5.041123647172e-01 5.126577733894e-01 5.125159526052e-01 5.103084298346e-01 5.091188759027e-01 5.304269448178e-01 5.158013179320e-01 5.104707477219e-01 5.091700674709e-01 5.175323294219e-01 5.114919096843e-01 5.143964486748e-01 5.244761373613e-01 4.942376084660e-01 5.071940727195e-01 5.145071875062e-01 5.003276424677e-01 5.141575543939e-01 5.010454398127e-01 5.158621029168e-01 5.090421036211e-01 5.140881648048e-01 4.779806433407e-01 5.011307291301e-01 5.104738263849e-01 5.092257982046e-01 5.216160287003e-01 5.154761082576e-01 5.150056564588e-01 5.063201160950e-01 5.121140190205e-01 5.106675196072e-01 5.124515130066e-01 5.139426408683e-01 5.080704791396e-01 5.100901196805e-01 5.119254805341e-01 5.433623670932e-01 5.045129762900e-01 5.152641278861e-01 5.296503664281e-01 5.026458660364e-01 5.093338007288e-01 5.161378658053e-01 5.091706584891e-01 5.070771178270e-01 5.418376571414e-01 5.219870372345e-01 5.105287188786e-01 5.143307162021e-01 5.197691649705e-01 5.182626396959e-01 5.086746075964e-01 4.730837643488e-01 5.337882610249e-01 5.112621773165e-01 5.217405388118e-01 5.078941713836e-01 5.057420636664e-01 5.117340712475e-01 5.033445019670e-01 4.997254046009e-01 5.084051303477e-01 5.094325193651e-01 4.979787487499e-01 5.129099652067e-01 4.948128360002e-01 5.123934787923e-01 5.147587756699e-01 5.183811707782e-01 5.143940420282e-01 5.082342509635e-01 5.086759382745e-01 5.056017145150e-01 5.090237433773e-01 5.113267649394e-01 5.070743598213e-01 5.082680808200e-01 4.919716296733e-01 5.111894226948e-01 5.174778455182e-01 5.162273594183e-01 5.168522720140e-01 4.999109625699e-01 5.