 TITLE = "Time curves in points"
 VARIABLES = "TIME"  "HEAD"  "WDEPTH"  "FLUX" 
 ZONE T="POINT=POINT0"
0.000000000000e+00 1.000000000000e-06 0.000000000000e+00 0.000000000000e+00 
1.000000000000e+00 4.000992265577e-03 4.000992265577e-03 9.033435975449e-05 
2.000000000000e+00 8.000971731750e-03 8.000971731750e-03 2.873963605017e-04 
3.000000000000e+00 1.200093964681e-02 1.200093964681e-02 5.656168897660e-04 
4.000000000000e+00 1.600089973601e-02 1.600089973601e-02 9.144375654731e-04 
5.000000000000e+00 2.000085560854e-02 2.000085560854e-02 1.327345625099e-03 
6.000000000000e+00 2.400080954782e-02 2.400080954782e-02 1.799741476499e-03 
7.000000000000e+00 2.800076304051e-02 2.800076304051e-02 2.328126562418e-03 
8.000000000000e+00 3.200071613263e-02 3.200071613263e-02 2.909709313605e-03 
9.000000000000e+00 3.600066884648e-02 3.600066884648e-02 3.542187587566e-03 
1.000000000000e+01 4.000062116549e-02 4.000062116549e-02 4.223615265821e-03 
1.100000000000e+01 4.400057304957e-02 4.400057304957e-02 4.952315617520e-03 
1.200000000000e+01 4.800052444311e-02 4.800052444311e-02 5.726821992038e-03 
1.300000000000e+01 5.200047529050e-02 5.200047529050e-02 6.545835643108e-03 
1.400000000000e+01 5.600042651711e-02 5.600042651711e-02 7.408195382165e-03 
1.500000000000e+01 6.000037700059e-02 6.000037700059e-02 8.312851910301e-03 
1.600000000000e+01 6.400032709482e-02 6.400032709482e-02 9.258852436015e-03 
1.700000000000e+01 6.800027651581e-02 6.800027651581e-02 1.024532466453e-02 
1.800000000000e+01 7.200022618043e-02 7.200022618043e-02 1.127146702186e-02 
1.900000000000e+01 7.600017486010e-02 7.600017486010e-02 1.233653669778e-02 
2.000000000000e+01 8.000012389180e-02 8.000012389180e-02 1.343984596109e-02 
2.100000000000e+01 8.400007266363e-02 8.400007266363e-02 1.458075208252e-02 
2.200000000000e+01 8.800002109257e-02 8.800002109257e-02 1.575865422173e-02 
2.300000000000e+01 9.199996928696e-02 9.199996928696e-02 1.697298856930e-02 
2.400000000000e+01 9.599991729901e-02 9.599991729901e-02 1.822322439902e-02 
2.500000000000e+01 9.999986514052e-02 9.999986514052e-02 1.950886081518e-02 
2.600000000000e+01 1.039998127790e-01 1.039998127790e-01 2.082942391851e-02 
2.700000000000e+01 1.079997601692e-01 1.079997601692e-01 2.218446436605e-02 
2.800000000000e+01 1.119997074352e-01 1.119997074352e-01 2.357355539668e-02 
2.900000000000e+01 1.159996546746e-01 1.159996546746e-01 2.499629078984e-02 
3.000000000000e+01 1.199996017893e-01 1.199996017893e-01 2.645228296733e-02 
3.100000000000e+01 1.239995486808e-01 1.239995486808e-01 2.794116177124e-02 
3.200000000000e+01 1.279994954443e-01 1.279994954443e-01 2.946257326425e-02 
3.300000000000e+01 1.319994420697e-01 1.319994420697e-01 3.101617828601e-02 
3.400000000000e+01 1.359993885316e-01 1.359993885316e-01 3.260165148010e-02 
3.500000000000e+01 1.399993348513e-01 1.399993348513e-01 3.421868042930e-02 
3.600000000000e+01 1.439992809648e-01 1.439992809648e-01 3.586696462834e-02 
3.700000000000e+01 1.479992267264e-01 1.479992267264e-01 3.754621476011e-02 
3.800000000000e+01 1.519991718172e-01 1.519991718172e-01 3.925615193415e-02 
3.900000000000e+01 1.559991155785e-01 1.559991155785e-01 4.099650696855e-02 
4.000000000000e+01 1.599990566028e-01 1.599990566028e-01 4.276701959808e-02 
4.100000000000e+01 1.639989920960e-01 1.639989920960e-01 4.456743760947e-02 
4.200000000000e+01 1.679989167614e-01 1.679989167614e-01 4.639751581457e-02 
4.300000000000e+01 1.719988208140e-01 1.719988208140e-01 4.825701456716e-02 
4.400000000000e+01 1.759986866247e-01 1.759986866247e-01 5.014569736274e-02 
4.500000000000e+01 1.799984846105e-01 1.799984846105e-01 5.206332869977e-02 
4.600000000000e+01 1.839981656808e-01 1.839981656808e-01 5.400966898068e-02 
4.700000000000e+01 1.879976519244e-01 1.879976519244e-01 5.598446915956e-02 
4.800000000000e+01 1.919968236871e-01 1.919968236871e-01 5.798746282033e-02 
4.900000000000e+01 1.959955030877e-01 1.959955030877e-01 6.001835594315e-02 
5.000000000000e+01 1.999934337454e-01 1.999934337454e-01 6.207681433181e-02 
5.100000000000e+01 2.039902563949e-01 2.039902563949e-01 6.416244737597e-02 
5.200000000000e+01 2.079854824970e-01 2.079854824970e-01 6.627479111047e-02 
5.300000000000e+01 2.119784639475e-01 2.119784639475e-01 6.841328672428e-02 
5.400000000000e+01 2.159683631892e-01 2.159683631892e-01 7.057725911287e-02 
5.500000000000e+01 2.199541233502e-01 2.199541233502e-01 7.276589420841e-02 
5.600000000000e+01 2.239344409825e-01 2.239344409825e-01 7.497821661554e-02 
5.700000000000e+01 2.279077431416e-01 2.279077431416e-01 7.721306875933e-02 
5.800000000000e+01 2.318721707608e-01 2.318721707608e-01 7.946909312418e-02 
5.900000000000e+01 2.358255696880e-01 2.358255696880e-01 8.174471830600e-02 
6.000000000000e+01 2.397654906011e-01 2.397654906011e-01 8.403815013939e-02 
6.100000000000e+01 2.436891983429e-01 2.436891983429e-01 8.634736941142e-02 
6.200000000000e+01 2.475936912592e-01 2.475936912592e-01 8.867013476894e-02 
6.300000000000e+01 2.514757294404e-01 2.514757294404e-01 9.100399322316e-02 
6.400000000000e+01 2.553318708509e-01 2.553318708509e-01 9.334629694526e-02 
6.500000000000e+01 2.591585152133e-01 2.591585152133e-01 9.569422567559e-02 
6.600000000000e+01 2.629519514173e-01 2.629519514173e-01 9.804481302143e-02 
6.700000000000e+01 2.667084101095e-01 2.667084101095e-01 1.003949802187e-01 
6.800000000000e+01 2.704241159977e-01 2.704241159977e-01 1.027415695919e-01 
6.900000000000e+01 2.740953387908e-01 2.740953387908e-01 1.050813781458e-01 
7.000000000000e+01 2.777184450453e-01 2.777184450453e-01 1.074111991659e-01 
7.100000000000e+01 2.812899426292e-01 2.812899426292e-01 1.097278535380e-01 
7.200000000000e+01 2.848065216052e-01 2.848065216052e-01 1.120282246047e-01 
7.300000000000e+01 2.882650897817e-01 2.882650897817e-01 1.143092903325e-01 
7.400000000000e+01 2.916628017117e-01 2.916628017117e-01 1.165681510727e-01 
7.500000000000e+01 2.949970804181e-01 2.949970804181e-01 1.188020520264e-01 
7.600000000000e+01 2.982656348193e-01 2.982656348193e-01 1.210084082635e-01 
7.700000000000e+01 3.014664678724e-01 3.014664678724e-01 1.231848147583e-01 
7.800000000000e+01 3.045978816814e-01 3.045978816814e-01 1.253290622506e-01 
7.900000000000e+01 3.076584765387e-01 3.076584765387e-01 1.274391454275e-01 
8.000000000000e+01 3.106471457272e-01 3.106471457272e-01 1.295132655756e-01 
8.100000000000e+01 3.135630660887e-01 3.135630660887e-01 1.315498331676e-01 
8.200000000000e+01 3.164056857926e-01 3.164056857926e-01 1.335474649049e-01 
8.300000000000e+01 3.191747102632e-01 3.191747102632e-01 1.355049818084e-01 
8.400000000000e+01 3.218700852868e-01 3.218700852868e-01 1.374214009369e-01 
8.500000000000e+01 3.244919796049e-01 3.244919796049e-01 1.392959270331e-01 
8.600000000000e+01 3.270407666845e-01 3.270407666845e-01 1.411279453998e-01 
8.700000000000e+01 3.295170057871e-01 3.295170057871e-01 1.429170088296e-01 
8.800000000000e+01 3.319214236556e-01 3.319214236556e-01 1.446628290806e-01 
8.900000000000e+01 3.342548962388e-01 3.342548962388e-01 1.463652637288e-01 
9.000000000000e+01 3.365184307535e-01 3.365184307535e-01 1.480243045312e-01 
9.100000000000e+01 3.387131490614e-01 3.387131490614e-01 1.496400662271e-01 
9.200000000000e+01 3.408402718758e-01 3.408402718758e-01 1.512127763115e-01 
9.300000000000e+01 3.429011033747e-01 3.429011033747e-01 1.527427614001e-01 
9.400000000000e+01 3.448970179051e-01 3.448970179051e-01 1.542304399433e-01 
9.500000000000e+01 3.468294462369e-01 3.468294462369e-01 1.556763075612e-01 
9.600000000000e+01 3.486998644094e-01 3.486998644094e-01 1.570809307749e-01 
9.700000000000e+01 3.505097829439e-01 3.505097829439e-01 1.584449376408e-01 
9.800000000000e+01 3.522607370166e-01 3.522607370166e-01 1.597690077562e-01 
9.900000000000e+01 3.539542778270e-01 3.539542778270e-01 1.610538656759e-01 
1.000000000000e+02 3.555919647628e-01 3.555919647628e-01 1.623002730110e-01 
1.010000000000e+02 3.571753588387e-01 3.571753588387e-01 1.635090244341e-01 
1.020000000000e+02 3.587060162259e-01 3.587060162259e-01 1.646809357728e-01 
1.030000000000e+02 3.601854827357e-01 3.601854827357e-01 1.658168435280e-01 
1.040000000000e+02 3.616152898212e-01 3.616152898212e-01 1.669175997264e-01 
1.050000000000e+02 3.629969500290e-01 3.629969500290e-01 1.679840636647e-01 
1.060000000000e+02 3.643319540705e-01 3.643319540705e-01 1.690171026550e-01 
1.070000000000e+02 3.656217675733e-01 3.656217675733e-01 1.700175850755e-01 
1.080000000000e+02 3.668678288076e-01 3.668678288076e-01 1.709863785829e-01 
1.090000000000e+02 3.680715467088e-01 3.680715467088e-01 1.719243471049e-01 
1.100000000000e+02 3.692342994142e-01 3.692342994142e-01 1.728323490702e-01 
1.110000000000e+02 3.703574325089e-01 3.703574325089e-01 1.737112323566e-01 
1.120000000000e+02 3.714422585758e-01 3.714422585758e-01 1.745618364859e-01 
1.130000000000e+02 3.724900564572e-01 3.724900564572e-01 1.753849890707e-01 
1.140000000000e+02 3.735020706077e-01 3.735020706077e-01 1.761815041646e-01 
1.150000000000e+02 3.744795109255e-01 3.744795109255e-01 1.769521816232e-01 
1.160000000000e+02 3.754235526792e-01 3.754235526792e-01 1.776978060842e-01 
1.170000000000e+02 3.763353365777e-01 3.763353365777e-01 1.784191461773e-01 
1.180000000000e+02 3.772159689971e-01 3.772159689971e-01 1.791169538765e-01 
1.190000000000e+02 3.780665223401e-01 3.780665223401e-01 1.797919643669e-01 
1.200000000000e+02 3.788880353419e-01 3.788880353419e-01 1.804448944013e-01 
1.210000000000e+02 3.796815136924e-01 3.796815136924e-01 1.810764438876e-01 
1.220000000000e+02 3.804479305963e-01 3.804479305963e-01 1.816872945771e-01 
1.230000000000e+02 3.811882273961e-01 3.811882273961e-01 1.822781102324e-01 
1.240000000000e+02 3.819033142443e-01 3.819033142443e-01 1.828495366796e-01 
1.250000000000e+02 3.825940708211e-01 3.825940708211e-01 1.834022018134e-01 
1.260000000000e+02 3.832613470721e-01 3.832613470721e-01 1.839367157773e-01 
1.270000000000e+02 3.839059639780e-01 3.839059639780e-01 1.844536710807e-01 
1.280000000000e+02 3.845287143263e-01 3.845287143263e-01 1.849536428665e-01 
1.290000000000e+02 3.851303635014e-01 3.851303635014e-01 1.854371890999e-01 
1.300000000000e+02 3.857116502746e-01 3.857116502746e-01 1.859048509026e-01 
1.310000000000e+02 3.862732875934e-01 3.862732875934e-01 1.863571528144e-01 
1.320000000000e+02 3.868159633719e-01 3.868159633719e-01 1.867946031312e-01 
1.330000000000e+02 3.873403413012e-01 3.873403413012e-01 1.872176943095e-01 
1.340000000000e+02 3.878470614864e-01 3.878470614864e-01 1.876269030739e-01 
1.350000000000e+02 3.883367414237e-01 3.883367414237e-01 1.880226911358e-01 
1.360000000000e+02 3.888099765950e-01 3.888099765950e-01 1.884055053264e-01 
1.370000000000e+02 3.892673412445e-01 3.892673412445e-01 1.887757780522e-01 
1.380000000000e+02 3.897093890914e-01 3.897093890914e-01 1.891339276311e-01 
1.390000000000e+02 3.901366540358e-01 3.901366540358e-01 1.894803587026e-01 
1.400000000000e+02 3.905496508540e-01 3.905496508540e-01 1.898154626529e-01 
1.410000000000e+02 3.909488758365e-01 3.909488758365e-01 1.901396176994e-01 
1.420000000000e+02 3.913348074445e-01 3.913348074445e-01 1.904531900338e-01 
1.430000000000e+02 3.917079070152e-01 3.917079070152e-01 1.907565331974e-01 
1.440000000000e+02 3.920686192657e-01 3.920686192657e-01 1.910499890655e-01 
1.450000000000e+02 3.924173729288e-01 3.924173729288e-01 1.913338880504e-01 
1.460000000000e+02 3.927545813316e-01 3.927545813316e-01 1.916085494672e-01 
1.470000000000e+02 3.930806429512e-01 3.930806429512e-01 1.918742818790e-01 
1.480000000000e+02 3.933959419575e-01 3.933959419575e-01 1.921313834375e-01 
1.490000000000e+02 3.937008487293e-01 3.937008487293e-01 1.923801422235e-01 
1.500000000000e+02 3.939957203661e-01 3.939957203661e-01 1.926208365796e-01 
1.510000000000e+02 3.942809011640e-01 3.942809011640e-01 1.928537353887e-01 
1.520000000000e+02 3.945567231059e-01 3.945567231059e-01 1.930790985958e-01 
1.530000000000e+02 3.948235062728e-01 3.948235062728e-01 1.932971768311e-01 
1.540000000000e+02 3.950815592992e-01 3.950815592992e-01 1.935082126390e-01 
1.550000000000e+02 3.953311798171e-01 3.953311798171e-01 1.937124401882e-01 
1.560000000000e+02 3.955726548481e-01 3.955726548481e-01 1.939100856789e-01 
1.570000000000e+02 3.958062611935e-01 3.958062611935e-01 1.941013676096e-01 
1.580000000000e+02 3.960322658110e-01 3.960322658110e-01 1.942864970434e-01 
1.590000000000e+02 3.962509261791e-01 3.962509261791e-01 1.944656778529e-01 
1.600000000000e+02 3.964624906467e-01 3.964624906467e-01 1.946391069733e-01 
1.610000000000e+02 3.966671987706e-01 3.966671987706e-01 1.948069746355e-01 
1.620000000000e+02 3.968652816387e-01 3.968652816387e-01 1.949694645933e-01 
1.630000000000e+02 3.970569621841e-01 3.970569621841e-01 1.951267543525e-01 
1.640000000000e+02 3.972424554847e-01 3.972424554847e-01 1.952790153807e-01 
1.650000000000e+02 3.974219690530e-01 3.974219690530e-01 1.954264133190e-01 
1.660000000000e+02 3.975957031149e-01 3.975957031149e-01 1.955691081829e-01 
1.670000000000e+02 3.977638508764e-01 3.977638508764e-01 1.957072545533e-01 
1.680000000000e+02 3.979265987828e-01 3.979265987828e-01 1.958410017687e-01 
1.690000000000e+02 3.980841267668e-01 3.980841267668e-01 1.959704941073e-01 
1.700000000000e+02 3.982366084860e-01 3.982366084860e-01 1.960958709609e-01 
1.710000000000e+02 3.983842115530e-01 3.983842115530e-01 1.962172670013e-01 
1.720000000000e+02 3.985270977569e-01 3.985270977569e-01 1.963348123510e-01 
1.730000000000e+02 3.986654232752e-01 3.986654232752e-01 1.964486327354e-01 
1.740000000000e+02 3.987993388780e-01 3.987993388780e-01 1.965588496383e-01 
1.750000000000e+02 3.989289901257e-01 3.989289901257e-01 1.966655804487e-01 
1.760000000000e+02 3.990545175631e-01 3.990545175631e-01 1.967689386266e-01 
1.770000000000e+02 3.991760568770e-01 3.991760568770e-01 1.968690337372e-01 
1.780000000000e+02 3.992937391086e-01 3.992937391086e-01 1.969659717472e-01 
1.790000000000e+02 3.994076907987e-01 3.994076907987e-01 1.970598550385e-01 
1.800000000000e+02 3.995180341546e-01 3.995180341546e-01 1.971507825624e-01 
1.810000000000e+02 3.996248872060e-01 3.996248872060e-01 1.972388499560e-01 
1.820000000000e+02 3.997283639566e-01 3.997283639566e-01 1.973241496607e-01 
1.830000000000e+02 3.998285745255e-01 3.998285745255e-01 1.974067710262e-01 
1.840000000000e+02 3.999256252885e-01 3.999256252885e-01 1.974868004226e-01 
1.850000000000e+02 4.000196190082e-01 4.000196190082e-01 1.975643213274e-01 
1.860000000000e+02 4.001106549660e-01 4.001106549660e-01 1.976394144480e-01 
1.870000000000e+02 4.001988290909e-01 4.001988290909e-01 1.977121578299e-01 
1.880000000000e+02 4.002842340634e-01 4.002842340634e-01 1.977826268708e-01 
1.890000000000e+02 4.003669594686e-01 4.003669594686e-01 1.978508946009e-01 
1.900000000000e+02 4.004470918364e-01 4.004470918364e-01 1.979170314502e-01 
1.910000000000e+02 4.005247148241e-01 4.005247148241e-01 1.979811056543e-01 
1.920000000000e+02 4.005999092724e-01 4.005999092724e-01 1.980431831327e-01 
1.930000000000e+02 4.006727533122e-01 4.006727533122e-01 1.981033276528e-01 
1.940000000000e+02 4.007433224655e-01 4.007433224655e-01 1.981616008599e-01 
1.950000000000e+02 4.008116897410e-01 4.008116897410e-01 1.982180623997e-01 
1.960000000000e+02 4.008779257120e-01 4.008779257120e-01 1.982727699353e-01 
1.970000000000e+02 4.009420986065e-01 4.009420986065e-01 1.983257792450e-01 
1.980000000000e+02 4.010042743879e-01 4.010042743879e-01 1.983771442774e-01 
1.990000000000e+02 4.010645168339e-01 4.010645168339e-01 1.984269172156e-01 
2.000000000000e+02 4.011228876121e-01 4.011228876121e-01 1.984751485354e-01 
2.010000000000e+02 4.011794463531e-01 4.011794463531e-01 1.985218870643e-01 
2.020000000000e+02 4.012342507208e-01 4.012342507208e-01 1.985671800361e-01 
2.030000000000e+02 4.012873564807e-01 4.012873564807e-01 1.986110731469e-01 
2.040000000000e+02 4.013388175644e-01 4.013388175644e-01 1.986536106047e-01 
2.050000000000e+02 4.013886861333e-01 4.013886861333e-01 1.986948351810e-01 
2.060000000000e+02 4.014370126388e-01 4.014370126388e-01 1.987347882586e-01 
2.070000000000e+02 4.014838458812e-01 4.014838458812e-01 1.987735098788e-01 
2.080000000000e+02 4.015292330658e-01 4.015292330658e-01 1.988110387862e-01 
2.090000000000e+02 4.015732198578e-01 4.015732198578e-01 1.988474124719e-01 
2.100000000000e+02 4.016158504342e-01 4.016158504342e-01 1.988826672176e-01 
2.110000000000e+02 4.016571675340e-01 4.016571675340e-01 1.989168381298e-01 
2.120000000000e+02 4.016972125078e-01 4.016972125078e-01 1.989499591868e-01 
2.130000000000e+02 4.017360253644e-01 4.017360253644e-01 1.989820632733e-01 
2.140000000000e+02 4.017736448162e-01 4.017736448162e-01 1.990131822148e-01 
2.150000000000e+02 4.018101083228e-01 4.018101083228e-01 1.990433468154e-01 
2.160000000000e+02 4.018454521332e-01 4.018454521332e-01 1.990725868906e-01 
2.170000000000e+02 4.018797113265e-01 4.018797113265e-01 1.991009313005e-01 
2.180000000000e+02 4.019129198547e-01 4.019129198547e-01 1.991284079891e-01 
2.190000000000e+02 4.019451105669e-01 4.019451105669e-01 1.991550439832e-01 
2.200000000000e+02 4.019763152654e-01 4.019763152654e-01 1.991808654690e-01 
2.210000000000e+02 4.020065647291e-01 4.020065647291e-01 1.992058977907e-01 
2.220000000000e+02 4.020358887493e-01 4.020358887493e-01 1.992301654829e-01 
2.230000000000e+02 4.020643161643e-01 4.020643161643e-01 1.992536923034e-01 
2.240000000000e+02 4.020918748882e-01 4.020918748882e-01 1.992765012472e-01 
2.250000000000e+02 4.021185919446e-01 4.021185919446e-01 1.992986145860e-01 
2.260000000000e+02 4.021444934939e-01 4.021444934939e-01 1.993200538787e-01 
2.270000000000e+02 4.021696048629e-01 4.021696048629e-01 1.993408400032e-01 
2.280000000000e+02 4.021939505720e-01 4.021939505720e-01 1.993609931762e-01 
2.290000000000e+02 4.022175543620e-01 4.022175543620e-01 1.993805329740e-01 
2.300000000000e+02 4.022404392195e-01 4.022404392195e-01 1.993994783543e-01 
2.310000000000e+02 4.022626274016e-01 4.022626274016e-01 1.994178476756e-01 
2.320000000000e+02 4.022841404601e-01 4.022841404601e-01 1.994356587177e-01 
2.330000000000e+02 4.023049992643e-01 4.023049992643e-01 1.994529286996e-01 
2.340000000000e+02 4.023252240237e-01 4.023252240237e-01 1.994696742979e-01 
2.350000000000e+02 4.023448343091e-01 4.023448343091e-01 1.994859116648e-01 
2.360000000000e+02 4.023638490737e-01 4.023638490737e-01 1.995016564445e-01 
2.370000000000e+02 4.023822866732e-01 4.023822866732e-01 1.995169237899e-01 
2.380000000000e+02 4.024001648851e-01 4.024001648851e-01 1.995317283785e-01 
2.390000000000e+02 4.024175009275e-01 4.024175009275e-01 1.995460844275e-01 
2.400000000000e+02 4.024343114772e-01 4.024343114772e-01 1.995600057090e-01 
