 TITLE = "Time curves in points"
 VARIABLES = "TIME"  "HEAD"  "WDEPTH"  "FLUX" 
 ZONE T="POINT=POINT1"
0.000000000000e+00 1.000000000000e-06 0.000000000000e+00 0.000000000000e+00 
1.000000000000e+00 4.000992265577e-03 4.000992265577e-03 9.033435975518e-05 
2.000000000000e+00 8.000971731750e-03 8.000971731750e-03 2.873963604982e-04 
3.000000000000e+00 1.200093964681e-02 1.200093964681e-02 5.656168897702e-04 
4.000000000000e+00 1.600089973601e-02 1.600089973601e-02 9.144375654671e-04 
5.000000000000e+00 2.000085560855e-02 2.000085560855e-02 1.327345625103e-03 
6.000000000000e+00 2.400080954782e-02 2.400080954782e-02 1.799741476490e-03 
7.000000000000e+00 2.800076304051e-02 2.800076304051e-02 2.328126562426e-03 
8.000000000000e+00 3.200071613262e-02 3.200071613262e-02 2.909709313600e-03 
9.000000000000e+00 3.600066884648e-02 3.600066884648e-02 3.542187587573e-03 
1.000000000000e+01 4.000062116548e-02 4.000062116548e-02 4.223615265813e-03 
1.100000000000e+01 4.400057304957e-02 4.400057304957e-02 4.952315617530e-03 
1.200000000000e+01 4.800052444312e-02 4.800052444312e-02 5.726821992042e-03 
1.300000000000e+01 5.200047529051e-02 5.200047529051e-02 6.545835643113e-03 
1.400000000000e+01 5.600042651709e-02 5.600042651709e-02 7.408195382158e-03 
1.500000000000e+01 6.000037700060e-02 6.000037700060e-02 8.312851910308e-03 
1.600000000000e+01 6.400032709481e-02 6.400032709481e-02 9.258852436009e-03 
1.700000000000e+01 6.800027651581e-02 6.800027651581e-02 1.024532466454e-02 
1.800000000000e+01 7.200022618045e-02 7.200022618045e-02 1.127146702187e-02 
1.900000000000e+01 7.600017486010e-02 7.600017486010e-02 1.233653669777e-02 
2.000000000000e+01 8.000012389180e-02 8.000012389180e-02 1.343984596110e-02 
2.100000000000e+01 8.400007266361e-02 8.400007266361e-02 1.458075208252e-02 
2.200000000000e+01 8.800002109256e-02 8.800002109256e-02 1.575865422174e-02 
2.300000000000e+01 9.199996928696e-02 9.199996928696e-02 1.697298856932e-02 
2.400000000000e+01 9.599991729901e-02 9.599991729901e-02 1.822322439903e-02 
2.500000000000e+01 9.999986514051e-02 9.999986514051e-02 1.950886081520e-02 
2.600000000000e+01 1.039998127790e-01 1.039998127790e-01 2.082942391854e-02 
2.700000000000e+01 1.079997601692e-01 1.079997601692e-01 2.218446436610e-02 
2.800000000000e+01 1.119997074352e-01 1.119997074352e-01 2.357355539675e-02 
2.900000000000e+01 1.159996546746e-01 1.159996546746e-01 2.499629078993e-02 
3.000000000000e+01 1.199996017894e-01 1.199996017894e-01 2.645228296744e-02 
3.100000000000e+01 1.239995486811e-01 1.239995486811e-01 2.794116177140e-02 
3.200000000000e+01 1.279994954447e-01 1.279994954447e-01 2.946257326440e-02 
3.300000000000e+01 1.319994420700e-01 1.319994420700e-01 3.101617828598e-02 
3.400000000000e+01 1.359993885320e-01 1.359993885320e-01 3.260165148007e-02 
3.500000000000e+01 1.399993348518e-01 1.399993348518e-01 3.421868042925e-02 
3.600000000000e+01 1.439992809656e-01 1.439992809656e-01 3.586696462831e-02 
3.700000000000e+01 1.479992267270e-01 1.479992267270e-01 3.754621476014e-02 
3.800000000000e+01 1.519991718180e-01 1.519991718180e-01 3.925615193522e-02 
3.900000000000e+01 1.559991155795e-01 1.559991155795e-01 4.099650696967e-02 
4.000000000000e+01 1.599990566035e-01 1.599990566035e-01 4.276701959813e-02 
4.100000000000e+01 1.639989920969e-01 1.639989920969e-01 4.456743760948e-02 
4.200000000000e+01 1.679989167626e-01 1.679989167626e-01 4.639751581606e-02 
4.300000000000e+01 1.719988208145e-01 1.719988208145e-01 4.825701456970e-02 
4.400000000000e+01 1.759986866254e-01 1.759986866254e-01 5.014569736561e-02 
4.500000000000e+01 1.799984846114e-01 1.799984846114e-01 5.206332870242e-02 
4.600000000000e+01 1.839981656819e-01 1.839981656819e-01 5.400966898343e-02 
4.700000000000e+01 1.879976519241e-01 1.879976519241e-01 5.598446916400e-02 
4.800000000000e+01 1.919968236881e-01 1.919968236881e-01 5.798746281992e-02 
4.900000000000e+01 1.959955030878e-01 1.959955030878e-01 6.001835594905e-02 
5.000000000000e+01 1.999934337450e-01 1.999934337450e-01 6.207681433966e-02 
5.100000000000e+01 2.039902563950e-01 2.039902563950e-01 6.416244738152e-02 
5.200000000000e+01 2.079854824971e-01 2.079854824971e-01 6.627479112396e-02 
5.300000000000e+01 2.119784639481e-01 2.119784639481e-01 6.841328672561e-02 
5.400000000000e+01 2.159683631892e-01 2.159683631892e-01 7.057725911026e-02 
5.500000000000e+01 2.199541233501e-01 2.199541233501e-01 7.276589420805e-02 
5.600000000000e+01 2.239344409821e-01 2.239344409821e-01 7.497821660442e-02 
5.700000000000e+01 2.279077431404e-01 2.279077431404e-01 7.721306875313e-02 
5.800000000000e+01 2.318721707597e-01 2.318721707597e-01 7.946909311954e-02 
5.900000000000e+01 2.358255696869e-01 2.358255696869e-01 8.174471829620e-02 
6.000000000000e+01 2.397654906000e-01 2.397654906000e-01 8.403815012769e-02 
6.100000000000e+01 2.436891983425e-01 2.436891983425e-01 8.634736940048e-02 
6.200000000000e+01 2.475936912588e-01 2.475936912588e-01 8.867013475679e-02 
6.300000000000e+01 2.514757294404e-01 2.514757294404e-01 9.100399321170e-02 
6.400000000000e+01 2.553318708506e-01 2.553318708506e-01 9.334629692029e-02 
6.500000000000e+01 2.591585152132e-01 2.591585152132e-01 9.569422566429e-02 
6.600000000000e+01 2.629519514177e-01 2.629519514177e-01 9.804481301641e-02 
6.700000000000e+01 2.667084101095e-01 2.667084101095e-01 1.003949802168e-01 
6.800000000000e+01 2.704241159983e-01 2.704241159983e-01 1.027415695817e-01 
6.900000000000e+01 2.740953387911e-01 2.740953387911e-01 1.050813781429e-01 
7.000000000000e+01 2.777184450451e-01 2.777184450451e-01 1.074111991516e-01 
7.100000000000e+01 2.812899426296e-01 2.812899426296e-01 1.097278535286e-01 
7.200000000000e+01 2.848065216066e-01 2.848065216066e-01 1.120282246034e-01 
7.300000000000e+01 2.882650897826e-01 2.882650897826e-01 1.143092903300e-01 
7.400000000000e+01 2.916628017132e-01 2.916628017132e-01 1.165681510702e-01 
7.500000000000e+01 2.949970804181e-01 2.949970804181e-01 1.188020520269e-01 
7.600000000000e+01 2.982656348211e-01 2.982656348211e-01 1.210084082411e-01 
7.700000000000e+01 3.014664678736e-01 3.014664678736e-01 1.231848147405e-01 
7.800000000000e+01 3.045978816804e-01 3.045978816804e-01 1.253290622517e-01 
7.900000000000e+01 3.076584765399e-01 3.076584765399e-01 1.274391454027e-01 
8.000000000000e+01 3.106471457269e-01 3.106471457269e-01 1.295132655794e-01 
8.100000000000e+01 3.135630660889e-01 3.135630660889e-01 1.315498331501e-01 
8.200000000000e+01 3.164056857915e-01 3.164056857915e-01 1.335474649059e-01 
8.300000000000e+01 3.191747102627e-01 3.191747102627e-01 1.355049818136e-01 
8.400000000000e+01 3.218700852898e-01 3.218700852898e-01 1.374214009195e-01 
8.500000000000e+01 3.244919796064e-01 3.244919796064e-01 1.392959270369e-01 
8.600000000000e+01 3.270407666850e-01 3.270407666850e-01 1.411279453973e-01 
8.700000000000e+01 3.295170057890e-01 3.295170057890e-01 1.429170088266e-01 
8.800000000000e+01 3.319214236553e-01 3.319214236553e-01 1.446628290813e-01 
8.900000000000e+01 3.342548962399e-01 3.342548962399e-01 1.463652637092e-01 
9.000000000000e+01 3.365184307532e-01 3.365184307532e-01 1.480243045470e-01 
9.100000000000e+01 3.387131490618e-01 3.387131490618e-01 1.496400662132e-01 
9.200000000000e+01 3.408402718762e-01 3.408402718762e-01 1.512127763053e-01 
9.300000000000e+01 3.429011033740e-01 3.429011033740e-01 1.527427614015e-01 
9.400000000000e+01 3.448970179055e-01 3.448970179055e-01 1.542304399338e-01 
9.500000000000e+01 3.468294462380e-01 3.468294462380e-01 1.556763075527e-01 
9.600000000000e+01 3.486998644123e-01 3.486998644123e-01 1.570809307660e-01 
9.700000000000e+01 3.505097829449e-01 3.505097829449e-01 1.584449376355e-01 
9.800000000000e+01 3.522607370167e-01 3.522607370167e-01 1.597690077467e-01 
9.900000000000e+01 3.539542778265e-01 3.539542778265e-01 1.610538656684e-01 
1.000000000000e+02 3.555919647621e-01 3.555919647621e-01 1.623002730088e-01 
1.010000000000e+02 3.571753588396e-01 3.571753588396e-01 1.635090244139e-01 
1.020000000000e+02 3.587060162257e-01 3.587060162257e-01 1.646809357731e-01 
1.030000000000e+02 3.601854827362e-01 3.601854827362e-01 1.658168435226e-01 
1.040000000000e+02 3.616152898213e-01 3.616152898213e-01 1.669175997182e-01 
1.050000000000e+02 3.629969500294e-01 3.629969500294e-01 1.679840636574e-01 
1.060000000000e+02 3.643319540701e-01 3.643319540701e-01 1.690171026573e-01 
1.070000000000e+02 3.656217675739e-01 3.656217675739e-01 1.700175850600e-01 
1.080000000000e+02 3.668678288078e-01 3.668678288078e-01 1.709863785780e-01 
1.090000000000e+02 3.680715467088e-01 3.680715467088e-01 1.719243471005e-01 
1.100000000000e+02 3.692342994144e-01 3.692342994144e-01 1.728323490598e-01 
1.110000000000e+02 3.703574325084e-01 3.703574325084e-01 1.737112323620e-01 
1.120000000000e+02 3.714422585760e-01 3.714422585760e-01 1.745618364780e-01 
1.130000000000e+02 3.724900564571e-01 3.724900564571e-01 1.753849890669e-01 
1.140000000000e+02 3.735020706075e-01 3.735020706075e-01 1.761815041541e-01 
1.150000000000e+02 3.744795109256e-01 3.744795109256e-01 1.769521816184e-01 
1.160000000000e+02 3.754235526785e-01 3.754235526785e-01 1.776978060882e-01 
1.170000000000e+02 3.763353365778e-01 3.763353365778e-01 1.784191461732e-01 
1.180000000000e+02 3.772159689967e-01 3.772159689967e-01 1.791169538774e-01 
1.190000000000e+02 3.780665223398e-01 3.780665223398e-01 1.797919643612e-01 
1.200000000000e+02 3.788880353422e-01 3.788880353422e-01 1.804448943943e-01 
1.210000000000e+02 3.796815136921e-01 3.796815136921e-01 1.810764438883e-01 
1.220000000000e+02 3.804479305966e-01 3.804479305966e-01 1.816872945715e-01 
1.230000000000e+02 3.811882273958e-01 3.811882273958e-01 1.822781102336e-01 
1.240000000000e+02 3.819033142446e-01 3.819033142446e-01 1.828495366748e-01 
1.250000000000e+02 3.825940708209e-01 3.825940708209e-01 1.834022018147e-01 
1.260000000000e+02 3.832613470724e-01 3.832613470724e-01 1.839367157726e-01 
1.270000000000e+02 3.839059639777e-01 3.839059639777e-01 1.844536710815e-01 
1.280000000000e+02 3.845287143265e-01 3.845287143265e-01 1.849536428614e-01 
1.290000000000e+02 3.851303635015e-01 3.851303635015e-01 1.854371890998e-01 
1.300000000000e+02 3.857116502742e-01 3.857116502742e-01 1.859048509009e-01 
1.310000000000e+02 3.862732875929e-01 3.862732875929e-01 1.863571528091e-01 
1.320000000000e+02 3.868159633714e-01 3.868159633714e-01 1.867946031262e-01 
1.330000000000e+02 3.873403413014e-01 3.873403413014e-01 1.872176943093e-01 
1.340000000000e+02 3.878470614866e-01 3.878470614866e-01 1.876269030733e-01 
1.350000000000e+02 3.883367414240e-01 3.883367414240e-01 1.880226911343e-01 
1.360000000000e+02 3.888099765952e-01 3.888099765952e-01 1.884055053251e-01 
1.370000000000e+02 3.892673412447e-01 3.892673412447e-01 1.887757780496e-01 
1.380000000000e+02 3.897093890916e-01 3.897093890916e-01 1.891339276286e-01 
1.390000000000e+02 3.901366540357e-01 3.901366540357e-01 1.894803587034e-01 
1.400000000000e+02 3.905496508541e-01 3.905496508541e-01 1.898154626504e-01 
1.410000000000e+02 3.909488758365e-01 3.909488758365e-01 1.901396176994e-01 
1.420000000000e+02 3.913348074447e-01 3.913348074447e-01 1.904531900336e-01 
1.430000000000e+02 3.917079070153e-01 3.917079070153e-01 1.907565331972e-01 
1.440000000000e+02 3.920686192658e-01 3.920686192658e-01 1.910499890651e-01 
1.450000000000e+02 3.924173729289e-01 3.924173729289e-01 1.913338880500e-01 
1.460000000000e+02 3.927545813315e-01 3.927545813315e-01 1.916085494675e-01 
1.470000000000e+02 3.930806429513e-01 3.930806429513e-01 1.918742818766e-01 
1.480000000000e+02 3.933959419574e-01 3.933959419574e-01 1.921313834378e-01 
1.490000000000e+02 3.937008487292e-01 3.937008487292e-01 1.923801422219e-01 
1.500000000000e+02 3.939957203663e-01 3.939957203663e-01 1.926208365773e-01 
1.510000000000e+02 3.942809011641e-01 3.942809011641e-01 1.928537353888e-01 
1.520000000000e+02 3.945567231060e-01 3.945567231060e-01 1.930790985959e-01 
1.530000000000e+02 3.948235062728e-01 3.948235062728e-01 1.932971768311e-01 
1.540000000000e+02 3.950815592992e-01 3.950815592992e-01 1.935082126391e-01 
1.550000000000e+02 3.953311798171e-01 3.953311798171e-01 1.937124401882e-01 
1.560000000000e+02 3.955726548482e-01 3.955726548482e-01 1.939100856776e-01 
1.570000000000e+02 3.958062611935e-01 3.958062611935e-01 1.941013676097e-01 
1.580000000000e+02 3.960322658111e-01 3.960322658111e-01 1.942864970422e-01 
1.590000000000e+02 3.962509261791e-01 3.962509261791e-01 1.944656778529e-01 
1.600000000000e+02 3.964624906467e-01 3.964624906467e-01 1.946391069735e-01 
1.610000000000e+02 3.966671987706e-01 3.966671987706e-01 1.948069746355e-01 
1.620000000000e+02 3.968652816388e-01 3.968652816388e-01 1.949694645934e-01 
1.630000000000e+02 3.970569621842e-01 3.970569621842e-01 1.951267543526e-01 
1.640000000000e+02 3.972424554848e-01 3.972424554848e-01 1.952790153808e-01 
1.650000000000e+02 3.974219690530e-01 3.974219690530e-01 1.954264133191e-01 
1.660000000000e+02 3.975957031149e-01 3.975957031149e-01 1.955691081829e-01 
1.670000000000e+02 3.977638508764e-01 3.977638508764e-01 1.957072545525e-01 
1.680000000000e+02 3.979265987829e-01 3.979265987829e-01 1.958410017687e-01 
1.690000000000e+02 3.980841267668e-01 3.980841267668e-01 1.959704941074e-01 
1.700000000000e+02 3.982366084860e-01 3.982366084860e-01 1.960958709601e-01 
1.710000000000e+02 3.983842115529e-01 3.983842115529e-01 1.962172670005e-01 
1.720000000000e+02 3.985270977569e-01 3.985270977569e-01 1.963348123502e-01 
1.730000000000e+02 3.986654232752e-01 3.986654232752e-01 1.964486327346e-01 
1.740000000000e+02 3.987993388779e-01 3.987993388779e-01 1.965588496376e-01 
1.750000000000e+02 3.989289901256e-01 3.989289901256e-01 1.966655804479e-01 
1.760000000000e+02 3.990545175631e-01 3.990545175631e-01 1.967689386259e-01 
1.770000000000e+02 3.991760568770e-01 3.991760568770e-01 1.968690337372e-01 
1.780000000000e+02 3.992937391087e-01 3.992937391087e-01 1.969659717471e-01 
1.790000000000e+02 3.994076907988e-01 3.994076907988e-01 1.970598550385e-01 
1.800000000000e+02 3.995180341546e-01 3.995180341546e-01 1.971507825623e-01 
1.810000000000e+02 3.996248872061e-01 3.996248872061e-01 1.972388499559e-01 
1.820000000000e+02 3.997283639566e-01 3.997283639566e-01 1.973241496607e-01 
1.830000000000e+02 3.998285745256e-01 3.998285745256e-01 1.974067710262e-01 
1.840000000000e+02 3.999256252886e-01 3.999256252886e-01 1.974868004226e-01 
1.850000000000e+02 4.000196190082e-01 4.000196190082e-01 1.975643213273e-01 
1.860000000000e+02 4.001106549660e-01 4.001106549660e-01 1.976394144481e-01 
1.870000000000e+02 4.001988290910e-01 4.001988290910e-01 1.977121578298e-01 
1.880000000000e+02 4.002842340635e-01 4.002842340635e-01 1.977826268704e-01 
1.890000000000e+02 4.003669594687e-01 4.003669594687e-01 1.978508946009e-01 
1.900000000000e+02 4.004470918364e-01 4.004470918364e-01 1.979170314500e-01 
1.910000000000e+02 4.005247148242e-01 4.005247148242e-01 1.979811056542e-01 
1.920000000000e+02 4.005999092725e-01 4.005999092725e-01 1.980431831326e-01 
1.930000000000e+02 4.006727533122e-01 4.006727533122e-01 1.981033276526e-01 
1.940000000000e+02 4.007433224656e-01 4.007433224656e-01 1.981616008597e-01 
1.950000000000e+02 4.008116897410e-01 4.008116897410e-01 1.982180623996e-01 
1.960000000000e+02 4.008779257120e-01 4.008779257120e-01 1.982727699352e-01 
1.970000000000e+02 4.009420986065e-01 4.009420986065e-01 1.983257792448e-01 
1.980000000000e+02 4.010042743880e-01 4.010042743880e-01 1.983771442774e-01 
1.990000000000e+02 4.010645168339e-01 4.010645168339e-01 1.984269172155e-01 
2.000000000000e+02 4.011228876121e-01 4.011228876121e-01 1.984751485354e-01 
2.010000000000e+02 4.011794463531e-01 4.011794463531e-01 1.985218870642e-01 
2.020000000000e+02 4.012342507208e-01 4.012342507208e-01 1.985671800360e-01 
2.030000000000e+02 4.012873564807e-01 4.012873564807e-01 1.986110731468e-01 
2.040000000000e+02 4.013388175645e-01 4.013388175645e-01 1.986536106046e-01 
2.050000000000e+02 4.013886861334e-01 4.013886861334e-01 1.986948351809e-01 
2.060000000000e+02 4.014370126388e-01 4.014370126388e-01 1.987347882585e-01 
2.070000000000e+02 4.014838458812e-01 4.014838458812e-01 1.987735098788e-01 
2.080000000000e+02 4.015292330659e-01 4.015292330659e-01 1.988110387861e-01 
2.090000000000e+02 4.015732198578e-01 4.015732198578e-01 1.988474124718e-01 
2.100000000000e+02 4.016158504342e-01 4.016158504342e-01 1.988826672175e-01 
2.110000000000e+02 4.016571675340e-01 4.016571675340e-01 1.989168381294e-01 
2.120000000000e+02 4.016972125078e-01 4.016972125078e-01 1.989499591865e-01 
2.130000000000e+02 4.017360253645e-01 4.017360253645e-01 1.989820632730e-01 
2.140000000000e+02 4.017736448163e-01 4.017736448163e-01 1.990131822145e-01 
2.150000000000e+02 4.018101083228e-01 4.018101083228e-01 1.990433468151e-01 
2.160000000000e+02 4.018454521332e-01 4.018454521332e-01 1.990725868903e-01 
2.170000000000e+02 4.018797113265e-01 4.018797113265e-01 1.991009313002e-01 
2.180000000000e+02 4.019129198547e-01 4.019129198547e-01 1.991284079888e-01 
2.190000000000e+02 4.019451105669e-01 4.019451105669e-01 1.991550439829e-01 
2.200000000000e+02 4.019763152654e-01 4.019763152654e-01 1.991808654690e-01 
2.210000000000e+02 4.020065647291e-01 4.020065647291e-01 1.992058977906e-01 
2.220000000000e+02 4.020358887494e-01 4.020358887494e-01 1.992301654829e-01 
2.230000000000e+02 4.020643161643e-01 4.020643161643e-01 1.992536923033e-01 
2.240000000000e+02 4.020918748882e-01 4.020918748882e-01 1.992765012472e-01 
2.250000000000e+02 4.021185919446e-01 4.021185919446e-01 1.992986145858e-01 
2.260000000000e+02 4.021444934939e-01 4.021444934939e-01 1.993200538784e-01 
2.270000000000e+02 4.021696048629e-01 4.021696048629e-01 1.993408400030e-01 
2.280000000000e+02 4.021939505720e-01 4.021939505720e-01 1.993609931760e-01 
2.290000000000e+02 4.022175543620e-01 4.022175543620e-01 1.993805329738e-01 
2.300000000000e+02 4.022404392195e-01 4.022404392195e-01 1.993994783541e-01 
2.310000000000e+02 4.022626274016e-01 4.022626274016e-01 1.994178476754e-01 
2.320000000000e+02 4.022841404601e-01 4.022841404601e-01 1.994356587176e-01 
2.330000000000e+02 4.023049992643e-01 4.023049992643e-01 1.994529286995e-01 
2.340000000000e+02 4.023252240237e-01 4.023252240237e-01 1.994696742978e-01 
2.350000000000e+02 4.023448343091e-01 4.023448343091e-01 1.994859116647e-01 
2.360000000000e+02 4.023638490738e-01 4.023638490738e-01 1.995016564444e-01 
2.370000000000e+02 4.023822866732e-01 4.023822866732e-01 1.995169237897e-01 
2.380000000000e+02 4.024001648851e-01 4.024001648851e-01 1.995317283783e-01 
2.390000000000e+02 4.024175009275e-01 4.024175009275e-01 1.995460844274e-01 
2.400000000000e+02 4.024343114772e-01 4.024343114772e-01 1.995600057088e-01 
