 TITLE = "Profiles along polylines"
 VARIABLES = "DIST" "TEMPERATURE1" "VELOCITY_X1" "VELOCITY_Y1" "VELOCITY_Z1" 
 ZONE T="TIME=0.000000000000e+00"
0.000000000000e+00 1.000000000000e+00 0.000000000000e+00 0.000000000000e+00 0.000000000000e+00 
2.000000000000e+00 0.000000000000e+00 0.000000000000e+00 0.000000000000e+00 0.000000000000e+00 
4.000000000000e+00 0.000000000000e+00 0.000000000000e+00 0.000000000000e+00 0.000000000000e+00 
6.000000000000e+00 0.000000000000e+00 0.000000000000e+00 0.000000000000e+00 0.000000000000e+00 
8.000000000000e+00 0.000000000000e+00 0.000000000000e+00 0.000000000000e+00 0.000000000000e+00 
1.000000000000e+01 0.000000000000e+00 0.000000000000e+00 0.000000000000e+00 0.000000000000e+00 
1.200000000000e+01 0.000000000000e+00 0.000000000000e+00 0.000000000000e+00 0.000000000000e+00 
1.400000000000e+01 0.000000000000e+00 0.000000000000e+00 0.000000000000e+00 0.000000000000e+00 
1.600000000000e+01 0.000000000000e+00 0.000000000000e+00 0.000000000000e+00 0.000000000000e+00 
1.800000000000e+01 0.000000000000e+00 0.000000000000e+00 0.000000000000e+00 0.000000000000e+00 
2.000000000000e+01 0.000000000000e+00 0.000000000000e+00 0.000000000000e+00 0.000000000000e+00 
2.200000000000e+01 0.000000000000e+00 0.000000000000e+00 0.000000000000e+00 0.000000000000e+00 
2.400000000000e+01 0.000000000000e+00 0.000000000000e+00 0.000000000000e+00 0.000000000000e+00 
2.600000000000e+01 0.000000000000e+00 0.000000000000e+00 0.000000000000e+00 0.000000000000e+00 
2.800000000000e+01 0.000000000000e+00 0.000000000000e+00 0.000000000000e+00 0.000000000000e+00 
3.000000000000e+01 0.000000000000e+00 0.000000000000e+00 0.000000000000e+00 0.000000000000e+00 
3.200000000000e+01 0.000000000000e+00 0.000000000000e+00 0.000000000000e+00 0.000000000000e+00 
3.400000000000e+01 0.000000000000e+00 0.000000000000e+00 0.000000000000e+00 0.000000000000e+00 
3.600000000000e+01 0.000000000000e+00 0.000000000000e+00 0.000000000000e+00 0.000000000000e+00 
3.800000000000e+01 0.000000000000e+00 0.000000000000e+00 0.000000000000e+00 0.000000000000e+00 
4.000000000000e+01 0.000000000000e+00 0.000000000000e+00 0.000000000000e+00 0.000000000000e+00 
4.200000000000e+01 0.000000000000e+00 0.000000000000e+00 0.000000000000e+00 0.000000000000e+00 
4.400000000000e+01 0.000000000000e+00 0.000000000000e+00 0.000000000000e+00 0.000000000000e+00 
4.600000000000e+01 0.000000000000e+00 0.000000000000e+00 0.000000000000e+00 0.000000000000e+00 
4.800000000000e+01 0.000000000000e+00 0.000000000000e+00 0.000000000000e+00 0.000000000000e+00 
5.000000000000e+01 0.000000000000e+00 0.000000000000e+00 0.000000000000e+00 0.000000000000e+00 
 TITLE = "Profiles along polylines"
 VARIABLES = "DIST" "TEMPERATURE1" "VELOCITY_X1" "VELOCITY_Y1" "VELOCITY_Z1" 
 ZONE T="TIME=5.000000000000e+07"
0.000000000000e+00 1.000000000000e+00 5.000000000000e-05 0.000000000000e+00 0.000000000000e+00 
2.000000000000e+00 4.284793557024e-01 5.000000000000e-05 0.000000000000e+00 0.000000000000e+00 
4.000000000000e+00 1.184209439866e-01 5.000000000000e-05 0.000000000000e+00 0.000000000000e+00 
6.000000000000e+00 1.892996464737e-02 5.000000000000e-05 0.000000000000e+00 0.000000000000e+00 
8.000000000000e+00 1.025972740554e-03 5.000000000000e-05 0.000000000000e+00 0.000000000000e+00 
1.000000000000e+01 -1.527037661571e-04 5.000000000000e-05 0.000000000000e+00 0.000000000000e+00 
1.200000000000e+01 -1.556872372320e-05 5.000000000000e-05 0.000000000000e+00 0.000000000000e+00 
1.400000000000e+01 2.432125951426e-06 5.000000000000e-05 0.000000000000e+00 0.000000000000e+00 
1.600000000000e+01 1.300575735455e-07 5.000000000000e-05 0.000000000000e+00 0.000000000000e+00 
1.800000000000e+01 -4.795944342034e-08 5.000000000000e-05 0.000000000000e+00 0.000000000000e+00 
2.000000000000e+01 1.919196127616e-09 5.000000000000e-05 0.000000000000e+00 0.000000000000e+00 
2.200000000000e+01 6.467495291247e-10 5.000000000000e-05 0.000000000000e+00 0.000000000000e+00 
2.400000000000e+01 -1.105031573045e-10 5.000000000000e-05 0.000000000000e+00 0.000000000000e+00 
2.600000000000e+01 2.242699553201e-12 5.000000000000e-05 0.000000000000e+00 0.000000000000e+00 
2.800000000000e+01 1.801229427152e-12 5.000000000000e-05 0.000000000000e+00 0.000000000000e+00 
3.000000000000e+01 -3.164449654910e-13 5.000000000000e-05 0.000000000000e+00 0.000000000000e+00 
3.200000000000e+01 1.481051584073e-14 5.000000000000e-05 0.000000000000e+00 0.000000000000e+00 
3.400000000000e+01 3.933319254064e-15 5.000000000000e-05 0.000000000000e+00 0.000000000000e+00 
3.600000000000e+01 -1.000585937614e-15 5.000000000000e-05 0.000000000000e+00 0.000000000000e+00 
3.800000000000e+01 1.012406049641e-16 5.000000000000e-05 0.000000000000e+00 0.000000000000e+00 
4.000000000000e+01 2.021266004404e-18 5.000000000000e-05 0.000000000000e+00 0.000000000000e+00 
4.200000000000e+01 -2.575437723236e-18 5.000000000000e-05 0.000000000000e+00 0.000000000000e+00 
4.400000000000e+01 4.754828536775e-19 5.000000000000e-05 0.000000000000e+00 0.000000000000e+00 
4.600000000000e+01 -4.159900119358e-20 5.000000000000e-05 0.000000000000e+00 0.000000000000e+00 
4.800000000000e+01 -2.063793265112e-21 5.000000000000e-05 0.000000000000e+00 0.000000000000e+00 
5.000000000000e+01 2.149503008618e-21 5.000000000000e-05 0.000000000000e+00 0.000000000000e+00 
 TITLE = "Profiles along polylines"
 VARIABLES = "DIST" "TEMPERATURE1" "VELOCITY_X1" "VELOCITY_Y1" "VELOCITY_Z1" 
 ZONE T="TIME=1.000000000000e+08"
0.000000000000e+00 1.000000000000e+00 5.000000000000e-05 0.000000000000e+00 0.000000000000e+00 
2.000000000000e+00 5.741962483635e-01 5.000000000000e-05 0.000000000000e+00 0.000000000000e+00 
4.000000000000e+00 2.637530116333e-01 5.000000000000e-05 0.000000000000e+00 0.000000000000e+00 
6.000000000000e+00 9.524656834679e-02 5.000000000000e-05 0.000000000000e+00 0.000000000000e+00 
8.000000000000e+00 2.646561719269e-02 5.000000000000e-05 0.000000000000e+00 0.000000000000e+00 
1.000000000000e+01 5.433119591240e-03 5.000000000000e-05 0.000000000000e+00 0.000000000000e+00 
1.200000000000e+01 7.478078647740e-04 5.000000000000e-05 0.000000000000e+00 0.000000000000e+00 
1.400000000000e+01 4.762029699668e-05 5.000000000000e-05 0.000000000000e+00 0.000000000000e+00 
1.600000000000e+01 -3.865726079149e-06 5.000000000000e-05 0.000000000000e+00 0.000000000000e+00 
1.800000000000e+01 -9.282350585045e-07 5.000000000000e-05 0.000000000000e+00 0.000000000000e+00 
2.000000000000e+01 3.337928221114e-09 5.000000000000e-05 0.000000000000e+00 0.000000000000e+00 
2.200000000000e+01 1.355518712435e-08 5.000000000000e-05 0.000000000000e+00 0.000000000000e+00 
2.400000000000e+01 1.086303400249e-10 5.000000000000e-05 0.000000000000e+00 0.000000000000e+00 
2.600000000000e+01 -2.125077214369e-10 5.000000000000e-05 0.000000000000e+00 0.000000000000e+00 
2.800000000000e+01 2.835590500483e-12 5.000000000000e-05 0.000000000000e+00 0.000000000000e+00 
3.000000000000e+01 3.417330617185e-12 5.000000000000e-05 0.000000000000e+00 0.000000000000e+00 
3.200000000000e+01 -2.143541705058e-13 5.000000000000e-05 0.000000000000e+00 0.000000000000e+00 
3.400000000000e+01 -4.629685039054e-14 5.000000000000e-05 0.000000000000e+00 0.000000000000e+00 
3.600000000000e+01 7.084340157750e-15 5.000000000000e-05 0.000000000000e+00 0.000000000000e+00 
3.800000000000e+01 2.591569151256e-16 5.000000000000e-05 0.000000000000e+00 0.000000000000e+00 
4.000000000000e+01 -1.530413814277e-16 5.000000000000e-05 0.000000000000e+00 0.000000000000e+00 
4.200000000000e+01 1.029215100699e-17 5.000000000000e-05 0.000000000000e+00 0.000000000000e+00 
4.400000000000e+01 1.786896514432e-18 5.000000000000e-05 0.000000000000e+00 0.000000000000e+00 
4.600000000000e+01 -3.997069040502e-19 5.000000000000e-05 0.000000000000e+00 0.000000000000e+00 
4.800000000000e+01 1.237149042817e-20 5.000000000000e-05 0.000000000000e+00 0.000000000000e+00 
5.000000000000e+01 9.521475779248e-21 5.000000000000e-05 0.000000000000e+00 0.000000000000e+00 
 TITLE = "Profiles along polylines"
 VARIABLES = "DIST" "TEMPERATURE1" "VELOCITY_X1" "VELOCITY_Y1" "VELOCITY_Z1" 
 ZONE T="TIME=1.500000000000e+08"
0.000000000000e+00 1.000000000000e+00 5.000000000000e-05 0.000000000000e+00 0.000000000000e+00 
2.000000000000e+00 6.468011870827e-01 5.000000000000e-05 0.000000000000e+00 0.000000000000e+00 
4.000000000000e+00 3.605716737351e-01 5.000000000000e-05 0.000000000000e+00 0.000000000000e+00 
6.000000000000e+00 1.713856858804e-01 5.000000000000e-05 0.000000000000e+00 0.000000000000e+00 
8.000000000000e+00 6.887964329712e-02 5.000000000000e-05 0.000000000000e+00 0.000000000000e+00 
1.000000000000e+01 2.319420819907e-02 5.000000000000e-05 0.000000000000e+00 0.000000000000e+00 
1.200000000000e+01 6.458441084164e-03 5.000000000000e-05 0.000000000000e+00 0.000000000000e+00 
1.400000000000e+01 1.454608688824e-03 5.000000000000e-05 0.000000000000e+00 0.000000000000e+00 
1.600000000000e+01 2.541750218640e-04 5.000000000000e-05 0.000000000000e+00 0.000000000000e+00 
1.800000000000e+01 3.132517308528e-05 5.000000000000e-05 0.000000000000e+00 0.000000000000e+00 
2.000000000000e+01 1.912709941296e-06 5.000000000000e-05 0.000000000000e+00 0.000000000000e+00 
2.200000000000e+01 -1.426516154950e-07 5.000000000000e-05 0.000000000000e+00 0.000000000000e+00 
2.400000000000e+01 -4.083565870255e-08 5.000000000000e-05 0.000000000000e+00 0.000000000000e+00 
2.600000000000e+01 -1.642486051588e-09 5.000000000000e-05 0.000000000000e+00 0.000000000000e+00 
2.800000000000e+01 4.677848974963e-10 5.000000000000e-05 0.000000000000e+00 0.000000000000e+00 
3.000000000000e+01 4.882279494610e-11 5.000000000000e-05 0.000000000000e+00 0.000000000000e+00 
3.200000000000e+01 -5.249667226296e-12 5.000000000000e-05 0.000000000000e+00 0.000000000000e+00 
3.400000000000e+01 -8.783535192762e-13 5.000000000000e-05 0.000000000000e+00 0.000000000000e+00 
3.600000000000e+01 7.423347655635e-14 5.000000000000e-05 0.000000000000e+00 0.000000000000e+00 
3.800000000000e+01 1.407648970928e-14 5.000000000000e-05 0.000000000000e+00 0.000000000000e+00 
4.000000000000e+01 -1.404997641815e-15 5.000000000000e-05 0.000000000000e+00 0.000000000000e+00 
4.200000000000e+01 -2.034541983128e-16 5.000000000000e-05 0.000000000000e+00 0.000000000000e+00 
4.400000000000e+01 3.062432666582e-17 5.000000000000e-05 0.000000000000e+00 0.000000000000e+00 
4.600000000000e+01 2.236597139675e-18 5.000000000000e-05 0.000000000000e+00 0.000000000000e+00 
4.800000000000e+01 -6.441008293205e-19 5.000000000000e-05 0.000000000000e+00 0.000000000000e+00 
5.000000000000e+01 -1.977801141869e-20 5.000000000000e-05 0.000000000000e+00 0.000000000000e+00 
 TITLE = "Profiles along polylines"
 VARIABLES = "DIST" "TEMPERATURE1" "VELOCITY_X1" "VELOCITY_Y1" "VELOCITY_Z1" 
 ZONE T="TIME=2.000000000000e+08"
0.000000000000e+00 1.000000000000e+00 5.000000000000e-05 0.000000000000e+00 0.000000000000e+00 
2.000000000000e+00 6.917674196227e-01 5.000000000000e-05 0.000000000000e+00 0.000000000000e+00 
4.000000000000e+00 4.283941744887e-01 5.000000000000e-05 0.000000000000e+00 0.000000000000e+00 
6.000000000000e+00 2.355790138663e-01 5.000000000000e-05 0.000000000000e+00 0.000000000000e+00 
8.000000000000e+00 1.143682659414e-01 5.000000000000e-05 0.000000000000e+00 0.000000000000e+00 
1.000000000000e+01 4.877971546454e-02 5.000000000000e-05 0.000000000000e+00 0.000000000000e+00 
1.200000000000e+01 1.818680787254e-02 5.000000000000e-05 0.000000000000e+00 0.000000000000e+00 
1.400000000000e+01 5.889814675373e-03 5.000000000000e-05 0.000000000000e+00 0.000000000000e+00 
1.600000000000e+01 1.641824701933e-03 5.000000000000e-05 0.000000000000e+00 0.000000000000e+00 
1.800000000000e+01 3.884434904160e-04 5.000000000000e-05 0.000000000000e+00 0.000000000000e+00 
2.000000000000e+01 7.620005135786e-05 5.000000000000e-05 0.000000000000e+00 0.000000000000e+00 
2.200000000000e+01 1.186745913221e-05 5.000000000000e-05 0.000000000000e+00 0.000000000000e+00 
2.400000000000e+01 1.328319516635e-06 5.000000000000e-05 0.000000000000e+00 0.000000000000e+00 
2.600000000000e+01 7.249520736257e-08 5.000000000000e-05 0.000000000000e+00 0.000000000000e+00 
2.800000000000e+01 -6.642166994421e-09 5.000000000000e-05 0.000000000000e+00 0.000000000000e+00 
3.000000000000e+01 -1.805651236953e-09 5.000000000000e-05 0.000000000000e+00 0.000000000000e+00 
3.200000000000e+01 -1.049685205812e-10 5.000000000000e-05 0.000000000000e+00 0.000000000000e+00 
3.400000000000e+01 1.580917312639e-11 5.000000000000e-05 0.000000000000e+00 0.000000000000e+00 
3.600000000000e+01 2.761183399515e-12 5.000000000000e-05 0.000000000000e+00 0.000000000000e+00 
3.800000000000e+01 -5.602636613953e-14 5.000000000000e-05 0.000000000000e+00 0.000000000000e+00 
4.000000000000e+01 -4.477170112182e-14 5.000000000000e-05 0.000000000000e+00 0.000000000000e+00 
4.200000000000e+01 -9.409075422247e-16 5.000000000000e-05 0.000000000000e+00 0.000000000000e+00 
4.400000000000e+01 6.763875564315e-16 5.000000000000e-05 0.000000000000e+00 0.000000000000e+00 
4.600000000000e+01 2.788257983099e-17 5.000000000000e-05 0.000000000000e+00 0.000000000000e+00 
4.800000000000e+01 -1.056049273785e-17 5.000000000000e-05 0.000000000000e+00 0.000000000000e+00 
5.000000000000e+01 -8.356473076729e-19 5.000000000000e-05 0.000000000000e+00 0.000000000000e+00 
 TITLE = "Profiles along polylines"
 VARIABLES = "DIST" "TEMPERATURE1" "VELOCITY_X1" "VELOCITY_Y1" "VELOCITY_Z1" 
 ZONE T="TIME=2.500000000000e+08"
0.000000000000e+00 1.000000000000e+00 5.000000000000e-05 0.000000000000e+00 0.000000000000e+00 
2.000000000000e+00 7.230442421211e-01 5.000000000000e-05 0.000000000000e+00 0.000000000000e+00 
4.000000000000e+00 4.787886670616e-01 5.000000000000e-05 0.000000000000e+00 0.000000000000e+00 
6.000000000000e+00 2.885207911954e-01 5.000000000000e-05 0.000000000000e+00 0.000000000000e+00 
8.000000000000e+00 1.574826948348e-01 5.000000000000e-05 0.000000000000e+00 0.000000000000e+00 
1.000000000000e+01 7.757723327411e-02 5.000000000000e-05 0.000000000000e+00 0.000000000000e+00 
1.200000000000e+01 3.438125389606e-02 5.000000000000e-05 0.000000000000e+00 0.000000000000e+00 
1.400000000000e+01 1.366546334186e-02 5.000000000000e-05 0.000000000000e+00 0.000000000000e+00 
1.600000000000e+01 4.853267872758e-03 5.000000000000e-05 0.000000000000e+00 0.000000000000e+00 
1.800000000000e+01 1.532688629764e-03 5.000000000000e-05 0.000000000000e+00 0.000000000000e+00 
2.000000000000e+01 4.275285104456e-04 5.000000000000e-05 0.000000000000e+00 0.000000000000e+00 
2.200000000000e+01 1.043072427114e-04 5.000000000000e-05 0.000000000000e+00 0.000000000000e+00 
2.400000000000e+01 2.192724156863e-05 5.000000000000e-05 0.000000000000e+00 0.000000000000e+00 
2.600000000000e+01 3.874569989875e-06 5.000000000000e-05 0.000000000000e+00 0.000000000000e+00 
2.800000000000e+01 5.495055827114e-07 5.000000000000e-05 0.000000000000e+00 0.000000000000e+00 
3.000000000000e+01 5.608574135207e-08 5.000000000000e-05 0.000000000000e+00 0.000000000000e+00 
3.200000000000e+01 2.562371642490e-09 5.000000000000e-05 0.000000000000e+00 0.000000000000e+00 
3.400000000000e+01 -3.423439712775e-10 5.000000000000e-05 0.000000000000e+00 0.000000000000e+00 
3.600000000000e+01 -8.146479348181e-11 5.000000000000e-05 0.000000000000e+00 0.000000000000e+00 
3.800000000000e+01 -5.253464666975e-12 5.000000000000e-05 0.000000000000e+00 0.000000000000e+00 
4.000000000000e+01 5.783799250793e-13 5.000000000000e-05 0.000000000000e+00 0.000000000000e+00 
4.200000000000e+01 1.310836042685e-13 5.000000000000e-05 0.000000000000e+00 0.000000000000e+00 
4.400000000000e+01 2.485053532458e-15 5.000000000000e-05 0.000000000000e+00 0.000000000000e+00 
4.600000000000e+01 -1.777566591904e-15 5.000000000000e-05 0.000000000000e+00 0.000000000000e+00 
4.800000000000e+01 -1.495544341779e-16 5.000000000000e-05 0.000000000000e+00 0.000000000000e+00 
5.000000000000e+01 2.189464496776e-17 5.000000000000e-05 0.000000000000e+00 0.000000000000e+00 
 TITLE = "Profiles along polylines"
 VARIABLES = "DIST" "TEMPERATURE1" "VELOCITY_X1" "VELOCITY_Y1" "VELOCITY_Z1" 
 ZONE T="TIME=3.000000000000e+08"
0.000000000000e+00 1.000000000000e+00 5.000000000000e-05 0.000000000000e+00 0.000000000000e+00 
2.000000000000e+00 7.464029001682e-01 5.000000000000e-05 0.000000000000e+00 0.000000000000e+00 
4.000000000000e+00 5.179949300900e-01 5.000000000000e-05 0.000000000000e+00 0.000000000000e+00 
6.000000000000e+00 3.325251586670e-01 5.000000000000e-05 0.000000000000e+00 0.000000000000e+00 
8.000000000000e+00 1.966866806981e-01 5.000000000000e-05 0.000000000000e+00 0.000000000000e+00 
1.000000000000e+01 1.068720837627e-01 5.000000000000e-05 0.000000000000e+00 0.000000000000e+00 
1.200000000000e+01 5.321464967289e-02 5.000000000000e-05 0.000000000000e+00 0.000000000000e+00 
1.400000000000e+01 2.422915957505e-02 5.000000000000e-05 0.000000000000e+00 0.000000000000e+00 
1.600000000000e+01 1.006588467444e-02 5.000000000000e-05 0.000000000000e+00 0.000000000000e+00 
1.800000000000e+01 3.806489744877e-03 5.000000000000e-05 0.000000000000e+00 0.000000000000e+00 
2.000000000000e+01 1.306385774685e-03 5.000000000000e-05 0.000000000000e+00 0.000000000000e+00 
2.200000000000e+01 4.053421884277e-04 5.000000000000e-05 0.000000000000e+00 0.000000000000e+00 
2.400000000000e+01 1.131150204987e-04 5.000000000000e-05 0.000000000000e+00 0.000000000000e+00 
2.600000000000e+01 2.818530527984e-05 5.000000000000e-05 0.000000000000e+00 0.000000000000e+00 
2.800000000000e+01 6.205554016099e-06 5.000000000000e-05 0.000000000000e+00 0.000000000000e+00 
3.000000000000e+01 1.188110526801e-06 5.000000000000e-05 0.000000000000e+00 0.000000000000e+00 
3.200000000000e+01 1.926485402903e-07 5.000000000000e-05 0.000000000000e+00 0.000000000000e+00 
3.400000000000e+01 2.515732350667e-08 5.000000000000e-05 0.000000000000e+00 0.000000000000e+00 
3.600000000000e+01 2.335510638574e-09 5.000000000000e-05 0.000000000000e+00 0.000000000000e+00 
3.800000000000e+01 8.024894636042e-11 5.000000000000e-05 0.000000000000e+00 0.000000000000e+00 
4.000000000000e+01 -1.816427445105e-11 5.000000000000e-05 0.000000000000e+00 0.000000000000e+00 
4.200000000000e+01 -3.722295026809e-12 5.000000000000e-05 0.000000000000e+00 0.000000000000e+00 
4.400000000000e+01 -2.412255034651e-13 5.000000000000e-05 0.000000000000e+00 0.000000000000e+00 
4.600000000000e+01 2.348095185196e-14 5.000000000000e-05 0.000000000000e+00 0.000000000000e+00 
4.800000000000e+01 5.937093356078e-15 5.000000000000e-05 0.000000000000e+00 0.000000000000e+00 
5.000000000000e+01 3.922596288037e-16 5.000000000000e-05 0.000000000000e+00 0.000000000000e+00 
 TITLE = "Profiles along polylines"
 VARIABLES = "DIST" "TEMPERATURE1" "VELOCITY_X1" "VELOCITY_Y1" "VELOCITY_Z1" 
 ZONE T="TIME=3.500000000000e+08"
0.000000000000e+00 1.000000000000e+00 5.000000000000e-05 0.000000000000e+00 0.000000000000e+00 
2.000000000000e+00 7.647022317443e-01 5.000000000000e-05 0.000000000000e+00 0.000000000000e+00 
4.000000000000e+00 5.495747804046e-01 5.000000000000e-05 0.000000000000e+00 0.000000000000e+00 
6.000000000000e+00 3.696194704230e-01 5.000000000000e-05 0.000000000000e+00 0.000000000000e+00 
8.000000000000e+00 2.318641681699e-01 5.000000000000e-05 0.000000000000e+00 0.000000000000e+00 
1.000000000000e+01 1.353097451719e-01 5.000000000000e-05 0.000000000000e+00 0.000000000000e+00 
1.200000000000e+01 7.330542639213e-02 5.000000000000e-05 0.000000000000e+00 0.000000000000e+00 
1.400000000000e+01 3.680442900654e-02 5.000000000000e-05 0.000000000000e+00 0.000000000000e+00 
1.600000000000e+01 1.709788337997e-02 5.000000000000e-05 0.000000000000e+00 0.000000000000e+00 
1.800000000000e+01 7.338223050712e-03 5.000000000000e-05 0.000000000000e+00 0.000000000000e+00 
2.000000000000e+01 2.904780546741e-03 5.000000000000e-05 0.000000000000e+00 0.000000000000e+00 
2.200000000000e+01 1.058395513628e-03 5.000000000000e-05 0.000000000000e+00 0.000000000000e+00 
2.400000000000e+01 3.541009182358e-04 5.000000000000e-05 0.000000000000e+00 0.000000000000e+00 
2.600000000000e+01 1.084379309665e-04 5.000000000000e-05 0.000000000000e+00 0.000000000000e+00 
2.800000000000e+01 3.026984581371e-05 5.000000000000e-05 0.000000000000e+00 0.000000000000e+00 
3.000000000000e+01 7.659320336986e-06 5.000000000000e-05 0.000000000000e+00 0.000000000000e+00 
3.200000000000e+01 1.743263097423e-06 5.000000000000e-05 0.000000000000e+00 0.000000000000e+00 
3.400000000000e+01 3.529277053898e-07 5.000000000000e-05 0.000000000000e+00 0.000000000000e+00 
3.600000000000e+01 6.248147597643e-08 5.000000000000e-05 0.000000000000e+00 0.000000000000e+00 
3.800000000000e+01 9.400157799525e-09 5.000000000000e-05 0.000000000000e+00 0.000000000000e+00 
4.000000000000e+01 1.136316869366e-09 5.000000000000e-05 0.000000000000e+00 0.000000000000e+00 
4.200000000000e+01 9.511723792368e-11 5.000000000000e-05 0.000000000000e+00 0.000000000000e+00 
4.400000000000e+01 1.881504570089e-12 5.000000000000e-05 0.000000000000e+00 0.000000000000e+00 
4.600000000000e+01 -9.629695298488e-13 5.000000000000e-05 0.000000000000e+00 0.000000000000e+00 
4.800000000000e+01 -1.687158087164e-13 5.000000000000e-05 0.000000000000e+00 0.000000000000e+00 
5.000000000000e+01 -1.477806197001e-14 5.000000000000e-05 0.000000000000e+00 0.000000000000e+00 
 TITLE = "Profiles along polylines"
 VARIABLES = "DIST" "TEMPERATURE1" "VELOCITY_X1" "VELOCITY_Y1" "VELOCITY_Z1" 
 ZONE T="TIME=4.000000000000e+08"
0.000000000000e+00 1.000000000000e+00 5.000000000000e-05 0.000000000000e+00 0.000000000000e+00 
2.000000000000e+00 7.795385170261e-01 5.000000000000e-05 0.000000000000e+00 0.000000000000e+00 
4.000000000000e+00 5.756991761667e-01 5.000000000000e-05 0.000000000000e+00 0.000000000000e+00 
6.000000000000e+00 4.013403933146e-01 5.000000000000e-05 0.000000000000e+00 0.000000000000e+00 
8.000000000000e+00 2.633562120533e-01 5.000000000000e-05 0.000000000000e+00 0.000000000000e+00 
1.000000000000e+01 1.622896990833e-01 5.000000000000e-05 0.000000000000e+00 0.000000000000e+00 
1.200000000000e+01 9.374659305087e-02 5.000000000000e-05 0.000000000000e+00 0.000000000000e+00 
1.400000000000e+01 5.068537636509e-02 5.000000000000e-05 0.000000000000e+00 0.000000000000e+00 
1.600000000000e+01 2.561612375564e-02 5.000000000000e-05 0.000000000000e+00 0.000000000000e+00 
1.800000000000e+01 1.208753975090e-02 5.000000000000e-05 0.000000000000e+00 0.000000000000e+00 
2.000000000000e+01 5.319278321443e-03 5.000000000000e-05 0.000000000000e+00 0.000000000000e+00 
2.200000000000e+01 2.180316383041e-03 5.000000000000e-05 0.000000000000e+00 0.000000000000e+00 
2.400000000000e+01 8.312349906927e-04 5.000000000000e-05 0.000000000000e+00 0.000000000000e+00 
2.600000000000e+01 2.942593739766e-04 5.000000000000e-05 0.000000000000e+00 0.000000000000e+00 
2.800000000000e+01 9.652304026584e-05 5.000000000000e-05 0.000000000000e+00 0.000000000000e+00 
3.000000000000e+01 2.926036989822e-05 5.000000000000e-05 0.000000000000e+00 0.000000000000e+00 
3.200000000000e+01 8.169660327878e-06 5.000000000000e-05 0.000000000000e+00 0.000000000000e+00 
3.400000000000e+01 2.091584677986e-06 5.000000000000e-05 0.000000000000e+00 0.000000000000e+00 
3.600000000000e+01 4.881026713438e-07 5.000000000000e-05 0.000000000000e+00 0.000000000000e+00 
3.800000000000e+01 1.029771697149e-07 5.000000000000e-05 0.000000000000e+00 0.000000000000e+00 
4.000000000000e+01 1.940908274044e-08 5.000000000000e-05 0.000000000000e+00 0.000000000000e+00 
4.200000000000e+01 3.208760956009e-09 5.000000000000e-05 0.000000000000e+00 0.000000000000e+00 
4.400000000000e+01 4.509295669841e-10 5.000000000000e-05 0.000000000000e+00 0.000000000000e+00 
4.600000000000e+01 5.053652445798e-11 5.000000000000e-05 0.000000000000e+00 0.000000000000e+00 
4.800000000000e+01 3.731562353845e-12 5.000000000000e-05 0.000000000000e+00 0.000000000000e+00 
5.000000000000e+01 4.862602884138e-14 5.000000000000e-05 0.000000000000e+00 0.000000000000e+00 
 TITLE = "Profiles along polylines"
 VARIABLES = "DIST" "TEMPERATURE1" "VELOCITY_X1" "VELOCITY_Y1" "VELOCITY_Z1" 
 ZONE T="TIME=4.500000000000e+08"
0.000000000000e+00 1.000000000000e+00 5.000000000000e-05 0.000000000000e+00 0.000000000000e+00 
2.000000000000e+00 7.918818875507e-01 5.000000000000e-05 0.000000000000e+00 0.000000000000e+00 
4.000000000000e+00 5.977685437834e-01 5.000000000000e-05 0.000000000000e+00 0.000000000000e+00 
6.000000000000e+00 4.288224970140e-01 5.000000000000e-05 0.000000000000e+00 0.000000000000e+00 
8.000000000000e+00 2.916118760768e-01 5.000000000000e-05 0.000000000000e+00 0.000000000000e+00 
1.000000000000e+01 1.875990168099e-01 5.000000000000e-05 0.000000000000e+00 0.000000000000e+00 
1.200000000000e+01 1.139818383287e-01 5.000000000000e-05 0.000000000000e+00 0.000000000000e+00 
1.400000000000e+01 6.531810462298e-02 5.000000000000e-05 0.000000000000e+00 0.000000000000e+00 
1.600000000000e+01 3.526414774008e-02 5.000000000000e-05 0.000000000000e+00 0.000000000000e+00 
1.800000000000e+01 1.791874444261e-02 5.000000000000e-05 0.000000000000e+00 0.000000000000e+00 
2.000000000000e+01 8.561736421708e-03 5.000000000000e-05 0.000000000000e+00 0.000000000000e+00 
2.200000000000e+01 3.843325993145e-03 5.000000000000e-05 0.000000000000e+00 0.000000000000e+00 
2.400000000000e+01 1.619322184823e-03 5.000000000000e-05 0.000000000000e+00 0.000000000000e+00 
2.600000000000e+01 6.397078227186e-04 5.000000000000e-05 0.000000000000e+00 0.000000000000e+00 
2.800000000000e+01 2.366564898223e-04 5.000000000000e-05 0.000000000000e+00 0.000000000000e+00 
3.000000000000e+01 8.186586622367e-05 5.000000000000e-05 0.000000000000e+00 0.000000000000e+00 
3.200000000000e+01 2.643325581459e-05 5.000000000000e-05 0.000000000000e+00 0.000000000000e+00 
3.400000000000e+01 7.948531741610e-06 5.000000000000e-05 0.000000000000e+00 0.000000000000e+00 
3.600000000000e+01 2.219642501169e-06 5.000000000000e-05 0.000000000000e+00 0.000000000000e+00 
3.800000000000e+01 5.735449030249e-07 5.000000000000e-05 0.000000000000e+00 0.000000000000e+00 
4.000000000000e+01 1.364864220057e-07 5.000000000000e-05 0.000000000000e+00 0.000000000000e+00 
4.200000000000e+01 2.972486461694e-08 5.000000000000e-05 0.000000000000e+00 0.000000000000e+00 
4.400000000000e+01 5.871819452273e-09 5.000000000000e-05 0.000000000000e+00 0.000000000000e+00 
4.600000000000e+01 1.040873852354e-09 5.000000000000e-05 0.000000000000e+00 0.000000000000e+00 
4.800000000000e+01 1.588533990930e-10 5.000000000000e-05 0.000000000000e+00 0.000000000000e+00 
5.000000000000e+01 2.581490056502e-11 5.000000000000e-05 0.000000000000e+00 0.000000000000e+00 
 TITLE = "Profiles along polylines"
 VARIABLES = "DIST" "TEMPERATURE1" "VELOCITY_X1" "VELOCITY_Y1" "VELOCITY_Z1" 
 ZONE T="TIME=5.000000000000e+08"
0.000000000000e+00 1.000000000000e+00 5.000000000000e-05 0.000000000000e+00 0.000000000000e+00 
2.000000000000e+00 8.023602854305e-01 5.000000000000e-05 0.000000000000e+00 0.000000000000e+00 
4.000000000000e+00 6.167294592429e-01 5.000000000000e-05 0.000000000000e+00 0.000000000000e+00 
6.000000000000e+00 4.529070964908e-01 5.000000000000e-05 0.000000000000e+00 0.000000000000e+00 
8.000000000000e+00 3.170671968316e-01 5.000000000000e-05 0.000000000000e+00 0.000000000000e+00 
1.000000000000e+01 2.112166405681e-01 5.000000000000e-05 0.000000000000e+00 0.000000000000e+00 
1.200000000000e+01 1.336869008745e-01 5.000000000000e-05 0.000000000000e+00 0.000000000000e+00 
1.400000000000e+01 8.029686023735e-02 5.000000000000e-05 0.000000000000e+00 0.000000000000e+00 
1.600000000000e+01 4.572064682110e-02 5.000000000000e-05 0.000000000000e+00 0.000000000000e+00 
1.800000000000e+01 2.465762631053e-02 5.000000000000e-05 0.000000000000e+00 0.000000000000e+00 
2.000000000000e+01 1.258577349711e-02 5.000000000000e-05 0.000000000000e+00 0.000000000000e+00 
2.200000000000e+01 6.075557311938e-03 5.000000000000e-05 0.000000000000e+00 0.000000000000e+00 
2.400000000000e+01 2.771799942560e-03 5.000000000000e-05 0.000000000000e+00 0.000000000000e+00 
2.600000000000e+01 1.194222561047e-03 5.000000000000e-05 0.000000000000e+00 0.000000000000e+00 
2.800000000000e+01 4.855150563372e-04 5.000000000000e-05 0.000000000000e+00 0.000000000000e+00 
3.000000000000e+01 1.860846857764e-04 5.000000000000e-05 0.000000000000e+00 0.000000000000e+00 
3.200000000000e+01 6.716387527702e-05 5.000000000000e-05 0.000000000000e+00 0.000000000000e+00 
3.400000000000e+01 2.279881714109e-05 5.000000000000e-05 0.000000000000e+00 0.000000000000e+00 
3.600000000000e+01 7.266989368941e-06 5.000000000000e-05 0.000000000000e+00 0.000000000000e+00 
3.800000000000e+01 2.170816434557e-06 5.000000000000e-05 0.000000000000e+00 0.000000000000e+00 
4.000000000000e+01 6.062768842150e-07 5.000000000000e-05 0.000000000000e+00 0.000000000000e+00 
4.200000000000e+01 1.578433914443e-07 5.000000000000e-05 0.000000000000e+00 0.000000000000e+00 
4.400000000000e+01 3.814141827757e-08 5.000000000000e-05 0.000000000000e+00 0.000000000000e+00 
4.600000000000e+01 8.542762535859e-09 5.000000000000e-05 0.000000000000e+00 0.000000000000e+00 
4.800000000000e+01 1.713171998215e-09 5.000000000000e-05 0.000000000000e+00 0.000000000000e+00 
5.000000000000e+01 3.793585293486e-10 5.000000000000e-05 0.000000000000e+00 0.000000000000e+00 
