 TITLE = "Time curves in points"
 VARIABLES = "TIME"  "TEMPERATURE1" 
 ZONE T="POINT=POINT4"
0.000000000000e+00 0.000000000000e+00 
5.000000000000e-03 6.058980304266e-02 
1.000000000000e-02 9.814679262433e-02 
1.500000000000e-02 1.260834890817e-01 
2.000000000000e-02 1.490690320155e-01 
2.500000000000e-02 1.690268429145e-01 
3.000000000000e-02 1.868993730494e-01 
3.500000000000e-02 2.032222348964e-01 
4.000000000000e-02 2.183349803938e-01 
4.500000000000e-02 2.324696384335e-01 
5.000000000000e-02 2.457931901544e-01 
5.500000000000e-02 2.584304166837e-01 
6.000000000000e-02 2.704773229914e-01 
6.500000000000e-02 2.820095481994e-01 
7.000000000000e-02 2.930878869945e-01 
7.500000000000e-02 3.037620453089e-01 
8.000000000000e-02 3.140732687843e-01 
8.500000000000e-02 3.240562272202e-01 
9.000000000000e-02 3.337403944722e-01 
9.500000000000e-02 3.431510781814e-01 
1.000000000000e-01 3.523102014359e-01 
1.050000000000e-01 3.612369053899e-01 
1.100000000000e-01 3.699480204299e-01 
1.150000000000e-01 3.784584392946e-01 
1.200000000000e-01 3.867814160005e-01 
1.250000000000e-01 3.949288078651e-01 
1.300000000000e-01 4.029112733542e-01 
1.350000000000e-01 4.107384352419e-01 
1.400000000000e-01 4.184190162518e-01 
1.450000000000e-01 4.259609526595e-01 
1.500000000000e-01 4.333714900847e-01 
1.550000000000e-01 4.406572647771e-01 
1.600000000000e-01 4.478243729982e-01 
1.650000000000e-01 4.548784305622e-01 
1.700000000000e-01 4.618246241927e-01 
1.750000000000e-01 4.686677560319e-01 
1.800000000000e-01 4.754122823834e-01 
1.850000000000e-01 4.820623475791e-01 
1.900000000000e-01 4.886218136997e-01 
1.950000000000e-01 4.950942867528e-01 
2.000000000000e-01 5.014831398097e-01 
2.050000000000e-01 5.077915335262e-01 
2.100000000000e-01 5.140224343939e-01 
2.150000000000e-01 5.201786310281e-01 
2.200000000000e-01 5.262627487389e-01 
2.250000000000e-01 5.322772626051e-01 
2.300000000000e-01 5.382245092323e-01 
2.350000000000e-01 5.441066973552e-01 
2.400000000000e-01 5.499259174192e-01 
2.450000000000e-01 5.556841502580e-01 
2.500000000000e-01 5.613832749723e-01 
2.550000000000e-01 5.670250760924e-01 
2.600000000000e-01 5.726112501083e-01 
2.650000000000e-01 5.781434114305e-01 
2.700000000000e-01 5.836230978424e-01 
2.750000000000e-01 5.890517754960e-01 
2.800000000000e-01 5.944308434960e-01 
2.850000000000e-01 5.997616381154e-01 
2.900000000000e-01 6.050454366743e-01 
2.950000000000e-01 6.102834611189e-01 
3.000000000000e-01 6.154768813232e-01 
3.050000000000e-01 6.206268181450e-01 
3.100000000000e-01 6.257343462524e-01 
3.150000000000e-01 6.308004967456e-01 
3.200000000000e-01 6.358262595915e-01 
3.250000000000e-01 6.408125858833e-01 
3.300000000000e-01 6.457603899461e-01 
3.350000000000e-01 6.506705512967e-01 
3.400000000000e-01 6.555439164706e-01 
3.450000000000e-01 6.603813007284e-01 
3.500000000000e-01 6.651834896512e-01 
3.550000000000e-01 6.699512406302e-01 
3.600000000000e-01 6.746852842645e-01 
3.650000000000e-01 6.793863256693e-01 
3.700000000000e-01 6.840550457036e-01 
3.750000000000e-01 6.886921021231e-01 
3.800000000000e-01 6.932981306628e-01 
3.850000000000e-01 6.978737460564e-01 
3.900000000000e-01 7.024195429950e-01 
3.950000000000e-01 7.069360970302e-01 
4.000000000000e-01 7.114239654264e-01 
4.050000000000e-01 7.158836879637e-01 
4.100000000000e-01 7.203157876972e-01 
4.150000000000e-01 7.247207716733e-01 
4.200000000000e-01 7.290991316085e-01 
4.250000000000e-01 7.334513445294e-01 
4.300000000000e-01 7.377778733814e-01 
4.350000000000e-01 7.420791676034e-01 
4.400000000000e-01 7.463556636735e-01 
4.450000000000e-01 7.506077856261e-01 
4.500000000000e-01 7.548359455434e-01 
4.550000000000e-01 7.590405440226e-01 
4.600000000000e-01 7.632219706182e-01 
4.650000000000e-01 7.673806042639e-01 
4.700000000000e-01 7.715168136744e-01 
4.750000000000e-01 7.756309577267e-01 
4.800000000000e-01 7.797233858238e-01 
4.850000000000e-01 7.837944382416e-01 
4.900000000000e-01 7.878444464590e-01 
4.950000000000e-01 7.918737334733e-01 
5.000000000000e-01 7.958826141016e-01 
5.050000000000e-01 7.998713952667e-01 
5.100000000000e-01 8.038403762728e-01 
5.150000000000e-01 8.077898490675e-01 
5.200000000000e-01 8.117200984919e-01 
5.250000000000e-01 8.156314025212e-01 
5.300000000000e-01 8.195240324938e-01 
5.350000000000e-01 8.233982533321e-01 
5.400000000000e-01 8.272543237512e-01 
5.450000000000e-01 8.310924964620e-01 
5.500000000000e-01 8.349130183646e-01 
5.550000000000e-01 8.387161307328e-01 
5.600000000000e-01 8.425020693930e-01 
5.650000000000e-01 8.462710648938e-01 
5.700000000000e-01 8.500233426712e-01 
5.750000000000e-01 8.537591232051e-01 
5.800000000000e-01 8.574786221706e-01 
5.850000000000e-01 8.611820505833e-01 
5.900000000000e-01 8.648696149402e-01 
5.950000000000e-01 8.685415173520e-01 
6.000000000000e-01 8.721979556745e-01 
6.050000000000e-01 8.758391236314e-01 
6.100000000000e-01 8.794652109353e-01 
6.150000000000e-01 8.830764034022e-01 
6.200000000000e-01 8.866728830631e-01 
6.250000000000e-01 8.902548282711e-01 
6.300000000000e-01 8.938224138042e-01 
6.350000000000e-01 8.973758109654e-01 
6.400000000000e-01 9.009151876784e-01 
6.450000000000e-01 9.044407085804e-01 
6.500000000000e-01 9.079525351107e-01 
6.550000000000e-01 9.114508255982e-01 
6.600000000000e-01 9.149357353439e-01 
6.650000000000e-01 9.184074167013e-01 
6.700000000000e-01 9.218660191548e-01 
6.750000000000e-01 9.253116893941e-01 
6.800000000000e-01 9.287445713871e-01 
6.850000000000e-01 9.321648064500e-01 
6.900000000000e-01 9.355725333155e-01 
6.950000000000e-01 9.389678881979e-01 
7.000000000000e-01 9.423510048569e-01 
7.050000000000e-01 9.457220146595e-01 
7.100000000000e-01 9.490810466390e-01 
7.150000000000e-01 9.524282275527e-01 
7.200000000000e-01 9.557636819376e-01 
7.250000000000e-01 9.590875321654e-01 
7.300000000000e-01 9.623998984928e-01 
7.350000000000e-01 9.657008991150e-01 
7.400000000000e-01 9.689906502129e-01 
7.450000000000e-01 9.722692660011e-01 
7.500000000000e-01 9.755368587749e-01 
7.550000000000e-01 9.787935389549e-01 
7.600000000000e-01 9.820394151300e-01 
7.650000000000e-01 9.852745941002e-01 
7.700000000000e-01 9.884991809175e-01 
7.750000000000e-01 9.917132789254e-01 
7.800000000000e-01 9.949169897982e-01 
7.850000000000e-01 9.981104135776e-01 
7.900000000000e-01 1.001293648710e+00 
7.950000000000e-01 1.004466792082e+00 
8.000000000000e-01 1.007629939052e+00 
8.050000000000e-01 1.010783183490e+00 
8.100000000000e-01 1.013926617803e+00 
8.150000000000e-01 1.017060332970e+00 
8.200000000000e-01 1.020184418574e+00 
8.250000000000e-01 1.023298962828e+00 
8.300000000000e-01 1.026404052609e+00 
8.350000000000e-01 1.029499773481e+00 
8.400000000000e-01 1.032586209726e+00 
8.450000000000e-01 1.035663444372e+00 
8.500000000000e-01 1.038731559213e+00 
8.550000000000e-01 1.041790634842e+00 
8.600000000000e-01 1.044840750669e+00 
8.650000000000e-01 1.047881984951e+00 
8.700000000000e-01 1.050914414810e+00 
8.750000000000e-01 1.053938116259e+00 
8.800000000000e-01 1.056953164224e+00 
8.850000000000e-01 1.059959632565e+00 
8.900000000000e-01 1.062957594097e+00 
8.950000000000e-01 1.065947120611e+00 
9.000000000000e-01 1.068928282893e+00 
9.050000000000e-01 1.071901150747e+00 
9.100000000000e-01 1.074865793009e+00 
9.150000000000e-01 1.077822277569e+00 
9.200000000000e-01 1.080770671388e+00 
9.250000000000e-01 1.083711040517e+00 
9.300000000000e-01 1.086643450112e+00 
9.350000000000e-01 1.089567964452e+00 
9.400000000000e-01 1.092484646956e+00 
9.450000000000e-01 1.095393560198e+00 
9.500000000000e-01 1.098294765925e+00 
9.550000000000e-01 1.101188325068e+00 
9.600000000000e-01 1.104074297761e+00 
9.650000000000e-01 1.106952743353e+00 
9.700000000000e-01 1.109823720424e+00 
9.750000000000e-01 1.112687286798e+00 
9.800000000000e-01 1.115543499556e+00 
9.850000000000e-01 1.118392415050e+00 
9.900000000000e-01 1.121234088918e+00 
9.950000000000e-01 1.124068576092e+00 
1.000000000000e+00 1.126895930814e+00 
