 TITLE = "Profiles along polylines"
 VARIABLES = "DIST" "PRESSURE1" "SATURATION1" "SATURATION2" 
 ZONE T="TIME=0.000000000000e+00"
0.000000000000e+00 9.806700000000e+04 1.000000000000e+00 0.000000000000e+00 
3.333333333333e-01 9.806700000000e+04 1.000000000000e+00 0.000000000000e+00 
6.666666666667e-01 9.806700000000e+04 1.000000000000e+00 0.000000000000e+00 
1.000000000000e+00 9.806700000000e+04 1.000000000000e+00 0.000000000000e+00 
1.333333333333e+00 9.806700000000e+04 1.000000000000e+00 0.000000000000e+00 
1.666666666667e+00 9.806700000000e+04 1.000000000000e+00 0.000000000000e+00 
2.000000000000e+00 9.806700000000e+04 1.000000000000e+00 0.000000000000e+00 
2.333333333333e+00 9.806700000000e+04 1.000000000000e+00 0.000000000000e+00 
2.666666666667e+00 9.806700000000e+04 1.000000000000e+00 0.000000000000e+00 
3.000000000000e+00 9.806700000000e+04 1.000000000000e+00 0.000000000000e+00 
3.333333333333e+00 9.806700000000e+04 1.000000000000e+00 0.000000000000e+00 
3.666666666667e+00 9.806700000000e+04 1.000000000000e+00 0.000000000000e+00 
4.000000000000e+00 9.806700000000e+04 1.000000000000e+00 0.000000000000e+00 
4.333333333333e+00 9.806700000000e+04 1.000000000000e+00 0.000000000000e+00 
4.666666666667e+00 9.806700000000e+04 1.000000000000e+00 0.000000000000e+00 
5.000000000000e+00 9.806700000000e+04 8.999977480000e-01 1.000022520000e-01 
5.333333333333e+00 9.806700000000e+04 8.999977480000e-01 1.000022520000e-01 
5.666666666667e+00 9.806700000000e+04 8.999977480000e-01 1.000022520000e-01 
6.000000000000e+00 9.806700000000e+04 8.999977480000e-01 1.000022520000e-01 
6.333333333333e+00 9.806700000000e+04 8.999977480000e-01 1.000022520000e-01 
6.666666666667e+00 9.806700000000e+04 8.999977480000e-01 1.000022520000e-01 
7.000000000000e+00 9.806700000000e+04 8.999977480000e-01 1.000022520000e-01 
7.333333333333e+00 9.806700000000e+04 8.999977480000e-01 1.000022520000e-01 
7.666666666667e+00 9.806700000000e+04 8.999977480000e-01 1.000022520000e-01 
8.000000000000e+00 9.806700000000e+04 8.999977480000e-01 1.000022520000e-01 
8.333333333333e+00 9.806700000000e+04 8.999977480000e-01 1.000022520000e-01 
8.666666666667e+00 9.806700000000e+04 8.999977480000e-01 1.000022520000e-01 
9.000000000000e+00 9.806700000000e+04 8.999977480000e-01 1.000022520000e-01 
9.333333333333e+00 9.806700000000e+04 8.999977480000e-01 1.000022520000e-01 
9.666666666667e+00 9.806700000000e+04 8.999977480000e-01 1.000022520000e-01 
1.000000000000e+01 9.806700000000e+04 8.999977480000e-01 1.000022520000e-01 
1.033333333333e+01 9.806700000000e+04 8.999977480000e-01 1.000022520000e-01 
1.066666666667e+01 9.806700000000e+04 1.000000000000e+00 0.000000000000e+00 
1.100000000000e+01 9.806700000000e+04 1.000000000000e+00 0.000000000000e+00 
1.133333333333e+01 9.806700000000e+04 1.000000000000e+00 0.000000000000e+00 
1.166666666667e+01 9.806700000000e+04 1.000000000000e+00 0.000000000000e+00 
1.200000000000e+01 9.806700000000e+04 1.000000000000e+00 0.000000000000e+00 
1.233333333333e+01 9.806700000000e+04 1.000000000000e+00 0.000000000000e+00 
1.266666666667e+01 9.806700000000e+04 1.000000000000e+00 0.000000000000e+00 
1.300000000000e+01 9.806700000000e+04 1.000000000000e+00 0.000000000000e+00 
1.333333333333e+01 9.806700000000e+04 1.000000000000e+00 0.000000000000e+00 
1.366666666667e+01 9.806700000000e+04 1.000000000000e+00 0.000000000000e+00 
1.400000000000e+01 9.806700000000e+04 1.000000000000e+00 0.000000000000e+00 
1.433333333333e+01 9.806700000000e+04 1.000000000000e+00 0.000000000000e+00 
1.466666666667e+01 9.806700000000e+04 1.000000000000e+00 0.000000000000e+00 
1.500000000000e+01 9.806700000000e+04 1.000000000000e+00 0.000000000000e+00 
1.533333333333e+01 9.806700000000e+04 1.000000000000e+00 0.000000000000e+00 
1.566666666667e+01 9.806700000000e+04 1.000000000000e+00 0.000000000000e+00 
1.600000000000e+01 9.806700000000e+04 1.000000000000e+00 0.000000000000e+00 
1.633333333333e+01 9.806700000000e+04 1.000000000000e+00 0.000000000000e+00 
1.666666666667e+01 9.806700000000e+04 1.000000000000e+00 0.000000000000e+00 
1.700000000000e+01 9.806700000000e+04 1.000000000000e+00 0.000000000000e+00 
1.733333333333e+01 9.806700000000e+04 1.000000000000e+00 0.000000000000e+00 
1.766666666667e+01 9.806700000000e+04 1.000000000000e+00 0.000000000000e+00 
1.800000000000e+01 9.806700000000e+04 1.000000000000e+00 0.000000000000e+00 
1.833333333333e+01 9.806700000000e+04 1.000000000000e+00 0.000000000000e+00 
1.866666666667e+01 9.806700000000e+04 1.000000000000e+00 0.000000000000e+00 
1.900000000000e+01 9.806700000000e+04 1.000000000000e+00 0.000000000000e+00 
1.933333333333e+01 9.806700000000e+04 1.000000000000e+00 0.000000000000e+00 
1.966666666667e+01 9.806700000000e+04 1.000000000000e+00 0.000000000000e+00 
2.000000000000e+01 9.806700000000e+04 1.000000000000e+00 0.000000000000e+00 
2.033333333333e+01 9.806700000000e+04 1.000000000000e+00 0.000000000000e+00 
2.066666666667e+01 9.806700000000e+04 1.000000000000e+00 0.000000000000e+00 
2.100000000000e+01 9.806700000000e+04 1.000000000000e+00 0.000000000000e+00 
2.133333333333e+01 9.806700000000e+04 1.000000000000e+00 0.000000000000e+00 
2.166666666667e+01 9.806700000000e+04 1.000000000000e+00 0.000000000000e+00 
2.200000000000e+01 9.806700000000e+04 1.000000000000e+00 0.000000000000e+00 
2.233333333333e+01 9.806700000000e+04 1.000000000000e+00 0.000000000000e+00 
2.266666666667e+01 9.806700000000e+04 1.000000000000e+00 0.000000000000e+00 
2.300000000000e+01 9.806700000000e+04 1.000000000000e+00 0.000000000000e+00 
2.333333333333e+01 9.806700000000e+04 1.000000000000e+00 0.000000000000e+00 
2.366666666667e+01 9.806700000000e+04 1.000000000000e+00 0.000000000000e+00 
2.400000000000e+01 9.806700000000e+04 1.000000000000e+00 0.000000000000e+00 
2.433333333333e+01 9.806700000000e+04 1.000000000000e+00 0.000000000000e+00 
2.466666666667e+01 9.806700000000e+04 1.000000000000e+00 0.000000000000e+00 
2.500000000000e+01 9.806700000000e+04 1.000000000000e+00 0.000000000000e+00 
2.533333333333e+01 9.806700000000e+04 1.000000000000e+00 0.000000000000e+00 
2.566666666667e+01 9.806700000000e+04 1.000000000000e+00 0.000000000000e+00 
2.600000000000e+01 9.806700000000e+04 1.000000000000e+00 0.000000000000e+00 
2.633333333333e+01 9.806700000000e+04 1.000000000000e+00 0.000000000000e+00 
2.666666666667e+01 9.806700000000e+04 1.000000000000e+00 0.000000000000e+00 
2.700000000000e+01 9.806700000000e+04 1.000000000000e+00 0.000000000000e+00 
2.733333333333e+01 9.806700000000e+04 1.000000000000e+00 0.000000000000e+00 
2.766666666667e+01 9.806700000000e+04 1.000000000000e+00 0.000000000000e+00 
2.800000000000e+01 9.806700000000e+04 1.000000000000e+00 0.000000000000e+00 
2.833333333333e+01 9.806700000000e+04 1.000000000000e+00 0.000000000000e+00 
2.866666666667e+01 9.806700000000e+04 1.000000000000e+00 0.000000000000e+00 
2.900000000000e+01 9.806700000000e+04 1.000000000000e+00 0.000000000000e+00 
2.933333333333e+01 9.806700000000e+04 1.000000000000e+00 0.000000000000e+00 
2.966666666667e+01 9.806700000000e+04 1.000000000000e+00 0.000000000000e+00 
3.000000000000e+01 9.806700000000e+04 1.000000000000e+00 0.000000000000e+00 
3.033333333333e+01 9.806700000000e+04 1.000000000000e+00 0.000000000000e+00 
3.066666666667e+01 9.806700000000e+04 1.000000000000e+00 0.000000000000e+00 
3.100000000000e+01 9.806700000000e+04 1.000000000000e+00 0.000000000000e+00 
3.133333333333e+01 9.806700000000e+04 1.000000000000e+00 0.000000000000e+00 
3.166666666667e+01 9.806700000000e+04 1.000000000000e+00 0.000000000000e+00 
3.200000000000e+01 9.806700000000e+04 1.000000000000e+00 0.000000000000e+00 
3.233333333333e+01 9.806700000000e+04 1.000000000000e+00 0.000000000000e+00 
3.266666666667e+01 9.806700000000e+04 1.000000000000e+00 0.000000000000e+00 
3.300000000000e+01 9.806700000000e+04 1.000000000000e+00 0.000000000000e+00 
3.333333333333e+01 9.806700000000e+04 1.000000000000e+00 0.000000000000e+00 
3.366666666667e+01 9.806700000000e+04 1.000000000000e+00 0.000000000000e+00 
3.400000000000e+01 9.806700000000e+04 1.000000000000e+00 0.000000000000e+00 
3.433333333333e+01 9.806700000000e+04 1.000000000000e+00 0.000000000000e+00 
3.466666666667e+01 9.806700000000e+04 1.000000000000e+00 0.000000000000e+00 
3.500000000000e+01 9.806700000000e+04 1.000000000000e+00 0.000000000000e+00 
3.533333333333e+01 9.806700000000e+04 1.000000000000e+00 0.000000000000e+00 
3.566666666667e+01 9.806700000000e+04 1.000000000000e+00 0.000000000000e+00 
3.600000000000e+01 9.806700000000e+04 1.000000000000e+00 0.000000000000e+00 
3.633333333333e+01 9.806700000000e+04 1.000000000000e+00 0.000000000000e+00 
3.666666666667e+01 9.806700000000e+04 1.000000000000e+00 0.000000000000e+00 
3.700000000000e+01 9.806700000000e+04 1.000000000000e+00 0.000000000000e+00 
3.733333333333e+01 9.806700000000e+04 1.000000000000e+00 0.000000000000e+00 
3.766666666667e+01 9.806700000000e+04 1.000000000000e+00 0.000000000000e+00 
3.800000000000e+01 9.806700000000e+04 1.000000000000e+00 0.000000000000e+00 
3.833333333333e+01 9.806700000000e+04 1.000000000000e+00 0.000000000000e+00 
3.866666666667e+01 9.806700000000e+04 1.000000000000e+00 0.000000000000e+00 
3.900000000000e+01 9.806700000000e+04 1.000000000000e+00 0.000000000000e+00 
3.933333333333e+01 9.806700000000e+04 1.000000000000e+00 0.000000000000e+00 
3.966666666667e+01 9.806700000000e+04 1.000000000000e+00 0.000000000000e+00 
4.000000000000e+01 9.806700000000e+04 1.000000000000e+00 0.000000000000e+00 
4.033333333333e+01 9.806700000000e+04 1.000000000000e+00 0.000000000000e+00 
4.066666666667e+01 9.806700000000e+04 1.000000000000e+00 0.000000000000e+00 
4.100000000000e+01 9.806700000000e+04 1.000000000000e+00 0.000000000000e+00 
4.133333333333e+01 9.806700000000e+04 1.000000000000e+00 0.000000000000e+00 
4.166666666667e+01 9.806700000000e+04 1.000000000000e+00 0.000000000000e+00 
4.200000000000e+01 9.806700000000e+04 1.000000000000e+00 0.000000000000e+00 
4.233333333333e+01 9.806700000000e+04 1.000000000000e+00 0.000000000000e+00 
4.266666666667e+01 9.806700000000e+04 1.000000000000e+00 0.000000000000e+00 
4.300000000000e+01 9.806700000000e+04 1.000000000000e+00 0.000000000000e+00 
4.333333333333e+01 9.806700000000e+04 1.000000000000e+00 0.000000000000e+00 
4.366666666667e+01 9.806700000000e+04 1.000000000000e+00 0.000000000000e+00 
4.400000000000e+01 9.806700000000e+04 1.000000000000e+00 0.000000000000e+00 
4.433333333333e+01 9.806700000000e+04 1.000000000000e+00 0.000000000000e+00 
4.466666666667e+01 9.806700000000e+04 1.000000000000e+00 0.000000000000e+00 
4.500000000000e+01 9.806700000000e+04 1.000000000000e+00 0.000000000000e+00 
4.533333333333e+01 9.806700000000e+04 1.000000000000e+00 0.000000000000e+00 
4.566666666667e+01 9.806700000000e+04 1.000000000000e+00 0.000000000000e+00 
4.600000000000e+01 9.806700000000e+04 1.000000000000e+00 0.000000000000e+00 
4.633333333333e+01 9.806700000000e+04 1.000000000000e+00 0.000000000000e+00 
4.666666666667e+01 9.806700000000e+04 1.000000000000e+00 0.000000000000e+00 
4.700000000000e+01 9.806700000000e+04 1.000000000000e+00 0.000000000000e+00 
4.733333333333e+01 9.806700000000e+04 1.000000000000e+00 0.000000000000e+00 
4.766666666667e+01 9.806700000000e+04 1.000000000000e+00 0.000000000000e+00 
4.800000000000e+01 9.806700000000e+04 1.000000000000e+00 0.000000000000e+00 
4.833333333333e+01 9.806700000000e+04 1.000000000000e+00 0.000000000000e+00 
4.866666666667e+01 9.806700000000e+04 1.000000000000e+00 0.000000000000e+00 
4.900000000000e+01 9.806700000000e+04 1.000000000000e+00 0.000000000000e+00 
4.933333333333e+01 9.806700000000e+04 1.000000000000e+00 0.000000000000e+00 
4.966666666667e+01 9.806700000000e+04 1.000000000000e+00 0.000000000000e+00 
5.000000000000e+01 9.806700000000e+04 1.000000000000e+00 0.000000000000e+00 
 TITLE = "Profiles along polylines"
 VARIABLES = "DIST" "PRESSURE1" "SATURATION1" "SATURATION2" 
 ZONE T="TIME=2.160000000000e+04"
0.000000000000e+00 9.810000000000e+04 1.000000000000e+00 0.000000000000e+00 
3.333333333333e-01 9.807040210660e+04 1.000000000000e+00 0.000000000000e+00 
6.666666666667e-01 9.804006706419e+04 1.000000000000e+00 0.000000000000e+00 
1.000000000000e+00 9.800951661116e+04 1.000000000000e+00 0.000000000000e+00 
1.333333333333e+00 9.797890321057e+04 1.000000000000e+00 0.000000000000e+00 
1.666666666667e+00 9.794827141537e+04 1.000000000000e+00 0.000000000000e+00 
2.000000000000e+00 9.791763424486e+04 1.000000000000e+00 0.000000000000e+00 
2.333333333333e+00 9.788699550359e+04 1.000000000000e+00 0.000000000000e+00 
2.666666666667e+00 9.785635630329e+04 1.000000000000e+00 0.000000000000e+00 
3.000000000000e+00 9.782571696886e+04 1.000000000000e+00 0.000000000000e+00 
3.333333333333e+00 9.779507759524e+04 1.000000000000e+00 0.000000000000e+00 
3.666666666667e+00 9.776443821016e+04 1.000000000000e+00 0.000000000000e+00 
4.000000000000e+00 9.773379882173e+04 1.000000000000e+00 0.000000000000e+00 
4.333333333333e+00 9.770315943233e+04 1.000000000000e+00 0.000000000000e+00 
4.666666666667e+00 9.767252004263e+04 1.000000000000e+00 0.000000000000e+00 
5.000000000000e+00 9.763432122421e+04 8.999977480000e-01 1.000022520000e-01 
5.333333333333e+00 9.758530853755e+04 8.999977480000e-01 1.000022520000e-01 
5.666666666667e+00 9.753629585089e+04 8.999977480000e-01 1.000022520000e-01 
6.000000000000e+00 9.748728316423e+04 8.999977480000e-01 1.000022520000e-01 
6.333333333333e+00 9.743827047757e+04 8.999977480000e-01 1.000022520000e-01 
6.666666666667e+00 9.738925779090e+04 8.999977480000e-01 1.000022520000e-01 
7.000000000000e+00 9.734024510424e+04 8.999977480000e-01 1.000022520000e-01 
7.333333333333e+00 9.729123241757e+04 8.999977480000e-01 1.000022520000e-01 
7.666666666667e+00 9.724221973091e+04 8.999977480000e-01 1.000022520000e-01 
8.000000000000e+00 9.719320704424e+04 8.999977480000e-01 1.000022520000e-01 
8.333333333333e+00 9.714419435757e+04 8.999977480000e-01 1.000022520000e-01 
8.666666666667e+00 9.709518167091e+04 8.999977480000e-01 1.000022520000e-01 
9.000000000000e+00 9.704616898424e+04 8.999977480000e-01 1.000022520000e-01 
9.333333333333e+00 9.699715629758e+04 8.999977480000e-01 1.000022520000e-01 
9.666666666667e+00 9.694814361091e+04 8.999977480000e-01 1.000022520000e-01 
1.000000000000e+01 9.689913092425e+04 8.999977480000e-01 1.000022520000e-01 
1.033333333333e+01 9.685011823758e+04 8.999977480000e-01 1.000022520000e-01 
1.066666666667e+01 9.681191941912e+04 1.000000000000e+00 0.000000000000e+00 
1.100000000000e+01 9.678128002931e+04 1.000000000000e+00 0.000000000000e+00 
1.133333333333e+01 9.675064063950e+04 1.000000000000e+00 0.000000000000e+00 
1.166666666667e+01 9.672000124969e+04 1.000000000000e+00 0.000000000000e+00 
1.200000000000e+01 9.668936185988e+04 1.000000000000e+00 0.000000000000e+00 
1.233333333333e+01 9.665872247007e+04 1.000000000000e+00 0.000000000000e+00 
1.266666666667e+01 9.662808308026e+04 1.000000000000e+00 0.000000000000e+00 
1.300000000000e+01 9.659744369046e+04 1.000000000000e+00 0.000000000000e+00 
1.333333333333e+01 9.656680430064e+04 1.000000000000e+00 0.000000000000e+00 
1.366666666667e+01 9.653616491084e+04 1.000000000000e+00 0.000000000000e+00 
1.400000000000e+01 9.650552552103e+04 1.000000000000e+00 0.000000000000e+00 
1.433333333333e+01 9.647488613123e+04 1.000000000000e+00 0.000000000000e+00 
1.466666666667e+01 9.644424674142e+04 1.000000000000e+00 0.000000000000e+00 
1.500000000000e+01 9.641360735162e+04 1.000000000000e+00 0.000000000000e+00 
1.533333333333e+01 9.638296796181e+04 1.000000000000e+00 0.000000000000e+00 
1.566666666667e+01 9.635232857201e+04 1.000000000000e+00 0.000000000000e+00 
1.600000000000e+01 9.632168918221e+04 1.000000000000e+00 0.000000000000e+00 
1.633333333333e+01 9.629104979241e+04 1.000000000000e+00 0.000000000000e+00 
1.666666666667e+01 9.626041040261e+04 1.000000000000e+00 0.000000000000e+00 
1.700000000000e+01 9.622977101281e+04 1.000000000000e+00 0.000000000000e+00 
1.733333333333e+01 9.619913162302e+04 1.000000000000e+00 0.000000000000e+00 
1.766666666667e+01 9.616849223323e+04 1.000000000000e+00 0.000000000000e+00 
1.800000000000e+01 9.613785284344e+04 1.000000000000e+00 0.000000000000e+00 
1.833333333333e+01 9.610721345365e+04 1.000000000000e+00 0.000000000000e+00 
1.866666666667e+01 9.607657406387e+04 1.000000000000e+00 0.000000000000e+00 
1.900000000000e+01 9.604593467409e+04 1.000000000000e+00 0.000000000000e+00 
1.933333333333e+01 9.601529528431e+04 1.000000000000e+00 0.000000000000e+00 
1.966666666667e+01 9.598465589453e+04 1.000000000000e+00 0.000000000000e+00 
2.000000000000e+01 9.595401650477e+04 1.000000000000e+00 0.000000000000e+00 
2.033333333333e+01 9.592337711500e+04 1.000000000000e+00 0.000000000000e+00 
2.066666666667e+01 9.589273772524e+04 1.000000000000e+00 0.000000000000e+00 
2.100000000000e+01 9.586209833549e+04 1.000000000000e+00 0.000000000000e+00 
2.133333333333e+01 9.583145894574e+04 1.000000000000e+00 0.000000000000e+00 
2.166666666667e+01 9.580081955599e+04 1.000000000000e+00 0.000000000000e+00 
2.200000000000e+01 9.577018016626e+04 1.000000000000e+00 0.000000000000e+00 
2.233333333333e+01 9.573954077653e+04 1.000000000000e+00 0.000000000000e+00 
2.266666666667e+01 9.570890138681e+04 1.000000000000e+00 0.000000000000e+00 
2.300000000000e+01 9.567826199709e+04 1.000000000000e+00 0.000000000000e+00 
2.333333333333e+01 9.564762260739e+04 1.000000000000e+00 0.000000000000e+00 
2.366666666667e+01 9.561698321769e+04 1.000000000000e+00 0.000000000000e+00 
2.400000000000e+01 9.558634382800e+04 1.000000000000e+00 0.000000000000e+00 
2.433333333333e+01 9.555570443832e+04 1.000000000000e+00 0.000000000000e+00 
2.466666666667e+01 9.552506504866e+04 1.000000000000e+00 0.000000000000e+00 
2.500000000000e+01 9.549442565900e+04 1.000000000000e+00 0.000000000000e+00 
2.533333333333e+01 9.546378626936e+04 1.000000000000e+00 0.000000000000e+00 
2.566666666667e+01 9.543314687973e+04 1.000000000000e+00 0.000000000000e+00 
2.600000000000e+01 9.540250749011e+04 1.000000000000e+00 0.000000000000e+00 
2.633333333333e+01 9.537186810051e+04 1.000000000000e+00 0.000000000000e+00 
2.666666666667e+01 9.534122871092e+04 1.000000000000e+00 0.000000000000e+00 
2.700000000000e+01 9.531058932134e+04 1.000000000000e+00 0.000000000000e+00 
2.733333333333e+01 9.527994993178e+04 1.000000000000e+00 0.000000000000e+00 
2.766666666667e+01 9.524931054224e+04 1.000000000000e+00 0.000000000000e+00 
2.800000000000e+01 9.521867115271e+04 1.000000000000e+00 0.000000000000e+00 
2.833333333333e+01 9.518803176321e+04 1.000000000000e+00 0.000000000000e+00 
2.866666666667e+01 9.515739237372e+04 1.000000000000e+00 0.000000000000e+00 
2.900000000000e+01 9.512675298424e+04 1.000000000000e+00 0.000000000000e+00 
2.933333333333e+01 9.509611359479e+04 1.000000000000e+00 0.000000000000e+00 
2.966666666667e+01 9.506547420536e+04 1.000000000000e+00 0.000000000000e+00 
3.000000000000e+01 9.503483481596e+04 1.000000000000e+00 0.000000000000e+00 
3.033333333333e+01 9.500419542657e+04 1.000000000000e+00 0.000000000000e+00 
3.066666666667e+01 9.497355603720e+04 1.000000000000e+00 0.000000000000e+00 
3.100000000000e+01 9.494291664786e+04 1.000000000000e+00 0.000000000000e+00 
3.133333333333e+01 9.491227725855e+04 1.000000000000e+00 0.000000000000e+00 
3.166666666667e+01 9.488163786925e+04 1.000000000000e+00 0.000000000000e+00 
3.200000000000e+01 9.485099847999e+04 1.000000000000e+00 0.000000000000e+00 
3.233333333333e+01 9.482035909074e+04 1.000000000000e+00 0.000000000000e+00 
3.266666666667e+01 9.478971970153e+04 1.000000000000e+00 0.000000000000e+00 
3.300000000000e+01 9.475908031234e+04 1.000000000000e+00 0.000000000000e+00 
3.333333333333e+01 9.472844092318e+04 1.000000000000e+00 0.000000000000e+00 
3.366666666667e+01 9.469780153404e+04 1.000000000000e+00 0.000000000000e+00 
3.400000000000e+01 9.466716214494e+04 1.000000000000e+00 0.000000000000e+00 
3.433333333333e+01 9.463652275586e+04 1.000000000000e+00 0.000000000000e+00 
3.466666666667e+01 9.460588336681e+04 1.000000000000e+00 0.000000000000e+00 
3.500000000000e+01 9.457524397780e+04 1.000000000000e+00 0.000000000000e+00 
3.533333333333e+01 9.454460458881e+04 1.000000000000e+00 0.000000000000e+00 
3.566666666667e+01 9.451396519985e+04 1.000000000000e+00 0.000000000000e+00 
3.600000000000e+01 9.448332581092e+04 1.000000000000e+00 0.000000000000e+00 
3.633333333333e+01 9.445268642203e+04 1.000000000000e+00 0.000000000000e+00 
3.666666666667e+01 9.442204703316e+04 1.000000000000e+00 0.000000000000e+00 
3.700000000000e+01 9.439140764432e+04 1.000000000000e+00 0.000000000000e+00 
3.733333333333e+01 9.436076825552e+04 1.000000000000e+00 0.000000000000e+00 
3.766666666667e+01 9.433012886675e+04 1.000000000000e+00 0.000000000000e+00 
3.800000000000e+01 9.429948947800e+04 1.000000000000e+00 0.000000000000e+00 
3.833333333333e+01 9.426885008929e+04 1.000000000000e+00 0.000000000000e+00 
3.866666666667e+01 9.423821070061e+04 1.000000000000e+00 0.000000000000e+00 
3.900000000000e+01 9.420757131196e+04 1.000000000000e+00 0.000000000000e+00 
3.933333333333e+01 9.417693192335e+04 1.000000000000e+00 0.000000000000e+00 
3.966666666667e+01 9.414629253476e+04 1.000000000000e+00 0.000000000000e+00 
4.000000000000e+01 9.411565314620e+04 1.000000000000e+00 0.000000000000e+00 
4.033333333333e+01 9.408501375767e+04 1.000000000000e+00 0.000000000000e+00 
4.066666666667e+01 9.405437436917e+04 1.000000000000e+00 0.000000000000e+00 
4.100000000000e+01 9.402373498070e+04 1.000000000000e+00 0.000000000000e+00 
4.133333333333e+01 9.399309559226e+04 1.000000000000e+00 0.000000000000e+00 
4.166666666667e+01 9.396245620384e+04 1.000000000000e+00 0.000000000000e+00 
4.200000000000e+01 9.393181681546e+04 1.000000000000e+00 0.000000000000e+00 
4.233333333333e+01 9.390117742710e+04 1.000000000000e+00 0.000000000000e+00 
4.266666666667e+01 9.387053803876e+04 1.000000000000e+00 0.000000000000e+00 
4.300000000000e+01 9.383989865045e+04 1.000000000000e+00 0.000000000000e+00 
4.333333333333e+01 9.380925926217e+04 1.000000000000e+00 0.000000000000e+00 
4.366666666667e+01 9.377861987391e+04 1.000000000000e+00 0.000000000000e+00 
4.400000000000e+01 9.374798048567e+04 1.000000000000e+00 0.000000000000e+00 
4.433333333333e+01 9.371734109745e+04 1.000000000000e+00 0.000000000000e+00 
4.466666666667e+01 9.368670170925e+04 1.000000000000e+00 0.000000000000e+00 
4.500000000000e+01 9.365606232106e+04 1.000000000000e+00 0.000000000000e+00 
4.533333333333e+01 9.362542293287e+04 1.000000000000e+00 0.000000000000e+00 
4.566666666667e+01 9.359478354461e+04 1.000000000000e+00 0.000000000000e+00 
4.600000000000e+01 9.356414415608e+04 1.000000000000e+00 0.000000000000e+00 
4.633333333333e+01 9.353350476659e+04 1.000000000000e+00 0.000000000000e+00 
4.666666666667e+01 9.350286537376e+04 1.000000000000e+00 0.000000000000e+00 
4.700000000000e+01 9.347222596950e+04 1.000000000000e+00 0.000000000000e+00 
4.733333333333e+01 9.344158652605e+04 1.000000000000e+00 0.000000000000e+00 
4.766666666667e+01 9.341094694847e+04 1.000000000000e+00 0.000000000000e+00 
4.800000000000e+01 9.338030691190e+04 1.000000000000e+00 0.000000000000e+00 
4.833333333333e+01 9.334966530455e+04 1.000000000000e+00 0.000000000000e+00 
4.866666666667e+01 9.331901832191e+04 1.000000000000e+00 0.000000000000e+00 
4.900000000000e+01 9.328835294466e+04 1.000000000000e+00 0.000000000000e+00 
4.933333333333e+01 9.325762461985e+04 1.000000000000e+00 0.000000000000e+00 
4.966666666667e+01 9.322668088443e+04 1.000000000000e+00 0.000000000000e+00 
5.000000000000e+01 9.319500000000e+04 1.000000000000e+00 0.000000000000e+00 
 ZONE T="TIME=4.320000000000e+04"
0.000000000000e+00 9.810000000000e+04 1.000000000000e+00 0.000000000000e+00 
3.333333333333e-01 9.807040210660e+04 1.000000000000e+00 0.000000000000e+00 
6.666666666667e-01 9.804006706419e+04 1.000000000000e+00 0.000000000000e+00 
1.000000000000e+00 9.800951661116e+04 1.000000000000e+00 0.000000000000e+00 
1.333333333333e+00 9.797890321057e+04 1.000000000000e+00 0.000000000000e+00 
1.666666666667e+00 9.794827141537e+04 1.000000000000e+00 0.000000000000e+00 
2.000000000000e+00 9.791763424486e+04 1.000000000000e+00 0.000000000000e+00 
2.333333333333e+00 9.788699550359e+04 1.000000000000e+00 0.000000000000e+00 
2.666666666667e+00 9.785635630329e+04 1.000000000000e+00 0.000000000000e+00 
3.000000000000e+00 9.782571696886e+04 1.000000000000e+00 0.000000000000e+00 
3.333333333333e+00 9.779507759524e+04 1.000000000000e+00 0.000000000000e+00 
3.666666666667e+00 9.776443821016e+04 1.000000000000e+00 0.000000000000e+00 
4.000000000000e+00 9.773379882173e+04 1.000000000000e+00 0.000000000000e+00 
4.333333333333e+00 9.770315943233e+04 1.000000000000e+00 0.000000000000e+00 
4.666666666667e+00 9.767252004263e+04 1.000000000000e+00 0.000000000000e+00 
5.000000000000e+00 9.763432122421e+04 8.999977480000e-01 1.000022520000e-01 
5.333333333333e+00 9.758530853755e+04 8.999977480000e-01 1.000022520000e-01 
5.666666666667e+00 9.753629585089e+04 8.999977480000e-01 1.000022520000e-01 
6.000000000000e+00 9.748728316423e+04 8.999977480000e-01 1.000022520000e-01 
6.333333333333e+00 9.743827047757e+04 8.999977480000e-01 1.000022520000e-01 
6.666666666667e+00 9.738925779090e+04 8.999977480000e-01 1.000022520000e-01 
7.000000000000e+00 9.734024510424e+04 8.999977480000e-01 1.000022520000e-01 
7.333333333333e+00 9.729123241757e+04 8.999977480000e-01 1.000022520000e-01 
7.666666666667e+00 9.724221973091e+04 8.999977480000e-01 1.000022520000e-01 
8.000000000000e+00 9.719320704424e+04 8.999977480000e-01 1.000022520000e-01 
8.333333333333e+00 9.714419435757e+04 8.999977480000e-01 1.000022520000e-01 
8.666666666667e+00 9.709518167091e+04 8.999977480000e-01 1.000022520000e-01 
9.000000000000e+00 9.704616898424e+04 8.999977480000e-01 1.000022520000e-01 
9.333333333333e+00 9.699715629758e+04 8.999977480000e-01 1.000022520000e-01 
9.666666666667e+00 9.694814361091e+04 8.999977480000e-01 1.000022520000e-01 
1.000000000000e+01 9.689913092425e+04 8.999977480000e-01 1.000022520000e-01 
1.033333333333e+01 9.685011823758e+04 8.999977480000e-01 1.000022520000e-01 
1.066666666667e+01 9.681191941912e+04 1.000000000000e+00 0.000000000000e+00 
1.100000000000e+01 9.678128002931e+04 1.000000000000e+00 0.000000000000e+00 
1.133333333333e+01 9.675064063950e+04 1.000000000000e+00 0.000000000000e+00 
1.166666666667e+01 9.672000124969e+04 1.000000000000e+00 0.000000000000e+00 
1.200000000000e+01 9.668936185988e+04 1.000000000000e+00 0.000000000000e+00 
1.233333333333e+01 9.665872247007e+04 1.000000000000e+00 0.000000000000e+00 
1.266666666667e+01 9.662808308026e+04 1.000000000000e+00 0.000000000000e+00 
1.300000000000e+01 9.659744369046e+04 1.000000000000e+00 0.000000000000e+00 
1.333333333333e+01 9.656680430064e+04 1.000000000000e+00 0.000000000000e+00 
1.366666666667e+01 9.653616491084e+04 1.000000000000e+00 0.000000000000e+00 
1.400000000000e+01 9.650552552103e+04 1.000000000000e+00 0.000000000000e+00 
1.433333333333e+01 9.647488613123e+04 1.000000000000e+00 0.000000000000e+00 
1.466666666667e+01 9.644424674142e+04 1.000000000000e+00 0.000000000000e+00 
1.500000000000e+01 9.641360735162e+04 1.000000000000e+00 0.000000000000e+00 
1.533333333333e+01 9.638296796181e+04 1.000000000000e+00 0.000000000000e+00 
1.566666666667e+01 9.635232857201e+04 1.000000000000e+00 0.000000000000e+00 
1.600000000000e+01 9.632168918221e+04 1.000000000000e+00 0.000000000000e+00 
1.633333333333e+01 9.629104979241e+04 1.000000000000e+00 0.000000000000e+00 
1.666666666667e+01 9.626041040261e+04 1.000000000000e+00 0.000000000000e+00 
1.700000000000e+01 9.622977101281e+04 1.000000000000e+00 0.000000000000e+00 
1.733333333333e+01 9.619913162302e+04 1.000000000000e+00 0.000000000000e+00 
1.766666666667e+01 9.616849223323e+04 1.000000000000e+00 0.000000000000e+00 
1.800000000000e+01 9.613785284344e+04 1.000000000000e+00 0.000000000000e+00 
1.833333333333e+01 9.610721345365e+04 1.000000000000e+00 0.000000000000e+00 
1.866666666667e+01 9.607657406387e+04 1.000000000000e+00 0.000000000000e+00 
1.900000000000e+01 9.604593467409e+04 1.000000000000e+00 0.000000000000e+00 
1.933333333333e+01 9.601529528431e+04 1.000000000000e+00 0.000000000000e+00 
1.966666666667e+01 9.598465589453e+04 1.000000000000e+00 0.000000000000e+00 
2.000000000000e+01 9.595401650477e+04 1.000000000000e+00 0.000000000000e+00 
2.033333333333e+01 9.592337711500e+04 1.000000000000e+00 0.000000000000e+00 
2.066666666667e+01 9.589273772524e+04 1.000000000000e+00 0.000000000000e+00 
2.100000000000e+01 9.586209833549e+04 1.000000000000e+00 0.000000000000e+00 
2.133333333333e+01 9.583145894574e+04 1.000000000000e+00 0.000000000000e+00 
2.166666666667e+01 9.580081955599e+04 1.000000000000e+00 0.000000000000e+00 
2.200000000000e+01 9.577018016626e+04 1.000000000000e+00 0.000000000000e+00 
2.233333333333e+01 9.573954077653e+04 1.000000000000e+00 0.000000000000e+00 
2.266666666667e+01 9.570890138681e+04 1.000000000000e+00 0.000000000000e+00 
2.300000000000e+01 9.567826199709e+04 1.000000000000e+00 0.000000000000e+00 
2.333333333333e+01 9.564762260739e+04 1.000000000000e+00 0.000000000000e+00 
2.366666666667e+01 9.561698321769e+04 1.000000000000e+00 0.000000000000e+00 
2.400000000000e+01 9.558634382800e+04 1.000000000000e+00 0.000000000000e+00 
2.433333333333e+01 9.555570443832e+04 1.000000000000e+00 0.000000000000e+00 
2.466666666667e+01 9.552506504866e+04 1.000000000000e+00 0.000000000000e+00 
2.500000000000e+01 9.549442565900e+04 1.000000000000e+00 0.000000000000e+00 
2.533333333333e+01 9.546378626936e+04 1.000000000000e+00 0.000000000000e+00 
2.566666666667e+01 9.543314687973e+04 1.000000000000e+00 0.000000000000e+00 
2.600000000000e+01 9.540250749011e+04 1.000000000000e+00 0.000000000000e+00 
2.633333333333e+01 9.537186810051e+04 1.000000000000e+00 0.000000000000e+00 
2.666666666667e+01 9.534122871092e+04 1.000000000000e+00 0.000000000000e+00 
2.700000000000e+01 9.531058932134e+04 1.000000000000e+00 0.000000000000e+00 
2.733333333333e+01 9.527994993178e+04 1.000000000000e+00 0.000000000000e+00 