VARIABLES  = "X","Y","Z", "HEAD", "C(4)", "Ca", "Mg", "Cl", "pH", "pe", "Calcite", "Dolomite(dis)"
ZONE T="0.000000000000e+00s", N=101, E=100, F=FEPOINT, ET=QUADRILATERAL
STRANDID=1, SOLUTIONTIME=0.000000000000e+00
0.000000000000e+00 0.000000000000e+00 0.000000000000e+00 1.000000000000e+00 1.230000000000e-04 1.230000000000e-04 1.000000000000e-12 1.000000000000e-12 9.910000000000e+00 4.000000000000e+00 2.070000000000e-04 1.000000000000e-10 
5.000000000000e-03 0.000000000000e+00 0.000000000000e+00 1.000000000000e+00 1.230000000000e-04 1.230000000000e-04 1.000000000000e-12 1.000000000000e-12 9.910000000000e+00 4.000000000000e+00 2.070000000000e-04 1.000000000000e-10 
1.000000000000e-02 0.000000000000e+00 0.000000000000e+00 1.000000000000e+00 1.230000000000e-04 1.230000000000e-04 1.000000000000e-12 1.000000000000e-12 9.910000000000e+00 4.000000000000e+00 2.070000000000e-04 1.000000000000e-10 
1.500000000000e-02 0.000000000000e+00 0.000000000000e+00 1.000000000000e+00 1.230000000000e-04 1.230000000000e-04 1.000000000000e-12 1.000000000000e-12 9.910000000000e+00 4.000000000000e+00 2.070000000000e-04 1.000000000000e-10 
2.000000000000e-02 0.000000000000e+00 0.000000000000e+00 1.000000000000e+00 1.230000000000e-04 1.230000000000e-04 1.000000000000e-12 1.000000000000e-12 9.910000000000e+00 4.000000000000e+00 2.070000000000e-04 1.000000000000e-10 
2.500000000000e-02 0.000000000000e+00 0.000000000000e+00 1.000000000000e+00 1.230000000000e-04 1.230000000000e-04 1.000000000000e-12 1.000000000000e-12 9.910000000000e+00 4.000000000000e+00 2.070000000000e-04 1.000000000000e-10 
3.000000000000e-02 0.000000000000e+00 0.000000000000e+00 1.000000000000e+00 1.230000000000e-04 1.230000000000e-04 1.000000000000e-12 1.000000000000e-12 9.910000000000e+00 4.000000000000e+00 2.070000000000e-04 1.000000000000e-10 
3.500000000000e-02 0.000000000000e+00 0.000000000000e+00 1.000000000000e+00 1.230000000000e-04 1.230000000000e-04 1.000000000000e-12 1.000000000000e-12 9.910000000000e+00 4.000000000000e+00 2.070000000000e-04 1.000000000000e-10 
4.000000000000e-02 0.000000000000e+00 0.000000000000e+00 1.000000000000e+00 1.230000000000e-04 1.230000000000e-04 1.000000000000e-12 1.000000000000e-12 9.910000000000e+00 4.000000000000e+00 2.070000000000e-04 1.000000000000e-10 
4.500000000000e-02 0.000000000000e+00 0.000000000000e+00 1.000000000000e+00 1.230000000000e-04 1.230000000000e-04 1.000000000000e-12 1.000000000000e-12 9.910000000000e+00 4.000000000000e+00 2.070000000000e-04 1.000000000000e-10 
5.000000000000e-02 0.000000000000e+00 0.000000000000e+00 1.000000000000e+00 1.230000000000e-04 1.230000000000e-04 1.000000000000e-12 1.000000000000e-12 9.910000000000e+00 4.000000000000e+00 2.070000000000e-04 1.000000000000e-10 
5.500000000000e-02 0.000000000000e+00 0.000000000000e+00 1.000000000000e+00 1.230000000000e-04 1.230000000000e-04 1.000000000000e-12 1.000000000000e-12 9.910000000000e+00 4.000000000000e+00 2.070000000000e-04 1.000000000000e-10 
6.000000000000e-02 0.000000000000e+00 0.000000000000e+00 1.000000000000e+00 1.230000000000e-04 1.230000000000e-04 1.000000000000e-12 1.000000000000e-12 9.910000000000e+00 4.000000000000e+00 2.070000000000e-04 1.000000000000e-10 
6.500000000000e-02 0.000000000000e+00 0.000000000000e+00 1.000000000000e+00 1.230000000000e-04 1.230000000000e-04 1.000000000000e-12 1.000000000000e-12 9.910000000000e+00 4.000000000000e+00 2.070000000000e-04 1.000000000000e-10 
7.000000000000e-02 0.000000000000e+00 0.000000000000e+00 1.000000000000e+00 1.230000000000e-04 1.230000000000e-04 1.000000000000e-12 1.000000000000e-12 9.910000000000e+00 4.000000000000e+00 2.070000000000e-04 1.000000000000e-10 
7.500000000000e-02 0.000000000000e+00 0.000000000000e+00 1.000000000000e+00 1.230000000000e-04 1.230000000000e-04 1.000000000000e-12 1.000000000000e-12 9.910000000000e+00 4.000000000000e+00 2.070000000000e-04 1.000000000000e-10 
8.000000000000e-02 0.000000000000e+00 0.000000000000e+00 1.000000000000e+00 1.230000000000e-04 1.230000000000e-04 1.000000000000e-12 1.000000000000e-12 9.910000000000e+00 4.000000000000e+00 2.070000000000e-04 1.000000000000e-10 
8.500000000000e-02 0.000000000000e+00 0.000000000000e+00 1.000000000000e+00 1.230000000000e-04 1.230000000000e-04 1.000000000000e-12 1.000000000000e-12 9.910000000000e+00 4.000000000000e+00 2.070000000000e-04 1.000000000000e-10 
9.000000000000e-02 0.000000000000e+00 0.000000000000e+00 1.000000000000e+00 1.230000000000e-04 1.230000000000e-04 1.000000000000e-12 1.000000000000e-12 9.910000000000e+00 4.000000000000e+00 2.070000000000e-04 1.000000000000e-10 
9.500000000000e-02 0.000000000000e+00 0.000000000000e+00 1.000000000000e+00 1.230000000000e-04 1.230000000000e-04 1.000000000000e-12 1.000000000000e-12 9.910000000000e+00 4.000000000000e+00 2.070000000000e-04 1.000000000000e-10 
1.000000000000e-01 0.000000000000e+00 0.000000000000e+00 1.000000000000e+00 1.230000000000e-04 1.230000000000e-04 1.000000000000e-12 1.000000000000e-12 9.910000000000e+00 4.000000000000e+00 2.070000000000e-04 1.000000000000e-10 
1.050000000000e-01 0.000000000000e+00 0.000000000000e+00 1.000000000000e+00 1.230000000000e-04 1.230000000000e-04 1.000000000000e-12 1.000000000000e-12 9.910000000000e+00 4.000000000000e+00 2.070000000000e-04 1.000000000000e-10 
1.100000000000e-01 0.000000000000e+00 0.000000000000e+00 1.000000000000e+00 1.230000000000e-04 1.230000000000e-04 1.000000000000e-12 1.000000000000e-12 9.910000000000e+00 4.000000000000e+00 2.070000000000e-04 1.000000000000e-10 
1.150000000000e-01 0.000000000000e+00 0.000000000000e+00 1.000000000000e+00 1.230000000000e-04 1.230000000000e-04 1.000000000000e-12 1.000000000000e-12 9.910000000000e+00 4.000000000000e+00 2.070000000000e-04 1.000000000000e-10 
1.200000000000e-01 0.000000000000e+00 0.000000000000e+00 1.000000000000e+00 1.230000000000e-04 1.230000000000e-04 1.000000000000e-12 1.000000000000e-12 9.910000000000e+00 4.000000000000e+00 2.070000000000e-04 1.000000000000e-10 
1.250000000000e-01 0.000000000000e+00 0.000000000000e+00 1.000000000000e+00 1.230000000000e-04 1.230000000000e-04 1.000000000000e-12 1.000000000000e-12 9.910000000000e+00 4.000000000000e+00 2.070000000000e-04 1.000000000000e-10 
1.300000000000e-01 0.000000000000e+00 0.000000000000e+00 1.000000000000e+00 1.230000000000e-04 1.230000000000e-04 1.000000000000e-12 1.000000000000e-12 9.910000000000e+00 4.000000000000e+00 2.070000000000e-04 1.000000000000e-10 
1.350000000000e-01 0.000000000000e+00 0.000000000000e+00 1.000000000000e+00 1.230000000000e-04 1.230000000000e-04 1.000000000000e-12 1.000000000000e-12 9.910000000000e+00 4.000000000000e+00 2.070000000000e-04 1.000000000000e-10 
1.400000000000e-01 0.000000000000e+00 0.000000000000e+00 1.000000000000e+00 1.230000000000e-04 1.230000000000e-04 1.000000000000e-12 1.000000000000e-12 9.910000000000e+00 4.000000000000e+00 2.070000000000e-04 1.000000000000e-10 
1.450000000000e-01 0.000000000000e+00 0.000000000000e+00 1.000000000000e+00 1.230000000000e-04 1.230000000000e-04 1.000000000000e-12 1.000000000000e-12 9.910000000000e+00 4.000000000000e+00 2.070000000000e-04 1.000000000000e-10 
1.500000000000e-01 0.000000000000e+00 0.000000000000e+00 1.000000000000e+00 1.230000000000e-04 1.230000000000e-04 1.000000000000e-12 1.000000000000e-12 9.910000000000e+00 4.000000000000e+00 2.070000000000e-04 1.000000000000e-10 
1.550000000000e-01 0.000000000000e+00 0.000000000000e+00 1.000000000000e+00 1.230000000000e-04 1.230000000000e-04 1.000000000000e-12 1.000000000000e-12 9.910000000000e+00 4.000000000000e+00 2.070000000000e-04 1.000000000000e-10 
1.600000000000e-01 0.000000000000e+00 0.000000000000e+00 1.000000000000e+00 1.230000000000e-04 1.230000000000e-04 1.000000000000e-12 1.000000000000e-12 9.910000000000e+00 4.000000000000e+00 2.070000000000e-04 1.000000000000e-10 
1.650000000000e-01 0.000000000000e+00 0.000000000000e+00 1.000000000000e+00 1.230000000000e-04 1.230000000000e-04 1.000000000000e-12 1.000000000000e-12 9.910000000000e+00 4.000000000000e+00 2.070000000000e-04 1.000000000000e-10 
1.700000000000e-01 0.000000000000e+00 0.000000000000e+00 1.000000000000e+00 1.230000000000e-04 1.230000000000e-04 1.000000000000e-12 1.000000000000e-12 9.910000000000e+00 4.000000000000e+00 2.070000000000e-04 1.000000000000e-10 
1.750000000000e-01 0.000000000000e+00 0.000000000000e+00 1.000000000000e+00 1.230000000000e-04 1.230000000000e-04 1.000000000000e-12 1.000000000000e-12 9.910000000000e+00 4.000000000000e+00 2.070000000000e-04 1.000000000000e-10 
1.800000000000e-01 0.000000000000e+00 0.000000000000e+00 1.000000000000e+00 1.230000000000e-04 1.230000000000e-04 1.000000000000e-12 1.000000000000e-12 9.910000000000e+00 4.000000000000e+00 2.070000000000e-04 1.000000000000e-10 
1.850000000000e-01 0.000000000000e+00 0.000000000000e+00 1.000000000000e+00 1.230000000000e-04 1.230000000000e-04 1.000000000000e-12 1.000000000000e-12 9.910000000000e+00 4.000000000000e+00 2.070000000000e-04 1.000000000000e-10 
1.900000000000e-01 0.000000000000e+00 0.000000000000e+00 1.000000000000e+00 1.230000000000e-04 1.230000000000e-04 1.000000000000e-12 1.000000000000e-12 9.910000000000e+00 4.000000000000e+00 2.070000000000e-04 1.000000000000e-10 
1.950000000000e-01 0.000000000000e+00 0.000000000000e+00 1.000000000000e+00 1.230000000000e-04 1.230000000000e-04 1.000000000000e-12 1.000000000000e-12 9.910000000000e+00 4.000000000000e+00 2.070000000000e-04 1.000000000000e-10 
2.000000000000e-01 0.000000000000e+00 0.000000000000e+00 1.000000000000e+00 1.230000000000e-04 1.230000000000e-04 1.000000000000e-12 1.000000000000e-12 9.910000000000e+00 4.000000000000e+00 2.070000000000e-04 1.000000000000e-10 
2.050000000000e-01 0.000000000000e+00 0.000000000000e+00 1.000000000000e+00 1.230000000000e-04 1.230000000000e-04 1.000000000000e-12 1.000000000000e-12 9.910000000000e+00 4.000000000000e+00 2.070000000000e-04 1.000000000000e-10 
2.100000000000e-01 0.000000000000e+00 0.000000000000e+00 1.000000000000e+00 1.230000000000e-04 1.230000000000e-04 1.000000000000e-12 1.000000000000e-12 9.910000000000e+00 4.000000000000e+00 2.070000000000e-04 1.000000000000e-10 
2.150000000000e-01 0.000000000000e+00 0.000000000000e+00 1.000000000000e+00 1.230000000000e-04 1.230000000000e-04 1.000000000000e-12 1.000000000000e-12 9.910000000000e+00 4.000000000000e+00 2.070000000000e-04 1.000000000000e-10 
2.200000000000e-01 0.000000000000e+00 0.000000000000e+00 1.000000000000e+00 1.230000000000e-04 1.230000000000e-04 1.000000000000e-12 1.000000000000e-12 9.910000000000e+00 4.000000000000e+00 2.070000000000e-04 1.000000000000e-10 
2.250000000000e-01 0.000000000000e+00 0.000000000000e+00 1.000000000000e+00 1.230000000000e-04 1.230000000000e-04 1.000000000000e-12 1.000000000000e-12 9.910000000000e+00 4.000000000000e+00 2.070000000000e-04 1.000000000000e-10 
2.300000000000e-01 0.000000000000e+00 0.000000000000e+00 1.000000000000e+00 1.230000000000e-04 1.230000000000e-04 1.000000000000e-12 1.000000000000e-12 9.910000000000e+00 4.000000000000e+00 2.070000000000e-04 1.000000000000e-10 
2.350000000000e-01 0.000000000000e+00 0.000000000000e+00 1.000000000000e+00 1.230000000000e-04 1.230000000000e-04 1.000000000000e-12 1.000000000000e-12 9.910000000000e+00 4.000000000000e+00 2.070000000000e-04 1.000000000000e-10 
2.400000000000e-01 0.000000000000e+00 0.000000000000e+00 1.000000000000e+00 1.230000000000e-04 1.230000000000e-04 1.000000000000e-12 1.000000000000e-12 9.910000000000e+00 4.000000000000e+00 2.070000000000e-04 1.000000000000e-10 
2.450000000000e-01 0.000000000000e+00 0.000000000000e+00 1.000000000000e+00 1.230000000000e-04 1.230000000000e-04 1.000000000000e-12 1.000000000000e-12 9.910000000000e+00 4.000000000000e+00 2.070000000000e-04 1.000000000000e-10 
2.500000000000e-01 0.000000000000e+00 0.000000000000e+00 1.000000000000e+00 1.230000000000e-04 1.230000000000e-04 1.000000000000e-12 1.000000000000e-12 9.910000000000e+00 4.000000000000e+00 2.070000000000e-04 1.000000000000e-10 
2.550000000000e-01 0.000000000000e+00 0.000000000000e+00 1.000000000000e+00 1.230000000000e-04 1.230000000000e-04 1.000000000000e-12 1.000000000000e-12 9.910000000000e+00 4.000000000000e+00 2.070000000000e-04 1.000000000000e-10 
2.600000000000e-01 0.000000000000e+00 0.000000000000e+00 1.000000000000e+00 1.230000000000e-04 1.230000000000e-04 1.000000000000e-12 1.000000000000e-12 9.910000000000e+00 4.000000000000e+00 2.070000000000e-04 1.000000000000e-10 
2.650000000000e-01 0.000000000000e+00 0.000000000000e+00 1.000000000000e+00 1.230000000000e-04 1.230000000000e-04 1.000000000000e-12 1.000000000000e-12 9.910000000000e+00 4.000000000000e+00 2.070000000000e-04 1.000000000000e-10 
2.700000000000e-01 0.000000000000e+00 0.000000000000e+00 1.000000000000e+00 1.230000000000e-04 1.230000000000e-04 1.000000000000e-12 1.000000000000e-12 9.910000000000e+00 4.000000000000e+00 2.070000000000e-04 1.000000000000e-10 
2.750000000000e-01 0.000000000000e+00 0.000000000000e+00 1.000000000000e+00 1.230000000000e-04 1.230000000000e-04 1.000000000000e-12 1.000000000000e-12 9.910000000000e+00 4.000000000000e+00 2.070000000000e-04 1.000000000000e-10 
2.800000000000e-01 0.000000000000e+00 0.000000000000e+00 1.000000000000e+00 1.230000000000e-04 1.230000000000e-04 1.000000000000e-12 1.000000000000e-12 9.910000000000e+00 4.000000000000e+00 2.070000000000e-04 1.000000000000e-10 
2.850000000000e-01 0.000000000000e+00 0.000000000000e+00 1.000000000000e+00 1.230000000000e-04 1.230000000000e-04 1.000000000000e-12 1.000000000000e-12 9.910000000000e+00 4.000000000000e+00 2.070000000000e-04 1.000000000000e-10 
2.900000000000e-01 0.000000000000e+00 0.000000000000e+00 1.000000000000e+00 1.230000000000e-04 1.230000000000e-04 1.000000000000e-12 1.000000000000e-12 9.910000000000e+00 4.000000000000e+00 2.070000000000e-04 1.000000000000e-10 
2.950000000000e-01 0.000000000000e+00 0.000000000000e+00 1.000000000000e+00 1.230000000000e-04 1.230000000000e-04 1.000000000000e-12 1.000000000000e-12 9.910000000000e+00 4.000000000000e+00 2.070000000000e-04 1.000000000000e-10 
3.000000000000e-01 0.000000000000e+00 0.000000000000e+00 1.000000000000e+00 1.230000000000e-04 1.230000000000e-04 1.000000000000e-12 1.000000000000e-12 9.910000000000e+00 4.000000000000e+00 2.070000000000e-04 1.000000000000e-10 
3.050000000000e-01 0.000000000000e+00 0.000000000000e+00 1.000000000000e+00 1.230000000000e-04 1.230000000000e-04 1.000000000000e-12 1.000000000000e-12 9.910000000000e+00 4.000000000000e+00 2.070000000000e-04 1.000000000000e-10 
3.100000000000e-01 0.000000000000e+00 0.000000000000e+00 1.000000000000e+00 1.230000000000e-04 1.230000000000e-04 1.000000000000e-12 1.000000000000e-12 9.910000000000e+00 4.000000000000e+00 2.070000000000e-04 1.000000000000e-10 
3.150000000000e-01 0.000000000000e+00 0.000000000000e+00 1.000000000000e+00 1.230000000000e-04 1.230000000000e-04 1.000000000000e-12 1.000000000000e-12 9.910000000000e+00 4.000000000000e+00 2.070000000000e-04 1.000000000000e-10 
3.200000000000e-01 0.000000000000e+00 0.000000000000e+00 1.000000000000e+00 1.230000000000e-04 1.230000000000e-04 1.000000000000e-12 1.000000000000e-12 9.910000000000e+00 4.000000000000e+00 2.070000000000e-04 1.000000000000e-10 
3.250000000000e-01 0.000000000000e+00 0.000000000000e+00 1.000000000000e+00 1.230000000000e-04 1.230000000000e-04 1.000000000000e-12 1.000000000000e-12 9.910000000000e+00 4.000000000000e+00 2.070000000000e-04 1.000000000000e-10 
3.300000000000e-01 0.000000000000e+00 0.000000000000e+00 1.000000000000e+00 1.230000000000e-04 1.230000000000e-04 1.000000000000e-12 1.000000000000e-12 9.910000000000e+00 4.000000000000e+00 2.070000000000e-04 1.000000000000e-10 
3.350000000000e-01 0.000000000000e+00 0.000000000000e+00 1.000000000000e+00 1.230000000000e-04 1.230000000000e-04 1.000000000000e-12 1.000000000000e-12 9.910000000000e+00 4.000000000000e+00 2.070000000000e-04 1.000000000000e-10 
3.400000000000e-01 0.000000000000e+00 0.000000000000e+00 1.000000000000e+00 1.230000000000e-04 1.230000000000e-04 1.000000000000e-12 1.000000000000e-12 9.910000000000e+00 4.000000000000e+00 2.070000000000e-04 1.000000000000e-10 
3.450000000000e-01 0.000000000000e+00 0.000000000000e+00 1.000000000000e+00 1.230000000000e-04 1.230000000000e-04 1.000000000000e-12 1.000000000000e-12 9.910000000000e+00 4.000000000000e+00 2.070000000000e-04 1.000000000000e-10 
3.500000000000e-01 0.000000000000e+00 0.000000000000e+00 1.000000000000e+00 1.230000000000e-04 1.230000000000e-04 1.000000000000e-12 1.000000000000e-12 9.910000000000e+00 4.000000000000e+00 2.070000000000e-04 1.000000000000e-10 
3.550000000000e-01 0.000000000000e+00 0.000000000000e+00 1.000000000000e+00 1.230000000000e-04 1.230000000000e-04 1.000000000000e-12 1.000000000000e-12 9.910000000000e+00 4.000000000000e+00 2.070000000000e-04 1.000000000000e-10 
3.600000000000e-01 0.000000000000e+00 0.000000000000e+00 1.000000000000e+00 1.230000000000e-04 1.230000000000e-04 1.000000000000e-12 1.000000000000e-12 9.910000000000e+00 4.000000000000e+00 2.070000000000e-04 1.000000000000e-10 
3.650000000000e-01 0.000000000000e+00 0.000000000000e+00 1.000000000000e+00 1.230000000000e-04 1.230000000000e-04 1.000000000000e-12 1.000000000000e-12 9.910000000000e+00 4.000000000000e+00 2.070000000000e-04 1.000000000000e-10 
3.700000000000e-01 0.000000000000e+00 0.000000000000e+00 1.000000000000e+00 1.230000000000e-04 1.230000000000e-04 1.000000000000e-12 1.000000000000e-12 9.910000000000e+00 4.000000000000e+00 2.070000000000e-04 1.000000000000e-10 
3.750000000000e-01 0.000000000000e+00 0.000000000000e+00 1.000000000000e+00 1.230000000000e-04 1.230000000000e-04 1.000000000000e-12 1.000000000000e-12 9.910000000000e+00 4.000000000000e+00 2.070000000000e-04 1.000000000000e-10 
3.800000000000e-01 0.000000000000e+00 0.000000000000e+00 1.000000000000e+00 1.230000000000e-04 1.230000000000e-04 1.000000000000e-12 1.000000000000e-12 9.910000000000e+00 4.000000000000e+00 2.070000000000e-04 1.000000000000e-10 
3.850000000000e-01 0.000000000000e+00 0.000000000000e+00 1.000000000000e+00 1.230000000000e-04 1.230000000000e-04 1.000000000000e-12 1.000000000000e-12 9.910000000000e+00 4.000000000000e+00 2.070000000000e-04 1.000000000000e-10 
3.900000000000e-01 0.000000000000e+00 0.000000000000e+00 1.000000000000e+00 1.230000000000e-04 1.230000000000e-04 1.000000000000e-12 1.000000000000e-12 9.910000000000e+00 4.000000000000e+00 2.070000000000e-04 1.000000000000e-10 
3.950000000000e-01 0.000000000000e+00 0.000000000000e+00 1.000000000000e+00 1.230000000000e-04 1.230000000000e-04 1.000000000000e-12 1.000000000000e-12 9.910000000000e+00 4.000000000000e+00 2.070000000000e-04 1.000000000000e-10 
4.000000000000e-01 0.000000000000e+00 0.000000000000e+00 1.000000000000e+00 1.230000000000e-04 1.230000000000e-04 1.000000000000e-12 1.000000000000e-12 9.910000000000e+00 4.000000000000e+00 2.070000000000e-04 1.000000000000e-10 
4.050000000000e-01 0.000000000000e+00 0.000000000000e+00 1.000000000000e+00 1.230000000000e-04 1.230000000000e-04 1.000000000000e-12 1.000000000000e-12 9.910000000000e+00 4.000000000000e+00 2.070000000000e-04 1.000000000000e-10 
4.100000000000e-01 0.000000000000e+00 0.000000000000e+00 1.000000000000e+00 1.230000000000e-04 1.230000000000e-04 1.000000000000e-12 1.000000000000e-12 9.910000000000e+00 4.000000000000e+00 2.070000000000e-04 1.000000000000e-10 
4.150000000000e-01 0.000000000000e+00 0.000000000000e+00 1.000000000000e+00 1.230000000000e-04 1.230000000000e-04 1.000000000000e-12 1.000000000000e-12 9.910000000000e+00 4.000000000000e+00 2.070000000000e-04 1.000000000000e-10 
4.200000000000e-01 0.000000000000e+00 0.000000000000e+00 1.000000000000e+00 1.230000000000e-04 1.230000000000e-04 1.000000000000e-12 1.000000000000e-12 9.910000000000e+00 4.000000000000e+00 2.070000000000e-04 1.000000000000e-10 
4.250000000000e-01 0.000000000000e+00 0.000000000000e+00 1.000000000000e+00 1.230000000000e-04 1.230000000000e-04 1.000000000000e-12 1.000000000000e-12 9.910000000000e+00 4.000000000000e+00 2.070000000000e-04 1.000000000000e-10 
4.300000000000e-01 0.000000000000e+00 0.000000000000e+00 1.000000000000e+00 1.230000000000e-04 1.230000000000e-04 1.000000000000e-12 1.000000000000e-12 9.910000000000e+00 4.000000000000e+00 2.070000000000e-04 1.000000000000e-10 
4.350000000000e-01 0.000000000000e+00 0.000000000000e+00 1.000000000000e+00 1.230000000000e-04 1.230000000000e-04 1.000000000000e-12 1.000000000000e-12 9.910000000000e+00 4.000000000000e+00 2.070000000000e-04 1.000000000000e-10 
4.400000000000e-01 0.000000000000e+00 0.000000000000e+00 1.000000000000e+00 1.230000000000e-04 1.230000000000e-04 1.000000000000e-12 1.000000000000e-12 9.910000000000e+00 4.000000000000e+00 2.070000000000e-04 1.000000000000e-10 
4.450000000000e-01 0.000000000000e+00 0.000000000000e+00 1.000000000000e+00 1.230000000000e-04 1.230000000000e-04 1.000000000000e-12 1.000000000000e-12 9.910000000000e+00 4.000000000000e+00 2.070000000000e-04 1.000000000000e-10 
4.500000000000e-01 0.000000000000e+00 0.000000000000e+00 1.000000000000e+00 1.230000000000e-04 1.230000000000e-04 1.000000000000e-12 1.000000000000e-12 9.910000000000e+00 4.000000000000e+00 2.070000000000e-04 1.000000000000e-10 
4.550000000000e-01 0.000000000000e+00 0.000000000000e+00 1.000000000000e+00 1.230000000000e-04 1.230000000000e-04 1.000000000000e-12 1.000000000000e-12 9.910000000000e+00 4.000000000000e+00 2.070000000000e-04 1.000000000000e-10 
4.600000000000e-01 0.000000000000e+00 0.000000000000e+00 1.000000000000e+00 1.230000000000e-04 1.230000000000e-04 1.000000000000e-12 1.000000000000e-12 9.910000000000e+00 4.000000000000e+00 2.070000000000e-04 1.000000000000e-10 
4.650000000000e-01 0.000000000000e+00 0.000000000000e+00 1.000000000000e+00 1.230000000000e-04 1.230000000000e-04 1.000000000000e-12 1.000000000000e-12 9.910000000000e+00 4.000000000000e+00 2.070000000000e-04 1.000000000000e-10 
4.700000000000e-01 0.000000000000e+00 0.000000000000e+00 1.000000000000e+00 1.230000000000e-04 1.230000000000e-04 1.000000000000e-12 1.000000000000e-12 9.910000000000e+00 4.000000000000e+00 2.070000000000e-04 1.000000000000e-10 
4.750000000000e-01 0.000000000000e+00 0.000000000000e+00 1.000000000000e+00 1.230000000000e-04 1.230000000000e-04 1.000000000000e-12 1.000000000000e-12 9.910000000000e+00 4.000000000000e+00 2.070000000000e-04 1.000000000000e-10 
4.800000000000e-01 0.000000000000e+00 0.000000000000e+00 1.000000000000e+00 1.230000000000e-04 1.230000000000e-04 1.000000000000e-12 1.000000000000e-12 9.910000000000e+00 4.000000000000e+00 2.070000000000e-04 1.000000000000e-10 
4.850000000000e-01 0.000000000000e+00 0.000000000000e+00 1.000000000000e+00 1.230000000000e-04 1.230000000000e-04 1.000000000000e-12 1.000000000000e-12 9.910000000000e+00 4.000000000000e+00 2.070000000000e-04 1.000000000000e-10 
4.900000000000e-01 0.000000000000e+00 0.000000000000e+00 1.000000000000e+00 1.230000000000e-04 1.230000000000e-04 1.000000000000e-12 1.000000000000e-12 9.910000000000e+00 4.000000000000e+00 2.070000000000e-04 1.000000000000e-10 
4.950000000000e-01 0.000000000000e+00 0.000000000000e+00 1.000000000000e+00 1.230000000000e-04 1.230000000000e-04 1.000000000000e-12 1.000000000000e-12 9.910000000000e+00 4.000000000000e+00 2.070000000000e-04 1.000000000000e-10 
5.000000000000e-01 0.000000000000e+00 0.000000000000e+00 1.000000000000e+00 1.230000000000e-04 1.230000000000e-04 1.000000000000e-12 1.000000000000e-12 9.910000000000e+00 4.000000000000e+00 2.070000000000e-04 1.000000000000e-10 
1  2  2  1
3  4  4  3
5  6  6  5
7  8  8  7
9  10  10  9
11  12  12  11
13  14  14  13
15  16  16  15
17  18  18  17
19  20  20  19
21  22  22  21
23  24  24  23
25  26  26  25
27  28  28  27
29  30  30  29
31  32  32  31
33  34  34  33
35  36  36  35
37  38  38  37
39  40  40  39
41  42  42  41
43  44  44  43
45  46  46  45
47  48  48  47
49  50  50  49
51  52  52  51
53  54  54  53
55  56  56  55
57  58  58  57
59  60  60  59
61  62  62  61
63  64  64  63
65  66  66  65
67  68  68  67
69  70  70  69
71  72  72  71
73  74  74  73
75  76  76  75
77  78  78  77
79  80  80  79
81  82  82  81
83  84  84  83
85  86  86  85
87  88  88  87
89  90  90  89
91  92  92  91
93  94  94  93
95  96  96  95
97  98  98  97
99  100  100  99
2  3  3  2
4  5  5  4
6  7  7  6
8  9  9  8
10  11  11  10
12  13  13  12
14  15  15  14
16  17  17  16
18  19  19  18
20  21  21  20
22  23  23  22
24  25  25  24
26  27  27  26
28  29  29  28
30  31  31  30
32  33  33  32
34  35  35  34
36  37  37  36
38  39  39  38
40  41  41  40
42  43  43  42
44  45  45  44
46  47  47  46
48  49  49  48
50  51  51  50
52  53  53  52
54  55  55  54
56  57  57  56
58  59  59  58
60  61  61  60
62  63  63  62
64  65  65  64
66  67  67  66
68  69  69  68
70  71  71  70
72  73  73  72
74  75  75  74
76  77  77  76
78  79  79  78
80  81  81  80
82  83  83  82
84  85  85  84
86  87  87  86
88  89  89  88
90  91  91  90
92  93  93  92
94  95  95  94
96  97  97  96
98  99  99  98
100  101  101  100
VARIABLES  = "X","Y","Z", "HEAD", "C(4)", "Ca", "Mg", "Cl", "pH", "pe", "Calcite", "Dolomite(dis)"
ZONE T="1.000000000000e+02s", N=101, E=100, F=FEPOINT, ET=QUADRILATERAL
STRANDID=1, SOLUTIONTIME=1.000000000000e+02
0.000000000000e+00 0.000000000000e+00 0.000000000000e+00 1.000000000000e+05 1.135709310243e-04 1.602856540108e-04 9.532866151638e-04 2.000002676301e-03 9.744175667416e+00 8.162469120041e+00 0.000000000000e+00 4.671476047521e-05 
5.000000000000e-03 0.000000000000e+00 0.000000000000e+00 8.704543993085e+04 1.229825830302e-04 1.229823836508e-04 6.207785323461e-06 1.241517089464e-05 9.909412842320e+00 -4.244972546506e+00 2.059277542465e-04 0.000000000000e+00 
1.000000000000e-02 0.000000000000e+00 0.000000000000e+00 7.409087986171e+04 1.226736171277e-04 1.226734171316e-04 3.873510629564e-08 7.706922033746e-08 9.909936017592e+00 7.895297465480e+00 2.069934858879e-04 0.000000000000e+00 
1.500000000000e-02 0.000000000000e+00 0.000000000000e+00 6.113631979256e+04 1.226716848448e-04 1.226714848448e-04 4.402037357264e-10 4.794075202828e-10 9.909939267127e+00 8.066358396523e+00 2.070001158584e-04 0.000000000000e+00 
2.000000000000e-02 0.000000000000e+00 0.000000000000e+00 4.818175972342e+04 1.226716728494e-04 1.226714728494e-04 2.024848772225e-10 3.969755343183e-12 9.909939287299e+00 -3.837534342463e+00 2.070001570151e-04 0.000000000000e+00 
2.500000000000e-02 0.000000000000e+00 0.000000000000e+00 3.522719965427e+04 1.226716727749e-04 1.226714727749e-04 2.010092172085e-10 1.018434979387e-12 9.909939287424e+00 8.015233547969e+00 2.070001572706e-04 0.000000000000e+00 
3.000000000000e-02 0.000000000000e+00 0.000000000000e+00 2.227263958513e+04 1.226716727745e-04 1.226714727745e-04 2.010000569217e-10 1.000114426329e-12 9.909939287425e+00 7.973593469773e+00 2.070001572722e-04 0.000000000000e+00 
3.500000000000e-02 0.000000000000e+00 0.000000000000e+00 9.318079515984e+03 1.226716727745e-04 1.226714727745e-04 2.010000000593e-10 1.000000709057e-12 9.909939287425e+00 7.973591731311e+00 2.070001572722e-04 0.000000000000e+00 
4.000000000000e-02 0.000000000000e+00 0.000000000000e+00 -3.636480553162e+03 1.226716727745e-04 1.226714727745e-04 2.009999997063e-10 1.000000001697e-12 9.909939287425e+00 7.973592314580e+00 2.070001572722e-04 0.000000000000e+00 
4.500000000000e-02 0.000000000000e+00 0.000000000000e+00 -1.659104062231e+04 1.226716727745e-04 1.226714727745e-04 2.009999997041e-10 9.999999970991e-13 9.909939287425e+00 7.973592451855e+00 2.070001572722e-04 0.000000000000e+00 
5.000000000000e-02 0.000000000000e+00 0.000000000000e+00 -2.954560069145e+04 1.226716727745e-04 1.226714727745e-04 2.009999997041e-10 9.999999970991e-13 9.909939287425e+00 7.973592451855e+00 2.070001572722e-04 0.000000000000e+00 
5.500000000000e-02 0.000000000000e+00 0.000000000000e+00 -4.250016076060e+04 1.226716727745e-04 1.226714727745e-04 2.009999997041e-10 9.999999970991e-13 9.909939287425e+00 7.973592451855e+00 2.070001572722e-04 0.000000000000e+00 
6.000000000000e-02 0.000000000000e+00 0.000000000000e+00 -5.545472082974e+04 1.226716727745e-04 1.226714727745e-04 2.009999997041e-10 9.999999970991e-13 9.909939287425e+00 7.973592451855e+00 2.070001572722e-04 0.000000000000e+00 
6.500000000000e-02 0.000000000000e+00 0.000000000000e+00 -6.840928089889e+04 1.226716727745e-04 1.226714727745e-04 2.009999997041e-10 9.999999970991e-13 9.909939287425e+00 7.973592451855e+00 2.070001572722e-04 0.000000000000e+00 
7.000000000000e-02 0.000000000000e+00 0.000000000000e+00 -8.136384096803e+04 1.226716727745e-04 1.226714727745e-04 2.009999997041e-10 9.999999970991e-13 9.909939287425e+00 7.973592451855e+00 2.070001572722e-04 0.000000000000e+00 
7.500000000000e-02 0.000000000000e+00 0.000000000000e+00 -9.431840103718e+04 1.226716727745e-04 1.226714727745e-04 2.009999997041e-10 9.999999970991e-13 9.909939287425e+00 7.973592451855e+00 2.070001572722e-04 0.000000000000e+00 
8.000000000000e-02 0.000000000000e+00 0.000000000000e+00 -1.072729611063e+05 1.226716727745e-04 1.226714727745e-04 2.009999997041e-10 9.999999970991e-13 9.909939287425e+00 7.973592451855e+00 2.070001572722e-04 0.000000000000e+00 
8.500000000000e-02 0.000000000000e+00 0.000000000000e+00 -1.202275211755e+05 1.226716727745e-04 1.226714727745e-04 2.009999997041e-10 9.999999970991e-13 9.909939287425e+00 7.973592451855e+00 2.070001572722e-04 0.000000000000e+00 
9.000000000000e-02 0.000000000000e+00 0.000000000000e+00 -1.331820812446e+05 1.226716727745e-04 1.226714727745e-04 2.009999997041e-10 9.999999970991e-13 9.909939287425e+00 7.973592451855e+00 2.070001572722e-04 0.000000000000e+00 
9.500000000000e-02 0.000000000000e+00 0.000000000000e+00 -1.461366413138e+05 1.226716727745e-04 1.226714727745e-04 2.009999997041e-10 9.999999970991e-13 9.909939287425e+00 7.973592451855e+00 2.070001572722e-04 0.000000000000e+00 
1.000000000000e-01 0.000000000000e+00 0.000000000000e+00 -1.590912013829e+05 1.226716727745e-04 1.226714727745e-04 2.009999997041e-10 9.999999970991e-13 9.909939287425e+00 7.973592451855e+00 2.070001572722e-04 0.000000000000e+00 