 TITLE = "Profiles along polylines"
 VARIABLES = "DIST" "HEAD" "PRESSURE1" "SATURATION1" "VELOCITY_X1" "VELOCITY_Y1" "VELOCITY_Z1" "DISPLACEMENT_X1" "DISPLACEMENT_Y1" "DISPLACEMENT_Z1" "STRESS_XX" "STRESS_XY" "STRESS_YY" "STRESS_ZZ" "STRESS_XZ" "STRESS_YZ" "STRAIN_XX" "STRAIN_XY" "STRAIN_YY" "STRAIN_ZZ" "STRAIN_XZ" "STRAIN_YZ" "STRAIN_PLS"  p_(1st_Invariant)  q_(2nd_Invariant)   Effective_Strain
 ZONE T="TIME=0.000000000000e+00"
2.181405180885e-03 0.000000000000e+00 5.000000000000e+06 1.000000000000e+00 0.000000000000e+00 0.000000000000e+00 0.000000000000e+00 0.000000000000e+00 0.000000000000e+00 0.000000000000e+00 -9.000000000000e+06 0.000000000000e+00 -9.000000000000e+06 -9.000000000000e+06 0.000000000000e+00 0.000000000000e+00 0.000000000000e+00 0.000000000000e+00 0.000000000000e+00 0.000000000000e+00 0.000000000000e+00 0.000000000000e+00 0.000000000000e+00 9.000000000000e+06 0.000000000000e+00  0.000000000000e+00
2.422118028840e-03 0.000000000000e+00 5.000000000000e+06 1.000000000000e+00 0.000000000000e+00 0.000000000000e+00 0.000000000000e+00 0.000000000000e+00 0.000000000000e+00 0.000000000000e+00 -9.000000000000e+06 0.000000000000e+00 -9.000000000000e+06 -9.000000000000e+06 0.000000000000e+00 0.000000000000e+00 0.000000000000e+00 0.000000000000e+00 0.000000000000e+00 0.000000000000e+00 0.000000000000e+00 0.000000000000e+00 0.000000000000e+00 9.000000000000e+06 0.000000000000e+00  0.000000000000e+00
4.954520779274e-03 0.000000000000e+00 5.000000000000e+06 1.000000000000e+00 0.000000000000e+00 0.000000000000e+00 0.000000000000e+00 0.000000000000e+00 0.000000000000e+00 0.000000000000e+00 -9.000000000000e+06 0.000000000000e+00 -9.000000000000e+06 -9.000000000000e+06 0.000000000000e+00 0.000000000000e+00 0.000000000000e+00 0.000000000000e+00 0.000000000000e+00 0.000000000000e+00 0.000000000000e+00 0.000000000000e+00 0.000000000000e+00 9.000000000000e+06 0.000000000000e+00  0.000000000000e+00
5.099998651546e-03 0.000000000000e+00 5.000000000000e+06 1.000000000000e+00 0.000000000000e+00 0.000000000000e+00 0.000000000000e+00 0.000000000000e+00 0.000000000000e+00 0.000000000000e+00 -9.000000000000e+06 0.000000000000e+00 -9.000000000000e+06 -9.000000000000e+06 0.000000000000e+00 0.000000000000e+00 0.000000000000e+00 0.000000000000e+00 0.000000000000e+00 0.000000000000e+00 0.000000000000e+00 0.000000000000e+00 0.000000000000e+00 9.000000000000e+06 0.000000000000e+00  0.000000000000e+00
5.142140424538e-03 0.000000000000e+00 5.000000000000e+06 1.000000000000e+00 0.000000000000e+00 0.000000000000e+00 0.000000000000e+00 0.000000000000e+00 0.000000000000e+00 0.000000000000e+00 -9.000000000000e+06 0.000000000000e+00 -9.000000000000e+06 -9.000000000000e+06 0.000000000000e+00 0.000000000000e+00 0.000000000000e+00 0.000000000000e+00 0.000000000000e+00 0.000000000000e+00 0.000000000000e+00 0.000000000000e+00 0.000000000000e+00 9.000000000000e+06 0.000000000000e+00  0.000000000000e+00
9.936938829980e-03 0.000000000000e+00 5.000000000000e+06 1.000000000000e+00 0.000000000000e+00 0.000000000000e+00 0.000000000000e+00 0.000000000000e+00 0.000000000000e+00 0.000000000000e+00 -9.000000000000e+06 0.000000000000e+00 -9.000000000000e+06 -9.000000000000e+06 0.000000000000e+00 0.000000000000e+00 0.000000000000e+00 0.000000000000e+00 0.000000000000e+00 0.000000000000e+00 0.000000000000e+00 0.000000000000e+00 0.000000000000e+00 9.000000000000e+06 0.000000000000e+00  0.000000000000e+00
1.240492718336e-02 0.000000000000e+00 5.000000000000e+06 1.000000000000e+00 0.000000000000e+00 0.000000000000e+00 0.000000000000e+00 0.000000000000e+00 0.000000000000e+00 0.000000000000e+00 -9.000000000000e+06 0.000000000000e+00 -9.000000000000e+06 -9.000000000000e+06 0.000000000000e+00 0.000000000000e+00 0.000000000000e+00 0.000000000000e+00 0.000000000000e+00 0.000000000000e+00 0.000000000000e+00 0.000000000000e+00 0.000000000000e+00 9.000000000000e+06 0.000000000000e+00  0.000000000000e+00
1.241944992059e-02 0.000000000000e+00 5.000000000000e+06 1.000000000000e+00 0.000000000000e+00 0.000000000000e+00 0.000000000000e+00 0.000000000000e+00 0.000000000000e+00 0.000000000000e+00 -9.000000000000e+06 0.000000000000e+00 -9.000000000000e+06 -9.000000000000e+06 0.000000000000e+00 0.000000000000e+00 0.000000000000e+00 0.000000000000e+00 0.000000000000e+00 0.000000000000e+00 0.000000000000e+00 0.000000000000e+00 0.000000000000e+00 9.000000000000e+06 0.000000000000e+00  0.000000000000e+00
1.975504564856e-02 0.000000000000e+00 5.000000000000e+06 1.000000000000e+00 0.000000000000e+00 0.000000000000e+00 0.000000000000e+00 0.000000000000e+00 0.000000000000e+00 0.000000000000e+00 -9.000000000000e+06 0.000000000000e+00 -9.000000000000e+06 -9.000000000000e+06 0.000000000000e+00 0.000000000000e+00 0.000000000000e+00 0.000000000000e+00 0.000000000000e+00 0.000000000000e+00 0.000000000000e+00 0.000000000000e+00 0.000000000000e+00 9.000000000000e+06 0.000000000000e+00  0.000000000000e+00
2.127094342738e-02 0.000000000000e+00 5.000000000000e+06 1.000000000000e+00 0.000000000000e+00 0.000000000000e+00 0.000000000000e+00 0.000000000000e+00 0.000000000000e+00 0.000000000000e+00 -9.000000000000e+06 0.000000000000e+00 -9.000000000000e+06 -9.000000000000e+06 0.000000000000e+00 0.000000000000e+00 0.000000000000e+00 0.000000000000e+00 0.000000000000e+00 0.000000000000e+00 0.000000000000e+00 0.000000000000e+00 0.000000000000e+00 9.000000000000e+06 0.000000000000e+00  0.000000000000e+00
2.684641339594e-02 0.000000000000e+00 5.000000000000e+06 1.000000000000e+00 0.000000000000e+00 0.000000000000e+00 0.000000000000e+00 0.000000000000e+00 0.000000000000e+00 0.000000000000e+00 -9.000000000000e+06 0.000000000000e+00 -9.000000000000e+06 -9.000000000000e+06 0.000000000000e+00 0.000000000000e+00 0.000000000000e+00 0.000000000000e+00 0.000000000000e+00 0.000000000000e+00 0.000000000000e+00 0.000000000000e+00 0.000000000000e+00 9.000000000000e+06 0.000000000000e+00  0.000000000000e+00
2.755539646422e-02 0.000000000000e+00 5.000000000000e+06 1.000000000000e+00 0.000000000000e+00 0.000000000000e+00 0.000000000000e+00 0.000000000000e+00 0.000000000000e+00 0.000000000000e+00 -9.000000000000e+06 0.000000000000e+00 -9.000000000000e+06 -9.000000000000e+06 0.000000000000e+00 0.000000000000e+00 0.000000000000e+00 0.000000000000e+00 0.000000000000e+00 0.000000000000e+00 0.000000000000e+00 0.000000000000e+00 0.000000000000e+00 9.000000000000e+06 0.000000000000e+00  0.000000000000e+00
2.859643629295e-02 0.000000000000e+00 5.000000000000e+06 1.000000000000e+00 0.000000000000e+00 0.000000000000e+00 0.000000000000e+00 0.000000000000e+00 0.000000000000e+00 0.000000000000e+00 -9.000000000000e+06 0.000000000000e+00 -9.000000000000e+06 -9.000000000000e+06 0.000000000000e+00 0.000000000000e+00 0.000000000000e+00 0.000000000000e+00 0.000000000000e+00 0.000000000000e+00 0.000000000000e+00 0.000000000000e+00 0.000000000000e+00 9.000000000000e+06 0.000000000000e+00  0.000000000000e+00
3.027925406389e-02 0.000000000000e+00 5.000000000000e+06 1.000000000000e+00 0.000000000000e+00 0.000000000000e+00 0.000000000000e+00 0.000000000000e+00 0.000000000000e+00 0.000000000000e+00 -9.000000000000e+06 0.000000000000e+00 -9.000000000000e+06 -9.000000000000e+06 0.000000000000e+00 0.000000000000e+00 0.000000000000e+00 0.000000000000e+00 0.000000000000e+00 0.000000000000e+00 0.000000000000e+00 0.000000000000e+00 0.000000000000e+00 9.000000000000e+06 0.000000000000e+00  0.000000000000e+00
3.409135372552e-02 0.000000000000e+00 5.000000000000e+06 1.000000000000e+00 0.000000000000e+00 0.000000000000e+00 0.000000000000e+00 0.000000000000e+00 0.000000000000e+00 0.000000000000e+00 -9.000000000000e+06 0.000000000000e+00 -9.000000000000e+06 -9.000000000000e+06 0.000000000000e+00 0.000000000000e+00 0.000000000000e+00 0.000000000000e+00 0.000000000000e+00 0.000000000000e+00 0.000000000000e+00 0.000000000000e+00 0.000000000000e+00 9.000000000000e+06 0.000000000000e+00  0.000000000000e+00
3.514429380857e-02 0.000000000000e+00 5.000000000000e+06 1.000000000000e+00 0.000000000000e+00 0.000000000000e+00 0.000000000000e+00 0.000000000000e+00 0.000000000000e+00 0.000000000000e+00 -9.000000000000e+06 0.000000000000e+00 -9.000000000000e+06 -9.000000000000e+06 0.000000000000e+00 0.000000000000e+00 0.000000000000e+00 0.000000000000e+00 0.000000000000e+00 0.000000000000e+00 0.000000000000e+00 0.000000000000e+00 0.000000000000e+00 9.000000000000e+06 0.000000000000e+00  0.000000000000e+00
3.527451314775e-02 0.000000000000e+00 5.000000000000e+06 1.000000000000e+00 0.000000000000e+00 0.000000000000e+00 0.000000000000e+00 0.000000000000e+00 0.000000000000e+00 0.000000000000e+00 -9.000000000000e+06 0.000000000000e+00 -9.000000000000e+06 -9.000000000000e+06 0.000000000000e+00 0.000000000000e+00 0.000000000000e+00 0.000000000000e+00 0.000000000000e+00 0.000000000000e+00 0.000000000000e+00 0.000000000000e+00 0.000000000000e+00 9.000000000000e+06 0.000000000000e+00  0.000000000000e+00
4.217376705302e-02 0.000000000000e+00 5.000000000000e+06 1.000000000000e+00 0.000000000000e+00 0.000000000000e+00 0.000000000000e+00 0.000000000000e+00 0.000000000000e+00 0.000000000000e+00 -9.000000000000e+06 0.000000000000e+00 -9.000000000000e+06 -9.000000000000e+06 0.000000000000e+00 0.000000000000e+00 0.000000000000e+00 0.000000000000e+00 0.000000000000e+00 0.000000000000e+00 0.000000000000e+00 0.000000000000e+00 0.000000000000e+00 9.000000000000e+06 0.000000000000e+00  0.000000000000e+00
4.217376706247e-02 0.000000000000e+00 5.000000000000e+06 1.000000000000e+00 0.000000000000e+00 0.000000000000e+00 0.000000000000e+00 0.000000000000e+00 0.000000000000e+00 0.000000000000e+00 -9.000000000000e+06 0.000000000000e+00 -9.000000000000e+06 -9.000000000000e+06 0.000000000000e+00 0.000000000000e+00 0.000000000000e+00 0.000000000000e+00 0.000000000000e+00 0.000000000000e+00 0.000000000000e+00 0.000000000000e+00 0.000000000000e+00 9.000000000000e+06 0.000000000000e+00  0.000000000000e+00
4.300000000000e-02 0.000000000000e+00 5.000000000000e+06 1.000000000000e+00 0.000000000000e+00 0.000000000000e+00 0.000000000000e+00 0.000000000000e+00 0.000000000000e+00 0.000000000000e+00 -9.000000000000e+06 0.000000000000e+00 -9.000000000000e+06 -9.000000000000e+06 0.000000000000e+00 0.000000000000e+00 0.000000000000e+00 0.000000000000e+00 0.000000000000e+00 0.000000000000e+00 0.000000000000e+00 0.000000000000e+00 0.000000000000e+00 9.000000000000e+06 0.000000000000e+00  0.000000000000e+00
5.122718024044e-02 0.000000000000e+00 5.000000000000e+06 1.000000000000e+00 0.000000000000e+00 0.000000000000e+00 0.000000000000e+00 0.000000000000e+00 0.000000000000e+00 0.000000000000e+00 -9.000000000000e+06 0.000000000000e+00 -9.000000000000e+06 -9.000000000000e+06 0.000000000000e+00 0.000000000000e+00 0.000000000000e+00 0.000000000000e+00 0.000000000000e+00 0.000000000000e+00 0.000000000000e+00 0.000000000000e+00 0.000000000000e+00 9.000000000000e+06 0.000000000000e+00  0.000000000000e+00
5.136047093306e-02 0.000000000000e+00 5.000000000000e+06 1.000000000000e+00 0.000000000000e+00 0.000000000000e+00 0.000000000000e+00 0.000000000000e+00 0.000000000000e+00 0.000000000000e+00 -9.000000000000e+06 0.000000000000e+00 -9.000000000000e+06 -9.000000000000e+06 0.000000000000e+00 0.000000000000e+00 0.000000000000e+00 0.000000000000e+00 0.000000000000e+00 0.000000000000e+00 0.000000000000e+00 0.000000000000e+00 0.000000000000e+00 9.000000000000e+06 0.000000000000e+00  0.000000000000e+00
5.345416218730e-02 0.000000000000e+00 5.000000000000e+06 1.000000000000e+00 0.000000000000e+00 0.000000000000e+00 0.000000000000e+00 0.000000000000e+00 0.000000000000e+00 0.000000000000e+00 -9.000000000000e+06 0.000000000000e+00 -9.000000000000e+06 -9.000000000000e+06 0.000000000000e+00 0.000000000000e+00 0.000000000000e+00 0.000000000000e+00 0.000000000000e+00 0.000000000000e+00 0.000000000000e+00 0.000000000000e+00 0.000000000000e+00 9.000000000000e+06 0.000000000000e+00  0.000000000000e+00
6.177354899970e-02 0.000000000000e+00 5.000000000000e+06 1.000000000000e+00 0.000000000000e+00 0.000000000000e+00 0.000000000000e+00 0.000000000000e+00 0.000000000000e+00 0.000000000000e+00 -9.000000000000e+06 0.000000000000e+00 -9.000000000000e+06 -9.000000000000e+06 0.000000000000e+00 0.000000000000e+00 0.000000000000e+00 0.000000000000e+00 0.000000000000e+00 0.000000000000e+00 0.000000000000e+00 0.000000000000e+00 0.000000000000e+00 9.000000000000e+06 0.000000000000e+00  0.000000000000e+00
6.558234228165e-02 0.000000000000e+00 5.000000000000e+06 1.000000000000e+00 0.000000000000e+00 0.000000000000e+00 0.000000000000e+00 0.000000000000e+00 0.000000000000e+00 0.000000000000e+00 -9.000000000000e+06 0.000000000000e+00 -9.000000000000e+06 -9.000000000000e+06 0.000000000000e+00 0.000000000000e+00 0.000000000000e+00 0.000000000000e+00 0.000000000000e+00 0.000000000000e+00 0.000000000000e+00 0.000000000000e+00 0.000000000000e+00 9.000000000000e+06 0.000000000000e+00  0.000000000000e+00
7.965259933125e-02 0.000000000000e+00 5.000000000000e+06 1.000000000000e+00 0.000000000000e+00 0.000000000000e+00 0.000000000000e+00 0.000000000000e+00 0.000000000000e+00 0.000000000000e+00 -9.000000000000e+06 0.000000000000e+00 -9.000000000000e+06 -9.000000000000e+06 0.000000000000e+00 0.000000000000e+00 0.000000000000e+00 0.000000000000e+00 0.000000000000e+00 0.000000000000e+00 0.000000000000e+00 0.000000000000e+00 0.000000000000e+00 9.000000000000e+06 0.000000000000e+00  0.000000000000e+00
9.597592162203e-02 0.000000000000e+00 5.000000000000e+06 1.000000000000e+00 0.000000000000e+00 0.000000000000e+00 0.000000000000e+00 0.000000000000e+00 0.000000000000e+00 0.000000000000e+00 -9.000000000000e+06 0.000000000000e+00 -9.000000000000e+06 -9.000000000000e+06 0.000000000000e+00 0.000000000000e+00 0.000000000000e+00 0.000000000000e+00 0.000000000000e+00 0.000000000000e+00 0.000000000000e+00 0.000000000000e+00 0.000000000000e+00 9.000000000000e+06 0.000000000000e+00  0.000000000000e+00
1.149130819661e-01 0.000000000000e+00 5.000000000000e+06 1.000000000000e+00 0.000000000000e+00 0.000000000000e+00 0.000000000000e+00 0.000000000000e+00 0.000000000000e+00 0.000000000000e+00 -9.000000000000e+06 0.000000000000e+00 -9.000000000000e+06 -9.000000000000e+06 0.000000000000e+00 0.000000000000e+00 0.000000000000e+00 0.000000000000e+00 0.000000000000e+00 0.000000000000e+00 0.000000000000e+00 0.000000000000e+00 0.000000000000e+00 9.000000000000e+06 0.000000000000e+00  0.000000000000e+00
1.368826408704e-01 0.000000000000e+00 5.000000000000e+06 1.000000000000e+00 0.000000000000e+00 0.000000000000e+00 0.000000000000e+00 0.000000000000e+00 0.000000000000e+00 0.000000000000e+00 -9.000000000000e+06 0.000000000000e+00 -9.000000000000e+06 -9.000000000000e+06 0.000000000000e+00 0.000000000000e+00 0.000000000000e+00 0.000000000000e+00 0.000000000000e+00 0.000000000000e+00 0.000000000000e+00 0.000000000000e+00 0.000000000000e+00 9.000000000000e+06 0.000000000000e+00  0.000000000000e+00
1.623701725408e-01 0.000000000000e+00 5.000000000000e+06 1.000000000000e+00 0.000000000000e+00 0.000000000000e+00 0.000000000000e+00 0.000000000000e+00 0.000000000000e+00 0.000000000000e+00 -9.000000000000e+06 0.000000000000e+00 -9.000000000000e+06 -9.000000000000e+06 0.000000000000e+00 0.000000000000e+00 0.000000000000e+00 0.000000000000e+00 0.000000000000e+00 0.000000000000e+00 0.000000000000e+00 0.000000000000e+00 0.000000000000e+00 9.000000000000e+06 0.000000000000e+00  0.000000000000e+00
1.919390072501e-01 0.000000000000e+00 5.000000000000e+06 1.000000000000e+00 0.000000000000e+00 0.000000000000e+00 0.000000000000e+00 0.000000000000e+00 0.000000000000e+00 0.000000000000e+00 -9.000000000000e+06 0.000000000000e+00 -9.000000000000e+06 -9.000000000000e+06 0.000000000000e+00 0.000000000000e+00 0.000000000000e+00 0.000000000000e+00 0.000000000000e+00 0.000000000000e+00 0.000000000000e+00 0.000000000000e+00 0.000000000000e+00 9.000000000000e+06 0.000000000000e+00  0.000000000000e+00
2.262426829984e-01 0.000000000000e+00 5.000000000000e+06 1.000000000000e+00 0.000000000000e+00 0.000000000000e+00 0.000000000000e+00 0.000000000000e+00 0.000000000000e+00 0.000000000000e+00 -9.000000000000e+06 0.000000000000e+00 -9.000000000000e+06 -9.000000000000e+06 0.000000000000e+00 0.000000000000e+00 0.000000000000e+00 0.000000000000e+00 0.000000000000e+00 0.000000000000e+00 0.000000000000e+00 0.000000000000e+00 0.000000000000e+00 9.000000000000e+06 0.000000000000e+00  0.000000000000e+00
2.660393769758e-01 0.000000000000e+00 5.000000000000e+06 1.000000000000e+00 0.000000000000e+00 0.000000000000e+00 0.000000000000e+00 0.000000000000e+00 0.000000000000e+00 0.000000000000e+00 -9.000000000000e+06 0.000000000000e+00 -9.000000000000e+06 -9.000000000000e+06 0.000000000000e+00 0.000000000000e+00 0.000000000000e+00 0.000000000000e+00 0.000000000000e+00 0.000000000000e+00 0.000000000000e+00 0.000000000000e+00 0.000000000000e+00 9.000000000000e+06 0.000000000000e+00  0.000000000000e+00
3.122086978944e-01 0.000000000000e+00 5.000000000000e+06 1.000000000000e+00 0.000000000000e+00 0.000000000000e+00 0.000000000000e+00 0.000000000000e+00 0.000000000000e+00 0.000000000000e+00 -9.000000000000e+06 0.000000000000e+00 -9.000000000000e+06 -9.000000000000e+06 0.000000000000e+00 0.000000000000e+00 0.000000000000e+00 0.000000000000e+00 0.000000000000e+00 0.000000000000e+00 0.000000000000e+00 0.000000000000e+00 0.000000000000e+00 9.000000000000e+06 0.000000000000e+00  0.000000000000e+00
3.657710818207e-01 0.000000000000e+00 5.000000000000e+06 1.000000000000e+00 0.000000000000e+00 0.000000000000e+00 0.000000000000e+00 0.000000000000e+00 0.000000000000e+00 0.000000000000e+00 -9.000000000000e+06 0.000000000000e+00 -9.000000000000e+06 -9.000000000000e+06 0.000000000000e+00 0.000000000000e+00 0.000000000000e+00 0.000000000000e+00 0.000000000000e+00 0.000000000000e+00 0.000000000000e+00 0.000000000000e+00 0.000000000000e+00 9.000000000000e+06 0.000000000000e+00  0.000000000000e+00
4.279103802350e-01 0.000000000000e+00 5.000000000000e+06 1.000000000000e+00 0.000000000000e+00 0.000000000000e+00 0.000000000000e+00 0.000000000000e+00 0.000000000000e+00 0.000000000000e+00 -9.000000000000e+06 0.000000000000e+00 -9.000000000000e+06 -9.000000000000e+06 0.000000000000e+00 0.000000000000e+00 0.000000000000e+00 0.000000000000e+00 0.000000000000e+00 0.000000000000e+00 0.000000000000e+00 0.000000000000e+00 0.000000000000e+00 9.000000000000e+06 0.000000000000e+00  0.000000000000e+00
5.000000000000e-01 0.000000000000e+00 5.000000000000e+06 1.000000000000e+00 0.000000000000e+00 0.000000000000e+00 0.000000000000e+00 0.000000000000e+00 0.000000000000e+00 0.000000000000e+00 -9.000000000000e+06 0.000000000000e+00 -9.000000000000e+06 -9.000000000000e+06 0.000000000000e+00 0.000000000000e+00 0.000000000000e+00 0.000000000000e+00 0.000000000000e+00 0.000000000000e+00 0.000000000000e+00 0.000000000000e+00 0.000000000000e+00 9.000000000000e+06 0.000000000000e+00  0.000000000000e+00
 TITLE = "Profiles along polylines"
 VARIABLES = "DIST" "HEAD" "PRESSURE1" "SATURATION1" "VELOCITY_X1" "VELOCITY_Y1" "VELOCITY_Z1" "DISPLACEMENT_X1" "DISPLACEMENT_Y1" "DISPLACEMENT_Z1" "STRESS_XX" "STRESS_XY" "STRESS_YY" "STRESS_ZZ" "STRESS_XZ" "STRESS_YZ" "STRAIN_XX" "STRAIN_XY" "STRAIN_YY" "STRAIN_ZZ" "STRAIN_XZ" "STRAIN_YZ" "STRAIN_PLS"  p_(1st_Invariant)  q_(2nd_Invariant)   Effective_Strain
 ZONE T="TIME=3.600000000000e+03"
2.181405180885e-03 0.000000000000e+00 1.000000000000e+05 1.000000000000e+00 0.000000000000e+00 0.000000000000e+00 0.000000000000e+00 0.000000000000e+00 0.000000000000e+00 0.000000000000e+00 0.000000000000e+00 0.000000000000e+00 0.000000000000e+00 0.000000000000e+00 0.000000000000e+00 0.000000000000e+00 0.000000000000e+00 0.000000000000e+00 0.000000000000e+00 0.000000000000e+00 0.000000000000e+00 0.000000000000e+00 0.000000000000e+00 -0.000000000000e+00 0.000000000000e+00  0.000000000000e+00
2.422118028840e-03 0.000000000000e+00 1.000000000000e+05 1.000000000000e+00 0.000000000000e+00 0.000000000000e+00 0.000000000000e+00 0.000000000000e+00 0.000000000000e+00 0.000000000000e+00 0.000000000000e+00 0.000000000000e+00 0.000000000000e+00 0.000000000000e+00 0.000000000000e+00 0.000000000000e+00 0.000000000000e+00 0.000000000000e+00 0.000000000000e+00 0.000000000000e+00 0.000000000000e+00 0.000000000000e+00 0.000000000000e+00 -0.000000000000e+00 0.000000000000e+00  0.000000000000e+00
4.954520779274e-03 0.000000000000e+00 1.000000000000e+05 1.000000000000e+00 0.000000000000e+00 0.000000000000e+00 0.000000000000e+00 0.000000000000e+00 0.000000000000e+00 0.000000000000e+00 0.000000000000e+00 0.000000000000e+00 0.000000000000e+00 0.000000000000e+00 0.000000000000e+00 0.000000000000e+00 0.000000000000e+00 0.000000000000e+00 0.000000000000e+00 0.000000000000e+00 0.000000000000e+00 0.000000000000e+00 0.000000000000e+00 -0.000000000000e+00 0.000000000000e+00  0.000000000000e+00
5.099998651546e-03 0.000000000000e+00 1.000000000000e+05 1.000000000000e+00 0.000000000000e+00 0.000000000000e+00 0.000000000000e+00 0.000000000000e+00 0.000000000000e+00 0.000000000000e+00 0.000000000000e+00 0.000000000000e+00 0.000000000000e+00 0.000000000000e+00 0.000000000000e+00 0.000000000000e+00 0.000000000000e+00 0.000000000000e+00 0.000000000000e+00 0.000000000000e+00 0.000000000000e+00 0.000000000000e+00 0.000000000000e+00 -0.000000000000e+00 0.000000000000e+00  0.000000000000e+00
5.142140424538e-03 0.000000000000e+00 1.000000000000e+05 1.000000000000e+00 0.000000000000e+00 0.000000000000e+00 0.000000000000e+00 0.000000000000e+00 0.000000000000e+00 0.000000000000e+00 0.000000000000e+00 0.000000000000e+00 0.000000000000e+00 0.000000000000e+00 0.000000000000e+00 0.000000000000e+00 0.000000000000e+00 0.000000000000e+00 0.000000000000e+00 0.000000000000e+00 0.000000000000e+00 0.000000000000e+00 0.000000000000e+00 -0.000000000000e+00 0.000000000000e+00  0.000000000000e+00
9.936938829980e-03 0.000000000000e+00 1.000000000000e+05 1.000000000000e+00 0.000000000000e+00 0.000000000000e+00 0.000000000000e+00 0.000000000000e+00 0.000000000000e+00 0.000000000000e+00 0.000000000000e+00 0.000000000000e+00 0.000000000000e+00 0.000000000000e+00 0.000000000000e+00 0.000000000000e+00 0.000000000000e+00 0.000000000000e+00 0.000000000000e+00 0.000000000000e+00 0.000000000000e+00 0.000000000000e+00 0.000000000000e+00 -0.000000000000e+00 0.000000000000e+00  0.000000000000e+00
1.240492718336e-02 0.000000000000e+00 1.000000000000e+05 1.000000000000e+00 0.000000000000e+00 0.000000000000e+00 0.000000000000e+00 0.000000000000e+00 0.000000000000e+00 0.000000000000e+00 0.000000000000e+00 0.000000000000e+00 0.000000000000e+00 0.000000000000e+00 0.000000000000e+00 0.000000000000e+00 0.000000000000e+00 0.000000000000e+00 0.000000000000e+00 0.000000000000e+00 0.000000000000e+00 0.000000000000e+00 0.000000000000e+00 -0.000000000000e+00 0.000000000000e+00  0.000000000000e+00
1.241944992059e-02 0.000000000000e+00 1.000000000000e+05 1.000000000000e+00 0.000000000000e+00 0.000000000000e+00 0.000000000000e+00 0.000000000000e+00 0.000000000000e+00 0.000000000000e+00 0.000000000000e+00 0.000000000000e+00 0.000000000000e+00 0.000000000000e+00 0.000000000000e+00 0.000000000000e+00 0.000000000000e+00 0.000000000000e+00 0.000000000000e+00 0.000000000000e+00 0.000000000000e+00 0.000000000000e+00 0.000000000000e+00 -0.000000000000e+00 0.000000000000e+00  0.000000000000e+00
1.975504564856e-02 0.000000000000e+00 1.000000000000e+05 1.000000000000e+00 0.000000000000e+00 0.000000000000e+00 0.000000000000e+00 0.000000000000e+00 0.000000000000e+00 0.000000000000e+00 0.000000000000e+00 0.000000000000e+00 0.000000000000e+00 0.000000000000e+00 0.000000000000e+00 0.000000000000e+00 0.000000000000e+00 0.000000000000e+00 0.000000000000e+00 0.000000000000e+00 0.000000000000e+00 0.000000000000e+00 0.000000000000e+00 -0.000000000000e+00 0.000000000000e+00  0.000000000000e+00
2.127094342738e-02 0.000000000000e+00 1.000000000000e+05 1.000000000000e+00 0.000000000000e+00 0.000000000000e+00 0.000000000000e+00 0.000000000000e+00 0.000000000000e+00 0.000000000000e+00 0.000000000000e+00 0.000000000000e+00 0.000000000000e+00 0.000000000000e+00 0.000000000000e+00 0.000000000000e+00 0.000000000000e+00 0.000000000000e+00 0.000000000000e+00 0.000000000000e+00 0.000000000000e+00 0.000000000000e+00 0.000000000000e+00 -0.000000000000e+00 0.000000000000e+00  0.000000000000e+00
2.684641339594e-02 0.000000000000e+00 1.000000000000e+05 1.000000000000e+00 0.000000000000e+00 0.000000000000e+00 0.000000000000e+00 0.000000000000e+00 0.000000000000e+00 0.000000000000e+00 0.000000000000e+00 0.000000000000e+00 0.000000000000e+00 0.000000000000e+00 0.000000000000e+00 0.000000000000e+00 0.000000000000e+00 0.000000000000e+00 0.000000000000e+00 0.000000000000e+00 0.000000000000e+00 0.000000000000e+00 0.000000000000e+00 -0.000000000000e+00 0.000000000000e+00  0.000000000000e+00
2.755539646422e-02 0.000000000000e+00 1.000000000000e+05 1.000000000000e+00 0.000000000000e+00 0.000000000000e+00 0.000000000000e+00 0.000000000000e+00 0.000000000000e+00 0.000000000000e+00 0.000000000000e+00 0.000000000000e+00 0.000000000000e+00 0.000000000000e+00 0.000000000000e+00 0.000000000000e+00 0.000000000000e+00 0.000000000000e+00 0.000000000000e+00 0.000000000000e+00 0.000000000000e+00 0.000000000000e+00 0.000000000000e+00 -0.000000000000e+00 0.000000000000e+00  0.000000000000e+00
2.859643629295e-02 0.000000000000e+00 1.000000000000e+05 1.000000000000e+00 0.000000000000e+00 0.000000000000e+00 0.000000000000e+00 0.000000000000e+00 0.000000000000e+00 0.000000000000e+00 0.000000000000e+00 0.000000000000e+00 0.000000000000e+00 0.000000000000e+00 0.000000000000e+00 0.000000000000e+00 0.000000000000e+00 0.000000000000e+00 0.000000000000e+00 0.000000000000e+00 0.000000000000e+00 0.000000000000e+00 0.000000000000e+00 -0.000000000000e+00 0.000000000000e+00  0.000000000000e+00
3.027925406389e-02 0.000000000000e+00 1.000000000000e+05 1.000000000000e+00 0.000000000000e+00 0.000000000000e+00 0.000000000000e+00 0.000000000000e+00 0.000000000000e+00 0.000000000000e+00 0.000000000000e+00 0.000000000000e+00 0.000000000000e+00 0.000000000000e+00 0.000000000000e+00 0.000000000000e+00 0.000000000000e+00 0.000000000000e+00 0.000000000000e+00 0.000000000000e+00 0.000000000000e+00 0.000000000000e+00 0.000000000000e+00 -0.000000000000e+00 0.000000000000e+00  0.000000000000e+00
3.409135372552e-02 0.000000000000e+00 1.000000000000e+05 1.000000000000e+00 0.000000000000e+00 0.000000000000e+00 0.000000000000e+00 0.000000000000e+00 0.000000000000e+00 0.000000000000e+00 0.000000000000e+00 0.000000000000e+00 0.000000000000e+00 0.000000000000e+00 0.000000000000e+00 0.000000000000e+00 0.000000000000e+00 0.000000000000e+00 0.000000000000e+00 0.000000000000e+00 0.000000000000e+00 0.000000000000e+00 0.000000000000e+00 -0.000000000000e+00 0.000000000000e+00  0.000000000000e+00
3.514429380857e-02 0.000000000000e+00 1.000000000000e+05 1.000000000000e+00 0.000000000000e+00 0.000000000000e+00 0.000000000000e+00 0.000000000000e+00 0.000000000000e+00 0.000000000000e+00 0.000000000000e+00 0.000000000000e+00 0.000000000000e+00 0.000000000000e+00 0.000000000000e+00 0.000000000000e+00 0.000000000000e+00 0.000000000000e+00 0.000000000000e+00 0.000000000000e+00 0.000000000000e+00 0.000000000000e+00 0.000000000000e+00 -0.000000000000e+00 0.000000000000e+00  0.000000000000e+00
3.527451314775e-02 0.000000000000e+00 1.000000000000e+05 1.000000000000e+00 0.000000000000e+00 0.000000000000e+00 0.000000000000e+00 0.000000000000e+00 0.000000000000e+00 0.000000000000e+00 0.000000000000e+00 0.000000000000e+00 0.000000000000e+00 0.000000000000e+00 0.000000000000e+00 0.000000000000e+00 0.000000000000e+00 0.000000000000e+00 0.000000000000e+00 0.000000000000e+00 0.000000000000e+00 0.000000000000e+00 0.000000000000e+00 -0.000000000000e+00 0.000000000000e+00  0.000000000000e+00
4.217376705302e-02 0.000000000000e+00 1.000000000000e+05 1.000000000000e+00 -8.114247774939e-09 2.529907894013e-25 -4.002768000082e-09 -9.749521735688e-06 -4.207225633179e-07 -6.239472816732e-05 -1.633670330101e+07 7.502345946816e+03 -8.648987752728e+06 -2.864753892574e+05 3.238521652399e+06 -4.862441581409e+04 -1.714792413485e-03 3.349261583400e-06 1.215521399897e-06 1.867847745389e-03 1.445768594821e-03 -2.170732848843e-05 0.000000000000e+00 8.424055481000e+06 1.499308270624e+07  3.988024895409e-03
4.217376706247e-02 0.000000000000e+00 1.000000000000e+05 1.000000000000e+00 7.819625954430e-09 -1.452872730102e-25 -3.920542009191e-09 9.005251672689e-06 -4.826629854028e-07 -6.265281545877e-05 -1.657458903433e+07 2.476136766547e+03 -8.690953249808e+06 -2.234178944945e+05 -3.256188763459e+06 -4.439768108632e+04 -1.758213615760e-03 1.105418199351e-06 1.526514714068e-06 1.891601370811e-03 -1.453655697973e-03 -1.982039334211e-05 0.000000000000e+00 8.496320059545e+06 1.524532913899e+07  4.041736722857e-03
4.300000000000e-02 0.000000000000e+00 1.000000000000e+05 1.000000000000e+00 7.861997877812e-13 -3.247257201580e-25 -3.928750767115e-09 -4.789038077456e-07 -4.175671272873e-07 -6.276109496011e-05 -1.720231683121e+07 3.819271417943e+03 -8.805557384071e+06 -5.135850128423e+04 2.060850035878e+04 -4.784574830495e+04 -1.872872832120e-03 1.705031883010e-06 1.403830188153e-06 1.955466080810e-03 9.200223374456e-06 -2.135970906471e-05 0.000000000000e+00 8.686410905523e+06 1.485451631666e+07  3.315924746502e-03
5.122718024044e-02 0.000000000000e+00 3.740317143439e+06 1.000000000000e+00 -3.983628490134e-10 1.259682803469e-10 -2.502540057785e-09 -7.449243176029e-06 3.588483444404e-07 -5.050100343177e-05 -1.400965090780e+07 -1.100933460785e+04 -8.438475902729e+06 -1.698265617733e+06 2.050323223349e+06 -3.701512440292e+04 -1.245618844229e-03 -4.914881521362e-06 -2.052994883354e-06 1.502458229446e-03 9.153228675664e-04 -1.652460910845e-05 0.000000000000e+00 8.048797476086e+06 1.125323360759e+07  2.862744895427e-03