 TITLE = "Profiles along polylines"
 VARIABLES = "DIST" "HEAD" "PRESSURE1" "SATURATION1" "VELOCITY_X1" "VELOCITY_Y1" "VELOCITY_Z1" "DISPLACEMENT_X1" "DISPLACEMENT_Y1" "DISPLACEMENT_Z1" "STRESS_XX" "STRESS_XY" "STRESS_YY" "STRESS_ZZ" "STRESS_XZ" "STRESS_YZ" "STRAIN_XX" "STRAIN_XY" "STRAIN_YY" "STRAIN_ZZ" "STRAIN_XZ" "STRAIN_YZ" "STRAIN_PLS"  p_(1st_Invariant)  q_(2nd_Invariant)   Effective_Strain
 ZONE T="TIME=0.000000000000e+00"
2.181405180885e-03 0.000000000000e+00 5.000000000000e+06 1.000000000000e+00 0.000000000000e+00 0.000000000000e+00 0.000000000000e+00 0.000000000000e+00 0.000000000000e+00 0.000000000000e+00 -9.000000000000e+06 0.000000000000e+00 -9.000000000000e+06 -9.000000000000e+06 0.000000000000e+00 0.000000000000e+00 0.000000000000e+00 0.000000000000e+00 0.000000000000e+00 0.000000000000e+00 0.000000000000e+00 0.000000000000e+00 0.000000000000e+00 9.000000000000e+06 0.000000000000e+00  0.000000000000e+00
2.422118028840e-03 0.000000000000e+00 5.000000000000e+06 1.000000000000e+00 0.000000000000e+00 0.000000000000e+00 0.000000000000e+00 0.000000000000e+00 0.000000000000e+00 0.000000000000e+00 -9.000000000000e+06 0.000000000000e+00 -9.000000000000e+06 -9.000000000000e+06 0.000000000000e+00 0.000000000000e+00 0.000000000000e+00 0.000000000000e+00 0.000000000000e+00 0.000000000000e+00 0.000000000000e+00 0.000000000000e+00 0.000000000000e+00 9.000000000000e+06 0.000000000000e+00  0.000000000000e+00
4.954520779274e-03 0.000000000000e+00 5.000000000000e+06 1.000000000000e+00 0.000000000000e+00 0.000000000000e+00 0.000000000000e+00 0.000000000000e+00 0.000000000000e+00 0.000000000000e+00 -9.000000000000e+06 0.000000000000e+00 -9.000000000000e+06 -9.000000000000e+06 0.000000000000e+00 0.000000000000e+00 0.000000000000e+00 0.000000000000e+00 0.000000000000e+00 0.000000000000e+00 0.000000000000e+00 0.000000000000e+00 0.000000000000e+00 9.000000000000e+06 0.000000000000e+00  0.000000000000e+00
5.099998651546e-03 0.000000000000e+00 5.000000000000e+06 1.000000000000e+00 0.000000000000e+00 0.000000000000e+00 0.000000000000e+00 0.000000000000e+00 0.000000000000e+00 0.000000000000e+00 -9.000000000000e+06 0.000000000000e+00 -9.000000000000e+06 -9.000000000000e+06 0.000000000000e+00 0.000000000000e+00 0.000000000000e+00 0.000000000000e+00 0.000000000000e+00 0.000000000000e+00 0.000000000000e+00 0.000000000000e+00 0.000000000000e+00 9.000000000000e+06 0.000000000000e+00  0.000000000000e+00
5.142140424538e-03 0.000000000000e+00 5.000000000000e+06 1.000000000000e+00 0.000000000000e+00 0.000000000000e+00 0.000000000000e+00 0.000000000000e+00 0.000000000000e+00 0.000000000000e+00 -9.000000000000e+06 0.000000000000e+00 -9.000000000000e+06 -9.000000000000e+06 0.000000000000e+00 0.000000000000e+00 0.000000000000e+00 0.000000000000e+00 0.000000000000e+00 0.000000000000e+00 0.000000000000e+00 0.000000000000e+00 0.000000000000e+00 9.000000000000e+06 0.000000000000e+00  0.000000000000e+00
9.936938829980e-03 0.000000000000e+00 5.000000000000e+06 1.000000000000e+00 0.000000000000e+00 0.000000000000e+00 0.000000000000e+00 0.000000000000e+00 0.000000000000e+00 0.000000000000e+00 -9.000000000000e+06 0.000000000000e+00 -9.000000000000e+06 -9.000000000000e+06 0.000000000000e+00 0.000000000000e+00 0.000000000000e+00 0.000000000000e+00 0.000000000000e+00 0.000000000000e+00 0.000000000000e+00 0.000000000000e+00 0.000000000000e+00 9.000000000000e+06 0.000000000000e+00  0.000000000000e+00
1.240492718336e-02 0.000000000000e+00 5.000000000000e+06 1.000000000000e+00 0.000000000000e+00 0.000000000000e+00 0.000000000000e+00 0.000000000000e+00 0.000000000000e+00 0.000000000000e+00 -9.000000000000e+06 0.000000000000e+00 -9.000000000000e+06 -9.000000000000e+06 0.000000000000e+00 0.000000000000e+00 0.000000000000e+00 0.000000000000e+00 0.000000000000e+00 0.000000000000e+00 0.000000000000e+00 0.000000000000e+00 0.000000000000e+00 9.000000000000e+06 0.000000000000e+00  0.000000000000e+00
1.241944992059e-02 0.000000000000e+00 5.000000000000e+06 1.000000000000e+00 0.000000000000e+00 0.000000000000e+00 0.000000000000e+00 0.000000000000e+00 0.000000000000e+00 0.000000000000e+00 -9.000000000000e+06 0.000000000000e+00 -9.000000000000e+06 -9.000000000000e+06 0.000000000000e+00 0.000000000000e+00 0.000000000000e+00 0.000000000000e+00 0.000000000000e+00 0.000000000000e+00 0.000000000000e+00 0.000000000000e+00 0.000000000000e+00 9.000000000000e+06 0.000000000000e+00  0.000000000000e+00
1.975504564856e-02 0.000000000000e+00 5.000000000000e+06 1.000000000000e+00 0.000000000000e+00 0.000000000000e+00 0.000000000000e+00 0.000000000000e+00 0.000000000000e+00 0.000000000000e+00 -9.000000000000e+06 0.000000000000e+00 -9.000000000000e+06 -9.000000000000e+06 0.000000000000e+00 0.000000000000e+00 0.000000000000e+00 0.000000000000e+00 0.000000000000e+00 0.000000000000e+00 0.000000000000e+00 0.000000000000e+00 0.000000000000e+00 9.000000000000e+06 0.000000000000e+00  0.000000000000e+00
2.127094342738e-02 0.000000000000e+00 5.000000000000e+06 1.000000000000e+00 0.000000000000e+00 0.000000000000e+00 0.000000000000e+00 0.000000000000e+00 0.000000000000e+00 0.000000000000e+00 -9.000000000000e+06 0.000000000000e+00 -9.000000000000e+06 -9.000000000000e+06 0.000000000000e+00 0.000000000000e+00 0.000000000000e+00 0.000000000000e+00 0.000000000000e+00 0.000000000000e+00 0.000000000000e+00 0.000000000000e+00 0.000000000000e+00 9.000000000000e+06 0.000000000000e+00  0.000000000000e+00
2.684641339594e-02 0.000000000000e+00 5.000000000000e+06 1.000000000000e+00 0.000000000000e+00 0.000000000000e+00 0.000000000000e+00 0.000000000000e+00 0.000000000000e+00 0.000000000000e+00 -9.000000000000e+06 0.000000000000e+00 -9.000000000000e+06 -9.000000000000e+06 0.000000000000e+00 0.000000000000e+00 0.000000000000e+00 0.000000000000e+00 0.000000000000e+00 0.000000000000e+00 0.000000000000e+00 0.000000000000e+00 0.000000000000e+00 9.000000000000e+06 0.000000000000e+00  0.000000000000e+00
2.755539646422e-02 0.000000000000e+00 5.000000000000e+06 1.000000000000e+00 0.000000000000e+00 0.000000000000e+00 0.000000000000e+00 0.000000000000e+00 0.000000000000e+00 0.000000000000e+00 -9.000000000000e+06 0.000000000000e+00 -9.000000000000e+06 -9.000000000000e+06 0.000000000000e+00 0.000000000000e+00 0.000000000000e+00 0.000000000000e+00 0.000000000000e+00 0.000000000000e+00 0.000000000000e+00 0.000000000000e+00 0.000000000000e+00 9.000000000000e+06 0.000000000000e+00  0.000000000000e+00
2.859643629295e-02 0.000000000000e+00 5.000000000000e+06 1.000000000000e+00 0.000000000000e+00 0.000000000000e+00 0.000000000000e+00 0.000000000000e+00 0.000000000000e+00 0.000000000000e+00 -9.000000000000e+06 0.000000000000e+00 -9.000000000000e+06 -9.000000000000e+06 0.000000000000e+00 0.000000000000e+00 0.000000000000e+00 0.000000000000e+00 0.000000000000e+00 0.000000000000e+00 0.000000000000e+00 0.000000000000e+00 0.000000000000e+00 9.000000000000e+06 0.000000000000e+00  0.000000000000e+00
3.027925406389e-02 0.000000000000e+00 5.000000000000e+06 1.000000000000e+00 0.000000000000e+00 0.000000000000e+00 0.000000000000e+00 0.000000000000e+00 0.000000000000e+00 0.000000000000e+00 -9.000000000000e+06 0.000000000000e+00 -9.000000000000e+06 -9.000000000000e+06 0.000000000000e+00 0.000000000000e+00 0.000000000000e+00 0.000000000000e+00 0.000000000000e+00 0.000000000000e+00 0.000000000000e+00 0.000000000000e+00 0.000000000000e+00 9.000000000000e+06 0.000000000000e+00  0.000000000000e+00
3.409135372552e-02 0.000000000000e+00 5.000000000000e+06 1.000000000000e+00 0.000000000000e+00 0.000000000000e+00 0.000000000000e+00 0.000000000000e+00 0.000000000000e+00 0.000000000000e+00 -9.000000000000e+06 0.000000000000e+00 -9.000000000000e+06 -9.000000000000e+06 0.000000000000e+00 0.000000000000e+00 0.000000000000e+00 0.000000000000e+00 0.000000000000e+00 0.000000000000e+00 0.000000000000e+00 0.000000000000e+00 0.000000000000e+00 9.000000000000e+06 0.000000000000e+00  0.000000000000e+00
3.514429380857e-02 0.000000000000e+00 5.000000000000e+06 1.000000000000e+00 0.000000000000e+00 0.000000000000e+00 0.000000000000e+00 0.000000000000e+00 0.000000000000e+00 0.000000000000e+00 -9.000000000000e+06 0.000000000000e+00 -9.000000000000e+06 -9.000000000000e+06 0.000000000000e+00 0.000000000000e+00 0.000000000000e+00 0.000000000000e+00 0.000000000000e+00 0.000000000000e+00 0.000000000000e+00 0.000000000000e+00 0.000000000000e+00 9.000000000000e+06 0.000000000000e+00  0.000000000000e+00
3.527451314775e-02 0.000000000000e+00 5.000000000000e+06 1.000000000000e+00 0.000000000000e+00 0.000000000000e+00 0.000000000000e+00 0.000000000000e+00 0.000000000000e+00 0.000000000000e+00 -9.000000000000e+06 0.000000000000e+00 -9.000000000000e+06 -9.000000000000e+06 0.000000000000e+00 0.000000000000e+00 0.000000000000e+00 0.000000000000e+00 0.000000000000e+00 0.000000000000e+00 0.000000000000e+00 0.000000000000e+00 0.000000000000e+00 9.000000000000e+06 0.000000000000e+00  0.000000000000e+00
4.217376705302e-02 0.000000000000e+00 5.000000000000e+06 1.000000000000e+00 0.000000000000e+00 0.000000000000e+00 0.000000000000e+00 0.000000000000e+00 0.000000000000e+00 0.000000000000e+00 -9.000000000000e+06 0.000000000000e+00 -9.000000000000e+06 -9.000000000000e+06 0.000000000000e+00 0.000000000000e+00 0.000000000000e+00 0.000000000000e+00 0.000000000000e+00 0.000000000000e+00 0.000000000000e+00 0.000000000000e+00 0.000000000000e+00 9.000000000000e+06 0.000000000000e+00  0.000000000000e+00
4.217376706247e-02 0.000000000000e+00 5.000000000000e+06 1.000000000000e+00 0.000000000000e+00 0.000000000000e+00 0.000000000000e+00 0.000000000000e+00 0.000000000000e+00 0.000000000000e+00 -9.000000000000e+06 0.000000000000e+00 -9.000000000000e+06 -9.000000000000e+06 0.000000000000e+00 0.000000000000e+00 0.000000000000e+00 0.000000000000e+00 0.000000000000e+00 0.000000000000e+00 0.000000000000e+00 0.000000000000e+00 0.000000000000e+00 9.000000000000e+06 0.000000000000e+00  0.000000000000e+00
4.300000000000e-02 0.000000000000e+00 5.000000000000e+06 1.000000000000e+00 0.000000000000e+00 0.000000000000e+00 0.000000000000e+00 0.000000000000e+00 0.000000000000e+00 0.000000000000e+00 -9.000000000000e+06 0.000000000000e+00 -9.000000000000e+06 -9.000000000000e+06 0.000000000000e+00 0.000000000000e+00 0.000000000000e+00 0.000000000000e+00 0.000000000000e+00 0.000000000000e+00 0.000000000000e+00 0.000000000000e+00 0.000000000000e+00 9.000000000000e+06 0.000000000000e+00  0.000000000000e+00
5.122718024044e-02 0.000000000000e+00 5.000000000000e+06 1.000000000000e+00 0.000000000000e+00 0.000000000000e+00 0.000000000000e+00 0.000000000000e+00 0.000000000000e+00 0.000000000000e+00 -9.000000000000e+06 0.000000000000e+00 -9.000000000000e+06 -9.000000000000e+06 0.000000000000e+00 0.000000000000e+00 0.000000000000e+00 0.000000000000e+00 0.000000000000e+00 0.000000000000e+00 0.000000000000e+00 0.000000000000e+00 0.000000000000e+00 9.000000000000e+06 0.000000000000e+00  0.000000000000e+00
5.136047093306e-02 0.000000000000e+00 5.000000000000e+06 1.000000000000e+00 0.000000000000e+00 0.000000000000e+00 0.000000000000e+00 0.000000000000e+00 0.000000000000e+00 0.000000000000e+00 -9.000000000000e+06 0.000000000000e+00 -9.000000000000e+06 -9.000000000000e+06 0.000000000000e+00 0.000000000000e+00 0.000000000000e+00 0.000000000000e+00 0.000000000000e+00 0.000000000000e+00 0.000000000000e+00 0.000000000000e+00 0.000000000000e+00 9.000000000000e+06 0.000000000000e+00  0.000000000000e+00
5.345416218730e-02 0.000000000000e+00 5.000000000000e+06 1.000000000000e+00 0.000000000000e+00 0.000000000000e+00 0.000000000000e+00 0.000000000000e+00 0.000000000000e+00 0.000000000000e+00 -9.000000000000e+06 0.000000000000e+00 -9.000000000000e+06 -9.000000000000e+06 0.000000000000e+00 0.000000000000e+00 0.000000000000e+00 0.000000000000e+00 0.000000000000e+00 0.000000000000e+00 0.000000000000e+00 0.000000000000e+00 0.000000000000e+00 9.000000000000e+06 0.000000000000e+00  0.000000000000e+00
6.177354899970e-02 0.000000000000e+00 5.000000000000e+06 1.000000000000e+00 0.000000000000e+00 0.000000000000e+00 0.000000000000e+00 0.000000000000e+00 0.000000000000e+00 0.000000000000e+00 -9.000000000000e+06 0.000000000000e+00 -9.000000000000e+06 -9.000000000000e+06 0.000000000000e+00 0.000000000000e+00 0.000000000000e+00 0.000000000000e+00 0.000000000000e+00 0.000000000000e+00 0.000000000000e+00 0.000000000000e+00 0.000000000000e+00 9.000000000000e+06 0.000000000000e+00  0.000000000000e+00
6.558234228165e-02 0.000000000000e+00 5.000000000000e+06 1.000000000000e+00 0.000000000000e+00 0.000000000000e+00 0.000000000000e+00 0.000000000000e+00 0.000000000000e+00 0.000000000000e+00 -9.000000000000e+06 0.000000000000e+00 -9.000000000000e+06 -9.000000000000e+06 0.000000000000e+00 0.000000000000e+00 0.000000000000e+00 0.000000000000e+00 0.000000000000e+00 0.000000000000e+00 0.000000000000e+00 0.000000000000e+00 0.000000000000e+00 9.000000000000e+06 0.000000000000e+00  0.000000000000e+00
7.965259933125e-02 0.000000000000e+00 5.000000000000e+06 1.000000000000e+00 0.000000000000e+00 0.000000000000e+00 0.000000000000e+00 0.000000000000e+00 0.000000000000e+00 0.000000000000e+00 -9.000000000000e+06 0.000000000000e+00 -9.000000000000e+06 -9.000000000000e+06 0.000000000000e+00 0.000000000000e+00 0.000000000000e+00 0.000000000000e+00 0.000000000000e+00 0.000000000000e+00 0.000000000000e+00 0.000000000000e+00 0.000000000000e+00 9.000000000000e+06 0.000000000000e+00  0.000000000000e+00
9.597592162203e-02 0.000000000000e+00 5.000000000000e+06 1.000000000000e+00 0.000000000000e+00 0.000000000000e+00 0.000000000000e+00 0.000000000000e+00 0.000000000000e+00 0.000000000000e+00 -9.000000000000e+06 0.000000000000e+00 -9.000000000000e+06 -9.000000000000e+06 0.000000000000e+00 0.000000000000e+00 0.000000000000e+00 0.000000000000e+00 0.000000000000e+00 0.000000000000e+00 0.000000000000e+00 0.000000000000e+00 0.000000000000e+00 9.000000000000e+06 0.000000000000e+00  0.000000000000e+00
1.149130819661e-01 0.000000000000e+00 5.000000000000e+06 1.000000000000e+00 0.000000000000e+00 0.000000000000e+00 0.000000000000e+00 0.000000000000e+00 0.000000000000e+00 0.000000000000e+00 -9.000000000000e+06 0.000000000000e+00 -9.000000000000e+06 -9.000000000000e+06 0.000000000000e+00 0.000000000000e+00 0.000000000000e+00 0.000000000000e+00 0.000000000000e+00 0.000000000000e+00 0.000000000000e+00 0.000000000000e+00 0.000000000000e+00 9.000000000000e+06 0.000000000000e+00  0.000000000000e+00
1.368826408704e-01 0.000000000000e+00 5.000000000000e+06 1.000000000000e+00 0.000000000000e+00 0.000000000000e+00 0.000000000000e+00 0.000000000000e+00 0.000000000000e+00 0.000000000000e+00 -9.000000000000e+06 0.000000000000e+00 -9.000000000000e+06 -9.000000000000e+06 0.000000000000e+00 0.000000000000e+00 0.000000000000e+00 0.000000000000e+00 0.000000000000e+00 0.000000000000e+00 0.000000000000e+00 0.000000000000e+00 0.000000000000e+00 9.000000000000e+06 0.000000000000e+00  0.000000000000e+00
1.623701725408e-01 0.000000000000e+00 5.000000000000e+06 1.000000000000e+00 0.000000000000e+00 0.000000000000e+00 0.000000000000e+00 0.000000000000e+00 0.000000000000e+00 0.000000000000e+00 -9.000000000000e+06 0.000000000000e+00 -9.000000000000e+06 -9.000000000000e+06 0.000000000000e+00 0.000000000000e+00 0.000000000000e+00 0.000000000000e+00 0.000000000000e+00 0.000000000000e+00 0.000000000000e+00 0.000000000000e+00 0.000000000000e+00 9.000000000000e+06 0.000000000000e+00  0.000000000000e+00
1.919390072501e-01 0.000000000000e+00 5.000000000000e+06 1.000000000000e+00 0.000000000000e+00 0.000000000000e+00 0.000000000000e+00 0.000000000000e+00 0.000000000000e+00 0.000000000000e+00 -9.000000000000e+06 0.000000000000e+00 -9.000000000000e+06 -9.000000000000e+06 0.000000000000e+00 0.000000000000e+00 0.000000000000e+00 0.000000000000e+00 0.000000000000e+00 0.000000000000e+00 0.000000000000e+00 0.000000000000e+00 0.000000000000e+00 9.000000000000e+06 0.000000000000e+00  0.000000000000e+00
2.262426829984e-01 0.000000000000e+00 5.000000000000e+06 1.000000000000e+00 0.000000000000e+00 0.000000000000e+00 0.000000000000e+00 0.000000000000e+00 0.000000000000e+00 0.000000000000e+00 -9.000000000000e+06 0.000000000000e+00 -9.000000000000e+06 -9.000000000000e+06 0.000000000000e+00 0.000000000000e+00 0.000000000000e+00 0.000000000000e+00 0.000000000000e+00 0.000000000000e+00 0.000000000000e+00 0.000000000000e+00 0.000000000000e+00 9.000000000000e+06 0.000000000000e+00  0.000000000000e+00
2.660393769758e-01 0.000000000000e+00 5.000000000000e+06 1.000000000000e+00 0.000000000000e+00 0.000000000000e+00 0.000000000000e+00 0.000000000000e+00 0.000000000000e+00 0.000000000000e+00 -9.000000000000e+06 0.000000000000e+00 -9.000000000000e+06 -9.000000000000e+06 0.000000000000e+00 0.000000000000e+00 0.000000000000e+00 0.000000000000e+00 0.000000000000e+00 0.000000000000e+00 0.000000000000e+00 0.000000000000e+00 0.000000000000e+00 9.000000000000e+06 0.000000000000e+00  0.000000000000e+00
3.122086978944e-01 0.000000000000e+00 5.000000000000e+06 1.000000000000e+00 0.000000000000e+00 0.000000000000e+00 0.000000000000e+00 0.000000000000e+00 0.000000000000e+00 0.000000000000e+00 -9.000000000000e+06 0.000000000000e+00 -9.000000000000e+06 -9.000000000000e+06 0.000000000000e+00 0.000000000000e+00 0.000000000000e+00 0.000000000000e+00 0.000000000000e+00 0.000000000000e+00 0.000000000000e+00 0.000000000000e+00 0.000000000000e+00 9.000000000000e+06 0.000000000000e+00  0.000000000000e+00
3.657710818207e-01 0.000000000000e+00 5.000000000000e+06 1.000000000000e+00 0.000000000000e+00 0.000000000000e+00 0.000000000000e+00 0.000000000000e+00 0.000000000000e+00 0.000000000000e+00 -9.000000000000e+06 0.000000000000e+00 -9.000000000000e+06 -9.000000000000e+06 0.000000000000e+00 0.000000000000e+00 0.000000000000e+00 0.000000000000e+00 0.000000000000e+00 0.000000000000e+00 0.000000000000e+00 0.000000000000e+00 0.000000000000e+00 9.000000000000e+06 0.000000000000e+00  0.000000000000e+00
4.279103802350e-01 0.000000000000e+00 5.000000000000e+06 1.000000000000e+00 0.000000000000e+00 0.000000000000e+00 0.000000000000e+00 0.000000000000e+00 0.000000000000e+00 0.000000000000e+00 -9.000000000000e+06 0.000000000000e+00 -9.000000000000e+06 -9.000000000000e+06 0.000000000000e+00 0.000000000000e+00 0.000000000000e+00 0.000000000000e+00 0.000000000000e+00 0.000000000000e+00 0.000000000000e+00 0.000000000000e+00 0.000000000000e+00 9.000000000000e+06 0.000000000000e+00  0.000000000000e+00
5.000000000000e-01 0.000000000000e+00 5.000000000000e+06 1.000000000000e+00 0.000000000000e+00 0.000000000000e+00 0.000000000000e+00 0.000000000000e+00 0.000000000000e+00 0.000000000000e+00 -9.000000000000e+06 0.000000000000e+00 -9.000000000000e+06 -9.000000000000e+06 0.000000000000e+00 0.000000000000e+00 0.000000000000e+00 0.000000000000e+00 0.000000000000e+00 0.000000000000e+00 0.000000000000e+00 0.000000000000e+00 0.000000000000e+00 9.000000000000e+06 0.000000000000e+00  0.000000000000e+00
 TITLE = "Profiles along polylines"
 VARIABLES = "DIST" "HEAD" "PRESSURE1" "SATURATION1" "VELOCITY_X1" "VELOCITY_Y1" "VELOCITY_Z1" "DISPLACEMENT_X1" "DISPLACEMENT_Y1" "DISPLACEMENT_Z1" "STRESS_XX" "STRESS_XY" "STRESS_YY" "STRESS_ZZ" "STRESS_XZ" "STRESS_YZ" "STRAIN_XX" "STRAIN_XY" "STRAIN_YY" "STRAIN_ZZ" "STRAIN_XZ" "STRAIN_YZ" "STRAIN_PLS"  p_(1st_Invariant)  q_(2nd_Invariant)   Effective_Strain
 ZONE T="TIME=3.600000000000e+03"
2.181405180885e-03 0.000000000000e+00 1.000000000000e+05 1.000000000000e+00 0.000000000000e+00 0.000000000000e+00 0.000000000000e+00 0.000000000000e+00 0.000000000000e+00 0.000000000000e+00 0.000000000000e+00 0.000000000000e+00 0.000000000000e+00 0.000000000000e+00 0.000000000000e+00 0.000000000000e+00 0.000000000000e+00 0.000000000000e+00 0.000000000000e+00 0.000000000000e+00 0.000000000000e+00 0.000000000000e+00 0.000000000000e+00 -0.000000000000e+00 0.000000000000e+00  0.000000000000e+00
2.422118028840e-03 0.000000000000e+00 1.000000000000e+05 1.000000000000e+00 0.000000000000e+00 0.000000000000e+00 0.000000000000e+00 0.000000000000e+00 0.000000000000e+00 0.000000000000e+00 0.000000000000e+00 0.000000000000e+00 0.000000000000e+00 0.000000000000e+00 0.000000000000e+00 0.000000000000e+00 0.000000000000e+00 0.000000000000e+00 0.000000000000e+00 0.000000000000e+00 0.000000000000e+00 0.000000000000e+00 0.000000000000e+00 -0.000000000000e+00 0.000000000000e+00  0.000000000000e+00
4.954520779274e-03 0.000000000000e+00 1.000000000000e+05 1.000000000000e+00 0.000000000000e+00 0.000000000000e+00 0.000000000000e+00 0.000000000000e+00 0.000000000000e+00 0.000000000000e+00 0.000000000000e+00 0.000000000000e+00 0.000000000000e+00 0.000000000000e+00 0.000000000000e+00 0.000000000000e+00 0.000000000000e+00 0.000000000000e+00 0.000000000000e+00 0.000000000000e+00 0.000000000000e+00 0.000000000000e+00 0.000000000000e+00 -0.000000000000e+00 0.000000000000e+00  0.000000000000e+00
5.099998651546e-03 0.000000000000e+00 1.000000000000e+05 1.000000000000e+00 0.000000000000e+00 0.000000000000e+00 0.000000000000e+00 0.000000000000e+00 0.000000000000e+00 0.000000000000e+00 0.000000000000e+00 0.000000000000e+00 0.000000000000e+00 0.000000000000e+00 0.000000000000e+00 0.000000000000e+00 0.000000000000e+00 0.000000000000e+00 0.000000000000e+00 0.000000000000e+00 0.000000000000e+00 0.000000000000e+00 0.000000000000e+00 -0.000000000000e+00 0.000000000000e+00  0.000000000000e+00
5.142140424538e-03 0.000000000000e+00 1.000000000000e+05 1.000000000000e+00 0.000000000000e+00 0.000000000000e+00 0.000000000000e+00 0.000000000000e+00 0.000000000000e+00 0.000000000000e+00 0.000000000000e+00 0.000000000000e+00 0.000000000000e+00 0.000000000000e+00 0.000000000000e+00 0.000000000000e+00 0.000000000000e+00 0.000000000000e+00 0.000000000000e+00 0.000000000000e+00 0.000000000000e+00 0.000000000000e+00 0.000000000000e+00 -0.000000000000e+00 0.000000000000e+00  0.000000000000e+00
9.936938829980e-03 0.000000000000e+00 1.000000000000e+05 1.000000000000e+00 0.000000000000e+00 0.000000000000e+00 0.000000000000e+00 0.000000000000e+00 0.000000000000e+00 0.000000000000e+00 0.000000000000e+00 0.000000000000e+00 0.000000000000e+00 0.000000000000e+00 0.000000000000e+00 0.000000000000e+00 0.000000000000e+00 0.000000000000e+00 0.000000000000e+00 0.000000000000e+00 0.000000000000e+00 0.000000000000e+00 0.000000000000e+00 -0.000000000000e+00 0.000000000000e+00  0.000000000000e+00
1.240492718336e-02 0.000000000000e+00 1.000000000000e+05 1.000000000000e+00 0.000000000000e+00 0.000000000000e+00 0.000000000000e+00 0.000000000000e+00 0.000000000000e+00 0.000000000000e+00 0.000000000000e+00 0.000000000000e+00 0.000000000000e+00 0.000000000000e+00 0.000000000000e+00 0.000000000000e+00 0.000000000000e+00 0.000000000000e+00 0.000000000000e+00 0.000000000000e+00 0.000000000000e+00 0.000000000000e+00 0.000000000000e+00 -0.000000000000e+00 0.000000000000e+00  0.000000000000e+00
1.241944992059e-02 0.000000000000e+00 1.000000000000e+05 1.000000000000e+00 0.000000000000e+00 0.000000000000e+00 0.000000000000e+00 0.000000000000e+00 0.000000000000e+00 0.000000000000e+00 0.000000000000e+00 0.000000000000e+00 0.000000000000e+00 0.000000000000e+00 0.000000000000e+00 0.000000000000e+00 0.000000000000e+00 0.000000000000e+00 0.000000000000e+00 0.000000000000e+00 0.000000000000e+00 0.000000000000e+00 0.000000000000e+00 -0.000000000000e+00 0.000000000000e+00  0.000000000000e+00
1.975504564856e-02 0.000000000000e+00 1.000000000000e+05 1.000000000000e+00 0.000000000000e+00 0.000000000000e+00 0.000000000000e+00 0.000000000000e+00 0.000000000000e+00 0.000000000000e+00 0.000000000000e+00 0.000000000000e+00 0.000000000000e+00 0.000000000000e+00 0.000000000000e+00 0.000000000000e+00 0.000000000000e+00 0.000000000000e+00 0.000000000000e+00 0.000000000000e+00 0.000000000000e+00 0.000000000000e+00 0.000000000000e+00 -0.000000000000e+00 0.000000000000e+00  0.000000000000e+00
2.127094342738e-02 0.000000000000e+00 1.000000000000e+05 1.000000000000e+00 0.000000000000e+00 0.000000000000e+00 0.000000000000e+00 0.000000000000e+00 0.000000000000e+00 0.000000000000e+00 0.000000000000e+00 0.000000000000e+00 0.000000000000e+00 0.000000000000e+00 0.000000000000e+00 0.000000000000e+00 0.000000000000e+00 0.000000000000e+00 0.000000000000e+00 0.000000000000e+00 0.000000000000e+00 0.000000000000e+00 0.000000000000e+00 -0.000000000000e+00 0.000000000000e+00  0.000000000000e+00
2.684641339594e-02 0.000000000000e+00 1.000000000000e+05 1.000000000000e+00 0.000000000000e+00 0.000000000000e+00 0.000000000000e+00 0.000000000000e+00 0.000000000000e+00 0.000000000000e+00 0.000000000000e+00 0.000000000000e+00 0.000000000000e+00 0.000000000000e+00 0.000000000000e+00 0.000000000000e+00 0.000000000000e+00 0.000000000000e+00 0.000000000000e+00 0.000000000000e+00 0.000000000000e+00 0.000000000000e+00 0.000000000000e+00 -0.000000000000e+00 0.000000000000e+00  0.000000000000e+00
2.755539646422e-02 0.000000000000e+00 1.000000000000e+05 1.000000000000e+00 0.000000000000e+00 0.000000000000e+00 0.000000000000e+00 0.000000000000e+00 0.000000000000e+00 0.000000000000e+00 0.000000000000e+00 0.000000000000e+00 0.000000000000e+00 0.000000000000e+00 0.000000000000e+00 0.000000000000e+00 0.000000000000e+00 0.000000000000e+00 0.000000000000e+00 0.000000000000e+00 0.000000000000e+00 0.000000000000e+00 0.000000000000e+00 -0.000000000000e+00 0.000000000000e+00  0.000000000000e+00
2.859643629295e-02 0.000000000000e+00 1.000000000000e+05 1.000000000000e+00 0.000000000000e+00 0.000000000000e+00 0.000000000000e+00 0.000000000000e+00 0.000000000000e+00 0.000000000000e+00 0.000000000000e+00 0.000000000000e+00 0.000000000000e+00 0.000000000000e+00 0.000000000000e+00 0.000000000000e+00 0.000000000000e+00 0.000000000000e+00 0.000000000000e+00 0.000000000000e+00 0.000000000000e+00 0.000000000000e+00 0.000000000000e+00 -0.000000000000e+00 0.000000000000e+00  0.000000000000e+00
3.027925406389e-02 0.000000000000e+00 1.000000000000e+05 1.000000000000e+00 0.000000000000e+00 0.000000000000e+00 0.000000000000e+00 0.000000000000e+00 0.000000000000e+00 0.000000000000e+00 0.000000000000e+00 0.000000000000e+00 0.000000000000e+00 0.000000000000e+00 0.000000000000e+00 0.000000000000e+00 0.000000000000e+00 0.000000000000e+00 0.000000000000e+00 0.000000000000e+00 0.000000000000e+00 0.000000000000e+00 0.000000000000e+00 -0.000000000000e+00 0.000000000000e+00  0.000000000000e+00
3.409135372552e-02 0.000000000000e+00 1.000000000000e+05 1.000000000000e+00 0.000000000000e+00 0.000000000000e+00 0.000000000000e+00 0.000000000000e+00 0.000000000000e+00 0.000000000000e+00 0.000000000000e+00 0.000000000000e+00 0.000000000000e+00 0.000000000000e+00 0.000000000000e+00 0.000000000000e+00 0.000000000000e+00 0.000000000000e+00 0.000000000000e+00 0.000000000000e+00 0.000000000000e+00 0.000000000000e+00 0.000000000000e+00 -0.000000000000e+00 0.000000000000e+00  0.000000000000e+00
3.514429380857e-02 0.000000000000e+00 1.000000000000e+05 1.000000000000e+00 0.000000000000e+00 0.000000000000e+00 0.000000000000e+00 0.000000000000e+00 0.000000000000e+00 0.000000000000e+00 0.000000000000e+00 0.000000000000e+00 0.000000000000e+00 0.000000000000e+00 0.000000000000e+00 0.000000000000e+00 0.000000000000e+00 0.000000000000e+00 0.000000000000e+00 0.000000000000e+00 0.000000000000e+00 0.000000000000e+00 0.000000000000e+00 -0.000000000000e+00 0.000000000000e+00  0.000000000000e+00
3.527451314775e-02 0.000000000000e+00 1.000000000000e+05 1.000000000000e+00 0.000000000000e+00 0.000000000000e+00 0.000000000000e+00 0.000000000000e+00 0.000000000000e+00 0.000000000000e+00 0.000000000000e+00 0.000000000000e+00 0.000000000000e+00 0.000000000000e+00 0.000000000000e+00 0.000000000000e+00 0.000000000000e+00 0.000000000000e+00 0.000000000000e+00 0.000000000000e+00 0.000000000000e+00 0.000000000000e+00 0.000000000000e+00 -0.000000000000e+00 0.000000000000e+00  0.000000000000e+00
4.217376705302e-02 0.000000000000e+00 1.000000000000e+05 1.000000000000e+00 -8.114247774939e-09 -9.948242979880e-26 -4.002768000082e-09 -9.749521963139e-06 -4.207231660795e-07 -6.239472823919e-05 -1.633670340787e+07 7.502267137591e+03 -8.648987892807e+06 -2.864753860206e+05 3.238521667207e+06 -4.862435901900e+04 -1.714792426457e-03 3.349226400710e-06 1.215501011467e-06 1.867847756991e-03 1.445768601432e-03 -2.170730313348e-05 0.000000000000e+00 8.424055562231e+06 1.499308280554e+07  3.988024919025e-03
4.217376706247e-02 0.000000000000e+00 1.000000000000e+05 1.000000000000e+00 7.819625954430e-09 -5.672504006615e-26 -3.920542009191e-09 9.005251612663e-06 -4.826636061676e-07 -6.265281556564e-05 -1.657458907700e+07 2.476095806256e+03 -8.690953357285e+06 -2.234178878183e+05 -3.256188776808e+06 -4.439765652438e+04 -1.758213618879e-03 1.105399913507e-06 1.526497128525e-06 1.891601378706e-03 -1.453655703932e-03 -1.982038237696e-05 0.000000000000e+00 8.496320107368e+06 1.524532918872e+07  4.041736736893e-03
4.300000000000e-02 0.000000000000e+00 1.000000000000e+05 1.000000000000e+00 7.861997877758e-13 -3.553711942518e-25 -3.928750767115e-09 -4.789039283420e-07 -4.175677527725e-07 -6.276109504852e-05 -1.720231691537e+07 3.819266930617e+03 -8.805557509202e+06 -5.135849857141e+04 2.060849375217e+04 -4.784575936330e+04 -1.872872841682e-03 1.705029879740e-06 1.403811478965e-06 1.955466090638e-03 9.200220425076e-06 -2.135971400147e-05 0.000000000000e+00 8.686410974380e+06 1.485451639298e+07  3.315924763586e-03
5.122718024044e-02 0.000000000000e+00 3.740317143439e+06 1.000000000000e+00 -3.983628490134e-10 1.259682803469e-10 -2.502540057785e-09 -7.449243375231e-06 3.588477187671e-07 -5.050100340728e-05 -1.400965099837e+07 -1.100927444989e+04 -8.438476040087e+06 -1.698265639898e+06 2.050323246011e+06 -3.701512936614e+04 -1.245618853282e-03 -4.914854665128e-06 -2.053014378444e-06 1.502458235664e-03 9.153228776836e-04 -1.652461132417e-05 0.000000000000e+00 8.048797559453e+06 1.125323368019e+07  2.862744916850e-03