VARIABLES  = "X","Y","Z", "PRESSURE1", "Decay"
ZONE T="0.000000000000e+00s", N=101, E=100, F=FEPOINT, ET=QUADRILATERAL
STRANDID=1, SOLUTIONTIME=0.000000000000e+00
0.000000000000e+00 0.000000000000e+00 0.000000000000e+00 0.000000000000e+00 0.000000000000e+00 
1.000000000000e+00 0.000000000000e+00 0.000000000000e+00 0.000000000000e+00 0.000000000000e+00 
2.000000000000e+00 0.000000000000e+00 0.000000000000e+00 0.000000000000e+00 0.000000000000e+00 
3.000000000000e+00 0.000000000000e+00 0.000000000000e+00 0.000000000000e+00 0.000000000000e+00 
4.000000000000e+00 0.000000000000e+00 0.000000000000e+00 0.000000000000e+00 0.000000000000e+00 
5.000000000000e+00 0.000000000000e+00 0.000000000000e+00 0.000000000000e+00 0.000000000000e+00 
6.000000000000e+00 0.000000000000e+00 0.000000000000e+00 0.000000000000e+00 0.000000000000e+00 
7.000000000000e+00 0.000000000000e+00 0.000000000000e+00 0.000000000000e+00 0.000000000000e+00 
8.000000000000e+00 0.000000000000e+00 0.000000000000e+00 0.000000000000e+00 0.000000000000e+00 
9.000000000000e+00 0.000000000000e+00 0.000000000000e+00 0.000000000000e+00 0.000000000000e+00 
1.000000000000e+01 0.000000000000e+00 0.000000000000e+00 0.000000000000e+00 0.000000000000e+00 
1.100000000000e+01 0.000000000000e+00 0.000000000000e+00 0.000000000000e+00 0.000000000000e+00 
1.200000000000e+01 0.000000000000e+00 0.000000000000e+00 0.000000000000e+00 0.000000000000e+00 
1.300000000000e+01 0.000000000000e+00 0.000000000000e+00 0.000000000000e+00 0.000000000000e+00 
1.400000000000e+01 0.000000000000e+00 0.000000000000e+00 0.000000000000e+00 0.000000000000e+00 
1.500000000000e+01 0.000000000000e+00 0.000000000000e+00 0.000000000000e+00 0.000000000000e+00 
1.600000000000e+01 0.000000000000e+00 0.000000000000e+00 0.000000000000e+00 0.000000000000e+00 
1.700000000000e+01 0.000000000000e+00 0.000000000000e+00 0.000000000000e+00 0.000000000000e+00 
1.800000000000e+01 0.000000000000e+00 0.000000000000e+00 0.000000000000e+00 0.000000000000e+00 
1.900000000000e+01 0.000000000000e+00 0.000000000000e+00 0.000000000000e+00 0.000000000000e+00 
2.000000000000e+01 0.000000000000e+00 0.000000000000e+00 0.000000000000e+00 0.000000000000e+00 
2.100000000000e+01 0.000000000000e+00 0.000000000000e+00 0.000000000000e+00 0.000000000000e+00 
2.200000000000e+01 0.000000000000e+00 0.000000000000e+00 0.000000000000e+00 0.000000000000e+00 
2.300000000000e+01 0.000000000000e+00 0.000000000000e+00 0.000000000000e+00 0.000000000000e+00 
2.400000000000e+01 0.000000000000e+00 0.000000000000e+00 0.000000000000e+00 0.000000000000e+00 
2.500000000000e+01 0.000000000000e+00 0.000000000000e+00 0.000000000000e+00 0.000000000000e+00 
2.600000000000e+01 0.000000000000e+00 0.000000000000e+00 0.000000000000e+00 0.000000000000e+00 
2.700000000000e+01 0.000000000000e+00 0.000000000000e+00 0.000000000000e+00 0.000000000000e+00 
2.800000000000e+01 0.000000000000e+00 0.000000000000e+00 0.000000000000e+00 0.000000000000e+00 
2.900000000000e+01 0.000000000000e+00 0.000000000000e+00 0.000000000000e+00 0.000000000000e+00 
3.000000000000e+01 0.000000000000e+00 0.000000000000e+00 0.000000000000e+00 0.000000000000e+00 
3.100000000000e+01 0.000000000000e+00 0.000000000000e+00 0.000000000000e+00 0.000000000000e+00 
3.200000000000e+01 0.000000000000e+00 0.000000000000e+00 0.000000000000e+00 0.000000000000e+00 
3.300000000000e+01 0.000000000000e+00 0.000000000000e+00 0.000000000000e+00 0.000000000000e+00 
3.400000000000e+01 0.000000000000e+00 0.000000000000e+00 0.000000000000e+00 0.000000000000e+00 
3.500000000000e+01 0.000000000000e+00 0.000000000000e+00 0.000000000000e+00 0.000000000000e+00 
3.600000000000e+01 0.000000000000e+00 0.000000000000e+00 0.000000000000e+00 0.000000000000e+00 
3.700000000000e+01 0.000000000000e+00 0.000000000000e+00 0.000000000000e+00 0.000000000000e+00 
3.800000000000e+01 0.000000000000e+00 0.000000000000e+00 0.000000000000e+00 0.000000000000e+00 
3.900000000000e+01 0.000000000000e+00 0.000000000000e+00 0.000000000000e+00 0.000000000000e+00 
4.000000000000e+01 0.000000000000e+00 0.000000000000e+00 0.000000000000e+00 0.000000000000e+00 
4.100000000000e+01 0.000000000000e+00 0.000000000000e+00 0.000000000000e+00 0.000000000000e+00 
4.200000000000e+01 0.000000000000e+00 0.000000000000e+00 0.000000000000e+00 0.000000000000e+00 
4.300000000000e+01 0.000000000000e+00 0.000000000000e+00 0.000000000000e+00 0.000000000000e+00 
4.400000000000e+01 0.000000000000e+00 0.000000000000e+00 0.000000000000e+00 0.000000000000e+00 
4.500000000000e+01 0.000000000000e+00 0.000000000000e+00 0.000000000000e+00 0.000000000000e+00 
4.600000000000e+01 0.000000000000e+00 0.000000000000e+00 0.000000000000e+00 0.000000000000e+00 
4.700000000000e+01 0.000000000000e+00 0.000000000000e+00 0.000000000000e+00 0.000000000000e+00 
4.800000000000e+01 0.000000000000e+00 0.000000000000e+00 0.000000000000e+00 0.000000000000e+00 
4.900000000000e+01 0.000000000000e+00 0.000000000000e+00 0.000000000000e+00 0.000000000000e+00 
5.000000000000e+01 0.000000000000e+00 0.000000000000e+00 0.000000000000e+00 0.000000000000e+00 
5.100000000000e+01 0.000000000000e+00 0.000000000000e+00 0.000000000000e+00 0.000000000000e+00 
5.200000000000e+01 0.000000000000e+00 0.000000000000e+00 0.000000000000e+00 0.000000000000e+00 
5.300000000000e+01 0.000000000000e+00 0.000000000000e+00 0.000000000000e+00 0.000000000000e+00 
5.400000000000e+01 0.000000000000e+00 0.000000000000e+00 0.000000000000e+00 0.000000000000e+00 
5.500000000000e+01 0.000000000000e+00 0.000000000000e+00 0.000000000000e+00 0.000000000000e+00 
5.600000000000e+01 0.000000000000e+00 0.000000000000e+00 0.000000000000e+00 0.000000000000e+00 
5.700000000000e+01 0.000000000000e+00 0.000000000000e+00 0.000000000000e+00 0.000000000000e+00 
5.800000000000e+01 0.000000000000e+00 0.000000000000e+00 0.000000000000e+00 0.000000000000e+00 
5.900000000000e+01 0.000000000000e+00 0.000000000000e+00 0.000000000000e+00 0.000000000000e+00 
6.000000000000e+01 0.000000000000e+00 0.000000000000e+00 0.000000000000e+00 0.000000000000e+00 
6.100000000000e+01 0.000000000000e+00 0.000000000000e+00 0.000000000000e+00 0.000000000000e+00 
6.200000000000e+01 0.000000000000e+00 0.000000000000e+00 0.000000000000e+00 0.000000000000e+00 
6.300000000000e+01 0.000000000000e+00 0.000000000000e+00 0.000000000000e+00 0.000000000000e+00 
6.400000000000e+01 0.000000000000e+00 0.000000000000e+00 0.000000000000e+00 0.000000000000e+00 
6.500000000000e+01 0.000000000000e+00 0.000000000000e+00 0.000000000000e+00 0.000000000000e+00 
6.600000000000e+01 0.000000000000e+00 0.000000000000e+00 0.000000000000e+00 0.000000000000e+00 
6.700000000000e+01 0.000000000000e+00 0.000000000000e+00 0.000000000000e+00 0.000000000000e+00 
6.800000000000e+01 0.000000000000e+00 0.000000000000e+00 0.000000000000e+00 0.000000000000e+00 
6.900000000000e+01 0.000000000000e+00 0.000000000000e+00 0.000000000000e+00 0.000000000000e+00 
7.000000000000e+01 0.000000000000e+00 0.000000000000e+00 0.000000000000e+00 0.000000000000e+00 
7.100000000000e+01 0.000000000000e+00 0.000000000000e+00 0.000000000000e+00 0.000000000000e+00 
7.200000000000e+01 0.000000000000e+00 0.000000000000e+00 0.000000000000e+00 0.000000000000e+00 
7.300000000000e+01 0.000000000000e+00 0.000000000000e+00 0.000000000000e+00 0.000000000000e+00 
7.400000000000e+01 0.000000000000e+00 0.000000000000e+00 0.000000000000e+00 0.000000000000e+00 
7.500000000000e+01 0.000000000000e+00 0.000000000000e+00 0.000000000000e+00 0.000000000000e+00 
7.600000000000e+01 0.000000000000e+00 0.000000000000e+00 0.000000000000e+00 0.000000000000e+00 
7.700000000000e+01 0.000000000000e+00 0.000000000000e+00 0.000000000000e+00 0.000000000000e+00 
7.800000000000e+01 0.000000000000e+00 0.000000000000e+00 0.000000000000e+00 0.000000000000e+00 
7.900000000000e+01 0.000000000000e+00 0.000000000000e+00 0.000000000000e+00 0.000000000000e+00 
8.000000000000e+01 0.000000000000e+00 0.000000000000e+00 0.000000000000e+00 0.000000000000e+00 
8.100000000000e+01 0.000000000000e+00 0.000000000000e+00 0.000000000000e+00 0.000000000000e+00 
8.200000000000e+01 0.000000000000e+00 0.000000000000e+00 0.000000000000e+00 0.000000000000e+00 
8.300000000000e+01 0.000000000000e+00 0.000000000000e+00 0.000000000000e+00 0.000000000000e+00 
8.400000000000e+01 0.000000000000e+00 0.000000000000e+00 0.000000000000e+00 0.000000000000e+00 
8.500000000000e+01 0.000000000000e+00 0.000000000000e+00 0.000000000000e+00 0.000000000000e+00 
8.600000000000e+01 0.000000000000e+00 0.000000000000e+00 0.000000000000e+00 0.000000000000e+00 
8.700000000000e+01 0.000000000000e+00 0.000000000000e+00 0.000000000000e+00 0.000000000000e+00 
8.800000000000e+01 0.000000000000e+00 0.000000000000e+00 0.000000000000e+00 0.000000000000e+00 
8.900000000000e+01 0.000000000000e+00 0.000000000000e+00 0.000000000000e+00 0.000000000000e+00 
9.000000000000e+01 0.000000000000e+00 0.000000000000e+00 0.000000000000e+00 0.000000000000e+00 
9.100000000000e+01 0.000000000000e+00 0.000000000000e+00 0.000000000000e+00 0.000000000000e+00 
9.200000000000e+01 0.000000000000e+00 0.000000000000e+00 0.000000000000e+00 0.000000000000e+00 
9.300000000000e+01 0.000000000000e+00 0.000000000000e+00 0.000000000000e+00 0.000000000000e+00 
9.400000000000e+01 0.000000000000e+00 0.000000000000e+00 0.000000000000e+00 0.000000000000e+00 
9.500000000000e+01 0.000000000000e+00 0.000000000000e+00 0.000000000000e+00 0.000000000000e+00 
9.600000000000e+01 0.000000000000e+00 0.000000000000e+00 0.000000000000e+00 0.000000000000e+00 
9.700000000000e+01 0.000000000000e+00 0.000000000000e+00 0.000000000000e+00 0.000000000000e+00 
9.800000000000e+01 0.000000000000e+00 0.000000000000e+00 0.000000000000e+00 0.000000000000e+00 
9.900000000000e+01 0.000000000000e+00 0.000000000000e+00 0.000000000000e+00 0.000000000000e+00 
1.000000000000e+02 0.000000000000e+00 0.000000000000e+00 0.000000000000e+00 0.000000000000e+00 
1  2  2  1
2  3  3  2
3  4  4  3
4  5  5  4
5  6  6  5
6  7  7  6
7  8  8  7
8  9  9  8
9  10  10  9
10  11  11  10
11  12  12  11
12  13  13  12
13  14  14  13
14  15  15  14
15  16  16  15
16  17  17  16
17  18  18  17
18  19  19  18
19  20  20  19
20  21  21  20
21  22  22  21
22  23  23  22
23  24  24  23
24  25  25  24
25  26  26  25
26  27  27  26
27  28  28  27
28  29  29  28
29  30  30  29
30  31  31  30
31  32  32  31
32  33  33  32
33  34  34  33
34  35  35  34
35  36  36  35
36  37  37  36
37  38  38  37
38  39  39  38
39  40  40  39
40  41  41  40
41  42  42  41
42  43  43  42
43  44  44  43
44  45  45  44
45  46  46  45
46  47  47  46
47  48  48  47
48  49  49  48
49  50  50  49
50  51  51  50
51  52  52  51
52  53  53  52
53  54  54  53
54  55  55  54
55  56  56  55
56  57  57  56
57  58  58  57
58  59  59  58
59  60  60  59
60  61  61  60
61  62  62  61
62  63  63  62
63  64  64  63
64  65  65  64
65  66  66  65
66  67  67  66
67  68  68  67
68  69  69  68
69  70  70  69
70  71  71  70
71  72  72  71
72  73  73  72
73  74  74  73
74  75  75  74
75  76  76  75
76  77  77  76
77  78  78  77
78  79  79  78
79  80  80  79
80  81  81  80
81  82  82  81
82  83  83  82
83  84  84  83
84  85  85  84
85  86  86  85
86  87  87  86
87  88  88  87
88  89  89  88
89  90  90  89
90  91  91  90
91  92  92  91
92  93  93  92
93  94  94  93
94  95  95  94
95  96  96  95
96  97  97  96
97  98  98  97
98  99  99  98
99  100  100  99
100  101  101  100
VARIABLES  = "X","Y","Z", "PRESSURE1", "Decay"
ZONE T="8.640000000000e+04s", N=101, E=100, F=FEPOINT, ET=QUADRILATERAL
STRANDID=1, SOLUTIONTIME=8.640000000000e+04
0.000000000000e+00 0.000000000000e+00 0.000000000000e+00 1.357407000000e+05 1.000000000000e+00 
1.000000000000e+00 0.000000000000e+00 0.000000000000e+00 1.345832930000e+05 4.384047147655e-01 
2.000000000000e+00 0.000000000000e+00 0.000000000000e+00 1.334258860000e+05 1.921986939286e-01 
3.000000000000e+00 0.000000000000e+00 0.000000000000e+00 1.322684790000e+05 8.426081359008e-02 
4.000000000000e+00 0.000000000000e+00 0.000000000000e+00 1.311110720000e+05 3.694033794786e-02 
5.000000000000e+00 0.000000000000e+00 0.000000000000e+00 1.299536650000e+05 1.619481832137e-02 
6.000000000000e+00 0.000000000000e+00 0.000000000000e+00 1.287962580000e+05 7.099884706861e-03 
7.000000000000e+00 0.000000000000e+00 0.000000000000e+00 1.276388510000e+05 3.112622929779e-03 
8.000000000000e+00 0.000000000000e+00 0.000000000000e+00 1.264814440000e+05 1.364588567702e-03 
9.000000000000e+00 0.000000000000e+00 0.000000000000e+00 1.253240370000e+05 5.982420617958e-04 
1.000000000000e+01 0.000000000000e+00 0.000000000000e+00 1.241666300000e+05 2.622721404623e-04 
1.100000000000e+01 0.000000000000e+00 0.000000000000e+00 1.230092230000e+05 1.149813429303e-04 
1.200000000000e+01 0.000000000000e+00 0.000000000000e+00 1.218518160000e+05 5.040836285067e-05 
1.300000000000e+01 0.000000000000e+00 0.000000000000e+00 1.206944090000e+05 2.209926393730e-05 
1.400000000000e+01 0.000000000000e+00 0.000000000000e+00 1.195370020000e+05 9.688421502863e-06 
1.500000000000e+01 0.000000000000e+00 0.000000000000e+00 1.183795950000e+05 4.247449665367e-06 
1.600000000000e+01 0.000000000000e+00 0.000000000000e+00 1.172221880000e+05 1.862101958750e-06 
1.700000000000e+01 0.000000000000e+00 0.000000000000e+00 1.160647810000e+05 8.163542777742e-07 
1.800000000000e+01 0.000000000000e+00 0.000000000000e+00 1.149073740000e+05 3.578935636210e-07 
1.900000000000e+01 0.000000000000e+00 0.000000000000e+00 1.137499670000e+05 1.569022249869e-07 
2.000000000000e+01 0.000000000000e+00 0.000000000000e+00 1.125925600000e+05 6.878667378790e-08 
2.100000000000e+01 0.000000000000e+00 0.000000000000e+00 1.114351530000e+05 3.015640081679e-08 
2.200000000000e+01 0.000000000000e+00 0.000000000000e+00 1.102777460000e+05 1.322070579719e-08 
2.300000000000e+01 0.000000000000e+00 0.000000000000e+00 1.091203390000e+05 5.796017697922e-09 
2.400000000000e+01 0.000000000000e+00 0.000000000000e+00 1.079629320000e+05 2.540997657907e-09 
2.500000000000e+01 0.000000000000e+00 0.000000000000e+00 1.068055250000e+05 1.113982526687e-09 
2.600000000000e+01 0.000000000000e+00 0.000000000000e+00 1.056481180000e+05 4.883701541953e-10 
2.700000000000e+01 0.000000000000e+00 0.000000000000e+00 1.044907110000e+05 2.141004397460e-10 
2.800000000000e+01 0.000000000000e+00 0.000000000000e+00 1.033333040000e+05 9.385694107182e-11 
2.900000000000e+01 0.000000000000e+00 0.000000000000e+00 1.021758970000e+05 4.114394479692e-11 
3.000000000000e+01 0.000000000000e+00 0.000000000000e+00 1.010184900000e+05 1.803216176391e-11 
3.100000000000e+01 0.000000000000e+00 0.000000000000e+00 9.986108300003e+04 7.902460188558e-12 
3.200000000000e+01 0.000000000000e+00 0.000000000000e+00 9.870367600003e+04 3.459876807594e-12 
3.300000000000e+01 0.000000000000e+00 0.000000000000e+00 9.754626900003e+04 1.514677979448e-12 
3.400000000000e+01 0.000000000000e+00 0.000000000000e+00 9.638886200003e+04 6.607959142677e-13 
3.500000000000e+01 0.000000000000e+00 0.000000000000e+00 9.523145500003e+04 2.883676886976e-13 
3.600000000000e+01 0.000000000000e+00 0.000000000000e+00 9.407404800003e+04 1.244917425248e-13 
3.700000000000e+01 0.000000000000e+00 0.000000000000e+00 9.291664100003e+04 5.389497972266e-14 
3.800000000000e+01 0.000000000000e+00 0.000000000000e+00 9.175923400003e+04 2.267318332687e-14 
3.900000000000e+01 0.000000000000e+00 0.000000000000e+00 9.060182700003e+04 9.653383496921e-15 
4.000000000000e+01 0.000000000000e+00 0.000000000000e+00 8.944442000003e+04 3.846174384519e-15 
4.100000000000e+01 0.000000000000e+00 0.000000000000e+00 8.828701300003e+04 1.590364629252e-15 
4.200000000000e+01 0.000000000000e+00 0.000000000000e+00 8.712960600003e+04 5.729310134888e-16 
4.300000000000e+01 0.000000000000e+00 0.000000000000e+00 8.597219900003e+04 2.266337956803e-16 
4.400000000000e+01 0.000000000000e+00 0.000000000000e+00 8.481479200003e+04 6.866578054629e-17 
4.500000000000e+01 0.000000000000e+00 0.000000000000e+00 8.365738500003e+04 2.557744742794e-17 
4.600000000000e+01 0.000000000000e+00 0.000000000000e+00 8.249997800003e+04 5.753768382503e-18 
4.700000000000e+01 0.000000000000e+00 0.000000000000e+00 8.134257100003e+04 1.987165255111e-18 
4.800000000000e+01 0.000000000000e+00 0.000000000000e+00 8.018516400003e+04 2.480361236623e-19 
4.900000000000e+01 0.000000000000e+00 0.000000000000e+00 7.902775700003e+04 7.822525463950e-20 
5.000000000000e+01 0.000000000000e+00 0.000000000000e+00 7.787035000003e+04 0.000000000000e+00 
5.100000000000e+01 0.000000000000e+00 0.000000000000e+00 7.671294300003e+04 0.000000000000e+00 
5.200000000000e+01 0.000000000000e+00 0.000000000000e+00 7.555553600003e+04 0.000000000000e+00 
5.300000000000e+01 0.000000000000e+00 0.000000000000e+00 7.439812900003e+04 0.000000000000e+00 
5.400000000000e+01 0.000000000000e+00 0.000000000000e+00 7.324072200003e+04 0.000000000000e+00 
5.500000000000e+01 0.000000000000e+00 0.000000000000e+00 7.208331500003e+04 0.000000000000e+00 
5.600000000000e+01 0.000000000000e+00 0.000000000000e+00 7.092590800003e+04 0.000000000000e+00 
5.700000000000e+01 0.000000000000e+00 0.000000000000e+00 6.976850100003e+04 0.000000000000e+00 
5.800000000000e+01 0.000000000000e+00 0.000000000000e+00 6.861109400003e+04 0.000000000000e+00 
5.900000000000e+01 0.000000000000e+00 0.000000000000e+00 6.745368700003e+04 0.000000000000e+00 
6.000000000000e+01 0.000000000000e+00 0.000000000000e+00 6.629628000003e+04 0.000000000000e+00 
6.100000000000e+01 0.000000000000e+00 0.000000000000e+00 6.513887300003e+04 0.000000000000e+00 
6.200000000000e+01 0.000000000000e+00 0.000000000000e+00 6.398146600003e+04 0.000000000000e+00 
6.300000000000e+01 0.000000000000e+00 0.000000000000e+00 6.282405900003e+04 0.000000000000e+00 
6.400000000000e+01 0.000000000000e+00 0.000000000000e+00 6.166665200003e+04 0.000000000000e+00 
6.500000000000e+01 0.000000000000e+00 0.000000000000e+00 6.050924500003e+04 0.000000000000e+00 
6.600000000000e+01 0.000000000000e+00 0.000000000000e+00 5.935183800003e+04 0.000000000000e+00 
6.700000000000e+01 0.000000000000e+00 0.000000000000e+00 5.819443100003e+04 0.000000000000e+00 
6.800000000000e+01 0.000000000000e+00 0.000000000000e+00 5.703702400003e+04 0.000000000000e+00 
6.900000000000e+01 0.000000000000e+00 0.000000000000e+00 5.587961700003e+04 0.000000000000e+00 
7.000000000000e+01 0.000000000000e+00 0.000000000000e+00 5.472221000003e+04 0.000000000000e+00 
7.100000000000e+01 0.000000000000e+00 0.000000000000e+00 5.356480300002e+04 0.000000000000e+00 
7.200000000000e+01 0.000000000000e+00 0.000000000000e+00 5.240739600002e+04 0.000000000000e+00 
7.300000000000e+01 0.000000000000e+00 0.000000000000e+00 5.124998900002e+04 0.000000000000e+00 
7.400000000000e+01 0.000000000000e+00 0.000000000000e+00 5.009258200002e+04 0.000000000000e+00 
7.500000000000e+01 0.000000000000e+00 0.000000000000e+00 4.893517500002e+04 0.000000000000e+00 
7.600000000000e+01 0.000000000000e+00 0.000000000000e+00 4.777776800002e+04 0.000000000000e+00 
7.700000000000e+01 0.000000000000e+00 0.000000000000e+00 4.662036100002e+04 0.000000000000e+00 
7.800000000000e+01 0.000000000000e+00 0.000000000000e+00 4.546295400002e+04 0.000000000000e+00 
7.900000000000e+01 0.000000000000e+00 0.000000000000e+00 4.430554700002e+04 0.000000000000e+00 
8.000000000000e+01 0.000000000000e+00 0.000000000000e+00 4.314814000002e+04 0.000000000000e+00 
8.100000000000e+01 0.000000000000e+00 0.000000000000e+00 4.199073300002e+04 0.000000000000e+00 
8.200000000000e+01 0.000000000000e+00 0.000000000000e+00 4.083332600002e+04 0.000000000000e+00 
8.300000000000e+01 0.000000000000e+00 0.000000000000e+00 3.967591900002e+04 0.000000000000e+00 
8.400000000000e+01 0.000000000000e+00 0.000000000000e+00 3.851851200002e+04 0.000000000000e+00 
8.500000000000e+01 0.000000000000e+00 0.000000000000e+00 3.736110500002e+04 0.000000000000e+00 
8.600000000000e+01 0.000000000000e+00 0.000000000000e+00 3.620369800001e+04 0.000000000000e+00 
8.700000000000e+01 0.000000000000e+00 0.000000000000e+00 3.504629100001e+04 0.000000000000e+00 
8.800000000000e+01 0.000000000000e+00 0.000000000000e+00 3.388888400001e+04 0.000000000000e+00 
8.900000000000e+01 0.000000000000e+00 0.000000000000e+00 3.273147700001e+04 0.000000000000e+00 
9.000000000000e+01 0.000000000000e+00 0.000000000000e+00 3.157407000001e+04 0.000000000000e+00 
9.100000000000e+01 0.000000000000e+00 0.000000000000e+00 3.041666300001e+04 0.000000000000e+00 
9.200000000000e+01 0.000000000000e+00 0.000000000000e+00 2.925925600001e+04 0.000000000000e+00 
9.300000000000e+01 0.000000000000e+00 0.000000000000e+00 2.810184900001e+04 0.000000000000e+00 
9.400000000000e+01 0.000000000000e+00 0.000000000000e+00 2.694444200001e+04 0.000000000000e+00 
9.500000000000e+01 0.000000000000e+00 0.000000000000e+00 2.578703500001e+04 0.000000000000e+00 
9.600000000000e+01 0.000000000000e+00 0.000000000000e+00 2.462962800000e+04 0.000000000000e+00 
9.700000000000e+01 0.000000000000e+00 0.000000000000e+00 2.347222100000e+04 0.000000000000e+00 
9.800000000000e+01 0.000000000000e+00 0.000000000000e+00 2.231481400000e+04 0.000000000000e+00 
9.900000000000e+01 0.000000000000e+00 0.000000000000e+00 2.115740700000e+04 0.000000000000e+00 
1.000000000000e+02 0.000000000000e+00 0.000000000000e+00 2.000000000000e+04 0.000000000000e+00 
1  2  2  1
2  3  3  2
3  4  4  3
4  5  5  4
5  6  6  5
6  7  7  6
7  8  8  7
8  9  9  8
9  10  10  9
10  11  11  10
11  12  12  11
12  13  13  12
13  14  14  13
14  15  15  14
15  16  16  15
16  17  17  16
17  18  18  17
18  19  19  18
19  20  20  19
20  21  21  20
21  22  22  21
22  23  23  22
23  24  24  23
24  25  25  24
25  26  26  25
26  27  27  26
27  28  28  27
28  29  29  28
29  30  30  29
30  31  31  30
31  32  32  31
32  33  33  32
33  34  34  33
34  35  35  34
35  36  36  35
36  37  37  36
37  38  38  37
38  39  39  38
39  40  40  39
40  41  41  40
41  42  42  41
42  43  43  42
43  44  44  43
44  45  45  44
45  46  46  45
46  47  47  46
47  48  48  47
48  49  49  48
49  50  50  49
50  51  51  50
51  52  52  51
52  53  53  52
53  54  54  53
54  55  55  54
55  56  56  55
56  57  57  56
57  58  58  57
58  59  59  58
59  60  60  59
60  61  61  60
61  62  62  61
62  63  63  62
63  64  64  63
64  65  65  64
65  66  66  65
66  67  67  66
67  68  68  67
68  69  69  68
69  70  70  69
70  71  71  70
71  72  72  71
72  73  73  72
73  74  74  73
74  75  75  74
75  76  76  75
76  77  77  76
77  78  78  77
78  79  79  78
79  80  80  79
80  81  81  80
81  82  82  81
82  83  83  82
83  84  84  83
84  85  85  84
85  86  86  85
86  87  87  86
87  88  88  87
88  89  89  88
89  90  90  89
90  91  91  90
91  92  92  91
92  93  93  92
93  94  94  93
94  95  95  94
95  96  96  95
96  97  97  96
97  98  98  97
98  99  99  98
99  100  100  99
100  101  101  100
VARIABLES  = "X","Y","Z", "PRESSURE1", "Decay"
ZONE T="1.728000000000e+05s", N=101, E=100, F=FEPOINT, ET=QUADRILATERAL
STRANDID=1, SOLUTIONTIME=1.728000000000e+05
0.000000000000e+00 0.000000000000e+00 0.000000000000e+00 1.357407000000e+05 1.000000000000e+00 
1.000000000000e+00 0.000000000000e+00 0.000000000000e+00 1.345832930000e+05 8.592214193579e-01 
2.000000000000e+00 0.000000000000e+00 0.000000000000e+00 1.334258860000e+05 5.611747486194e-01 
3.000000000000e+00 0.000000000000e+00 0.000000000000e+00 1.322684790000e+05 3.269020766081e-01 
4.000000000000e+00 0.000000000000e+00 0.000000000000e+00 1.311110720000e+05 1.787737695529e-01 
5.000000000000e+00 0.000000000000e+00 0.000000000000e+00 1.299536650000e+05 9.392037473012e-02 
6.000000000000e+00 0.000000000000e+00 0.000000000000e+00 1.287962580000e+05 4.799018517170e-02 
7.000000000000e+00 0.000000000000e+00 0.000000000000e+00 1.276388510000e+05 2.402687352707e-02 
8.000000000000e+00 0.000000000000e+00 0.000000000000e+00 1.264814440000e+05 1.184333835929e-02 
9.000000000000e+00 0.000000000000e+00 0.000000000000e+00 1.253240370000e+05 5.766417039460e-03 
1.000000000000e+01 0.000000000000e+00 0.000000000000e+00 1.241666300000e+05 2.779774670396e-03 
1.100000000000e+01 0.000000000000e+00 0.000000000000e+00 1.230092230000e+05 1.329034819343e-03 
1.200000000000e+01 0.000000000000e+00 0.000000000000e+00 1.218518160000e+05 6.310412007090e-04 
1.300000000000e+01 0.000000000000e+00 0.000000000000e+00 1.206944090000e+05 2.978641187407e-04 
1.400000000000e+01 0.000000000000e+00 0.000000000000e+00 1.195370020000e+05 1.398847734393e-04 
1.500000000000e+01 0.000000000000e+00 0.000000000000e+00 1.183795950000e+05 6.540319380903e-05 
1.600000000000e+01 0.000000000000e+00 0.000000000000e+00 1.172221880000e+05 3.046046629734e-05 
1.700000000000e+01 0.000000000000e+00 0.000000000000e+00 1.160647810000e+05 1.413761564816e-05 
1.800000000000e+01 0.000000000000e+00 0.000000000000e+00 1.149073740000e+05 6.541532871800e-06 
1.900000000000e+01 0.000000000000e+00 0.000000000000e+00 1.137499670000e+05 3.018446441872e-06 
2.000000000000e+01 0.000000000000e+00 0.000000000000e+00 1.125925600000e+05 1.389328226907e-06 
2.100000000000e+01 0.000000000000e+00 0.000000000000e+00 1.114351530000e+05 6.380346246003e-07 
2.200000000000e+01 0.000000000000e+00 0.000000000000e+00 1.102777460000e+05 2.924077017238e-07 
2.300000000000e+01 0.000000000000e+00 0.000000000000e+00 1.091203390000e+05 1.337564058997e-07 
2.400000000000e+01 0.000000000000e+00 0.000000000000e+00 1.079629320000e+05 6.107849524685e-08 
2.500000000000e+01 0.000000000000e+00 0.000000000000e+00 1.068055250000e+05 2.784639017334e-08 
2.600000000000e+01 0.000000000000e+00 0.000000000000e+00 1.056481180000e+05 1.267676474988e-08 
2.700000000000e+01 0.000000000000e+00 0.000000000000e+00 1.044907110000e+05 5.763062223999e-09 
2.800000000000e+01 0.000000000000e+00 0.000000000000e+00 1.033333040000e+05 2.616643180320e-09 
2.900000000000e+01 0.000000000000e+00 0.000000000000e+00 1.021758970000e+05 1.186639201221e-09 
3.000000000000e+01 0.000000000000e+00 0.000000000000e+00 1.010184900000e+05 5.375347089802e-10 
3.100000000000e+01 0.000000000000e+00 0.000000000000e+00 9.986108300003e+04 2.432402031935e-10 
3.200000000000e+01 0.000000000000e+00 0.000000000000e+00 9.870367600003e+04 1.099565585478e-10 
3.300000000000e+01 0.000000000000e+00 0.000000000000e+00 9.754626900003e+04 4.965669667442e-11 
3.400000000000e+01 0.000000000000e+00 0.000000000000e+00 9.638886200003e+04 2.240221881698e-11 
3.500000000000e+01 0.000000000000e+00 0.000000000000e+00 9.523145500003e+04 1.009595923546e-11 
3.600000000000e+01 0.000000000000e+00 0.000000000000e+00 9.407404800003e+04 4.544331894816e-12 
3.700000000000e+01 0.000000000000e+00 0.000000000000e+00 9.291664100003e+04 2.042623670927e-12 
3.800000000000e+01 0.000000000000e+00 0.000000000000e+00 9.175923400003e+04 9.164778368320e-13 
3.900000000000e+01 0.000000000000e+00 0.000000000000e+00 9.060182700003e+04 4.102960901103e-13 
4.000000000000e+01 0.000000000000e+00 0.000000000000e+00 8.944442000003e+04 1.831623336323e-13 
4.100000000000e+01 0.000000000000e+00 0.000000000000e+00 8.828701300003e+04 8.147284715085e-14 
4.200000000000e+01 0.000000000000e+00 0.000000000000e+00 8.712960600003e+04 3.609047546480e-14 
4.300000000000e+01 0.000000000000e+00 0.000000000000e+00 8.597219900003e+04 1.590311150472e-14 
4.400000000000e+01 0.000000000000e+00 0.000000000000e+00 8.481479200003e+04 6.972604005053e-15 
4.500000000000e+01 0.000000000000e+00 0.000000000000e+00 8.365738500003e+04 3.037612340704e-15 
4.600000000000e+01 0.000000000000e+00 0.000000000000e+00 8.249997800003e+04 1.317140495010e-15 
4.700000000000e+01 0.000000000000e+00 0.000000000000e+00 8.134257100003e+04 5.677378146674e-16 
4.800000000000e+01 0.000000000000e+00 0.000000000000e+00 8.018516400003e+04 2.439526343725e-16 
4.900000000000e+01 0.000000000000e+00 0.000000000000e+00 7.902775700003e+04 1.044183902174e-16 
5.000000000000e+01 0.000000000000e+00 0.000000000000e+00 7.787035000003e+04 4.463009749837e-17 
5.100000000000e+01 0.000000000000e+00 0.000000000000e+00 7.671294300003e+04 1.904382483364e-17 
5.200000000000e+01 0.000000000000e+00 0.000000000000e+00 7.555553600003e+04 8.119958740452e-18 
5.300000000000e+01 0.000000000000e+00 0.000000000000e+00 7.439812900003e+04 3.459458129498e-18 
5.400000000000e+01 0.000000000000e+00 0.000000000000e+00 7.324072200003e+04 1.472640045397e-18 
5.500000000000e+01 0.000000000000e+00 0.000000000000e+00 7.208331500003e+04 6.263213428719e-19 
5.600000000000e+01 0.000000000000e+00 0.000000000000e+00 7.092590800003e+04 2.661249669790e-19 
5.700000000000e+01 0.000000000000e+00 0.000000000000e+00 6.976850100003e+04 1.129627354627e-19 
5.800000000000e+01 0.000000000000e+00 0.000000000000e+00 6.861109400003e+04 4.789792143246e-20 
5.900000000000e+01 0.000000000000e+00 0.000000000000e+00 6.745368700003e+04 2.028605815888e-20 
6.000000000000e+01 0.000000000000e+00 0.000000000000e+00 6.629628000003e+04 8.581089860943e-21 
6.100000000000e+01 0.000000000000e+00 0.000000000000e+00 6.513887300003e+04 3.625026001724e-21 
6.200000000000e+01 0.000000000000e+00 0.000000000000e+00 6.398146600003e+04 1.529183277254e-21 
6.300000000000e+01 0.000000000000e+00 0.000000000000e+00 6.282405900003e+04 6.440765991878e-22 
6.400000000000e+01 0.000000000000e+00 0.000000000000e+00 6.166665200003e+04 2.708258141145e-22 
6.500000000000e+01 0.000000000000e+00 0.000000000000e+00 6.050924500003e+04 1.136716372891e-22 
6.600000000000e+01 0.000000000000e+00 0.000000000000e+00 5.935183800003e+04 4.761627125705e-23 
6.700000000000e+01 0.000000000000e+00 0.000000000000e+00 5.819443100003e+04 1.990266114687e-23 
6.800000000000e+01 0.000000000000e+00 0.000000000000e+00 5.703702400003e+04 8.299228787849e-24 
6.900000000000e+01 0.000000000000e+00 0.000000000000e+00 5.587961700003e+04 3.451464142648e-24 
7.000000000000e+01 0.000000000000e+00 0.000000000000e+00 5.472221000003e+04 1.431275702696e-24 
7.100000000000e+01 0.000000000000e+00 0.000000000000e+00 5.356480300002e+04 5.915294411200e-25 
7.200000000000e+01 0.000000000000e+00 0.000000000000e+00 5.240739600002e+04 2.436228301753e-25 
7.300000000000e+01 0.000000000000e+00 0.000000000000e+00 5.124998900002e+04 9.989067393564e-26 