<?xml version="1.0"?>
<!-- Time step: 30 | Time: 3.000000000000e+08 -->
<VTKFile type="UnstructuredGrid" version="0.1" byte_order="LittleEndian">
  <UnstructuredGrid>
    <Piece NumberOfPoints="409" NumberOfCells="736">
      <Points>
        <DataArray type="Float64" NumberOfComponents="3" format="ascii">
          0.000000000000e+00 1.000000000000e+00 0.000000000000e+00
          3.500000000000e-01 1.000000000000e+00 0.000000000000e+00
          0.000000000000e+00 6.500000000000e-01 0.000000000000e+00
          6.500000000000e-01 1.000000000000e+00 0.000000000000e+00
          0.000000000000e+00 3.500000000000e-01 0.000000000000e+00
          1.000000000000e+00 1.000000000000e+00 0.000000000000e+00
          0.000000000000e+00 0.000000000000e+00 0.000000000000e+00
          1.000000000000e+00 7.000000000000e-01 0.000000000000e+00
          3.000000000000e-01 0.000000000000e+00 0.000000000000e+00
          1.000000000000e+00 4.500000000000e-01 0.000000000000e+00
          5.500000000000e-01 0.000000000000e+00 0.000000000000e+00
          1.000000000000e+00 1.500000000000e-01 0.000000000000e+00
          8.500000000000e-01 0.000000000000e+00 0.000000000000e+00
          1.000000000000e+00 0.000000000000e+00 0.000000000000e+00
          5.000000000000e-02 1.000000000000e+00 0.000000000000e+00
          1.000000000000e-01 1.000000000000e+00 0.000000000000e+00
          1.500000000000e-01 1.000000000000e+00 0.000000000000e+00
          2.000000000000e-01 1.000000000000e+00 0.000000000000e+00
          2.500000000000e-01 1.000000000000e+00 0.000000000000e+00
          3.000000000000e-01 1.000000000000e+00 0.000000000000e+00
          3.146447000000e-01 9.646447000000e-01 0.000000000000e+00
          2.792893000000e-01 9.292893000000e-01 0.000000000000e+00
          2.439340000000e-01 8.939340000000e-01 0.000000000000e+00
          2.085786000000e-01 8.585786000000e-01 0.000000000000e+00
          1.732233000000e-01 8.232233000000e-01 0.000000000000e+00
          1.378680000000e-01 7.878680000000e-01 0.000000000000e+00
          1.025126000000e-01 7.525126000000e-01 0.000000000000e+00
          6.715730000000e-02 7.171573000000e-01 0.000000000000e+00
          0.000000000000e+00 7.000000000000e-01 0.000000000000e+00
          0.000000000000e+00 7.500000000000e-01 0.000000000000e+00
          0.000000000000e+00 8.000000000000e-01 0.000000000000e+00
          0.000000000000e+00 8.500000000000e-01 0.000000000000e+00
          0.000000000000e+00 9.000000000000e-01 0.000000000000e+00
          0.000000000000e+00 9.500000000000e-01 0.000000000000e+00
          4.000000000000e-01 1.000000000000e+00 0.000000000000e+00
          4.500000000000e-01 1.000000000000e+00 0.000000000000e+00
          5.000000000000e-01 1.000000000000e+00 0.000000000000e+00
          5.500000000000e-01 1.000000000000e+00 0.000000000000e+00
          6.000000000000e-01 1.000000000000e+00 0.000000000000e+00
          6.146447000000e-01 9.646447000000e-01 0.000000000000e+00
          5.792893000000e-01 9.292893000000e-01 0.000000000000e+00
          5.439340000000e-01 8.939340000000e-01 0.000000000000e+00
          5.085786000000e-01 8.585786000000e-01 0.000000000000e+00
          4.732233000000e-01 8.232233000000e-01 0.000000000000e+00
          4.378680000000e-01 7.878680000000e-01 0.000000000000e+00
          4.025126000000e-01 7.525126000000e-01 0.000000000000e+00
          3.671573000000e-01 7.171573000000e-01 0.000000000000e+00
          3.318019000000e-01 6.818019000000e-01 0.000000000000e+00
          2.964466000000e-01 6.464466000000e-01 0.000000000000e+00
          2.610913000000e-01 6.110913000000e-01 0.000000000000e+00
          2.257359000000e-01 5.757359000000e-01 0.000000000000e+00
          1.903806000000e-01 5.403806000000e-01 0.000000000000e+00
          1.550253000000e-01 5.050253000000e-01 0.000000000000e+00
          1.196699000000e-01 4.696699000000e-01 0.000000000000e+00
          8.431460000000e-02 4.343146000000e-01 0.000000000000e+00
          4.895920000000e-02 3.989592000000e-01 0.000000000000e+00
          0.000000000000e+00 4.000000000000e-01 0.000000000000e+00
          0.000000000000e+00 4.500000000000e-01 0.000000000000e+00
          0.000000000000e+00 5.000000000000e-01 0.000000000000e+00
          0.000000000000e+00 5.500000000000e-01 0.000000000000e+00
          0.000000000000e+00 6.000000000000e-01 0.000000000000e+00
          7.000000000000e-01 1.000000000000e+00 0.000000000000e+00
          7.500000000000e-01 1.000000000000e+00 0.000000000000e+00
          8.000000000000e-01 1.000000000000e+00 0.000000000000e+00
          8.500000000000e-01 1.000000000000e+00 0.000000000000e+00
          9.000000000000e-01 1.000000000000e+00 0.000000000000e+00
          9.500000000000e-01 1.000000000000e+00 0.000000000000e+00
          9.646447000000e-01 9.646447000000e-01 0.000000000000e+00
          9.292893000000e-01 9.292893000000e-01 0.000000000000e+00
          8.939340000000e-01 8.939340000000e-01 0.000000000000e+00
          8.585786000000e-01 8.585786000000e-01 0.000000000000e+00
          8.232233000000e-01 8.232233000000e-01 0.000000000000e+00
          7.878680000000e-01 7.878680000000e-01 0.000000000000e+00
          7.525126000000e-01 7.525126000000e-01 0.000000000000e+00
          7.171573000000e-01 7.171573000000e-01 0.000000000000e+00
          6.818019000000e-01 6.818019000000e-01 0.000000000000e+00
          6.464466000000e-01 6.464466000000e-01 0.000000000000e+00
          6.110913000000e-01 6.110913000000e-01 0.000000000000e+00
          5.757359000000e-01 5.757359000000e-01 0.000000000000e+00
          5.403806000000e-01 5.403806000000e-01 0.000000000000e+00
          5.050253000000e-01 5.050253000000e-01 0.000000000000e+00
          4.696699000000e-01 4.696699000000e-01 0.000000000000e+00
          4.343146000000e-01 4.343146000000e-01 0.000000000000e+00
          3.989592000000e-01 3.989592000000e-01 0.000000000000e+00
          3.636039000000e-01 3.636039000000e-01 0.000000000000e+00
          3.282486000000e-01 3.282486000000e-01 0.000000000000e+00
          2.928932000000e-01 2.928932000000e-01 0.000000000000e+00
          2.575379000000e-01 2.575379000000e-01 0.000000000000e+00
          2.221825000000e-01 2.221825000000e-01 0.000000000000e+00
          1.868272000000e-01 1.868272000000e-01 0.000000000000e+00
          1.514719000000e-01 1.514719000000e-01 0.000000000000e+00
          1.161165000000e-01 1.161165000000e-01 0.000000000000e+00
          8.076120000000e-02 8.076120000000e-02 0.000000000000e+00
          4.540580000000e-02 4.540580000000e-02 0.000000000000e+00
          0.000000000000e+00 5.000000000000e-02 0.000000000000e+00
          0.000000000000e+00 1.000000000000e-01 0.000000000000e+00
          0.000000000000e+00 1.500000000000e-01 0.000000000000e+00
          0.000000000000e+00 2.000000000000e-01 0.000000000000e+00
          0.000000000000e+00 2.500000000000e-01 0.000000000000e+00
          0.000000000000e+00 3.000000000000e-01 0.000000000000e+00
          1.000000000000e+00 9.500000000000e-01 0.000000000000e+00
          1.000000000000e+00 9.000000000000e-01 0.000000000000e+00
          1.000000000000e+00 8.500000000000e-01 0.000000000000e+00
          1.000000000000e+00 8.000000000000e-01 0.000000000000e+00
          1.000000000000e+00 7.500000000000e-01 0.000000000000e+00
          9.646447000000e-01 6.646447000000e-01 0.000000000000e+00
          9.292893000000e-01 6.292893000000e-01 0.000000000000e+00
          8.939340000000e-01 5.939340000000e-01 0.000000000000e+00
          8.585786000000e-01 5.585786000000e-01 0.000000000000e+00
          8.232233000000e-01 5.232233000000e-01 0.000000000000e+00
          7.878680000000e-01 4.878680000000e-01 0.000000000000e+00
          7.525126000000e-01 4.525126000000e-01 0.000000000000e+00
          7.171573000000e-01 4.171573000000e-01 0.000000000000e+00
          6.818019000000e-01 3.818019000000e-01 0.000000000000e+00
          6.464466000000e-01 3.464466000000e-01 0.000000000000e+00
          6.110913000000e-01 3.110913000000e-01 0.000000000000e+00
          5.757359000000e-01 2.757359000000e-01 0.000000000000e+00
          5.403806000000e-01 2.403806000000e-01 0.000000000000e+00
          5.050253000000e-01 2.050253000000e-01 0.000000000000e+00
          4.696699000000e-01 1.696699000000e-01 0.000000000000e+00
          4.343146000000e-01 1.343146000000e-01 0.000000000000e+00
          3.989592000000e-01 9.895920000000e-02 0.000000000000e+00
          3.636039000000e-01 6.360390000000e-02 0.000000000000e+00
          2.500000000000e-01 0.000000000000e+00 0.000000000000e+00
          2.000000000000e-01 0.000000000000e+00 0.000000000000e+00
          1.500000000000e-01 0.000000000000e+00 0.000000000000e+00
          1.000000000000e-01 0.000000000000e+00 0.000000000000e+00
          5.000000000000e-02 0.000000000000e+00 0.000000000000e+00
          1.000000000000e+00 6.500000000000e-01 0.000000000000e+00
          1.000000000000e+00 6.000000000000e-01 0.000000000000e+00
          1.000000000000e+00 5.500000000000e-01 0.000000000000e+00
          1.000000000000e+00 5.000000000000e-01 0.000000000000e+00
          9.646447000000e-01 4.146447000000e-01 0.000000000000e+00
          9.292893000000e-01 3.792893000000e-01 0.000000000000e+00
          8.939340000000e-01 3.439340000000e-01 0.000000000000e+00
          8.585786000000e-01 3.085786000000e-01 0.000000000000e+00
          8.232233000000e-01 2.732233000000e-01 0.000000000000e+00
          7.878680000000e-01 2.378680000000e-01 0.000000000000e+00
          7.525126000000e-01 2.025126000000e-01 0.000000000000e+00
          7.171573000000e-01 1.671573000000e-01 0.000000000000e+00
          6.818019000000e-01 1.318019000000e-01 0.000000000000e+00
          6.464466000000e-01 9.644660000000e-02 0.000000000000e+00
          6.110913000000e-01 6.109130000000e-02 0.000000000000e+00
          5.000000000000e-01 0.000000000000e+00 0.000000000000e+00
[...]
      <PointData Scalars="PRESSURE1">
        <DataArray type="Float64" Name="PRESSURE1" format="ascii">
          1.000000000000e+00 6.047025854644e-01 6.045795779627e-01 5.407909138282e-01 5.407903479260e-01 4.996594221519e-01 4.997182438897e-01 4.661847309338e-01 4.661496120322e-01 4.205346715696e-01 4.204840891545e-01 3.080608009499e-01 3.074190680911e-01 0.000000000000e+00 7.992884249242e-01 7.344380241294e-01 6.932972478108e-01 6.649383541715e-01 6.408914402538e-01 6.224522602181e-01 6.063653492042e-01 6.077364790593e-01 6.087439163195e-01 6.093905303878e-01 6.096232953433e-01 6.093530317579e-01 6.086652313687e-01 6.075737825872e-01 6.219304994156e-01 6.405739674523e-01 6.636305152782e-01 6.950373459721e-01 7.343904679642e-01 7.992589701496e-01 5.909794029312e-01 5.789838855075e-01 5.680812440798e-01 5.582081116243e-01 5.494082374062e-01 5.417348559275e-01 5.426303136511e-01 5.433873858650e-01 5.440475198798e-01 5.445773290007e-01 5.449578948691e-01 5.452947442883e-01 5.454721904815e-01 5.456114155891e-01 5.455543997497e-01 5.454211130134e-01 5.451295592024e-01 5.447394753098e-01 5.442041770912e-01 5.436486018402e-01 5.429311539550e-01 5.420565908636e-01 5.493937369101e-01 5.582897025031e-01 5.681440645977e-01 5.792225064094e-01 5.913964775737e-01 5.332535973792e-01 5.261458722538e-01 5.198587302700e-01 5.136114104043e-01 5.081777976568e-01 5.033406603977e-01 4.996564804876e-01 4.996799785548e-01 4.996867346193e-01 4.996747307301e-01 4.997046724802e-01 4.996902566792e-01 4.996836856621e-01 4.996796048635e-01 4.996708023341e-01 4.996644496381e-01 4.996515565579e-01 4.996418863494e-01 4.996503715948e-01 4.996513663614e-01 4.996542960461e-01 4.996590435285e-01 4.996599631395e-01 4.996571299230e-01 4.996455971150e-01 4.996723650913e-01 4.996907276163e-01 4.996778089930e-01 4.996734588421e-01 4.996660673767e-01 4.996432474870e-01 4.996552457446e-01 4.997164584375e-01 5.035776717315e-01 5.081453368905e-01 5.135617410672e-01 5.195530269467e-01 5.261250747071e-01 5.331883797830e-01 4.960744589516e-01 4.911459088200e-01 4.858282814990e-01 4.797293589616e-01 4.732059950572e-01 4.653018180470e-01 4.644862000802e-01 4.637908899977e-01 4.631428704333e-01 4.625875944885e-01 4.621566934462e-01 4.618179279602e-01 4.615613084281e-01 4.614050662640e-01 4.613577173340e-01 4.614205686111e-01 4.615938539629e-01 4.618720918231e-01 4.622412100676e-01 4.627090435744e-01 4.632819955736e-01 4.639114949645e-01 4.646455883518e-01 4.732268653480e-01 4.797822603652e-01 4.858504286928e-01 4.913433996608e-01 4.958809375282e-01 4.584430414428e-01 4.499517101409e-01 4.410766472425e-01 4.314773200876e-01 4.191621979586e-01 4.179800711421e-01 4.170525037529e-01 4.163523098406e-01 4.158986941910e-01 4.156513657612e-01 4.156992099520e-01 4.160168250443e-01 4.166103674925e-01 4.173565231172e-01 4.183868961067e-01 4.313556309239e-01 4.411426601532e-01 4.501561063621e-01 4.583153916263e-01 4.082157299783e-01 3.936595099429e-01 3.782130366059e-01 3.589169621649e-01 3.361913774004e-01 3.050312474018e-01 3.035623291193e-01 3.037845447850e-01 3.354753088969e-01 3.588101797897e-01 3.780613816659e-01 3.940853817972e-01 4.076826496729e-01 2.571210115704e-01 2.022622195296e-01 1.991903853961e-01 2.618810034243e-01 6.543619007090e-01 5.729738078172e-01 5.714451825609e-01 5.211396254497e-01 5.220394384663e-01 4.724865019432e-01 4.332797289217e-01 6.323999508935e-01 6.316225346644e-01 5.877910594315e-01 6.431005115679e-01 6.833249376773e-01 5.655286910750e-01 7.155949359901e-01 6.311661797349e-01 5.546154060129e-01 6.612675358879e-01 5.575169606200e-01 5.563049511366e-01 6.398741521939e-01 6.783671943615e-01 5.877067801712e-01 5.959407626814e-01 5.864821921258e-01 5.896349867688e-01 5.244366027369e-01 5.742146458396e-01 5.142354646745e-01 5.152098766488e-01 5.880076435928e-01 5.053079406490e-01 5.719970174373e-01 5.718141884926e-01 5.195972275000e-01 5.353321797037e-01 5.579526880163e-01 5.816634966469e-01 5.577618549131e-01 5.591339441078e-01 5.065934162798e-01 5.197620904654e-01 5.620465557389e-01 5.306361254327e-01 5.108210067093e-01 5.642998004603e-01 5.542330216998e-01 5.089002905873e-01 5.094950599896e-01 5.154679119076e-01 5.526949132744e-01 5.749884093391e-01 5.554768314380e-01 5.913370861070e-01 5.311931829782e-01 5.368815283460e-01 5.205624525944e-01 5.134399610637e-01 5.282910130865e-01 5.326625311238e-01 5.307416055947e-01 4.948758528633e-01 5.362088343899e-01 4.865817989812e-01 5.086098785997e-01 5.157760850334e-01 4.824314577424e-01 4.912577172965e-01 5.316569310276e-01 4.829301499655e-01 4.808549315184e-01 5.063787011849e-01 5.083794570582e-01 4.892211303566e-01 4.763379901035e-01 5.200562262172e-01 5.333511096327e-01 4.818932261789e-01 4.919527527618e-01 5.353249903064e-01 4.801137254667e-01 5.188884479677e-01 5.325621696726e-01 4.754846686336e-01 4.739971130967e-01 5.188848127910e-01 5.081509970885e-01 4.709113084985e-01 4.726062746882e-01 5.160872031365e-01 5.119236047010e-01 4.718195049761e-01 4.796901894326e-01 5.227588547462e-01 5.188366014240e-01 4.726121549985e-01 4.808703078178e-01 5.244677970876e-01 5.096996866804e-01 4.742890817818e-01 4.866896335377e-01 5.053119092777e-01 4.867281532924e-01 4.930340515257e-01 5.042454594833e-01 5.070566372011e-01 4.930211260979e-01 4.926995338543e-01 4.801144279551e-01 4.903277495754e-01 4.555066429291e-01 4.729715839173e-01 4.713250235126e-01 4.419271611502e-01 4.742093419298e-01 4.827199142866e-01 4.417203885620e-01 4.509442800583e-01 4.910307910966e-01 4.358657862851e-01 4.396082951949e-01 4.918901502040e-01 4.509915123401e-01 4.333622382451e-01 4.714841247895e-01 4.725883722854e-01 4.307914979946e-01 4.715753223799e-01 4.842095607181e-01 4.286897520125e-01 4.426786201260e-01 4.729610481600e-01 4.917199059697e-01 4.325138825958e-01 4.498187231836e-01 4.729571060560e-01 4.929566782990e-01 4.533996577307e-01 4.756354557019e-01 4.799909704413e-01 4.488852149773e-01 4.044924220880e-01 4.295272812429e-01 3.806388146019e-01 4.520234195574e-01 4.278906765936e-01 3.716728573972e-01 4.533341677562e-01 3.451617088205e-01 3.546526751283e-01 3.919138770172e-01 3.837546898672e-01 4.486347290321e-01 4.346936375361e-01 4.436619750379e-01 3.991996076930e-01 3.985291034670e-01 3.600630997304e-01 3.957541619305e-01 3.407797434419e-01 3.663046922000e-01 2.534687039123e-01 5.589787951067e-01 5.067130750894e-01 5.535994159894e-01 5.301527136101e-01 5.209603936855e-01 5.741247240725e-01 5.116625524242e-01 5.074857517388e-01 5.335650489079e-01 5.334383533914e-01 5.231572077509e-01 5.256511800947e-01 5.182627113163e-01 4.917794677341e-01 4.911372038712e-01 5.325004419013e-01 4.909928932266e-01 5.266247556917e-01 5.239469966004e-01 5.253660510098e-01 4.932710241284e-01 5.091258821365e-01 4.523567790065e-01 4.839899671806e-01 4.818669415106e-01 4.523607794755e-01 4.415448865517e-01 4.829893092669e-01 4.300507044039e-01 4.291589841075e-01 4.021437749216e-01 4.000654695185e-01 3.969266530645e-01 5.096815786003e-01 5.135532643903e-01 4.729794133289e-01 5.626969908149e-01 5.822901816724e-01 6.306019623436e-01 5.702520948861e-01 5.638697681010e-01 5.143363327429e-01 5.701397189285e-01 5.895100560565e-01 5.054975270148e-01 5.752059270757e-01 5.163380086205e-01 5.364813696230e-01 5.066002516955e-01 5.346126263233e-01 4.916996918815e-01 5.254271576639e-01 4.896795107147e-01 5.279615126987e-01 5.062806302609e-01 4.821331310921e-01 4.861504928599e-01 5.153805198535e-01 4.896891221197e-01 4.850948210043e-01 5.082285604068e-01 5.170084863781e-01 5.297155485361e-01 4.905035512154e-01 4.929883019319e-01 5.126565098691e-01 4.813771906015e-01 4.826635422326e-01 4.515984460278e-01 4.499054999838e-01 4.405912180607e-01 4.855968707845e-01 4.500915148530e-01 4.548158026136e-01 4.514682101960e-01 3.926099387786e-01 3.771573504066e-01 4.373158072348e-01 4.796312907183e-01 5.059957802810e-01 4.411838511610e-01 5.538561558039e-01 4.945047841260e-01 3.712461789829e-01 
        </DataArray>
        <DataArray type="Float64" Name="Tracer" format="ascii">
          0.000000000000e+00 1.000000000000e+00 1.000000000000e+00 4.404339106104e-01 4.405785740573e-01 2.803847611522e-01 2.809143167699e-01 2.438003238057e-01 2.440298417387e-01 1.823878514555e-01 1.823148301639e-01 1.265817080809e-01 1.264364255662e-01 1.187893558660e-01 4.785489454932e-01 6.902717757936e-01 8.159097541142e-01 9.008256442454e-01 9.742317863501e-01 9.252634905132e-01 1.000000000000e+00 1.000000000000e+00 1.000000000000e+00 1.000000000000e+00 1.000000000000e+00 1.000000000000e+00 1.000000000000e+00 1.000000000000e+00 9.737021544436e-01 9.711896070118e-01 9.008699026301e-01 8.192610796705e-01 6.924077223338e-01 4.750891855908e-01 8.272697528293e-01 7.139736271663e-01 6.259342736410e-01 5.529497880020e-01 4.923235232860e-01 4.737294952795e-01 5.093585372373e-01 5.420639372424e-01 5.724490850320e-01 5.977754694118e-01 6.165929262633e-01 6.302635883051e-01 6.381096251682e-01 6.424852006152e-01 6.407968189820e-01 6.347927927629e-01 6.231214208195e-01 6.059502601879e-01 5.830220768259e-01 5.546787800082e-01 5.221368935949e-01 4.878183365304e-01 4.926107684171e-01 5.539717592417e-01 6.267601127579e-01 7.159538923302e-01 8.272120065131e-01 3.964988364512e-01 3.599151813464e-01 3.319604262376e-01 3.093378070870e-01 2.935408460073e-01 2.839014417343e-01 2.814707186407e-01 2.849663928733e-01 2.893052924083e-01 2.953677282888e-01 3.033113369642e-01 3.116650911309e-01 3.204648833145e-01 3.294239376599e-01 3.376997715360e-01 3.453200168280e-01 3.516898347576e-01 3.562079162107e-01 3.593908062265e-01 3.606208114355e-01 3.601757816963e-01 3.574715987928e-01 3.531842963469e-01 3.475224750386e-01 3.400089701694e-01 3.320106959998e-01 3.231781403989e-01 3.143410652768e-01 3.058633541379e-01 2.979439248697e-01 2.910296403971e-01 2.857933399782e-01 2.826075896455e-01 2.844474367075e-01 2.936158904590e-01 3.092978379288e-01 3.315733178191e-01 3.606255556192e-01 3.967995219711e-01 2.792360183503e-01 2.763059359973e-01 2.701656397129e-01 2.632686051390e-01 2.542462778754e-01 2.372015769975e-01 2.320136771155e-01 2.281431528532e-01 2.254830232816e-01 2.240967652992e-01 2.229443729324e-01 2.224454631265e-01 2.222069830600e-01 2.220741131844e-01 2.220979402787e-01 2.221720216198e-01 2.223421396867e-01 2.225519223284e-01 2.231751611982e-01 2.243025745679e-01 2.262700957628e-01 2.289191217072e-01 2.326962784453e-01 2.545525878233e-01 2.635301444934e-01 2.707284807390e-01 2.756666577230e-01 2.799164338783e-01 2.323935461301e-01 2.203971065981e-01 2.073671736251e-01 1.946005592180e-01 1.747118395911e-01 1.686869028867e-01 1.640597597213e-01 1.606027558675e-01 1.585336731610e-01 1.576416260830e-01 1.577564169955e-01 1.589935027914e-01 1.614442422207e-01 1.650448443839e-01 1.698488997466e-01 1.948713979959e-01 2.076259632495e-01 2.202208483354e-01 2.327575568278e-01 1.704629232954e-01 1.594404582828e-01 1.488217711862e-01 1.401296413470e-01 1.325646142078e-01 1.237570252120e-01 1.227687910820e-01 1.232872448411e-01 1.324897590425e-01 1.401605854320e-01 1.491009076500e-01 1.592297933495e-01 1.706812905163e-01 1.223863469814e-01 1.192295408653e-01 1.195405312254e-01 1.221878064187e-01 8.624523664284e-01 8.093840528370e-01 7.709646108301e-01 4.574459303523e-01 4.266856069835e-01 2.481509139324e-01 1.882331896415e-01 9.223620001574e-01 9.398878807359e-01 8.679421016334e-01 9.069954846378e-01 7.830261318053e-01 6.578724849863e-01 6.679378497719e-01 9.412207595300e-01 5.797926757663e-01 8.328098406192e-01 6.669811568752e-01 6.865153379983e-01 9.152204351448e-01 8.079985786731e-01 8.851565910451e-01 9.285950822957e-01 8.876764854730e-01 9.023078459386e-01 4.033450706997e-01 7.522456868637e-01 3.624024996723e-01 3.370304621911e-01 8.935680585847e-01 2.945412636412e-01 7.804787567904e-01 7.948753865045e-01 4.715907023119e-01 5.738722221360e-01 7.133044831350e-01 8.198230438968e-01 7.158858331884e-01 7.139431151066e-01 3.085188265730e-01 3.653024511314e-01 6.883767958847e-01 4.809861870764e-01 3.898579432537e-01 6.560943877658e-01 5.721486722997e-01 3.904120592711e-01 4.142123164180e-01 4.495940735276e-01 6.042841173559e-01 7.424262899030e-01 6.739362819180e-01 8.992651962137e-01 4.597263997645e-01 5.321400871506e-01 4.368430952054e-01 3.198170809487e-01 5.097304015364e-01 5.523450689797e-01 5.423351653107e-01 2.784312772104e-01 5.798963896223e-01 2.684953968358e-01 3.268168823812e-01 4.440642219185e-01 2.630360762220e-01 2.878555494786e-01 5.318255545592e-01 2.674835054955e-01 2.681412014203e-01 3.567751126969e-01 3.973154677057e-01 2.985761037630e-01 2.577616854425e-01 4.498753437483e-01 5.047269067089e-01 2.806320386098e-01 3.217499641282e-01 4.898114874780e-01 2.758824492093e-01 4.701219709283e-01 4.261906615319e-01 2.511718671155e-01 2.469076726064e-01 4.550692629166e-01 4.024963610677e-01 2.420715456716e-01 2.499159947522e-01 3.627591251904e-01 3.972879187222e-01 2.487403042590e-01 2.740961827777e-01 4.514258533370e-01 3.974045441612e-01 2.495657178534e-01 2.680792923167e-01 3.802340900454e-01 3.146750028751e-01 2.476871301962e-01 2.695359679404e-01 2.957258680254e-01 2.690002868787e-01 2.771192062120e-01 3.090696068651e-01 3.358080096333e-01 2.774246873731e-01 2.807313080795e-01 2.597905111392e-01 3.161430292789e-01 2.207641364992e-01 2.458517088288e-01 2.477310587698e-01 1.951815790039e-01 2.480625983617e-01 2.804270231946e-01 1.891128046214e-01 2.020686463486e-01 3.151105396653e-01 1.791142179759e-01 1.834428299806e-01 3.128288626699e-01 2.011839907992e-01 1.891242944638e-01 2.482637141085e-01 2.463958668466e-01 1.810234014232e-01 2.478184351699e-01 2.702300841529e-01 1.699891904033e-01 1.890133615161e-01 2.489722822531e-01 2.965998546282e-01 1.772714696103e-01 2.047702189322e-01 2.458849543505e-01 2.923606073448e-01 2.171020415262e-01 2.498468218502e-01 2.594639355628e-01 2.070440678839e-01 1.603513735657e-01 1.751510446070e-01 1.433418835078e-01 2.033305386660e-01 1.696662728481e-01 1.350257446551e-01 2.061094125417e-01 1.295089144645e-01 1.310998939614e-01 1.450825774018e-01 1.458631041597e-01 1.986252342315e-01 1.820828773316e-01 2.026584166688e-01 1.526161620688e-01 1.485989790190e-01 1.358005303393e-01 1.445559792410e-01 1.272097871772e-01 1.376412472488e-01 1.205568351761e-01 7.255550746625e-01 3.437602716604e-01 6.120732320415e-01 4.057834406975e-01 4.044393343313e-01 8.164264617295e-01 4.214794475379e-01 4.025841653850e-01 4.475722441895e-01 5.301177122181e-01 4.877122550583e-01 5.123645478504e-01 4.640109402036e-01 2.836888059697e-01 3.000822260844e-01 5.202821987330e-01 3.145953148083e-01 5.175379559939e-01 4.009381820092e-01 4.453083865441e-01 2.804060695693e-01 3.294217815503e-01 2.077045213673e-01 2.740544102510e-01 2.801765292201e-01 2.056285984174e-01 1.911840718800e-01 2.708513674976e-01 1.728159240134e-01 1.707775158834e-01 1.537476768152e-01 1.565108962227e-01 1.457712024266e-01 3.960524937570e-01 3.783457059905e-01 2.462242761126e-01 6.729781522491e-01 8.668108789802e-01 9.271549900077e-01 7.778671414024e-01 7.552451390637e-01 3.959252091145e-01 7.871275997233e-01 8.985863155612e-01 3.894634933379e-01 8.142417118955e-01 4.401555933323e-01 5.740821593817e-01 3.871987980978e-01 5.575549855429e-01 2.955621586675e-01 5.030483129103e-01 3.048142392297e-01 4.847619213997e-01 3.601821919480e-01 2.794460326667e-01 2.985052767379e-01 3.997594817008e-01 3.125741024635e-01 2.667624851998e-01 3.549102463263e-01 3.446735395560e-01 4.427470092738e-01 2.998906406519e-01 2.850661005752e-01 3.631234295868e-01 2.805151769364e-01 2.767611380143e-01 2.026474690008e-01 1.993284462433e-01 1.847125095831e-01 2.700447369772e-01 2.025655940608e-01 2.148419971332e-01 2.021118276961e-01 1.434937688220e-01 1.384745545558e-01 1.880303602784e-01 2.574869872398e-01 3.295577634289e-01 1.859632407703e-01 6.937195950193e-01 3.354206787071e-01 1.349018901492e-01 
        </DataArray>
      </PointData>
      <CellData>
        <DataArray type="Int32" Name="MatGroup" format="ascii">
          0 0 0 0 0 0 0 0 0 0 0 0 0 0 0 0 0 0 0 0 0 0 0 0 0 0 0 0 0 0 0 0 0 0 0 0 0 0 0 0 0 0 0 1 1 1 1 1 1 1 1 1 1 1 1 1 1 1 1 1 1 1 1 1 1 1 1 1 1 1 1 1 1 1 1 1 1 1 1 1 1 1 1 1 1 1 1 1 1 1 1 1 1 1 1 1 1 1 1 1 1 1 1 1 1 1 1 1 1 1 1 1 1 1 1 1 1 1 1 1 1 1 1 1 1 1 1 1 1 1 1 1 1 1 1 1 1 1 1 1 1 1 1 1 1 1 1 1 1 1 1 1 1 1 2 2 2 2 2 2 2 2 2 2 2 2 2 2 2 2 2 2 2 2 2 2 2 2 2 2 2 2 2 2 2 2 2 2 2 2 2 2 2 2 2 2 2 2 2 2 2 2 2 2 2 2 2 2 2 2 2 2 2 2 2 2 2 2 2 2 2 2 2 2 2 2 2 2 2 2 2 2 2 2 2 2 2 2 2 2 2 2 2 2 2 2 2 2 2 2 2 2 2 2 2 2 2 2 2 2 2 2 2 2 2 2 2 2 2 2 2 2 2 2 2 2 2 2 2 2 2 2 2 2 2 2 2 2 2 2 2 2 2 2 2 2 2 2 2 2 2 2 2 2 2 2 2 2 2 2 2 2 2 2 2 2 2 2 2 2 2 2 2 2 2 2 2 2 2 2 2 2 2 2 2 2 2 2 2 2 2 2 2 2 2 2 2 2 2 2 2 2 2 2 2 2 2 2 2 2 2 2 2 2 3 3 3 3 3 3 3 3 3 3 3 3 3 3 3 3 3 3 3 3 3 3 3 3 3 3 3 3 3 3 3 3 3 3 3 3 3 3 3 3 3 3 3 3 3 3 3 3 3 3 3 3 3 3 3 3 3 3 3 3 3 3 3 3 3 3 3 3 3 3 3 3 3 3 3 3 3 3 3 3 3 3 3 3 3 3 3 3 3 3 3 3 3 3 3 3 3 3 3 3 3 3 3 3 3 3 3 3 3 3 3 3 3 3 3 3 3 3 3 3 3 3 3 3 3 3 3 3 3 3 3 3 3 3 3 3 3 3 3 3 3 3 3 3 3 3 3 3 3 3 3 3 3 3 3 3 3 3 3 3 3 3 3 3 3 3 3 3 3 3 3 3 3 3 3 3 3 3 3 3 3 3 3 3 3 3 3 4 4 4 4 4 4 4 4 4 4 4 4 4 4 4 4 4 4 4 4 4 4 4 4 4 4 4 4 4 4 4 4 4 4 4 4 4 4 4 4 4 4 4 4 4 4 4 4 4 4 4 4 4 4 4 4 4 4 4 4 4 4 4 4 4 4 4 4 4 4 4 4 4 4 4 4 4 4 4 4 4 4 4 4 4 4 4 4 4 4 4 4 4 4 4 4 4 4 4 4 4 4 4 4 4 4 4 4 4 4 4 5 5 5 5 5 5 5 5 5 5 5 5 5 5 5 5 5 5 5 5 5 5 5 5 5 5 5 5 5 5 5 5 5 5 5 5 5 5 5 5 5 5 5 5 5 5 5 5 5 5 5 5 5 5 5 5 5 5 5 5 5 5 5 5 6 6 6 6 6 6 6 6 6 6 
        </DataArray>
      </CellData>
    </Piece>
  </UnstructuredGrid>
</VTKFile>
