<?xml version="1.0"?>
<!-- Time step: 1 | Time: 8.640000000000e+04 -->
<VTKFile type="UnstructuredGrid" version="0.1" byte_order="LittleEndian">
  <UnstructuredGrid>
    <Piece NumberOfPoints="402" NumberOfCells="200">
      <Points>
        <DataArray type="Float64" NumberOfComponents="3" format="ascii">
          0.000000000000e+00 0.000000000000e+00 0.000000000000e+00
          1.000000000000e+02 0.000000000000e+00 0.000000000000e+00
          1.000000000000e+02 5.000000000000e-01 0.000000000000e+00
          0.000000000000e+00 5.000000000000e-01 0.000000000000e+00
          5.000000000000e+01 0.000000000000e+00 0.000000000000e+00
          5.000000000000e+01 5.000000000000e-01 0.000000000000e+00
          5.000000000000e-01 0.000000000000e+00 0.000000000000e+00
          1.000000000000e+00 0.000000000000e+00 0.000000000000e+00
          1.500000000000e+00 0.000000000000e+00 0.000000000000e+00
          2.000000000000e+00 0.000000000000e+00 0.000000000000e+00
          2.500000000000e+00 0.000000000000e+00 0.000000000000e+00
          3.000000000000e+00 0.000000000000e+00 0.000000000000e+00
          3.500000000000e+00 0.000000000000e+00 0.000000000000e+00
          4.000000000000e+00 0.000000000000e+00 0.000000000000e+00
          4.500000000000e+00 0.000000000000e+00 0.000000000000e+00
          5.000000000000e+00 0.000000000000e+00 0.000000000000e+00
          5.500000000000e+00 0.000000000000e+00 0.000000000000e+00
          6.000000000000e+00 0.000000000000e+00 0.000000000000e+00
          6.500000000000e+00 0.000000000000e+00 0.000000000000e+00
          7.000000000000e+00 0.000000000000e+00 0.000000000000e+00
          7.500000000000e+00 0.000000000000e+00 0.000000000000e+00
          8.000000000000e+00 0.000000000000e+00 0.000000000000e+00
          8.500000000000e+00 0.000000000000e+00 0.000000000000e+00
          9.000000000000e+00 0.000000000000e+00 0.000000000000e+00
          9.500000000000e+00 0.000000000000e+00 0.000000000000e+00
          1.000000000000e+01 0.000000000000e+00 0.000000000000e+00
          1.050000000000e+01 0.000000000000e+00 0.000000000000e+00
          1.100000000000e+01 0.000000000000e+00 0.000000000000e+00
          1.150000000000e+01 0.000000000000e+00 0.000000000000e+00
          1.200000000000e+01 0.000000000000e+00 0.000000000000e+00
          1.250000000000e+01 0.000000000000e+00 0.000000000000e+00
          1.300000000000e+01 0.000000000000e+00 0.000000000000e+00
          1.350000000000e+01 0.000000000000e+00 0.000000000000e+00
          1.400000000000e+01 0.000000000000e+00 0.000000000000e+00
          1.450000000000e+01 0.000000000000e+00 0.000000000000e+00
          1.500000000000e+01 0.000000000000e+00 0.000000000000e+00
          1.550000000000e+01 0.000000000000e+00 0.000000000000e+00
          1.600000000000e+01 0.000000000000e+00 0.000000000000e+00
          1.650000000000e+01 0.000000000000e+00 0.000000000000e+00
          1.700000000000e+01 0.000000000000e+00 0.000000000000e+00
          1.750000000000e+01 0.000000000000e+00 0.000000000000e+00
          1.800000000000e+01 0.000000000000e+00 0.000000000000e+00
          1.850000000000e+01 0.000000000000e+00 0.000000000000e+00
          1.900000000000e+01 0.000000000000e+00 0.000000000000e+00
          1.950000000000e+01 0.000000000000e+00 0.000000000000e+00
          2.000000000000e+01 0.000000000000e+00 0.000000000000e+00
          2.050000000000e+01 0.000000000000e+00 0.000000000000e+00
          2.100000000000e+01 0.000000000000e+00 0.000000000000e+00
          2.150000000000e+01 0.000000000000e+00 0.000000000000e+00
          2.200000000000e+01 0.000000000000e+00 0.000000000000e+00
          2.250000000000e+01 0.000000000000e+00 0.000000000000e+00
          2.300000000000e+01 0.000000000000e+00 0.000000000000e+00
          2.350000000000e+01 0.000000000000e+00 0.000000000000e+00
          2.400000000000e+01 0.000000000000e+00 0.000000000000e+00
          2.450000000000e+01 0.000000000000e+00 0.000000000000e+00
          2.500000000000e+01 0.000000000000e+00 0.000000000000e+00
          2.550000000000e+01 0.000000000000e+00 0.000000000000e+00
          2.600000000000e+01 0.000000000000e+00 0.000000000000e+00
          2.650000000000e+01 0.000000000000e+00 0.000000000000e+00
          2.700000000000e+01 0.000000000000e+00 0.000000000000e+00
          2.750000000000e+01 0.000000000000e+00 0.000000000000e+00
          2.800000000000e+01 0.000000000000e+00 0.000000000000e+00
          2.850000000000e+01 0.000000000000e+00 0.000000000000e+00
          2.900000000000e+01 0.000000000000e+00 0.000000000000e+00
          2.950000000000e+01 0.000000000000e+00 0.000000000000e+00
          3.000000000000e+01 0.000000000000e+00 0.000000000000e+00
          3.050000000000e+01 0.000000000000e+00 0.000000000000e+00
          3.100000000000e+01 0.000000000000e+00 0.000000000000e+00
          3.150000000000e+01 0.000000000000e+00 0.000000000000e+00
          3.200000000000e+01 0.000000000000e+00 0.000000000000e+00
          3.250000000000e+01 0.000000000000e+00 0.000000000000e+00
          3.300000000000e+01 0.000000000000e+00 0.000000000000e+00
          3.350000000000e+01 0.000000000000e+00 0.000000000000e+00
          3.400000000000e+01 0.000000000000e+00 0.000000000000e+00
          3.450000000000e+01 0.000000000000e+00 0.000000000000e+00
          3.500000000000e+01 0.000000000000e+00 0.000000000000e+00
          3.550000000000e+01 0.000000000000e+00 0.000000000000e+00
          3.600000000000e+01 0.000000000000e+00 0.000000000000e+00
          3.650000000000e+01 0.000000000000e+00 0.000000000000e+00
          3.700000000000e+01 0.000000000000e+00 0.000000000000e+00
          3.750000000000e+01 0.000000000000e+00 0.000000000000e+00
          3.800000000000e+01 0.000000000000e+00 0.000000000000e+00
          3.850000000000e+01 0.000000000000e+00 0.000000000000e+00
          3.900000000000e+01 0.000000000000e+00 0.000000000000e+00
          3.950000000000e+01 0.000000000000e+00 0.000000000000e+00
          4.000000000000e+01 0.000000000000e+00 0.000000000000e+00
          4.050000000000e+01 0.000000000000e+00 0.000000000000e+00
          4.100000000000e+01 0.000000000000e+00 0.000000000000e+00
          4.150000000000e+01 0.000000000000e+00 0.000000000000e+00
          4.200000000000e+01 0.000000000000e+00 0.000000000000e+00
          4.250000000000e+01 0.000000000000e+00 0.000000000000e+00
          4.300000000000e+01 0.000000000000e+00 0.000000000000e+00
          4.350000000000e+01 0.000000000000e+00 0.000000000000e+00
          4.400000000000e+01 0.000000000000e+00 0.000000000000e+00
          4.450000000000e+01 0.000000000000e+00 0.000000000000e+00
          4.500000000000e+01 0.000000000000e+00 0.000000000000e+00
          4.550000000000e+01 0.000000000000e+00 0.000000000000e+00
          4.600000000000e+01 0.000000000000e+00 0.000000000000e+00
          4.650000000000e+01 0.000000000000e+00 0.000000000000e+00
          4.700000000000e+01 0.000000000000e+00 0.000000000000e+00
          4.750000000000e+01 0.000000000000e+00 0.000000000000e+00
          4.800000000000e+01 0.000000000000e+00 0.000000000000e+00
          4.850000000000e+01 0.000000000000e+00 0.000000000000e+00
          4.900000000000e+01 0.000000000000e+00 0.000000000000e+00
          4.950000000000e+01 0.000000000000e+00 0.000000000000e+00
          5.000000000000e-01 5.000000000000e-01 0.000000000000e+00
          1.000000000000e+00 5.000000000000e-01 0.000000000000e+00
          1.500000000000e+00 5.000000000000e-01 0.000000000000e+00
          2.000000000000e+00 5.000000000000e-01 0.000000000000e+00
          2.500000000000e+00 5.000000000000e-01 0.000000000000e+00
          3.000000000000e+00 5.000000000000e-01 0.000000000000e+00
          3.500000000000e+00 5.000000000000e-01 0.000000000000e+00
          4.000000000000e+00 5.000000000000e-01 0.000000000000e+00
          4.500000000000e+00 5.000000000000e-01 0.000000000000e+00
          5.000000000000e+00 5.000000000000e-01 0.000000000000e+00
          5.500000000000e+00 5.000000000000e-01 0.000000000000e+00
          6.000000000000e+00 5.000000000000e-01 0.000000000000e+00
          6.500000000000e+00 5.000000000000e-01 0.000000000000e+00
          7.000000000000e+00 5.000000000000e-01 0.000000000000e+00
          7.500000000000e+00 5.000000000000e-01 0.000000000000e+00
          8.000000000000e+00 5.000000000000e-01 0.000000000000e+00
          8.500000000000e+00 5.000000000000e-01 0.000000000000e+00
          9.000000000000e+00 5.000000000000e-01 0.000000000000e+00
          9.500000000000e+00 5.000000000000e-01 0.000000000000e+00
          1.000000000000e+01 5.000000000000e-01 0.000000000000e+00
          1.050000000000e+01 5.000000000000e-01 0.000000000000e+00
          1.100000000000e+01 5.000000000000e-01 0.000000000000e+00
          1.150000000000e+01 5.000000000000e-01 0.000000000000e+00
          1.200000000000e+01 5.000000000000e-01 0.000000000000e+00
          1.250000000000e+01 5.000000000000e-01 0.000000000000e+00
          1.300000000000e+01 5.000000000000e-01 0.000000000000e+00
          1.350000000000e+01 5.000000000000e-01 0.000000000000e+00
          1.400000000000e+01 5.000000000000e-01 0.000000000000e+00
          1.450000000000e+01 5.000000000000e-01 0.000000000000e+00
          1.500000000000e+01 5.000000000000e-01 0.000000000000e+00
          1.550000000000e+01 5.000000000000e-01 0.000000000000e+00
          1.600000000000e+01 5.000000000000e-01 0.000000000000e+00
          1.650000000000e+01 5.000000000000e-01 0.000000000000e+00
          1.700000000000e+01 5.000000000000e-01 0.000000000000e+00
          1.750000000000e+01 5.000000000000e-01 0.000000000000e+00
          1.800000000000e+01 5.000000000000e-01 0.000000000000e+00
          1.850000000000e+01 5.000000000000e-01 0.000000000000e+00
          1.900000000000e+01 5.000000000000e-01 0.000000000000e+00
          1.950000000000e+01 5.000000000000e-01 0.000000000000e+00
[...]
      <PointData Scalars="PRESSURE1">
        <DataArray type="Float64" Name="PRESSURE1" format="ascii">
          9.810000000000e+03 0.000000000000e+00 0.000000000000e+00 9.810000000000e+03 4.905000000007e+03 4.905000000007e+03 9.760950000000e+03 9.711900000000e+03 9.662850000000e+03 9.613800000001e+03 9.564750000001e+03 9.515700000001e+03 9.466650000001e+03 9.417600000001e+03 9.368550000001e+03 9.319500000001e+03 9.270450000001e+03 9.221400000001e+03 9.172350000002e+03 9.123300000002e+03 9.074250000002e+03 9.025200000002e+03 8.976150000002e+03 8.927100000002e+03 8.878050000002e+03 8.829000000002e+03 8.779950000002e+03 8.730900000002e+03 8.681850000003e+03 8.632800000003e+03 8.583750000003e+03 8.534700000003e+03 8.485650000003e+03 8.436600000003e+03 8.387550000003e+03 8.338500000003e+03 8.289450000003e+03 8.240400000003e+03 8.191350000003e+03 8.142300000003e+03 8.093250000003e+03 8.044200000004e+03 7.995150000004e+03 7.946100000004e+03 7.897050000004e+03 7.848000000004e+03 7.798950000004e+03 7.749900000004e+03 7.700850000004e+03 7.651800000004e+03 7.602750000004e+03 7.553700000004e+03 7.504650000004e+03 7.455600000004e+03 7.406550000004e+03 7.357500000004e+03 7.308450000004e+03 7.259400000004e+03 7.210350000005e+03 7.161300000005e+03 7.112250000005e+03 7.063200000005e+03 7.014150000005e+03 6.965100000005e+03 6.916050000005e+03 6.867000000005e+03 6.817950000005e+03 6.768900000005e+03 6.719850000005e+03 6.670800000005e+03 6.621750000005e+03 6.572700000005e+03 6.523650000005e+03 6.474600000005e+03 6.425550000005e+03 6.376500000006e+03 6.327450000006e+03 6.278400000006e+03 6.229350000006e+03 6.180300000006e+03 6.131250000006e+03 6.082200000006e+03 6.033150000006e+03 5.984100000006e+03 5.935050000006e+03 5.886000000006e+03 5.836950000006e+03 5.787900000006e+03 5.738850000006e+03 5.689800000006e+03 5.640750000006e+03 5.591700000006e+03 5.542650000006e+03 5.493600000007e+03 5.444550000007e+03 5.395500000007e+03 5.346450000007e+03 5.297400000007e+03 5.248350000007e+03 5.199300000007e+03 5.150250000007e+03 5.101200000007e+03 5.052150000007e+03 5.003100000007e+03 4.954050000007e+03 9.760950000000e+03 9.711900000000e+03 9.662850000000e+03 9.613800000001e+03 9.564750000001e+03 9.515700000001e+03 9.466650000001e+03 9.417600000001e+03 9.368550000001e+03 9.319500000001e+03 9.270450000001e+03 9.221400000001e+03 9.172350000002e+03 9.123300000002e+03 9.074250000002e+03 9.025200000002e+03 8.976150000002e+03 8.927100000002e+03 8.878050000002e+03 8.829000000002e+03 8.779950000002e+03 8.730900000002e+03 8.681850000003e+03 8.632800000003e+03 8.583750000003e+03 8.534700000003e+03 8.485650000003e+03 8.436600000003e+03 8.387550000003e+03 8.338500000003e+03 8.289450000003e+03 8.240400000003e+03 8.191350000003e+03 8.142300000003e+03 8.093250000003e+03 8.044200000004e+03 7.995150000004e+03 7.946100000004e+03 7.897050000004e+03 7.848000000004e+03 7.798950000004e+03 7.749900000004e+03 7.700850000004e+03 7.651800000004e+03 7.602750000004e+03 7.553700000004e+03 7.504650000004e+03 7.455600000004e+03 7.406550000004e+03 7.357500000004e+03 7.308450000004e+03 7.259400000004e+03 7.210350000005e+03 7.161300000005e+03 7.112250000005e+03 7.063200000005e+03 7.014150000005e+03 6.965100000005e+03 6.916050000005e+03 6.867000000005e+03 6.817950000005e+03 6.768900000005e+03 6.719850000005e+03 6.670800000005e+03 6.621750000005e+03 6.572700000005e+03 6.523650000005e+03 6.474600000005e+03 6.425550000005e+03 6.376500000006e+03 6.327450000006e+03 6.278400000006e+03 6.229350000006e+03 6.180300000006e+03 6.131250000006e+03 6.082200000006e+03 6.033150000006e+03 5.984100000006e+03 5.935050000006e+03 5.886000000006e+03 5.836950000006e+03 5.787900000006e+03 5.738850000006e+03 5.689800000006e+03 5.640750000006e+03 5.591700000006e+03 5.542650000006e+03 5.493600000007e+03 5.444550000007e+03 5.395500000007e+03 5.346450000007e+03 5.297400000007e+03 5.248350000007e+03 5.199300000007e+03 5.150250000007e+03 5.101200000007e+03 5.052150000007e+03 5.003100000007e+03 4.954050000007e+03 4.855950000007e+03 4.806900000007e+03 4.757850000007e+03 4.708800000007e+03 4.659750000007e+03 4.610700000007e+03 4.561650000007e+03 4.512600000007e+03 4.463550000007e+03 4.414500000007e+03 4.365450000008e+03 4.316400000008e+03 4.267350000008e+03 4.218300000008e+03 4.169250000008e+03 4.120200000008e+03 4.071150000008e+03 4.022100000008e+03 3.973050000008e+03 3.924000000008e+03 3.874950000008e+03 3.825900000008e+03 3.776850000008e+03 3.727800000008e+03 3.678750000008e+03 3.629700000008e+03 3.580650000008e+03 3.531600000008e+03 3.482550000008e+03 3.433500000008e+03 3.384450000008e+03 3.335400000008e+03 3.286350000008e+03 3.237300000008e+03 3.188250000008e+03 3.139200000008e+03 3.090150000007e+03 3.041100000007e+03 2.992050000007e+03 2.943000000007e+03 2.893950000007e+03 2.844900000007e+03 2.795850000007e+03 2.746800000007e+03 2.697750000007e+03 2.648700000007e+03 2.599650000007e+03 2.550600000007e+03 2.501550000007e+03 2.452500000007e+03 2.403450000007e+03 2.354400000007e+03 2.305350000006e+03 2.256300000006e+03 2.207250000006e+03 2.158200000006e+03 2.109150000006e+03 2.060100000006e+03 2.011050000006e+03 1.962000000006e+03 1.912950000006e+03 1.863900000006e+03 1.814850000005e+03 1.765800000005e+03 1.716750000005e+03 1.667700000005e+03 1.618650000005e+03 1.569600000005e+03 1.520550000005e+03 1.471500000005e+03 1.422450000005e+03 1.373400000004e+03 1.324350000004e+03 1.275300000004e+03 1.226250000004e+03 1.177200000004e+03 1.128150000004e+03 1.079100000004e+03 1.030050000003e+03 9.810000000032e+02 9.319500000031e+02 8.829000000029e+02 8.338500000028e+02 7.848000000026e+02 7.357500000025e+02 6.867000000023e+02 6.376500000021e+02 5.886000000020e+02 5.395500000018e+02 4.905000000017e+02 4.414500000015e+02 3.924000000013e+02 3.433500000012e+02 2.943000000010e+02 2.452500000008e+02 1.962000000007e+02 1.471500000005e+02 9.810000000033e+01 4.905000000017e+01 4.855950000007e+03 4.806900000007e+03 4.757850000007e+03 4.708800000007e+03 4.659750000007e+03 4.610700000007e+03 4.561650000007e+03 4.512600000007e+03 4.463550000007e+03 4.414500000007e+03 4.365450000008e+03 4.316400000008e+03 4.267350000008e+03 4.218300000008e+03 4.169250000008e+03 4.120200000008e+03 4.071150000008e+03 4.022100000008e+03 3.973050000008e+03 3.924000000008e+03 3.874950000008e+03 3.825900000008e+03 3.776850000008e+03 3.727800000008e+03 3.678750000008e+03 3.629700000008e+03 3.580650000008e+03 3.531600000008e+03 3.482550000008e+03 3.433500000008e+03 3.384450000008e+03 3.335400000008e+03 3.286350000008e+03 3.237300000008e+03 3.188250000008e+03 3.139200000008e+03 3.090150000007e+03 3.041100000007e+03 2.992050000007e+03 2.943000000007e+03 2.893950000007e+03 2.844900000007e+03 2.795850000007e+03 2.746800000007e+03 2.697750000007e+03 2.648700000007e+03 2.599650000007e+03 2.550600000007e+03 2.501550000007e+03 2.452500000007e+03 2.403450000007e+03 2.354400000007e+03 2.305350000006e+03 2.256300000006e+03 2.207250000006e+03 2.158200000006e+03 2.109150000006e+03 2.060100000006e+03 2.011050000006e+03 1.962000000006e+03 1.912950000006e+03 1.863900000006e+03 1.814850000005e+03 1.765800000005e+03 1.716750000005e+03 1.667700000005e+03 1.618650000005e+03 1.569600000005e+03 1.520550000005e+03 1.471500000005e+03 1.422450000005e+03 1.373400000004e+03 1.324350000004e+03 1.275300000004e+03 1.226250000004e+03 1.177200000004e+03 1.128150000004e+03 1.079100000004e+03 1.030050000003e+03 9.810000000032e+02 9.319500000031e+02 8.829000000029e+02 8.338500000028e+02 7.848000000026e+02 7.357500000025e+02 6.867000000023e+02 6.376500000021e+02 5.886000000020e+02 5.395500000018e+02 4.905000000017e+02 4.414500000015e+02 3.924000000013e+02 3.433500000012e+02 2.943000000010e+02 2.452500000008e+02 1.962000000007e+02 1.471500000005e+02 9.810000000033e+01 4.905000000017e+01 
        </DataArray>
        <DataArray type="Float64" Name="GL_NODAL_VELOCITY1" NumberOfComponents="3" format="ascii">
          9.809999999974e-08 -8.278985066645e-22 0.000000000000e+00 9.810000000033e-08 1.059409745593e-21 0.000000000000e+00 9.810000000033e-08 1.062334544141e-21 0.000000000000e+00 9.809999999974e-08 3.409716640592e-22 0.000000000000e+00 9.809999999991e-08 -1.102658773426e-21 0.000000000000e+00 9.809999999991e-08 3.064610544813e-22 0.000000000000e+00 9.809999999973e-08 -1.500724204174e-21 0.000000000000e+00 9.809999999974e-08 1.242915370912e-20 0.000000000000e+00 9.809999999974e-08 -3.471630303543e-20 0.000000000000e+00 9.809999999975e-08 2.937799407809e-20 0.000000000000e+00 9.809999999977e-08 -6.741379036338e-21 0.000000000000e+00 9.809999999978e-08 2.710794376806e-20 0.000000000000e+00 9.809999999976e-08 8.996296091042e-21 0.000000000000e+00 9.809999999977e-08 -1.350199604845e-20 0.000000000000e+00 9.809999999979e-08 -3.785350592976e-21 0.000000000000e+00 9.809999999978e-08 1.269204748788e-20 0.000000000000e+00 9.809999999978e-08 -9.650523952811e-21 0.000000000000e+00 9.809999999977e-08 2.921044739287e-21 0.000000000000e+00 9.809999999981e-08 2.432031931160e-20 0.000000000000e+00 9.809999999981e-08 -2.954476015315e-22 0.000000000000e+00 9.809999999978e-08 -2.650349963734e-20 0.000000000000e+00 9.809999999979e-08 -1.034287255378e-20 0.000000000000e+00 9.809999999981e-08 -2.867683996718e-20 0.000000000000e+00 9.809999999979e-08 1.290777894763e-21 0.000000000000e+00 9.809999999980e-08 1.639666639772e-20 0.000000000000e+00 9.809999999982e-08 1.448735028754e-20 0.000000000000e+00 9.809999999982e-08 4.537184387630e-21 0.000000000000e+00 9.809999999983e-08 -1.603953602779e-20 0.000000000000e+00 9.809999999981e-08 -1.475581223478e-20 0.000000000000e+00 9.809999999982e-08 3.606287344627e-20 0.000000000000e+00 9.809999999983e-08 3.733336629939e-21 0.000000000000e+00 9.809999999982e-08 -1.271099249462e-20 0.000000000000e+00 9.809999999985e-08 -2.088361300332e-20 0.000000000000e+00 9.809999999986e-08 -3.046007500514e-21 0.000000000000e+00 9.809999999983e-08 -4.294450902420e-21 0.000000000000e+00 9.809999999985e-08 2.291380246222e-20 0.000000000000e+00 9.809999999987e-08 4.133688608045e-21 0.000000000000e+00 9.809999999985e-08 -1.007702770386e-20 0.000000000000e+00 9.809999999985e-08 8.043663935705e-21 0.000000000000e+00 9.809999999987e-08 1.973620426030e-20 0.000000000000e+00 9.809999999985e-08 -1.418500654365e-20 0.000000000000e+00 9.809999999986e-08 -3.609091800816e-21 0.000000000000e+00 9.809999999987e-08 -3.981122916250e-21 0.000000000000e+00 9.809999999987e-08 -5.718685029008e-22 0.000000000000e+00 9.809999999989e-08 4.372698963882e-21 0.000000000000e+00 9.809999999988e-08 -1.027335831138e-20 0.000000000000e+00 9.809999999987e-08 9.314586226513e-21 0.000000000000e+00 9.809999999988e-08 -7.837409775300e-21 0.000000000000e+00 9.809999999988e-08 -3.832539241070e-21 0.000000000000e+00 9.809999999988e-08 8.908627340391e-21 0.000000000000e+00 9.809999999988e-08 -1.018774071448e-20 0.000000000000e+00 9.809999999988e-08 7.801158194306e-21 0.000000000000e+00 9.809999999988e-08 1.343187172764e-20 0.000000000000e+00 9.809999999988e-08 -1.426519926483e-20 0.000000000000e+00 9.809999999988e-08 1.181555897287e-20 0.000000000000e+00 9.809999999988e-08 -7.164186096639e-21 0.000000000000e+00 9.809999999988e-08 1.474180101902e-20 0.000000000000e+00 9.809999999988e-08 -1.576611185219e-21 0.000000000000e+00 9.809999999987e-08 1.397792959959e-20 0.000000000000e+00 9.809999999988e-08 1.018001748232e-20 0.000000000000e+00 9.809999999988e-08 2.342721151565e-21 0.000000000000e+00 9.809999999988e-08 -6.617106030697e-21 0.000000000000e+00 9.809999999988e-08 1.637336627038e-20 0.000000000000e+00 9.809999999989e-08 -6.773906627321e-21 0.000000000000e+00 9.809999999988e-08 -5.928885491786e-21 0.000000000000e+00 9.809999999987e-08 -1.012346512066e-20 0.000000000000e+00 9.809999999987e-08 -3.917811744313e-21 0.000000000000e+00 9.809999999988e-08 1.550048343984e-21 0.000000000000e+00 9.809999999989e-08 -8.312528297135e-21 0.000000000000e+00 9.809999999988e-08 -1.646894369907e-21 0.000000000000e+00 9.809999999989e-08 2.283947074103e-21 0.000000000000e+00 9.809999999990e-08 -1.334670169110e-21 0.000000000000e+00 9.809999999989e-08 1.441731407857e-21 0.000000000000e+00 9.809999999989e-08 -9.985946095001e-21 0.000000000000e+00 9.809999999988e-08 -2.554654185783e-20 0.000000000000e+00 9.809999999988e-08 5.207734155881e-21 0.000000000000e+00 9.809999999990e-08 3.018230617352e-21 0.000000000000e+00 9.809999999990e-08 -2.128362164542e-21 0.000000000000e+00 9.809999999988e-08 -7.359168678260e-21 0.000000000000e+00 9.809999999989e-08 4.684975692057e-21 0.000000000000e+00 9.809999999990e-08 3.726892617699e-21 0.000000000000e+00 9.809999999989e-08 6.945062249073e-21 0.000000000000e+00 9.809999999989e-08 7.348840480075e-21 0.000000000000e+00 9.809999999990e-08 -3.084366865617e-22 0.000000000000e+00 9.809999999989e-08 5.821122505313e-21 0.000000000000e+00 9.809999999989e-08 -8.940452700890e-21 0.000000000000e+00 9.809999999990e-08 9.194998535417e-21 0.000000000000e+00 9.809999999990e-08 -9.019528143973e-21 0.000000000000e+00 9.809999999988e-08 -7.079267549724e-21 0.000000000000e+00 9.809999999989e-08 9.125272497085e-22 0.000000000000e+00 9.809999999990e-08 -3.553900180281e-21 0.000000000000e+00 9.809999999989e-08 1.907833352883e-21 0.000000000000e+00 9.809999999989e-08 1.666825653158e-20 0.000000000000e+00 9.809999999990e-08 -1.028327574457e-21 0.000000000000e+00 9.809999999988e-08 -3.904291387674e-21 0.000000000000e+00 9.809999999989e-08 -9.053354145648e-21 0.000000000000e+00 9.809999999990e-08 6.155326380064e-21 0.000000000000e+00 9.809999999989e-08 -9.011717839513e-21 0.000000000000e+00 9.809999999990e-08 1.107153168118e-20 0.000000000000e+00 9.809999999991e-08 -4.980815722683e-22 0.000000000000e+00 9.809999999991e-08 4.321120531248e-21 0.000000000000e+00 9.809999999990e-08 -1.410633536805e-20 0.000000000000e+00 9.809999999990e-08 3.639708851478e-21 0.000000000000e+00 9.809999999991e-08 5.999508740056e-21 0.000000000000e+00 9.809999999991e-08 -1.454016599254e-20 0.000000000000e+00 9.809999999974e-08 -1.009506850689e-21 0.000000000000e+00 9.809999999973e-08 1.382174643635e-20 0.000000000000e+00 9.809999999974e-08 -3.202301169457e-20 0.000000000000e+00 9.809999999976e-08 2.248303085061e-20 0.000000000000e+00 9.809999999977e-08 1.887457954155e-22 0.000000000000e+00 9.809999999978e-08 1.822358699134e-20 0.000000000000e+00 9.809999999975e-08 1.570151010700e-20 0.000000000000e+00 9.809999999976e-08 -1.774038439169e-20 0.000000000000e+00 9.809999999980e-08 -4.793285011574e-21 0.000000000000e+00 9.809999999977e-08 1.493202684000e-20 0.000000000000e+00 9.809999999978e-08 -1.672404113217e-20 0.000000000000e+00 9.809999999979e-08 4.616319426126e-21 0.000000000000e+00 9.809999999980e-08 2.695035015468e-20 0.000000000000e+00 9.809999999979e-08 -1.329018140194e-21 0.000000000000e+00 9.809999999978e-08 -2.132160332236e-20 0.000000000000e+00 9.809999999979e-08 -1.216978604392e-20 0.000000000000e+00 9.809999999981e-08 -2.364767837156e-20 0.000000000000e+00 9.809999999980e-08 2.476185344362e-21 0.000000000000e+00 9.809999999981e-08 1.200089462408e-20 0.000000000000e+00 9.809999999982e-08 1.937563888943e-20 0.000000000000e+00 9.809999999981e-08 3.033244944506e-21 0.000000000000e+00 9.809999999982e-08 -1.598409293106e-20 0.000000000000e+00 9.809999999983e-08 -1.601970710401e-20 0.000000000000e+00 9.809999999983e-08 3.678979478200e-20 0.000000000000e+00 9.809999999981e-08 2.774451703460e-21 0.000000000000e+00 9.809999999981e-08 -1.646631884740e-20 0.000000000000e+00 9.809999999986e-08 -2.253229588045e-20 0.000000000000e+00 9.809999999986e-08 -6.319204360397e-22 0.000000000000e+00 9.809999999984e-08 -4.053471214804e-21 0.000000000000e+00 9.809999999985e-08 2.184363055630e-20 0.000000000000e+00 9.809999999986e-08 3.535394849500e-21 0.000000000000e+00 9.809999999986e-08 -8.653508154326e-21 0.000000000000e+00 9.809999999986e-08 5.389716664355e-21 0.000000000000e+00 9.809999999986e-08 1.507402571651e-20 0.000000000000e+00 9.809999999985e-08 -8.761731316342e-21 0.000000000000e+00 9.809999999987e-08 -7.723588901255e-21 0.000000000000e+00 9.809999999987e-08 -3.480554842667e-21 0.000000000000e+00 9.809999999987e-08 -2.933863630090e-21 0.000000000000e+00 9.809999999989e-08 6.337052667881e-21 0.000000000000e+00 9.809999999988e-08 -8.078479845279e-21 0.000000000000e+00 9.809999999987e-08 6.864031479584e-21 0.000000000000e+00 9.809999999987e-08 -5.485974865841e-21 0.000000000000e+00 9.809999999988e-08 -2.866642586170e-21 0.000000000000e+00 9.809999999987e-08 8.120737810291e-21 0.000000000000e+00 9.809999999988e-08 -1.013868677121e-20 0.000000000000e+00 9.809999999989e-08 8.988401992335e-21 0.000000000000e+00 9.809999999988e-08 1.330162278889e-20 0.000000000000e+00 9.809999999988e-08 -1.391153361255e-20 0.000000000000e+00 9.809999999988e-08 1.301765022388e-20 0.000000000000e+00 9.809999999988e-08 -1.078517927174e-20 0.000000000000e+00 9.809999999988e-08 1.363322135185e-20 0.000000000000e+00 9.809999999987e-08 -2.216621940585e-21 0.000000000000e+00 9.809999999988e-08 1.490693009946e-20 0.000000000000e+00 9.809999999987e-08 1.065511260791e-20 0.000000000000e+00 9.809999999988e-08 2.334853218751e-21 0.000000000000e+00 9.809999999988e-08 -5.527136569362e-21 0.000000000000e+00 9.809999999988e-08 1.546077334485e-20 0.000000000000e+00 9.809999999988e-08 -5.330198213477e-21 0.000000000000e+00 9.809999999988e-08 -7.016701086552e-21 0.000000000000e+00 9.809999999987e-08 -9.158958414330e-21 0.000000000000e+00 9.809999999988e-08 -3.241161362370e-21 0.000000000000e+00 9.809999999988e-08 8.344564385319e-22 0.000000000000e+00 9.809999999989e-08 -3.841311024786e-21 0.000000000000e+00 9.809999999988e-08 -4.321485680086e-21 0.000000000000e+00 9.809999999989e-08 3.999651981605e-21 0.000000000000e+00 9.809999999990e-08 -1.800585732449e-21 0.000000000000e+00 9.809999999989e-08 5.110996621353e-21 0.000000000000e+00 9.809999999988e-08 -8.868607454423e-21 0.000000000000e+00 9.809999999989e-08 -2.262989274687e-20 0.000000000000e+00 9.809999999989e-08 3.441844830656e-21 0.000000000000e+00 9.809999999989e-08 5.989791048428e-22 0.000000000000e+00 9.809999999990e-08 -1.358255704135e-23 0.000000000000e+00 9.809999999988e-08 -9.125820551302e-21 0.000000000000e+00 9.809999999989e-08 2.787748104788e-21 0.000000000000e+00 9.809999999990e-08 3.612891187313e-21 0.000000000000e+00 9.809999999989e-08 5.642984431015e-21 0.000000000000e+00 9.809999999989e-08 2.271011341062e-21 0.000000000000e+00 9.809999999990e-08 1.622212306915e-22 0.000000000000e+00 9.809999999989e-08 1.162938353037e-20 0.000000000000e+00 9.809999999989e-08 -7.302649472184e-21 0.000000000000e+00 9.809999999990e-08 8.508697399886e-21 0.000000000000e+00 9.809999999989e-08 -8.090797842863e-21 0.000000000000e+00 9.809999999989e-08 -2.879156245538e-21 0.000000000000e+00 9.809999999989e-08 -1.547721341028e-21 0.000000000000e+00 9.809999999989e-08 -1.761888511735e-21 0.000000000000e+00 9.809999999989e-08 2.500608634677e-21 0.000000000000e+00 9.809999999989e-08 1.831195163598e-20 0.000000000000e+00 9.809999999989e-08 -5.055851189207e-22 0.000000000000e+00 9.809999999988e-08 -5.755466059433e-21 0.000000000000e+00 9.809999999990e-08 -4.836573847790e-21 0.000000000000e+00 9.809999999990e-08 2.298873504342e-21 0.000000000000e+00 9.809999999989e-08 -6.267225842737e-21 0.000000000000e+00 9.809999999991e-08 1.073951503764e-20 0.000000000000e+00 9.809999999991e-08 2.559712938450e-21 0.000000000000e+00 9.809999999990e-08 2.367978817262e-21 0.000000000000e+00 9.809999999990e-08 -1.518814942500e-20 0.000000000000e+00 9.809999999991e-08 9.046652970394e-22 0.000000000000e+00 9.809999999991e-08 1.173823308180e-20 0.000000000000e+00 9.809999999991e-08 -1.858284856538e-20 0.000000000000e+00 9.809999999992e-08 -4.991114563495e-21 0.000000000000e+00 9.809999999993e-08 -8.597234099969e-21 0.000000000000e+00 9.809999999992e-08 -2.945126619742e-21 0.000000000000e+00 9.809999999992e-08 4.342017223983e-21 0.000000000000e+00 9.809999999993e-08 -4.129506733578e-21 0.000000000000e+00 9.809999999993e-08 -4.291501924377e-21 0.000000000000e+00 9.809999999993e-08 4.401177600305e-21