 TITLE = "Time curves in points"
 VARIABLES = "TIME"  "PRESSURE1" 
 ZONE T="POINT=POINTOBS2"
0.000000000000e+00 0.000000000000e+00 
8.640000000000e-01 4.442064674393e+03 
1.728000000000e+00 4.859077271654e+03 
2.592000000000e+00 4.895466417180e+03 
3.456000000000e+00 4.892383283977e+03 
4.320000000000e+00 4.880010333074e+03 
5.184000000000e+00 4.859417365817e+03 
6.048000000000e+00 4.829323899105e+03 
6.912000000000e+00 4.788733221250e+03 
7.776000000000e+00 4.737145010607e+03 
8.640000000000e+00 4.674537214012e+03 
1.641600000000e+01 3.637423118225e+03 
2.419200000000e+01 2.417435993479e+03 
3.196800000000e+01 1.165019460511e+03 
3.974400000000e+01 -5.140408689357e+01 
4.752000000000e+01 -1.204684029758e+03 
5.529600000000e+01 -2.286812829937e+03 
6.307200000000e+01 -3.298539808257e+03 
7.084800000000e+01 -4.244165524448e+03 
7.862400000000e+01 -5.129208669791e+03 
8.640000000000e+01 -5.959388711864e+03 
1.641600000000e+02 -1.149117680032e+04 
2.419200000000e+02 -1.549810501373e+04 
3.196800000000e+02 -1.858725517538e+04 
3.974400000000e+02 -2.108002016182e+04 
4.752000000000e+02 -2.316058657561e+04 
5.529600000000e+02 -2.494171818836e+04 
6.307200000000e+02 -2.649660702015e+04 
7.084800000000e+02 -2.787528888658e+04 
7.862400000000e+02 -2.911281706412e+04 
8.640000000000e+02 -3.023498959510e+04 
1.641600000000e+03 -3.695239913950e+04 
2.419200000000e+03 -4.153391171921e+04 
3.196800000000e+03 -4.494393588850e+04 
3.974400000000e+03 -4.763608549897e+04 
4.752000000000e+03 -4.984924302309e+04 
5.529600000000e+03 -5.172499910679e+04 
6.307200000000e+03 -5.334796105279e+04 
7.084800000000e+03 -5.478135698946e+04 
7.862400000000e+03 -5.606086170228e+04 
8.640000000000e+03 -5.721717849804e+04 
1.641600000000e+04 -6.407169203610e+04 
2.419200000000e+04 -6.871032804615e+04 
3.196800000000e+04 -7.215475319725e+04 
3.974400000000e+04 -7.486758045800e+04 
4.752000000000e+04 -7.709200254913e+04 
5.529600000000e+04 -7.897804826201e+04 
6.307200000000e+04 -8.060627529780e+04 
7.084800000000e+04 -8.203691973720e+04 
7.862400000000e+04 -8.331957251054e+04 
8.640000000000e+04 -8.448416291838e+04 
1.641600000000e+05 -9.122850018941e+04 
2.419200000000e+05 -9.556301398485e+04 
3.196800000000e+05 -9.848900317023e+04 
3.974400000000e+05 -1.005175770814e+05 
4.752000000000e+05 -1.019343117551e+05 
5.529600000000e+05 -1.029178960434e+05 
6.307200000000e+05 -1.036312667056e+05 
7.084800000000e+05 -1.040908902290e+05 
7.862400000000e+05 -1.044709042653e+05 
8.640000000000e+05 -1.047201045055e+05 
