 TITLE = "Time curves in points"
 VARIABLES = "TIME"  "PRESSURE1" 
 ZONE T="POINT=POINTOBS2"
0.000000000000e+00 0.000000000000e+00 
8.640000000000e-01 4.442064674393e+03 
1.728000000000e+00 4.859077271654e+03 
2.592000000000e+00 4.895466417180e+03 
3.456000000000e+00 4.892383283977e+03 
4.320000000000e+00 4.880010333074e+03 
5.184000000000e+00 4.859417365817e+03 
6.048000000000e+00 4.829323899105e+03 
6.912000000000e+00 4.788733221250e+03 
7.776000000000e+00 4.737145010607e+03 
8.640000000000e+00 4.674537214012e+03 
1.641600000000e+01 3.637423118225e+03 
2.419200000000e+01 2.417435993479e+03 
3.196800000000e+01 1.165019460511e+03 
3.974400000000e+01 -5.140408689356e+01 
4.752000000000e+01 -1.204684029758e+03 
5.529600000000e+01 -2.286812829937e+03 
6.307200000000e+01 -3.298539808257e+03 
7.084800000000e+01 -4.244165524448e+03 
7.862400000000e+01 -5.129208669791e+03 
8.640000000000e+01 -5.959388711864e+03 
1.641600000000e+02 -1.149117680032e+04 
2.419200000000e+02 -1.549810501373e+04 
3.196800000000e+02 -1.858725517538e+04 
3.974400000000e+02 -2.108002016181e+04 
4.752000000000e+02 -2.316058657561e+04 
5.529600000000e+02 -2.494171818836e+04 
6.307200000000e+02 -2.649660702015e+04 
7.084800000000e+02 -2.787528888658e+04 
7.862400000000e+02 -2.911281706412e+04 
8.640000000000e+02 -3.023498959510e+04 
1.641600000000e+03 -3.695239913950e+04 
2.419200000000e+03 -4.153391206138e+04 
3.196800000000e+03 -4.494462752963e+04 
3.974400000000e+03 -4.763579231911e+04 
4.752000000000e+03 -4.984975624671e+04 
5.529600000000e+03 -5.172351191548e+04 
6.307200000000e+03 -5.334868433146e+04 
7.084800000000e+03 -5.478113332663e+04 
7.862400000000e+03 -5.606091354431e+04 
8.640000000000e+03 -5.721762064829e+04 
1.641600000000e+04 -6.407134805155e+04 
2.419200000000e+04 -6.870820790343e+04 
3.196800000000e+04 -7.215106626578e+04 
3.974400000000e+04 -7.486639561467e+04 
4.752000000000e+04 -7.708976578951e+04 
5.529600000000e+04 -7.897072464487e+04 
6.307200000000e+04 -8.060512421263e+04 
7.084800000000e+04 -8.204591763714e+04 
7.862400000000e+04 -8.332775774146e+04 
8.640000000000e+04 -8.448483303717e+04 
1.641600000000e+05 -9.122935600463e+04 
2.419200000000e+05 -9.555727538379e+04 
3.196800000000e+05 -9.849311290451e+04 
3.974400000000e+05 -1.005191074111e+05 
4.752000000000e+05 -1.019354737680e+05 
5.529600000000e+05 -1.029300865203e+05 
6.307200000000e+05 -1.036268991117e+05 
7.084800000000e+05 -1.041296524353e+05 
7.862400000000e+05 -1.044806190337e+05 
8.640000000000e+05 -1.046959264575e+05 
