 TITLE = "Time curves in points"
 VARIABLES = "TIME"  "PRESSURE1" 
 ZONE T="POINT=POINTOBS1"
0.000000000000e+00 0.000000000000e+00 
8.640000000000e-01 -4.442369223886e+03 
1.728000000000e+00 -4.861202617477e+03 
2.592000000000e+00 -4.903449753820e+03 
3.456000000000e+00 -4.913930949386e+03 
4.320000000000e+00 -4.926999896221e+03 
5.184000000000e+00 -4.947658339174e+03 
6.048000000000e+00 -4.977757965855e+03 
6.912000000000e+00 -5.018349704395e+03 
7.776000000000e+00 -5.069937956394e+03 
8.640000000000e+00 -5.132545670632e+03 
1.641600000000e+01 -6.169659819818e+03 
2.419200000000e+01 -7.389647188517e+03 
3.196800000000e+01 -8.642063383142e+03 
3.974400000000e+01 -9.858487489968e+03 
4.752000000000e+01 -1.101176572447e+04 
5.529600000000e+01 -1.209389529120e+04 
6.307200000000e+01 -1.310562280328e+04 
7.084800000000e+01 -1.405124801228e+04 
7.862400000000e+01 -1.493628978763e+04 
8.640000000000e+01 -1.576647178446e+04 
1.641600000000e+02 -2.129825939080e+04 
2.419200000000e+02 -2.530518704572e+04 
3.196800000000e+02 -2.839433658930e+04 
3.974400000000e+02 -3.088710260779e+04 
4.752000000000e+02 -3.296766966706e+04 
5.529600000000e+02 -3.474880072063e+04 
6.307200000000e+02 -3.630369062030e+04 
7.084800000000e+02 -3.768237066478e+04 
7.862400000000e+02 -3.891990002445e+04 
8.640000000000e+02 -4.004207300826e+04 
1.641600000000e+03 -4.675948122792e+04 
2.419200000000e+03 -5.134099506976e+04 
3.196800000000e+03 -5.475170962124e+04 
3.974400000000e+03 -5.744287458871e+04 
4.752000000000e+03 -5.965683646374e+04 
5.529600000000e+03 -6.153059550371e+04 
6.307200000000e+03 -6.315576886430e+04 
7.084800000000e+03 -6.458821706120e+04 
7.862400000000e+03 -6.586799656655e+04 
8.640000000000e+03 -6.702470500326e+04 
1.641600000000e+04 -7.387843005070e+04 
2.419200000000e+04 -7.851529466935e+04 
3.196800000000e+04 -8.195815002533e+04 
3.974400000000e+04 -8.467347721938e+04 
4.752000000000e+04 -8.689684850233e+04 
5.529600000000e+04 -8.877780904897e+04 
6.307200000000e+04 -9.041221184940e+04 
7.084800000000e+04 -9.185300011550e+04 
7.862400000000e+04 -9.313484156062e+04 
8.640000000000e+04 -9.429191772534e+04 
1.641600000000e+05 -1.010364403877e+05 
2.419200000000e+05 -1.053643585994e+05 
3.196800000000e+05 -1.083001953411e+05 
3.974400000000e+05 -1.103261892945e+05 
4.752000000000e+05 -1.117425572831e+05 
5.529600000000e+05 -1.127371692057e+05 
6.307200000000e+05 -1.134339938401e+05 
7.084800000000e+05 -1.139367341148e+05 
7.862400000000e+05 -1.142876999580e+05 
8.640000000000e+05 -1.145030119456e+05 
