 TITLE = "Time curves in points"
 VARIABLES = "TIME"  "PRESSURE1"  "TEMPERATURE1"  "CARBON1"  "WATER1"  "DENSITY1"  "VISCOSITY1"  "SPESIFIC_HEAT_CAPACITY1"  "HEAT_CONDUCTIVITY1" 
 ZONE T="POINT=POINT2"
0.000000000000e+00 6.200000000000e+06 3.181500000000e+02 0.000000000000e+00 1.000000000000e+00 9.928977951554e+02 5.968336575739e-04 1.000000000000e+03 6.000000000000e-01 
3.600000000000e+04 6.200074425026e+06 3.181500000000e+02 2.366468221372e-52 1.000000000000e+00 9.928978269461e+02 5.968336704649e-04 1.000000000000e+03 6.000000000000e-01 
7.200000000000e+04 6.202084592519e+06 3.181500000000e+02 1.669322969472e-50 1.000000000000e+00 9.928986855912e+02 5.968340186435e-04 1.000000000000e+03 6.000000000000e-01 
1.080000000000e+05 6.207841379691e+06 3.181500000000e+02 6.696843766947e-42 1.000000000000e+00 9.929011446050e+02 5.968350157959e-04 1.000000000000e+03 6.000000000000e-01 
1.440000000000e+05 6.215828242676e+06 3.181500000000e+02 1.035080848696e-35 1.000000000000e+00 9.929045561868e+02 5.968363992921e-04 1.000000000000e+03 6.000000000000e-01 
1.800000000000e+05 6.223581659148e+06 3.181500000000e+02 4.339992248017e-33 1.000000000000e+00 9.929078680415e+02 5.968377424224e-04 1.000000000000e+03 6.000000000000e-01 
2.160000000000e+05 6.234456168961e+06 3.181500000000e+02 2.133657316852e-31 1.000000000000e+00 9.929125130465e+02 5.968396263420e-04 1.000000000000e+03 6.000000000000e-01 
2.520000000000e+05 6.253615023302e+06 3.181500000000e+02 8.658443191157e-29 1.000000000000e+00 9.929206966269e+02 5.968429457964e-04 1.000000000000e+03 6.000000000000e-01 
2.880000000000e+05 6.283064704826e+06 3.181500000000e+02 1.715642930390e-23 1.000000000000e+00 9.929332757421e+02 5.968480490813e-04 1.000000000000e+03 6.000000000000e-01 
3.240000000000e+05 6.322918237987e+06 3.181500000000e+02 4.334597562464e-19 1.000000000000e+00 9.929502985088e+02 5.968549568656e-04 1.000000000000e+03 6.000000000000e-01 
3.600000000000e+05 6.372573239085e+06 3.181500000000e+02 1.423706853851e-15 1.000000000000e+00 9.929715074188e+02 5.968635661609e-04 1.000000000000e+03 6.000000000000e-01 
3.960000000000e+05 6.428095281211e+06 3.181500000000e+02 9.436681846201e-13 9.999999999998e-01 9.929952217743e+02 5.968731961351e-04 1.000000000000e+03 6.000000000000e-01 
4.320000000000e+05 6.486772816786e+06 3.181500000000e+02 1.176657194069e-10 9.999999999674e-01 9.930202826601e+02 5.968833751833e-04 1.000000000000e+03 6.000000000000e-01 
4.680000000000e+05 6.546695545721e+06 3.181500000000e+02 5.194278458906e-09 9.999999979752e-01 9.930458481123e+02 5.968936811269e-04 1.000000000000e+03 6.000000000000e-01 
5.040000000000e+05 6.603648510638e+06 3.181500000000e+02 1.111842490546e-07 9.999999453987e-01 9.930696221533e+02 5.969015900990e-04 1.000000000000e+03 6.000000000000e-01 
5.400000000000e+05 6.653511015152e+06 3.181500000000e+02 1.270824660880e-06 9.999992734996e-01 9.930850865353e+02 5.968887163307e-04 1.000000000000e+03 6.000000000000e-01 
5.760000000000e+05 6.681080618470e+06 3.181500000000e+02 8.706626701062e-06 9.999944894101e-01 9.930602437821e+02 5.967560139964e-04 1.000000000000e+03 6.000000000000e-01 
6.120000000000e+05 6.699730003900e+06 3.181500000000e+02 3.408906406603e-05 9.999772379100e-01 9.929448937312e+02 5.962916443559e-04 1.000000000000e+03 6.000000000000e-01 
6.480000000000e+05 6.720244433759e+06 3.181500000000e+02 9.977786228679e-05 9.999306972936e-01 9.926388763970e+02 5.950917892442e-04 1.000000000000e+03 6.000000000000e-01 
6.840000000000e+05 6.751836379826e+06 3.181500000000e+02 2.541689050543e-04 9.998166909372e-01 9.919269819693e+02 5.922992991925e-04 1.000000000000e+03 6.000000000000e-01 
7.200000000000e+05 6.798464996407e+06 3.181500000000e+02 6.251017400620e-04 9.995291995064e-01 9.902521203384e+02 5.857285390137e-04 1.000000000000e+03 6.000000000000e-01 
7.560000000000e+05 6.847550864803e+06 3.181500000000e+02 1.572892643632e-03 9.987520218168e-01 9.860748463982e+02 5.696573587103e-04 1.000000000000e+03 6.000000000000e-01 
7.920000000000e+05 6.893048255028e+06 3.181500000000e+02 3.836915128615e-03 9.967936820648e-01 9.764406798074e+02 5.347766679510e-04 1.000000000000e+03 6.000000000000e-01 
8.280000000000e+05 6.962345500502e+06 3.181500000000e+02 8.680588246791e-03 9.924068504787e-01 9.571872495269e+02 4.733309672511e-04 1.000000000000e+03 6.000000000000e-01 
8.640000000000e+05 7.023416865546e+06 3.181500000000e+02 2.050607564893e-02 9.811723729942e-01 9.143055809939e+02 3.701165480202e-04 1.000000000000e+03 6.000000000000e-01 
9.000000000000e+05 7.094405574073e+06 3.181500000000e+02 4.529539279748e-02 9.567565456688e-01 8.383826894623e+02 2.547067768861e-04 1.000000000000e+03 6.000000000000e-01 
9.360000000000e+05 7.147714049863e+06 3.181500000000e+02 9.865479818716e-02 9.027914425793e-01 7.133599019130e+02 1.526942807846e-04 1.000000000000e+03 6.000000000000e-01 
9.720000000000e+05 7.177078314865e+06 3.181500000000e+02 1.898481352323e-01 8.093930468879e-01 5.694554625049e+02 9.072020974252e-05 1.000000000000e+03 6.000000000000e-01 
1.008000000000e+06 7.144006449574e+06 3.181500000000e+02 3.097052563273e-01 6.862867446594e-01 4.464462662625e+02 5.893870464511e-05 1.000000000000e+03 6.000000000000e-01 
1.044000000000e+06 7.080105973726e+06 3.181500000000e+02 3.891601189606e-01 6.045284026976e-01 3.863630210088e+02 4.762006388224e-05 1.000000000000e+03 6.000000000000e-01 
1.080000000000e+06 7.013249224077e+06 3.181500000000e+02 4.328568128033e-01 5.593879607866e-01 3.565958368736e+02 4.292744597030e-05 1.000000000000e+03 6.000000000000e-01 
1.116000000000e+06 6.954592743835e+06 3.181500000000e+02 4.641924712744e-01 5.268890853679e-01 3.365622303454e+02 4.003856291113e-05 1.000000000000e+03 6.000000000000e-01 
1.152000000000e+06 6.904987826116e+06 3.181500000000e+02 4.903879090204e-01 4.996269579851e-01 3.209938968592e+02 3.789018088093e-05 1.000000000000e+03 6.000000000000e-01 
1.188000000000e+06 6.862411896453e+06 3.181500000000e+02 5.122302609350e-01 4.767965686646e-01 3.087064321496e+02 3.625537397334e-05 1.000000000000e+03 6.000000000000e-01 
1.224000000000e+06 6.825159538857e+06 3.181500000000e+02 5.302847387885e-01 4.578233207134e-01 2.989112062387e+02 3.499593797324e-05 1.000000000000e+03 6.000000000000e-01 
1.260000000000e+06 6.792172265136e+06 3.181500000000e+02 5.453491812652e-01 4.418941378088e-01 2.909441559066e+02 3.400169737069e-05 1.000000000000e+03 6.000000000000e-01 
1.296000000000e+06 6.762731570895e+06 3.181500000000e+02 5.580791739190e-01 4.283409982906e-01 2.843386431981e+02 3.319823082237e-05 1.000000000000e+03 6.000000000000e-01 
1.332000000000e+06 6.736279804940e+06 3.181500000000e+02 5.689352561301e-01 4.166951494786e-01 2.787818173952e+02 3.253753185051e-05 1.000000000000e+03 6.000000000000e-01 
1.368000000000e+06 6.712366133755e+06 3.181500000000e+02 5.782516870916e-01 4.066167766855e-01 2.740545246223e+02 3.198713627879e-05 1.000000000000e+03 6.000000000000e-01 
1.404000000000e+06 6.690625951620e+06 3.181500000000e+02 5.862857909641e-01 3.978445089933e-01 2.699956361827e+02 3.152385288959e-05 1.000000000000e+03 6.000000000000e-01 
1.440000000000e+06 6.726445124288e+06 3.181500000000e+02 5.932603710387e-01 3.901590346534e-01 2.699616034058e+02 3.125365027164e-05 1.000000000000e+03 6.000000000000e-01 
1.476000000000e+06 6.807841211726e+06 3.181500000000e+02 6.770549564894e-01 3.050134810643e-01 2.495821052388e+02 2.772961293146e-05 1.000000000000e+03 6.000000000000e-01 
1.512000000000e+06 6.894474597630e+06 3.181500000000e+02 7.803637155782e-01 2.027318814818e-01 2.286987458567e+02 2.436646450499e-05 1.000000000000e+03 6.000000000000e-01 
1.548000000000e+06 6.974174072377e+06 3.181500000000e+02 8.607377387681e-01 1.252411355940e-01 2.160468206215e+02 2.231466523221e-05 1.000000000000e+03 6.000000000000e-01 
1.584000000000e+06 7.037275275055e+06 3.181500000000e+02 9.192814614828e-01 7.049126044706e-02 2.083132506634e+02 2.105039549229e-05 1.000000000000e+03 6.000000000000e-01 
1.620000000000e+06 7.088524045192e+06 3.181500000000e+02 9.547184530880e-01 3.834019662333e-02 2.047354198782e+02 2.038238917473e-05 1.000000000000e+03 6.000000000000e-01 
1.656000000000e+06 7.134066459557e+06 3.181500000000e+02 9.760336760661e-01 1.963084919538e-02 2.034876908031e+02 2.003013458073e-05 1.000000000000e+03 6.000000000000e-01 
1.692000000000e+06 7.171145826963e+06 3.181500000000e+02 9.882008497835e-01 9.327210933223e-03 2.034010381551e+02 1.985616658439e-05 1.000000000000e+03 6.000000000000e-01 
1.728000000000e+06 7.199926769516e+06 3.181500000000e+02 9.943538929559e-01 4.301133106554e-03 2.039057665618e+02 1.978828309914e-05 1.000000000000e+03 6.000000000000e-01 
1.764000000000e+06 7.217243036869e+06 3.181500000000e+02 9.973618360615e-01 1.933929022039e-03 2.043300705724e+02 1.976155974138e-05 1.000000000000e+03 6.000000000000e-01 
1.800000000000e+06 7.249199249600e+06 3.181500000000e+02 9.987464756811e-01 8.834648635425e-04 2.058386340541e+02 1.979354475827e-05 1.000000000000e+03 6.000000000000e-01 
1.836000000000e+06 7.269871978181e+06 3.181500000000e+02 9.995089640363e-01 3.315253943064e-04 2.068451594177e+02 1.981732441094e-05 1.000000000000e+03 6.000000000000e-01 
1.872000000000e+06 7.292904026933e+06 3.181500000000e+02 9.997968816231e-01 1.313068707025e-04 2.080735115155e+02 1.985519319949e-05 1.000000000000e+03 6.000000000000e-01 
1.908000000000e+06 7.313943631745e+06 3.181500000000e+02 9.999226457838e-01 4.778827513304e-05 2.092283216301e+02 1.989294084509e-05 1.000000000000e+03 6.000000000000e-01 
1.944000000000e+06 7.301160822189e+06 3.181500000000e+02 9.999717254186e-01 1.666776439890e-05 2.085031343252e+02 1.986751017751e-05 1.000000000000e+03 6.000000000000e-01 
1.980000000000e+06 7.327956154600e+06 3.181500000000e+02 9.999860695573e-01 7.840261498211e-06 2.100056265794e+02 1.991874449221e-05 1.000000000000e+03 6.000000000000e-01 
2.016000000000e+06 7.352719855840e+06 3.181500000000e+02 9.999956277347e-01 2.340365517743e-06 2.114072751655e+02 1.996688624386e-05 1.000000000000e+03 6.000000000000e-01 
2.052000000000e+06 7.378568706907e+06 3.181500000000e+02 9.999986520521e-01 6.854628303299e-07 2.128845961995e+02 2.001802824736e-05 1.000000000000e+03 6.000000000000e-01 
2.088000000000e+06 7.401228844437e+06 3.181500000000e+02 9.999996005197e-01 1.927683782365e-07 2.141910838509e+02 2.006354238773e-05 1.000000000000e+03 6.000000000000e-01 
2.124000000000e+06 7.421532839638e+06 3.181500000000e+02 9.999998852096e-01 5.250187315262e-08 2.153707801042e+02 2.010485934819e-05 1.000000000000e+03 6.000000000000e-01 
2.160000000000e+06 7.371036158926e+06 3.181500000000e+02 9.999999682284e-01 1.375538248573e-08 2.124522974764e+02 2.000300132525e-05 1.000000000000e+03 6.000000000000e-01 
2.196000000000e+06 7.318742420952e+06 3.181500000000e+02 9.999999778152e-01 9.042849766457e-09 2.094839563268e+02 1.990066904862e-05 1.000000000000e+03 6.000000000000e-01 
2.232000000000e+06 7.266451146735e+06 3.181500000000e+02 9.999999815975e-01 7.052254360002e-09 2.065687400674e+02 1.980140946788e-05 1.000000000000e+03 6.000000000000e-01 
2.268000000000e+06 7.218887158846e+06 3.181500000000e+02 9.999999844928e-01 5.584917641014e-09 2.039615036028e+02 1.971367783782e-05 1.000000000000e+03 6.000000000000e-01 
2.304000000000e+06 7.176731106296e+06 3.181500000000e+02 9.999999865527e-01 4.551053175561e-09 2.016849700180e+02 1.963787822312e-05 1.000000000000e+03 6.000000000000e-01 
2.340000000000e+06 7.138970126416e+06 3.181500000000e+02 9.999999879474e-01 3.834195295253e-09 1.996723509533e+02 1.957149011799e-05 1.000000000000e+03 6.000000000000e-01 
2.376000000000e+06 7.104705236048e+06 3.181500000000e+02 9.999999888945e-01 3.322799220504e-09 1.978672556957e+02 1.951244558292e-05 1.000000000000e+03 6.000000000000e-01 
2.412000000000e+06 7.073371050804e+06 3.181500000000e+02 9.999999895374e-01 2.946639596098e-09 1.962338013419e+02 1.945942139959e-05 1.000000000000e+03 6.000000000000e-01 
2.448000000000e+06 7.044566802985e+06 3.181500000000e+02 9.999999899587e-01 2.664554983430e-09 1.947464743529e+02 1.941147617223e-05 1.000000000000e+03 6.000000000000e-01 
2.484000000000e+06 7.017965838871e+06 3.181500000000e+02 9.999999902092e-01 2.450719924327e-09 1.933848077836e+02 1.936786204887e-05 1.000000000000e+03 6.000000000000e-01 
2.520000000000e+06 6.993294783047e+06 3.181500000000e+02 9.999999903225e-01 2.287784775800e-09 1.921319638331e+02 1.932797018534e-05 1.000000000000e+03 6.000000000000e-01 
2.556000000000e+06 6.970326164432e+06 3.181500000000e+02 9.999999903217e-01 2.163719057293e-09 1.909741162016e+02 1.929130476216e-05 1.000000000000e+03 6.000000000000e-01 
2.592000000000e+06 6.948869927541e+06 3.181500000000e+02 9.999999902225e-01 2.070041829116e-09 1.898998420478e+02 1.925745907741e-05 1.000000000000e+03 6.000000000000e-01 
2.628000000000e+06 6.928765529453e+06 3.181500000000e+02 9.999999900354e-01 2.000677369943e-09 1.888995946198e+02 1.922609554112e-05 1.000000000000e+03 6.000000000000e-01 
2.664000000000e+06 6.909875966917e+06 3.181500000000e+02 9.999999897672e-01 1.951202051971e-09 1.879653097342e+02 1.919693085933e-05 1.000000000000e+03 6.000000000000e-01 
2.700000000000e+06 6.892083383253e+06 3.181500000000e+02 9.999999894221e-01 1.918351069329e-09 1.870901167553e+02 1.916972517088e-05 1.000000000000e+03 6.000000000000e-01 
2.736000000000e+06 6.875285695629e+06 3.181500000000e+02 9.999999890023e-01 1.899690627572e-09 1.862681183185e+02 1.914427380693e-05 1.000000000000e+03 6.000000000000e-01 
2.772000000000e+06 6.859393926972e+06 3.181500000000e+02 9.999999885083e-01 1.893394630943e-09 1.854942179719e+02 1.912040088508e-05 1.000000000000e+03 6.000000000000e-01 
2.808000000000e+06 6.844330073135e+06 3.181500000000e+02 9.999999879394e-01 1.898089204346e-09 1.847639838155e+02 1.909795427302e-05 1.000000000000e+03 6.000000000000e-01 
2.844000000000e+06 6.830025386520e+06 3.181500000000e+02 9.999999872940e-01 1.912742621891e-09 1.840735397655e+02 1.907680159497e-05 1.000000000000e+03 6.000000000000e-01 
2.880000000000e+06 6.816418983076e+06 3.181500000000e+02 9.999999865695e-01 1.936586266968e-09 1.834194780588e+02 1.905682703504e-05 1.000000000000e+03 6.000000000000e-01 
2.916000000000e+06 6.803456701672e+06 3.181500000000e+02 9.999999857625e-01 1.969057123489e-09 1.827987882005e+02 1.903792875469e-05 1.000000000000e+03 6.000000000000e-01 
2.952000000000e+06 6.791090162514e+06 3.181500000000e+02 9.999999848690e-01 2.009755421738e-09 1.822087987787e+02 1.902001678835e-05 1.000000000000e+03 6.000000000000e-01 
2.988000000000e+06 6.779275984311e+06 3.181500000000e+02 9.999999838842e-01 2.058413109648e-09 1.816471294605e+02 1.900301131555e-05 1.000000000000e+03 6.000000000000e-01 
3.024000000000e+06 6.767975129122e+06 3.181500000000e+02 9.999999828028e-01 2.114870162895e-09 1.811116511122e+02 1.898684123214e-05 1.000000000000e+03 6.000000000000e-01 
3.060000000000e+06 6.757152350653e+06 3.181500000000e+02 9.999999816188e-01 2.179056641255e-09 1.806004524553e+02 1.897144296095e-05 1.000000000000e+03 6.000000000000e-01 
3.096000000000e+06 6.746775727025e+06 3.181500000000e+02 9.999999803258e-01 2.250979011003e-09 1.801118120190e+02 1.895675945571e-05 1.000000000000e+03 6.000000000000e-01 
3.132000000000e+06 6.736816262964e+06 3.181500000000e+02 9.999999789167e-01 2.330709668849e-09 1.796441744179e+02 1.894273936205e-05 1.000000000000e+03 6.000000000000e-01 
3.168000000000e+06 6.727247549397e+06 3.181500000000e+02 9.999999773837e-01 2.418378889805e-09 1.791961301803e+02 1.892933630698e-05 1.000000000000e+03 6.000000000000e-01 
3.204000000000e+06 6.718045470782e+06 3.181500000000e+02 9.999999757185e-01 2.514168635207e-09 1.787663985121e+02 1.891650829415e-05 1.000000000000e+03 6.000000000000e-01 
3.240000000000e+06 6.709187952436e+06 3.181500000000e+02 9.999999739123e-01 2.618307800265e-09 1.783538125029e+02 1.890421718674e-05 1.000000000000e+03 6.000000000000e-01 
3.276000000000e+06 6.700654741420e+06 3.181500000000e+02 9.999999719555e-01 2.731068581773e-09 1.779573063707e+02 1.889242826325e-05 1.000000000000e+03 6.000000000000e-01 
3.312000000000e+06 6.692427215837e+06 3.181500000000e+02 9.999999698380e-01 2.852763732151e-09 1.775759044216e+02 1.888110983440e-05 1.000000000000e+03 6.000000000000e-01 
3.348000000000e+06 6.753043123943e+06 3.181500000000e+02 9.999999675890e-01 2.980757779288e-09 1.804067760048e+02 1.896561909865e-05 1.000000000000e+03 6.000000000000e-01 
3.384000000000e+06 6.795656770400e+06 3.181500000000e+02 9.999999888853e-01 9.073102147332e-10 1.824264181440e+02 1.902661777026e-05 1.000000000000e+03 6.000000000000e-01 
3.420000000000e+06 6.858484936027e+06 3.181500000000e+02 9.999999958230e-01 3.036897228020e-10 1.854500604244e+02 1.911904124271e-05 1.000000000000e+03 6.000000000000e-01 
3.456000000000e+06 6.871070423807e+06 3.181500000000e+02 9.999999987102e-01 8.290598806239e-11 1.860624851054e+02 1.913792195717e-05 1.000000000000e+03 6.000000000000e-01 
3.492000000000e+06 6.888858411606e+06 3.181500000000e+02 9.999999993405e-01 3.824454439302e-11 1.869319809718e+02 1.916482113007e-05 1.000000000000e+03 6.000000000000e-01 
3.528000000000e+06 6.906896737499e+06 3.181500000000e+02 9.999999996818e-01 1.657834671827e-11 1.878184382410e+02 1.919235744659e-05 1.000000000000e+03 6.000000000000e-01 
3.564000000000e+06 6.915334407691e+06 3.181500000000e+02 9.999999998622e-01 6.406902734837e-12 1.882347387455e+02 1.920532829583e-05 1.000000000000e+03 6.000000000000e-01 
3.600000000000e+06 6.964678022188e+06 3.181500000000e+02 9.999999999340e-01 2.748482620033e-12 1.906906395101e+02 1.928235732751e-05 1.000000000000e+03 6.000000000000e-01 
3.636000000000e+06 7.007633571804e+06 3.181500000000e+02 9.999999999813e-01 6.843773525878e-13 1.928589475966e+02 1.935109035917e-05 1.000000000000e+03 6.000000000000e-01 
3.672000000000e+06 7.042050034917e+06 3.181500000000e+02 9.999999999950e-01 1.621611343007e-13 1.946171568192e+02 1.940732248816e-05 1.000000000000e+03 6.000000000000e-01 
3.708000000000e+06 7.069024236105e+06 3.181500000000e+02 9.999999999986e-01 4.060041199656e-14 1.960084813848e+02 1.945213733470e-05 1.000000000000e+03 6.000000000000e-01 
3.744000000000e+06 7.089355040307e+06 3.181500000000e+02 9.999999999996e-01 1.062171550769e-14 1.970650095808e+02 1.948635522692e-05 1.000000000000e+03 6.000000000000e-01 
3.780000000000e+06 7.098958663617e+06 3.181500000000e+02 9.999999999999e-01 2.869043188050e-15 1.975664610354e+02 1.950265225431e-05 1.000000000000e+03 6.000000000000e-01 
3.816000000000e+06 7.116671345383e+06 3.181500000000e+02 1.000000000000e+00 8.597329303817e-16 1.984953750475e+02 1.953293772959e-05 1.000000000000e+03 6.000000000000e-01 
3.852000000000e+06 7.129192921825e+06 3.181500000000e+02 1.000000000000e+00 2.290650010981e-16 1.991552458521e+02 1.955452734576e-05 1.000000000000e+03 6.000000000000e-01 
3.888000000000e+06 7.147592802972e+06 3.181500000000e+02 1.000000000000e+00 6.173286213377e-17 2.001297506481e+02 1.958652627708e-05 1.000000000000e+03 6.000000000000e-01 
3.924000000000e+06 7.170767671818e+06 3.181500000000e+02 1.000000000000e+00 1.522206210579e-17 2.013654713176e+02 1.962729997629e-05 1.000000000000e+03 6.000000000000e-01 
3.960000000000e+06 7.191692154948e+06 3.181500000000e+02 1.000000000000e+00 3.378446630659e-18 2.024892774940e+02 1.966457268347e-05 1.000000000000e+03 6.000000000000e-01 
3.996000000000e+06 7.211482884905e+06 3.181500000000e+02 1.000000000000e+00 6.830357147687e-19 2.035593488859e+02 1.970023295677e-05 1.000000000000e+03 6.000000000000e-01 
4.032000000000e+06 7.212485861517e+06 3.181500000000e+02 1.000000000000e+00 6.094846361914e-20 2.036137661152e+02 1.970205084348e-05 1.000000000000e+03 6.000000000000e-01 
4.068000000000e+06 7.224254256939e+06 3.181500000000e+02 1.000000000000e+00 -4.029150018124e-20 2.042536262546e+02 1.972345843036e-05 1.000000000000e+03 6.000000000000e-01 
4.104000000000e+06 7.237931439253e+06 3.181500000000e+02 1.000000000000e+00 -6.341625265824e-20 2.050004307069e+02 1.974851891458e-05 1.000000000000e+03 6.000000000000e-01 
4.140000000000e+06 7.250896421843e+06 3.181500000000e+02 1.000000000000e+00 -6.307342902773e-20 2.057115126493e+02 1.977245564272e-05 1.000000000000e+03 6.000000000000e-01 
4.176000000000e+06 7.264624131160e+06 3.181500000000e+02 1.000000000000e+00 -5.226449861027e-20 2.064678159430e+02 1.979799490694e-05 1.000000000000e+03 6.000000000000e-01 
4.212000000000e+06 7.276276331007e+06 3.181500000000e+02 1.000000000000e+00 -3.873606536916e-20 2.071125315287e+02 1.981983135822e-05 1.000000000000e+03 6.000000000000e-01 
4.248000000000e+06 7.275526831455e+06 3.181500000000e+02 1.000000000000e+00 -2.532553899503e-20 2.070709851022e+02 1.981842237208e-05 1.000000000000e+03 6.000000000000e-01 
4.284000000000e+06 7.270015880773e+06 3.181500000000e+02 1.000000000000e+00 -1.378011726581e-20 2.067658249033e+02 1.980808096552e-05 1.000000000000e+03 6.000000000000e-01 
4.320000000000e+06 7.286103701680e+06 3.181500000000e+02 1.000000000000e+00 -6.787225743301e-21 2.076582644084e+02 1.983836227547e-05 1.000000000000e+03 6.000000000000e-01 
4.356000000000e+06 7.298032727478e+06 3.181500000000e+02 1.000000000000e+00 -3.799528298674e-21 2.083231655261e+02 1.986099790990e-05 1.000000000000e+03 6.000000000000e-01 
4.392000000000e+06 7.302022730260e+06 3.181500000000e+02 1.000000000000e+00 -2.803824542338e-21 2.085461660946e+02 1.986860398044e-05 1.000000000000e+03 6.000000000000e-01 
4.428000000000e+06 7.305267430179e+06 3.181500000000e+02 1.000000000000e+00 -2.540566324835e-21 2.087277365553e+02 1.987480227409e-05 1.000000000000e+03 6.000000000000e-01 
4.464000000000e+06 7.326687463582e+06 3.181500000000e+02 1.000000000000e+00 -2.570437350626e-21 2.099314737417e+02 1.991601506543e-05 1.000000000000e+03 6.000000000000e-01 
4.500000000000e+06 7.340133085710e+06 3.181500000000e+02 1.000000000000e+00 -5.086534750486e-21 2.106916324126e+02 1.994214892893e-05 1.000000000000e+03 6.000000000000e-01 
4.536000000000e+06 7.350965756893e+06 3.181500000000e+02 1.000000000000e+00 -7.962367926823e-21 2.113066500791e+02 1.996335412879e-05 1.000000000000e+03 6.000000000000e-01 
4.572000000000e+06 7.360545222371e+06 3.181500000000e+02 1.000000000000e+00 -1.002338683278e-20 2.118524543392e+02 1.998221877581e-05 1.000000000000e+03 6.000000000000e-01 
4.608000000000e+06 7.354853331582e+06 3.181500000000e+02 1.000000000000e+00 -1.111326946217e-20 2.115279305221e+02 1.997099705295e-05 1.000000000000e+03 6.000000000000e-01 
4.644000000000e+06 7.362322518131e+06 3.181500000000e+02 1.000000000000e+00 -8.575997256341e-21 2.119539193338e+02 1.998573046670e-05 1.000000000000e+03 6.000000000000e-01 
4.680000000000e+06 7.371312917958e+06 3.181500000000e+02 1.000000000000e+00 -7.563787113171e-21 2.124681453844e+02 2.000355068354e-05 1.000000000000e+03 6.000000000000e-01 
4.716000000000e+06 7.362102627835e+06 3.181500000000e+02 1.000000000000e+00 -7.161853211074e-21 2.119413624803e+02 1.998529579475e-05 1.000000000000e+03 6.000000000000e-01 
4.752000000000e+06 7.371733411484e+06 3.181500000000e+02 1.000000000000e+00 -4.946210737189e-21 2.124922361379e+02 2.000438647389e-05 1.000000000000e+03 6.000000000000e-01 
4.788000000000e+06 7.381417475302e+06 3.181500000000e+02 1.000000000000e+00 -4.196831913575e-21 2.130480375070e+02 2.002369244877e-05 1.000000000000e+03 6.000000000000e-01 
4.824000000000e+06 7.381939717658e+06 3.181500000000e+02 1.000000000000e+00 -3.860625064504e-21 2.130780645989e+02 2.002473672478e-05 1.000000000000e+03 6.000000000000e-01 
4.860000000000e+06 7.387918999389e+06 3.181500000000e+02 1.000000000000e+00 -3.068492890597e-21 2.134222462558e+02 2.003671592728e-05 1.000000000000e+03 6.000000000000e-01 
4.896000000000e+06 7.401275156209e+06 3.181500000000e+02 1.000000000000e+00 -2.533504666435e-21 2.141936884296e+02 2.006362818879e-05 1.000000000000e+03 6.000000000000e-01 
4.932000000000e+06 7.391030155816e+06 3.181500000000e+02 1.000000000000e+00 -2.420054009935e-21 2.136016191447e+02 2.004296577842e-05 1.000000000000e+03 6.000000000000e-01 
4.968000000000e+06 7.391662765034e+06 3.181500000000e+02 1.000000000000e+00 -1.640344400519e-21 2.136381161762e+02 2.004423800704e-05 1.000000000000e+03 6.000000000000e-01 
5.004000000000e+06 7.398011376084e+06 3.181500000000e+02 1.000000000000e+00 -1.157792136253e-21 2.140048380635e+02 2.005703205562e-05 1.000000000000e+03 6.000000000000e-01 
5.040000000000e+06 7.400427580591e+06 3.181500000000e+02 1.000000000000e+00 -9.159235294632e-22 2.141446246171e+02 2.006191399982e-05 1.000000000000e+03 6.000000000000e-01 
5.076000000000e+06 7.402581044136e+06 3.181500000000e+02 1.000000000000e+00 -7.142859522954e-22 2.142693115409e+02 2.006627098787e-05 1.000000000000e+03 6.000000000000e-01 
5.112000000000e+06 7.406617588542e+06 3.181500000000e+02 1.000000000000e+00 -5.518784532804e-22 2.145032868408e+02 2.007445296181e-05 1.000000000000e+03 6.000000000000e-01 
5.148000000000e+06 7.408706900137e+06 3.181500000000e+02 1.000000000000e+00 -4.398990431401e-22 2.146245240272e+02 2.007869567051e-05 1.000000000000e+03 6.000000000000e-01 
5.184000000000e+06 7.412610892294e+06 3.181500000000e+02 1.000000000000e+00 -3.456925443359e-22 2.148513037935e+02 2.008663756784e-05 1.000000000000e+03 6.000000000000e-01 
5.220000000000e+06 7.414386823258e+06 3.181500000000e+02 1.000000000000e+00 -2.800718541305e-22 2.149545705018e+02 2.009025646760e-05 1.000000000000e+03 6.000000000000e-01 
5.256000000000e+06 7.416579576956e+06 3.181500000000e+02 1.000000000000e+00 -2.228031050529e-22 2.150821647431e+02 2.009473003928e-05 1.000000000000e+03 6.000000000000e-01 
5.292000000000e+06 7.417238125060e+06 3.181500000000e+02 1.000000000000e+00 -1.780810494933e-22 2.151205045017e+02 2.009607472720e-05 1.000000000000e+03 6.000000000000e-01 
5.328000000000e+06 7.412094317559e+06 3.181500000000e+02 1.000000000000e+00 -1.394166629885e-22 2.148212782979e+02 2.008558563798e-05 1.000000000000e+03 6.000000000000e-01 
5.364000000000e+06 7.367786536653e+06 3.181500000000e+02 1.000000000000e+00 -9.782701917986e-23 2.122662530577e+02 1.999654965320e-05 1.000000000000e+03 6.000000000000e-01 
5.400000000000e+06 7.337944157542e+06 3.181500000000e+02 1.000000000000e+00 -3.975332465269e-23 2.105676382817e+02 1.993788036598e-05 1.000000000000e+03 6.000000000000e-01 
5.436000000000e+06 7.312081244009e+06 3.181500000000e+02 1.000000000000e+00 -1.497996162911e-23 2.091096896750e+02 1.988785663006e-05 1.000000000000e+03 6.000000000000e-01 
5.472000000000e+06 7.288052141193e+06 3.181500000000e+02 1.000000000000e+00 -5.563745379440e-24 2.077666819379e+02 1.984204883444e-05 1.000000000000e+03 6.000000000000e-01 
5.508000000000e+06 7.265659037386e+06 3.181500000000e+02 1.000000000000e+00 -2.052989818094e-24 2.065249744032e+02 1.979992842864e-05 1.000000000000e+03 6.000000000000e-01 
5.544000000000e+06 7.244701582023e+06 3.181500000000e+02 1.000000000000e+00 -7.531598172426e-25 2.053713622195e+02 1.976099623492e-05 1.000000000000e+03 6.000000000000e-01 
5.580000000000e+06 7.224967509101e+06 3.181500000000e+02 1.000000000000e+00 -2.748018838665e-25 2.042924871682e+02 1.972476049453e-05 1.000000000000e+03 6.000000000000e-01 
5.616000000000e+06 7.206302556195e+06 3.181500000000e+02 1.000000000000e+00 -9.975720079990e-26 2.032785744550e+02 1.969086008465e-05 1.000000000000e+03 6.000000000000e-01 
5.652000000000e+06 7.188593660730e+06 3.181500000000e+02 1.000000000000e+00 -3.603909799870e-26 2.023223764016e+02 1.965902561152e-05 1.000000000000e+03 6.000000000000e-01 
5.688000000000e+06 7.171747986944e+06 3.181500000000e+02 1.000000000000e+00 -1.295942559910e-26 2.014179496912e+02 1.962903643456e-05 1.000000000000e+03 6.000000000000e-01 
5.724000000000e+06 7.155685892139e+06 3.181500000000e+02 1.000000000000e+00 -4.639173828164e-27 2.005602267442e+02 1.960070515560e-05 1.000000000000e+03 6.000000000000e-01 
5.760000000000e+06 7.140338869041e+06 3.181500000000e+02 1.000000000000e+00 -1.653457787233e-27 1.997448702199e+02 1.957387190118e-05 1.000000000000e+03 6.000000000000e-01 
5.796000000000e+06 7.125647758630e+06 3.181500000000e+02 1.000000000000e+00 -5.868157632376e-28 1.989681501166e+02 1.954839956374e-05 1.000000000000e+03 6.000000000000e-01 
5.832000000000e+06 7.111561002362e+06 3.181500000000e+02 1.000000000000e+00 -2.074227136605e-28 1.982268294356e+02 1.952416949187e-05 1.000000000000e+03 6.000000000000e-01 
5.868000000000e+06 7.098033259943e+06 3.181500000000e+02 1.000000000000e+00 -7.305570312684e-29 1.975180743086e+02 1.950107811515e-05 1.000000000000e+03 6.000000000000e-01 
5.904000000000e+06 7.085024373881e+06 3.181500000000e+02 1.000000000000e+00 -2.566979285892e-29 1.968393861991e+02 1.947903438891e-05 1.000000000000e+03 6.000000000000e-01 
5.940000000000e+06 7.072498563922e+06 3.181500000000e+02 1.000000000000e+00 -9.029500366694e-30 1.961885489905e+02 1.945795779738e-05 1.000000000000e+03 6.000000000000e-01 
5.976000000000e+06 7.060423778643e+06 3.181500000000e+02 1.000000000000e+00 -3.211357638173e-30 1.955635864493e+02 1.943777675000e-05 1.000000000000e+03 6.000000000000e-01 
6.012000000000e+06 7.048771166948e+06 3.181500000000e+02 1.000000000000e+00 -1.186730991649e-30 1.949627276119e+02 1.941842727820e-05 1.000000000000e+03 6.000000000000e-01 
6.048000000000e+06 7.037514644199e+06 3.181500000000e+02 1.000000000000e+00 -4.864588912273e-31 1.943843784071e+02 1.939985196798e-05 1.000000000000e+03 6.000000000000e-01 
6.084000000000e+06 7.026630532974e+06 3.181500000000e+02 1.000000000000e+00 -2.467295344086e-31 1.938270981906e+02 1.938199907833e-05 1.000000000000e+03 6.000000000000e-01 
6.120000000000e+06 7.016097262883e+06 3.181500000000e+02 1.000000000000e+00 -1.665871044156e-31 1.932895801698e+02 1.936482180665e-05 1.000000000000e+03 6.000000000000e-01 
6.156000000000e+06 7.005895117638e+06 3.181500000000e+02 1.000000000000e+00 -1.415959837207e-31 1.927706349418e+02 1.934827767185e-05 1.000000000000e+03 6.000000000000e-01 