 TITLE = "Time curves in points"
 VARIABLES = "TIME"  "PRESSURE1"  "PRESSURE2"  "PRESSURE_W"  "SATURATION1" SATURATION2  "VELOCITY_X1"  "VELOCITY_Y1"  "VELOCITY_X2"  "VELOCITY_Y2" 
 ZONE T="POINT=POINT0"
0.000000000000e+00 0.000000000000e+00 1.013250000000e+05 1.013250000000e+05 1.000000000000e+00 4.440892098501e-16 0.000000000000e+00 0.000000000000e+00 0.000000000000e+00 0.000000000000e+00 
1.000000000000e-03 0.000000000000e+00 1.013250000000e+05 1.013250000000e+05 1.000000000000e+00 1.332267629550e-14 -2.683298907189e-14 -7.734308138192e-15 -3.367019089162e-19 -9.149305580192e-20 
2.000000000000e-03 0.000000000000e+00 1.013250000000e+05 1.013250000000e+05 9.999999999999e-01 7.138734048340e-14 -1.220765960688e-13 -3.451831034015e-14 -1.660830065437e-18 -4.373052594946e-19 
3.000000000000e-03 0.000000000000e+00 1.013250000000e+05 1.013250000000e+05 9.999999999998e-01 2.040589919261e-13 -2.828313609600e-13 -7.935436713605e-14 -4.302804512799e-18 -1.110139932966e-18 
4.000000000000e-03 0.000000000000e+00 1.013250000000e+05 1.013250000000e+05 9.999999999996e-01 4.393152508442e-13 -5.057067708205e-13 -1.412567599129e-13 -8.568789597448e-18 -2.176839904689e-18 
5.000000000000e-03 0.000000000000e+00 1.013250000000e+05 1.013250000000e+05 9.999999999992e-01 8.026912468040e-13 -7.742749218153e-13 -2.172884642531e-13 -1.464398607152e-17 -3.698343829203e-18 
6.000000000000e-03 0.000000000000e+00 1.013250000000e+05 1.013250000000e+05 9.999999999987e-01 1.319833131674e-12 -1.100261328606e-12 -3.088745864655e-13 -2.290102067926e-17 -5.746200984513e-18 
7.000000000000e-03 0.000000000000e+00 1.013250000000e+05 1.013250000000e+05 9.999999999980e-01 2.015165811997e-12 -1.482235646209e-12 -4.154856757491e-13 -3.360902982850e-17 -8.372939198195e-18 
8.000000000000e-03 0.000000000000e+00 1.013250000000e+05 1.013250000000e+05 9.999999999971e-01 2.910560681357e-12 -1.907318156472e-12 -5.347664081480e-13 -4.693361198695e-17 -1.162433038636e-17 
9.000000000000e-03 0.000000000000e+00 1.013250000000e+05 1.013250000000e+05 9.999999999960e-01 4.027889133340e-12 -2.375569304212e-12 -6.663624264184e-13 -6.311523118391e-17 -1.555280048296e-17 
1.000000000000e-02 0.000000000000e+00 1.013250000000e+05 1.013250000000e+05 9.999999999946e-01 5.385691892457e-12 -2.879338166951e-12 -8.088964837853e-13 -8.232059779601e-17 -2.020464010637e-17 
2.000000000000e-02 0.000000000000e+00 1.013250000000e+05 1.013250000000e+05 9.999999999704e-01 2.962041723009e-11 -5.009416404441e-12 -1.418798889341e-12 -3.676671758140e-16 -8.420653623050e-17 
3.000000000000e-02 0.000000000000e+00 1.013250000000e+05 1.013250000000e+05 9.999999999358e-01 6.424105691849e-11 -7.023116579718e-12 -2.004103722115e-12 -7.565085859790e-16 -1.678101828570e-16 
4.000000000000e-02 0.000000000000e+00 1.013250000000e+05 1.013250000000e+05 9.999999998945e-01 1.055466825051e-10 -8.209048962480e-12 -2.364325909305e-12 -1.197301533032e-15 -2.581159647924e-16 
5.000000000000e-02 0.000000000000e+00 1.013250000000e+05 1.013250000000e+05 9.999999998436e-01 1.564058882408e-10 -9.960748012369e-12 -2.891591848323e-12 -1.729193576785e-15 -3.641505630000e-16 
6.000000000000e-02 0.000000000000e+00 1.013250000000e+05 1.013250000000e+05 9.999999997827e-01 2.173379254344e-10 -1.177491503587e-11 -3.445309309217e-12 -2.350651731458e-15 -4.847146851830e-16 
7.000000000000e-02 0.000000000000e+00 1.013250000000e+05 1.013250000000e+05 9.999999997112e-01 2.887643457683e-10 -1.362996243637e-11 -4.020049673473e-12 -3.062202804147e-15 -6.193019220966e-16 
8.000000000000e-02 0.000000000000e+00 1.013250000000e+05 1.013250000000e+05 9.999999996310e-01 3.689989425126e-10 -1.509197051269e-11 -4.492827749765e-12 -3.837884753471e-15 -7.613568344117e-16 
9.000000000000e-02 0.000000000000e+00 1.013250000000e+05 1.013250000000e+05 9.999999995422e-01 4.577662693350e-10 -1.645860360277e-11 -4.948341376506e-12 -4.673654064834e-15 -9.099094407975e-16 
1.000000000000e-01 0.000000000000e+00 1.013250000000e+05 1.013250000000e+05 9.999999994453e-01 5.547421411123e-10 -1.773209997414e-11 -5.385751050493e-12 -5.563267439975e-15 -1.063478015401e-15 
2.000000000000e-01 0.000000000000e+00 1.013250000000e+05 1.013250000000e+05 9.999999980399e-01 1.960130280310e-09 -2.217362468418e-11 -7.800226626423e-12 -1.523962498267e-14 -2.385554663999e-15 
3.000000000000e-01 0.000000000000e+00 1.013250000000e+05 1.013250000000e+05 9.999999963152e-01 3.684788918434e-09 -2.462997254114e-11 -9.765845607541e-12 -2.474726300418e-14 -3.531225111714e-15 
4.000000000000e-01 0.000000000000e+00 1.013250000000e+05 1.013250000000e+05 9.999999943504e-01 5.649570145039e-09 -2.604533515573e-11 -1.140527773595e-11 -3.368006122251e-14 -4.557254859318e-15 
5.000000000000e-01 0.000000000000e+00 1.013250000000e+05 1.013250000000e+05 9.999999922014e-01 7.798635293099e-09 -2.690912514552e-11 -1.278582728856e-11 -4.190930334298e-14 -5.511462653587e-15 
6.000000000000e-01 0.000000000000e+00 1.013250000000e+05 1.013250000000e+05 9.999999899083e-01 1.009173633548e-08 -2.748978752279e-11 -1.395468537667e-11 -4.943805159706e-14 -6.426600394532e-15 
7.000000000000e-01 0.000000000000e+00 1.013250000000e+05 1.013250000000e+05 9.999999875041e-01 1.249587622265e-08 -2.785720345315e-11 -1.492738716926e-11 -5.629816237054e-14 -7.318006848849e-15 
8.000000000000e-01 0.000000000000e+00 1.013250000000e+05 1.013250000000e+05 9.999999850165e-01 1.498346147155e-08 -2.805729801407e-11 -1.572136290864e-11 -6.253198150379e-14 -8.191512894582e-15 
9.000000000000e-01 0.000000000000e+00 1.013250000000e+05 1.013250000000e+05 9.999999824699e-01 1.753008860295e-08 -2.810023141803e-11 -1.634771948757e-11 -6.817540345281e-14 -9.046561812672e-15 
1.000000000000e+00 0.000000000000e+00 1.013250000000e+05 1.013250000000e+05 9.999999798788e-01 2.012124067363e-08 -2.811650662030e-11 -1.685955687896e-11 -7.331720318216e-14 -9.889468974443e-15 
2.000000000000e+00 0.000000000000e+00 1.013250000000e+05 1.013250000000e+05 9.999999538163e-01 4.618365034847e-08 -2.680937376467e-11 -1.781073609647e-11 -1.034783367433e-13 -1.683748718822e-14 
3.000000000000e+00 0.000000000000e+00 1.013250000000e+05 1.013250000000e+05 9.999999287367e-01 7.126331746932e-08 -2.526087463014e-11 -1.744580026599e-11 -1.234696460112e-13 -2.240186326439e-14 
4.000000000000e+00 0.000000000000e+00 1.013250000000e+05 1.013250000000e+05 9.999999049926e-01 9.500744480029e-08 -2.360403647861e-11 -1.662635200635e-11 -1.375467126325e-13 -2.680173702937e-14 
5.000000000000e+00 0.000000000000e+00 1.013250000000e+05 1.013250000000e+05 9.999998825917e-01 1.174083368305e-07 -2.204889796504e-11 -1.571584022268e-11 -1.479529766051e-13 -3.030678491444e-14 
6.000000000000e+00 0.000000000000e+00 1.013250000000e+05 1.013250000000e+05 9.999998614543e-01 1.385457302217e-07 -2.061936369347e-11 -1.482720014789e-11 -1.558822312296e-13 -3.312836918689e-14 
7.000000000000e+00 0.000000000000e+00 1.013250000000e+05 1.013250000000e+05 9.999998414705e-01 1.585295135165e-07 -1.932479549659e-11 -1.400134408807e-11 -1.620631823299e-13 -3.542681005589e-14 
8.000000000000e+00 0.000000000000e+00 1.013250000000e+05 1.013250000000e+05 9.999998225222e-01 1.774778428665e-07 -1.816560305276e-11 -1.325199715502e-11 -1.669767206283e-13 -3.732133611622e-14 
9.000000000000e+00 0.000000000000e+00 1.013250000000e+05 1.013250000000e+05 9.999998044920e-01 1.955080384253e-07 -1.714218354457e-11 -1.258238723784e-11 -1.709531341704e-13 -3.889984463192e-14 
1.000000000000e+01 0.000000000000e+00 1.013250000000e+05 1.013250000000e+05 9.999997872665e-01 2.127334501889e-07 -1.623562893543e-11 -1.199128482952e-11 -1.742245649298e-13 -4.022682113860e-14 
1.100000000000e+01 0.000000000000e+00 1.013250000000e+05 1.013250000000e+05 9.999997707407e-01 2.292593193065e-07 -1.544893760853e-11 -1.147500648368e-11 -1.769454541712e-13 -4.134763699669e-14 
1.200000000000e+01 0.000000000000e+00 1.013250000000e+05 1.013250000000e+05 9.999997548134e-01 2.451866281117e-07 -1.476656852888e-11 -1.103063268566e-11 -1.792253724494e-13 -4.229448988246e-14 
1.300000000000e+01 0.000000000000e+00 1.013250000000e+05 1.013250000000e+05 9.999997393854e-01 2.606145517170e-07 -1.419831010805e-11 -1.065798120448e-11 -1.811419781643e-13 -4.308959634969e-14 
1.400000000000e+01 0.000000000000e+00 1.013250000000e+05 1.013250000000e+05 9.999997243578e-01 2.756421928485e-07 -1.374003031116e-11 -1.035739776368e-11 -1.827485681985e-13 -4.374757894532e-14 
1.500000000000e+01 0.000000000000e+00 1.013250000000e+05 1.013250000000e+05 9.999997096304e-01 2.903695706102e-07 -1.339262683752e-11 -1.012960333970e-11 -1.840792594509e-13 -4.427718398362e-14 
1.600000000000e+01 0.000000000000e+00 1.013250000000e+05 1.013250000000e+05 9.999996951004e-01 3.048995760313e-07 -1.315093928338e-11 -9.976561043070e-12 -1.851570250469e-13 -4.468328952710e-14 
1.700000000000e+01 0.000000000000e+00 1.013250000000e+05 1.013250000000e+05 9.999996806618e-01 3.193381707955e-07 -1.303450519666e-11 -9.901259687433e-12 -1.859956263209e-13 -4.496796653464e-14 
1.800000000000e+01 0.000000000000e+00 1.013250000000e+05 1.013250000000e+05 9.999996662046e-01 3.337953653482e-07 -1.303944354403e-11 -9.906245620459e-12 -1.866052642542e-13 -4.513201747607e-14 
1.900000000000e+01 0.000000000000e+00 1.013250000000e+05 1.013250000000e+05 9.999996516157e-01 3.483843424856e-07 -1.315939935595e-11 -9.993116830883e-12 -1.869924349195e-13 -4.517552289843e-14 
2.000000000000e+01 0.000000000000e+00 1.013250000000e+05 1.013250000000e+05 9.999996367791e-01 3.632208525062e-07 -1.341121531259e-11 -1.016454763917e-11 -1.871627398562e-13 -4.509866918201e-14 
2.100000000000e+01 0.000000000000e+00 1.013250000000e+05 1.013250000000e+05 9.999996215786e-01 3.784214472891e-07 -1.378667694773e-11 -1.042027137410e-11 -1.871200079101e-13 -4.490196848131e-14 
2.200000000000e+01 0.000000000000e+00 1.013250000000e+05 1.013250000000e+05 9.999996058968e-01 3.941031609944e-07 -1.428637613771e-11 -1.076061879483e-11 -1.868709155548e-13 -4.458712376989e-14 
2.300000000000e+01 0.000000000000e+00 1.013250000000e+05 1.013250000000e+05 9.999995896191e-01 4.103808994849e-07 -1.490580861051e-11 -1.118377094347e-11 -1.864210870040e-13 -4.415661761335e-14 
2.400000000000e+01 0.000000000000e+00 1.013250000000e+05 1.013250000000e+05 9.999995726335e-01 4.273664688803e-07 -1.564467215998e-11 -1.168750838665e-11 -1.857781631556e-13 -4.361416502254e-14 
2.500000000000e+01 0.000000000000e+00 1.013250000000e+05 1.013250000000e+05 9.999995548332e-01 4.451668189631e-07 -1.648847155685e-11 -1.226758614191e-11 -1.849505248097e-13 -4.296453911267e-14 
2.600000000000e+01 0.000000000000e+00 1.013250000000e+05 1.013250000000e+05 9.999995361174e-01 4.638826023307e-07 -1.744415628980e-11 -1.291995714975e-11 -1.839474199593e-13 -4.221347250588e-14 
2.700000000000e+01 0.000000000000e+00 1.013250000000e+05 1.013250000000e+05 9.999995163924e-01 4.836076237247e-07 -1.849222643647e-11 -1.363898709720e-11 -1.827805350214e-13 -4.136782951955e-14 
2.800000000000e+01 0.000000000000e+00 1.013250000000e+05 1.013250000000e+05 9.999994955725e-01 5.044275009913e-07 -1.962390484579e-11 -1.441857600427e-11 -1.814621501215e-13 -4.043520519246e-14 
2.900000000000e+01 0.000000000000e+00 1.013250000000e+05 1.013250000000e+05 9.999994735813e-01 5.264186972997e-07 -2.083202999596e-11 -1.525226941318e-11 -1.800046165972e-13 -3.942370703735e-14 
3.000000000000e+01 0.000000000000e+00 1.013250000000e+05 1.013250000000e+05 9.999994503517e-01 5.496483398426e-07 -2.210347619741e-11 -1.613261040519e-11 -1.784213708713e-13 -3.834193114932e-14 
3.100000000000e+01 0.000000000000e+00 1.013250000000e+05 1.013250000000e+05 9.999994258262e-01 5.741737711951e-07 -2.342986563754e-11 -1.705297161126e-11 -1.767259925717e-13 -3.719870892158e-14 
3.200000000000e+01 0.000000000000e+00 1.013250000000e+05 1.013250000000e+05 9.999993999575e-01 6.000425252228e-07 -2.479835392180e-11 -1.800587854475e-11 -1.749322914260e-13 -3.600298002122e-14 
3.300000000000e+01 0.000000000000e+00 1.013250000000e+05 1.013250000000e+05 9.999993727077e-01 6.272923478434e-07 -2.619661784191e-11 -1.898415269254e-11 -1.730539555187e-13 -3.476363322172e-14 
3.400000000000e+01 0.000000000000e+00 1.013250000000e+05 1.013250000000e+05 9.999993440485e-01 6.559514507121e-07 -2.762308614954e-11 -1.998133930496e-11 -1.711045455235e-13 -3.348939290104e-14 
3.500000000000e+01 0.000000000000e+00 1.013250000000e+05 1.013250000000e+05 9.999993139613e-01 6.860387270491e-07 -2.905920779411e-11 -2.099011823130e-11 -1.690968620870e-13 -3.218866564192e-14 
3.600000000000e+01 0.000000000000e+00 1.013250000000e+05 1.013250000000e+05 9.999992824357e-01 7.175642524615e-07 -3.049924268742e-11 -2.200445886699e-11 -1.670432928345e-13 -3.086948718127e-14 
3.700000000000e+01 0.000000000000e+00 1.013250000000e+05 1.013250000000e+05 9.999992494702e-01 7.505297660026e-07 -3.193150203381e-11 -2.301808511256e-11 -1.649555042467e-13 -2.953945298671e-14 
3.800000000000e+01 0.000000000000e+00 1.013250000000e+05 1.013250000000e+05 9.999992150709e-01 7.849290870610e-07 -3.334951670204e-11 -2.402532196626e-11 -1.628440944803e-13 -2.820561822589e-14 
3.900000000000e+01 0.000000000000e+00 1.013250000000e+05 1.013250000000e+05 9.999991792510e-01 8.207490165280e-07 -3.474763024879e-11 -2.502136349084e-11 -1.607195887952e-13 -2.687462481907e-14 
4.000000000000e+01 0.000000000000e+00 1.013250000000e+05 1.013250000000e+05 9.999991420303e-01 8.579696506583e-07 -3.611440278338e-11 -2.600101723172e-11 -1.585912730383e-13 -2.555252042577e-14 
4.100000000000e+01 0.000000000000e+00 1.013250000000e+05 1.013250000000e+05 9.999991034350e-01 8.965650244441e-07 -3.744834139552e-11 -2.696029382508e-11 -1.564676000972e-13 -2.424482473044e-14 
4.200000000000e+01 0.000000000000e+00 1.013250000000e+05 1.013250000000e+05 9.999990634961e-01 9.365038877718e-07 -3.874380841044e-11 -2.789549886257e-11 -1.543566096978e-13 -2.295658169172e-14 
4.300000000000e+01 0.000000000000e+00 1.013250000000e+05 1.013250000000e+05 9.999990222497e-01 9.777503078290e-07 -3.999359640925e-11 -2.880297644625e-11 -1.522657536157e-13 -2.169232560625e-14 
4.400000000000e+01 0.000000000000e+00 1.013250000000e+05 1.013250000000e+05 9.999989797360e-01 1.020264027041e-06 -4.119519808198e-11 -2.967999089808e-11 -1.502012954483e-13 -2.045603507945e-14 
4.500000000000e+01 0.000000000000e+00 1.013250000000e+05 1.013250000000e+05 9.999989359988e-01 1.064001216688e-06 -4.234427129409e-11 -3.052374353111e-11 -1.481691542315e-13 -1.925126031547e-14 
4.600000000000e+01 0.000000000000e+00 1.013250000000e+05 1.013250000000e+05 9.999988910850e-01 1.108914967185e-06 -4.343684935325e-11 -3.133216479429e-11 -1.461745110728e-13 -1.808105637379e-14 
4.700000000000e+01 0.000000000000e+00 1.013250000000e+05 1.013250000000e+05 9.999988450442e-01 1.154955784566e-06 -4.447360555233e-11 -3.210372308331e-11 -1.442218224840e-13 -1.694806479945e-14 
4.800000000000e+01 0.000000000000e+00 1.013250000000e+05 1.013250000000e+05 9.999987979280e-01 1.202071950646e-06 -4.545023714676e-11 -3.283661514687e-11 -1.423146182003e-13 -1.585436724847e-14 
4.900000000000e+01 0.000000000000e+00 1.013250000000e+05 1.013250000000e+05 9.999987497896e-01 1.250210372117e-06 -4.636724926946e-11 -3.353015587896e-11 -1.404562881958e-13 -1.480173685244e-14 
5.000000000000e+01 0.000000000000e+00 1.013250000000e+05 1.013250000000e+05 9.999987006833e-01 1.299316729431e-06 -4.722144851561e-11 -3.418326851046e-11 -1.386494279733e-13 -1.379149277469e-14 
5.100000000000e+01 0.000000000000e+00 1.013250000000e+05 1.013250000000e+05 9.999986506641e-01 1.349335929657e-06 -4.801533922752e-11 -3.479595517030e-11 -1.368961118540e-13 -1.282466776460e-14 
5.200000000000e+01 0.000000000000e+00 1.013250000000e+05 1.013250000000e+05 9.999985997877e-01 1.400212348845e-06 -4.874636687314e-11 -3.536748902786e-11 -1.351977570467e-13 -1.190189598935e-14 
5.300000000000e+01 0.000000000000e+00 1.013250000000e+05 1.013250000000e+05 9.999985481096e-01 1.451890361936e-06 -4.941627386654e-11 -3.589811738975e-11 -1.335559015069e-13 -1.102369040497e-14 
5.400000000000e+01 0.000000000000e+00 1.013250000000e+05 1.013250000000e+05 9.999984956856e-01 1.504314364742e-06 -5.002631136034e-11 -3.638798666274e-11 -1.319713438227e-13 -1.019024338042e-14 
5.500000000000e+01 0.000000000000e+00 1.013250000000e+05 1.013250000000e+05 9.999984425709e-01 1.557429109011e-06 -5.057407563384e-11 -3.683735091810e-11 -1.304445396894e-13 -9.401488652778e-15 
5.600000000000e+01 0.000000000000e+00 1.013250000000e+05 1.013250000000e+05 9.999983888200e-01 1.611180026728e-06 -5.106188038426e-11 -3.724670462250e-11 -1.289756812522e-13 -8.657186767510e-15 
5.700000000000e+01 0.000000000000e+00 1.013250000000e+05 1.013250000000e+05 9.999983344865e-01 1.665513535087e-06 -5.149278083865e-11 -3.761708651477e-11 -1.275648591921e-13 -7.956887787435e-15 
5.800000000000e+01 0.000000000000e+00 1.013250000000e+05 1.013250000000e+05 9.999982796230e-01 1.720377022840e-06 -5.186715802350e-11 -3.794900804260e-11 -1.262115693207e-13 -7.299868340997e-15 
5.900000000000e+01 0.000000000000e+00 1.013250000000e+05 1.013250000000e+05 9.999982242810e-01 1.775719041364e-06 -5.218496797989e-11 -3.824364728323e-11 -1.249152304258e-13 -6.685440403108e-15 
6.000000000000e+01 0.000000000000e+00 1.013250000000e+05 1.013250000000e+05 9.999981685106e-01 1.831489363946e-06 -5.244981818159e-11 -3.850183400754e-11 -1.236750704177e-13 -6.112766244111e-15 
6.100000000000e+01 0.000000000000e+00 1.013250000000e+05 1.013250000000e+05 9.999981123609e-01 1.887639126896e-06 -5.266224605098e-11 -3.872449774629e-11 -1.224905162647e-13 -5.580922661880e-15 
6.200000000000e+01 0.000000000000e+00 1.013250000000e+05 1.013250000000e+05 9.999980558792e-01 1.944120799680e-06 -5.282501616886e-11 -3.891288667678e-11 -1.213605437511e-13 -5.089010139143e-15 
6.300000000000e+01 0.000000000000e+00 1.013250000000e+05 1.013250000000e+05 9.999979991117e-01 2.000888279730e-06 -5.293918950535e-11 -3.906795920683e-11 -1.202840812745e-13 -4.635979073609e-15 
6.400000000000e+01 0.000000000000e+00 1.013250000000e+05 1.013250000000e+05 9.999979421029e-01 2.057897055208e-06 -5.300567838178e-11 -3.919089818928e-11 -1.192596407528e-13 -4.220523141672e-15 
6.500000000000e+01 0.000000000000e+00 1.013250000000e+05 1.013250000000e+05 9.999978848957e-01 2.115104334899e-06 -5.303112919729e-11 -3.928323858488e-11 -1.182860114272e-13 -3.841514515697e-15 
6.600000000000e+01 0.000000000000e+00 1.013250000000e+05 1.013250000000e+05 9.999978275309e-01 2.172469083739e-06 -5.300735860685e-11 -3.934565250354e-11 -1.173616223625e-13 -3.497615464384e-15 
6.700000000000e+01 0.000000000000e+00 1.013250000000e+05 1.013250000000e+05 9.999977700481e-01 2.229951864385e-06 -5.294754487477e-11 -3.938011608468e-11 -1.164850883645e-13 -3.187543385659e-15 
6.800000000000e+01 0.000000000000e+00 1.013250000000e+05 1.013250000000e+05 9.999977124852e-01 2.287514787591e-06 -5.284766785252e-11 -3.938743780965e-11 -1.156551960113e-13 -2.910183709949e-15 
6.900000000000e+01 0.000000000000e+00 1.013250000000e+05 1.013250000000e+05 9.999976548786e-01 2.345121411174e-06 -5.271003649832e-11 -3.936869242689e-11 -1.148703592284e-13 -2.664348798333e-15 
7.000000000000e+01 0.000000000000e+00 1.013250000000e+05 1.013250000000e+05 9.999975972632e-01 2.402736797746e-06 -5.253874349088e-11 -3.932517184139e-11 -1.141294666936e-13 -2.448923466332e-15 
7.100000000000e+01 0.000000000000e+00 1.013250000000e+05 1.013250000000e+05 9.999975396724e-01 2.460327621412e-06 -5.233152448764e-11 -3.925775495869e-11 -1.134310678673e-13 -2.262789382595e-15 
7.200000000000e+01 0.000000000000e+00 1.013250000000e+05 1.013250000000e+05 9.999974821379e-01 2.517862129459e-06 -5.209374149626e-11 -3.916791134052e-11 -1.127737880130e-13 -2.104593105073e-15 
7.300000000000e+01 0.000000000000e+00 1.013250000000e+05 1.013250000000e+05 9.999974246898e-01 2.575310173780e-06 -5.182489714263e-11 -3.905690021625e-11 -1.121557297686e-13 -1.973046915121e-15 
7.400000000000e+01 0.000000000000e+00 1.013250000000e+05 1.013250000000e+05 9.999973673566e-01 2.632643379741e-06 -5.152907241738e-11 -3.892556834157e-11 -1.115753138067e-13 -1.866775478123e-15 
7.500000000000e+01 0.000000000000e+00 1.013250000000e+05 1.013250000000e+05 9.999973101650e-01 2.689834972092e-06 -5.119984370230e-11 -3.877494752907e-11 -1.110307969737e-13 -1.784483417246e-15 
7.600000000000e+01 0.000000000000e+00 1.013250000000e+05 1.013250000000e+05 9.999972531404e-01 2.746859615210e-06 -5.085529411288e-11 -3.860738255322e-11 -1.105211348630e-13 -1.725086943662e-15 
7.700000000000e+01 0.000000000000e+00 1.013250000000e+05 1.013250000000e+05 9.999971963068e-01 2.803693219144e-06 -5.048569549447e-11 -3.842286086244e-11 -1.100447951855e-13 -1.687571397998e-15 
7.800000000000e+01 0.000000000000e+00 1.013250000000e+05 1.013250000000e+05 9.999971396872e-01 2.860312775743e-06 -5.008983790288e-11 -3.822187900068e-11 -1.096008187193e-13 -1.671186176311e-15 
7.900000000000e+01 0.000000000000e+00 1.013250000000e+05 1.013250000000e+05 9.999970833037e-01 2.916696342115e-06 -4.967590192479e-11 -3.800588239765e-11 -1.091884359144e-13 -1.674924220508e-15 
8.000000000000e+01 0.000000000000e+00 1.013250000000e+05 1.013250000000e+05 9.999970271768e-01 2.972823163416e-06 -4.924157693196e-11 -3.777548645908e-11 -1.088061838566e-13 -1.697946314052e-15 
8.100000000000e+01 0.000000000000e+00 1.013250000000e+05 1.013250000000e+05 9.999969713262e-01 3.028673796868e-06 -4.878954376724e-11 -3.753174543353e-11 -1.084527351999e-13 -1.739196404504e-15 
8.200000000000e+01 0.000000000000e+00 1.013250000000e+05 1.013250000000e+05 9.999969157698e-01 3.084230247641e-06 -4.831846024837e-11 -3.727518272958e-11 -1.081262044900e-13 -1.797310511966e-15 
8.300000000000e+01 0.000000000000e+00 1.013250000000e+05 1.013250000000e+05 9.999968605239e-01 3.139476146274e-06 -4.783996013915e-11 -3.700820947856e-11 -1.078251178423e-13 -1.871032524182e-15 
8.400000000000e+01 0.000000000000e+00 1.013250000000e+05 1.013250000000e+05 9.999968056033e-01 3.194396694606e-06 -4.733860851787e-11 -3.673045339920e-11 -1.075473128146e-13 -1.959114445942e-15 
8.500000000000e+01 0.000000000000e+00 1.013250000000e+05 1.013250000000e+05 9.999967510216e-01 3.248978394321e-06 -4.683208616189e-11 -3.644413803148e-11 -1.072916736017e-13 -2.060397106815e-15 
8.600000000000e+01 0.000000000000e+00 1.013250000000e+05 1.013250000000e+05 9.999966967912e-01 3.303208812255e-06 -4.631263881911e-11 -3.614931514910e-11 -1.070568670263e-13 -2.174024684064e-15 
8.700000000000e+01 0.000000000000e+00 1.013250000000e+05 1.013250000000e+05 9.999966429237e-01 3.357076285404e-06 -4.578125896705e-11 -3.584660747213e-11 -1.068422103866e-13 -2.299458596296e-15 
8.800000000000e+01 0.000000000000e+00 1.013250000000e+05 1.013250000000e+05 9.999965894302e-01 3.410569823226e-06 -4.524328158264e-11 -3.553667430879e-11 -1.066469925800e-13 -2.435952294478e-15 
8.900000000000e+01 0.000000000000e+00 1.013250000000e+05 1.013250000000e+05 9.999965363208e-01 3.463679184579e-06 -4.469581617195e-11 -3.521998517628e-11 -1.064705620133e-13 -2.583081742485e-15 
9.000000000000e+01 0.000000000000e+00 1.013250000000e+05 1.013250000000e+05 9.999964836052e-01 3.516394785130e-06 -4.414509593653e-11 -3.489738333708e-11 -1.063119925164e-13 -2.740209118342e-15 
9.100000000000e+01 0.000000000000e+00 1.013250000000e+05 1.013250000000e+05 9.999964312921e-01 3.568707894530e-06 -4.357849993032e-11 -3.456847351040e-11 -1.061703627330e-13 -2.906708469658e-15 
9.200000000000e+01 0.000000000000e+00 1.013250000000e+05 1.013250000000e+05 9.999963793893e-01 3.620610701249e-06 -4.301436128202e-11 -3.423523841449e-11 -1.060446491130e-13 -3.081708128367e-15 
9.300000000000e+01 0.000000000000e+00 1.013250000000e+05 1.013250000000e+05 9.999963279036e-01 3.672096370311e-06 -4.244384892734e-11 -3.389763788049e-11 -1.059337850313e-13 -3.264454877964e-15 
9.400000000000e+01 0.000000000000e+00 1.013250000000e+05 1.013250000000e+05 9.999962768411e-01 3.723158863878e-06 -4.186950838742e-11 -3.355622679538e-11 -1.058363889916e-13 -3.454182236385e-15 
9.500000000000e+01 0.000000000000e+00 1.013250000000e+05 1.013250000000e+05 9.999962262074e-01 3.773792562334e-06 -4.128958744732e-11 -3.321145793188e-11 -1.057527259213e-13 -3.650685050024e-15 
9.600000000000e+01 0.000000000000e+00 1.013250000000e+05 1.013250000000e+05 9.999961760079e-01 3.823992061447e-06 -4.070635257995e-11 -3.286333120986e-11 -1.056822132545e-13 -3.853706567512e-15 
9.700000000000e+01 0.000000000000e+00 1.013250000000e+05 1.013250000000e+05 9.999961262479e-01 3.873752146832e-06 -4.011982875157e-11 -3.251207533939e-11 -1.056246575509e-13 -4.063089509640e-15 
9.800000000000e+01 0.000000000000e+00 1.013250000000e+05 1.013250000000e+05 9.999960769320e-01 3.923068017553e-06 -3.953577078962e-11 -3.215854183923e-11 -1.055797867397e-13 -4.278531040956e-15 
9.900000000000e+01 0.000000000000e+00 1.013250000000e+05 1.013250000000e+05 9.999960280645e-01 3.971935545799e-06 -3.894478334803e-11 -3.180204381662e-11 -1.055465965391e-13 -4.499441926482e-15 
1.000000000000e+02 0.000000000000e+00 1.013250000000e+05 1.013250000000e+05 9.999959796486e-01 4.020351390688e-06 -3.835363327539e-11 -3.144399713515e-11 -1.055239988262e-13 -4.725121047939e-15 
1.010000000000e+02 0.000000000000e+00 1.013250000000e+05 1.013250000000e+05 9.999959316870e-01 4.068313049554e-06 -3.776096562278e-11 -3.108477868278e-11 -1.055110513587e-13 -4.954853819033e-15 
1.020000000000e+02 0.000000000000e+00 1.013250000000e+05 1.013250000000e+05 9.999958841812e-01 4.115818806216e-06 -3.717255543764e-11 -3.072514932321e-11 -1.055067283491e-13 -5.187889513448e-15 
1.030000000000e+02 0.000000000000e+00 1.013250000000e+05 1.013250000000e+05 9.999958371322e-01 4.162867772273e-06 -3.658080262602e-11 -3.036523170519e-11 -1.055096551421e-13 -5.423502650995e-15 
1.040000000000e+02 0.000000000000e+00 1.013250000000e+05 1.013250000000e+05 9.999957905403e-01 4.209459727122e-06 -3.599690576654e-11 -3.000619207567e-11 -1.055192962293e-13 -5.661132886220e-15 
1.050000000000e+02 0.000000000000e+00 1.013250000000e+05 1.013250000000e+05 9.999957444051e-01 4.255594928004e-06 -3.541100982739e-11 -2.964768556429e-11 -1.055349746054e-13 -5.900363752440e-15 
1.060000000000e+02 0.000000000000e+00 1.013250000000e+05 1.013250000000e+05 9.999956987264e-01 4.301273629270e-06 -3.482951607113e-11 -2.929006854712e-11 -1.055569661295e-13 -6.141336335925e-15 
1.070000000000e+02 0.000000000000e+00 1.013250000000e+05 1.013250000000e+05 9.999956535042e-01 4.346495788177e-06 -3.425209346507e-11 -2.893310012530e-11 -1.055853694493e-13 -6.384059235251e-15 
1.080000000000e+02 0.000000000000e+00 1.013250000000e+05 1.013250000000e+05 9.999956087387e-01 4.391261313685e-06 -3.367509150146e-11 -2.857664517302e-11 -1.056205516433e-13 -6.628774688984e-15 
1.090000000000e+02 0.000000000000e+00 1.013250000000e+05 1.013250000000e+05 9.999955644297e-01 4.435570299055e-06 -3.309715749340e-11 -2.822052733618e-11 -1.056621563573e-13 -6.875274929694e-15 
1.100000000000e+02 0.000000000000e+00 1.013250000000e+05 1.013250000000e+05 9.999955205765e-01 4.479423530990e-06 -3.252501320165e-11 -2.786584845959e-11 -1.057088959232e-13 -7.122878400480e-15 
1.110000000000e+02 0.000000000000e+00 1.013250000000e+05 1.013250000000e+05 9.999954771773e-01 4.522822728559e-06 -3.195625253816e-11 -2.751299112110e-11 -1.057595651029e-13 -7.370649811913e-15 
1.120000000000e+02 0.000000000000e+00 1.013250000000e+05 1.013250000000e+05 9.999954342294e-01 4.565770578391e-06 -3.139685310196e-11 -2.716321157631e-11 -1.058131254029e-13 -7.617911134350e-15 
1.130000000000e+02 0.000000000000e+00 1.013250000000e+05 1.013250000000e+05 9.999953917293e-01 4.608270745776e-06 -3.083821270457e-11 -2.681591116497e-11 -1.058675489559e-13 -7.863599116656e-15 
1.140000000000e+02 0.000000000000e+00 1.013250000000e+05 1.013250000000e+05 9.999953496720e-01 4.650328026878e-06 -3.028492913641e-11 -2.647272160187e-11 -1.059217525407e-13 -8.106799938685e-15 
1.150000000000e+02 0.000000000000e+00 1.013250000000e+05 1.013250000000e+05 9.999953080516e-01 4.691948435109e-06 -2.974725822708e-11 -2.613497176661e-11 -1.059736493134e-13 -8.346340074398e-15 
1.160000000000e+02 0.000000000000e+00 1.013250000000e+05 1.013250000000e+05 9.999952668610e-01 4.733138962987e-06 -2.921855872441e-11 -2.580283270504e-11 -1.060222446912e-13 -8.581308095414e-15 
1.170000000000e+02 0.000000000000e+00 1.013250000000e+05 1.013250000000e+05 9.999952260931e-01 4.773906897348e-06 -2.869648205899e-11 -2.547625017938e-11 -1.060672573434e-13 -8.811566160290e-15 
1.180000000000e+02 0.000000000000e+00 1.013250000000e+05 1.013250000000e+05 9.999951857411e-01 4.814258861119e-06 -2.818191773030e-11 -2.515486094765e-11 -1.061094520264e-13 -9.037607623515e-15 
1.190000000000e+02 0.000000000000e+00 1.013250000000e+05 1.013250000000e+05 9.999951457997e-01 4.854200345461e-06 -2.767634469874e-11 -2.483803194003e-11 -1.061506866997e-13 -9.260621396792e-15 
1.200000000000e+02 0.000000000000e+00 1.013250000000e+05 1.013250000000e+05 9.999951062644e-01 4.893735638278e-06 -2.717788274159e-11 -2.452486247426e-11 -1.061923533144e-13 -9.481449862533e-15 
