 TITLE = "Profiles along polylines"
 VARIABLES = "DIST" "PRESSURE1" "PRESSURE2" "PRESSURE_W" "SATURATION1" SATURATION2 "VELOCITY_X1" "VELOCITY_Y1" "VELOCITY_X2" "VELOCITY_Y2" 
 ZONE T="TIME=0.000000000000e+00"
0.000000000000e+00 0.000000000000e+00 1.013250000000e+05 1.013250000000e+05 1.000000000000e+00 4.440892098501e-16 0.000000000000e+00 0.000000000000e+00 0.000000000000e+00 0.000000000000e+00 
5.000000000000e-02 0.000000000000e+00 1.013250000000e+05 1.013250000000e+05 1.000000000000e+00 2.220446049250e-16 0.000000000000e+00 0.000000000000e+00 0.000000000000e+00 0.000000000000e+00 
1.000000000000e-01 0.000000000000e+00 1.013250000000e+05 1.013250000000e+05 1.000000000000e+00 2.220446049250e-16 0.000000000000e+00 0.000000000000e+00 0.000000000000e+00 0.000000000000e+00 
1.500000000000e-01 0.000000000000e+00 1.013250000000e+05 1.013250000000e+05 1.000000000000e+00 3.330669073875e-16 0.000000000000e+00 0.000000000000e+00 0.000000000000e+00 0.000000000000e+00 
2.000000000000e-01 0.000000000000e+00 1.013250000000e+05 1.013250000000e+05 1.000000000000e+00 2.220446049250e-16 0.000000000000e+00 0.000000000000e+00 0.000000000000e+00 0.000000000000e+00 
2.500000000000e-01 0.000000000000e+00 1.013250000000e+05 1.013250000000e+05 1.000000000000e+00 2.220446049250e-16 0.000000000000e+00 0.000000000000e+00 0.000000000000e+00 0.000000000000e+00 
3.000000000000e-01 0.000000000000e+00 1.013250000000e+05 1.013250000000e+05 1.000000000000e+00 2.220446049250e-16 0.000000000000e+00 0.000000000000e+00 0.000000000000e+00 0.000000000000e+00 
3.500000000000e-01 0.000000000000e+00 1.013250000000e+05 1.013250000000e+05 1.000000000000e+00 2.220446049250e-16 0.000000000000e+00 0.000000000000e+00 0.000000000000e+00 0.000000000000e+00 
4.000000000000e-01 0.000000000000e+00 1.013250000000e+05 1.013250000000e+05 1.000000000000e+00 2.220446049250e-16 0.000000000000e+00 0.000000000000e+00 0.000000000000e+00 0.000000000000e+00 
4.500000000000e-01 0.000000000000e+00 1.013250000000e+05 1.013250000000e+05 1.000000000000e+00 2.220446049250e-16 0.000000000000e+00 0.000000000000e+00 0.000000000000e+00 0.000000000000e+00 
5.000000000000e-01 0.000000000000e+00 1.013250000000e+05 1.013250000000e+05 1.000000000000e+00 2.220446049250e-16 0.000000000000e+00 0.000000000000e+00 0.000000000000e+00 0.000000000000e+00 
5.500000000000e-01 0.000000000000e+00 1.013250000000e+05 1.013250000000e+05 1.000000000000e+00 2.220446049250e-16 0.000000000000e+00 0.000000000000e+00 0.000000000000e+00 0.000000000000e+00 
6.000000000000e-01 0.000000000000e+00 1.013250000000e+05 1.013250000000e+05 1.000000000000e+00 2.220446049250e-16 0.000000000000e+00 0.000000000000e+00 0.000000000000e+00 0.000000000000e+00 
6.500000000000e-01 0.000000000000e+00 1.013250000000e+05 1.013250000000e+05 1.000000000000e+00 2.220446049250e-16 0.000000000000e+00 0.000000000000e+00 0.000000000000e+00 0.000000000000e+00 
7.000000000000e-01 0.000000000000e+00 1.013250000000e+05 1.013250000000e+05 1.000000000000e+00 2.220446049250e-16 0.000000000000e+00 0.000000000000e+00 0.000000000000e+00 0.000000000000e+00 
7.500000000000e-01 0.000000000000e+00 1.013250000000e+05 1.013250000000e+05 1.000000000000e+00 2.220446049250e-16 0.000000000000e+00 0.000000000000e+00 0.000000000000e+00 0.000000000000e+00 
8.000000000000e-01 0.000000000000e+00 1.013250000000e+05 1.013250000000e+05 1.000000000000e+00 2.220446049250e-16 0.000000000000e+00 0.000000000000e+00 0.000000000000e+00 0.000000000000e+00 
8.500000000000e-01 0.000000000000e+00 1.013250000000e+05 1.013250000000e+05 1.000000000000e+00 2.220446049250e-16 0.000000000000e+00 0.000000000000e+00 0.000000000000e+00 0.000000000000e+00 
9.000000000000e-01 0.000000000000e+00 1.013250000000e+05 1.013250000000e+05 1.000000000000e+00 2.220446049250e-16 0.000000000000e+00 0.000000000000e+00 0.000000000000e+00 0.000000000000e+00 
9.500000000000e-01 0.000000000000e+00 1.013250000000e+05 1.013250000000e+05 1.000000000000e+00 2.220446049250e-16 0.000000000000e+00 0.000000000000e+00 0.000000000000e+00 0.000000000000e+00 
1.000000000000e+00 0.000000000000e+00 1.013250000000e+05 1.013250000000e+05 1.000000000000e+00 2.220446049250e-16 0.000000000000e+00 0.000000000000e+00 0.000000000000e+00 0.000000000000e+00 
 TITLE = "Profiles along polylines"
 VARIABLES = "DIST" "PRESSURE1" "PRESSURE2" "PRESSURE_W" "SATURATION1" SATURATION2 "VELOCITY_X1" "VELOCITY_Y1" "VELOCITY_X2" "VELOCITY_Y2" 
 ZONE T="TIME=1.000000000000e-03"
0.000000000000e+00 0.000000000000e+00 1.013250000000e+05 1.013250000000e+05 1.000000000000e+00 1.332267629550e-14 -2.683298907189e-14 -7.734308138192e-15 -3.367019089162e-19 -9.149305580192e-20 
5.000000000000e-02 1.744908262507e-07 1.013185503702e+05 1.013185503700e+05 9.999999999999e-01 6.128431095931e-14 -5.707304386265e-14 3.518663325714e-14 -6.460476784288e-19 2.383041798997e-19 
1.000000000000e-01 1.719105406729e-07 1.013121007385e+05 1.013121007383e+05 9.999999999999e-01 6.550315845288e-14 -4.979328452999e-14 -3.772446548891e-14 -3.347624295752e-19 -2.569511213800e-19 
1.500000000000e-01 1.694468395662e-07 1.013056511049e+05 1.013056511048e+05 9.999999999999e-01 6.439293542826e-14 -3.757127436988e-14 -3.121206896351e-14 -2.531671822561e-19 -2.158328752330e-19 
2.000000000000e-01 1.680952944529e-07 1.012992014697e+05 1.012992014695e+05 9.999999999999e-01 6.394884621841e-14 -3.466043688459e-14 -4.007403162842e-14 -2.358492863060e-19 -2.776005043517e-19 
2.500000000000e-01 1.680030074883e-07 1.012927518327e+05 1.012927518325e+05 9.999999999999e-01 6.372680161348e-14 -2.360841643188e-14 -3.666213226583e-14 -1.599351529172e-19 -2.526129173342e-19 
3.000000000000e-01 1.677459798425e-07 1.012863021939e+05 1.012863021937e+05 9.999999999999e-01 6.372680161348e-14 -3.997949440164e-14 -4.338105222476e-14 -2.720640993711e-19 -2.969422595232e-19 
3.500000000000e-01 1.672393702410e-07 1.012798525534e+05 1.012798525533e+05 9.999999999999e-01 6.350475700856e-14 -4.390750857084e-14 -5.180093983211e-14 -2.964353790059e-19 -3.525339194477e-19 
4.000000000000e-01 1.666486602732e-07 1.012734029111e+05 1.012734029110e+05 9.999999999999e-01 6.339373470610e-14 -9.460206707137e-14 -9.449950280813e-14 -6.361811244858e-19 -6.457757778764e-19 
4.500000000000e-01 1.691497340541e-07 1.012669532667e+05 1.012669532666e+05 9.999999999999e-01 6.417089082333e-14 -2.697757497282e-13 -2.579278579874e-13 -1.805978855152e-18 -1.734187997428e-18 
5.000000000000e-01 1.694664688580e-07 1.012605036190e+05 1.012605036188e+05 9.999999999999e-01 6.428191312580e-14 -6.681671173711e-13 -9.831093028945e-13 -4.469705656489e-18 -6.574960949308e-18 
5.500000000000e-01 1.708454862222e-07 1.012540539628e+05 1.012540539626e+05 9.999999999999e-01 6.505906924303e-14 -4.226873601326e-12 -3.837076878642e-12 -2.826699433322e-17 -2.566151524715e-17 
6.000000000000e-01 1.738989776326e-07 1.012476042694e+05 1.012476042692e+05 9.999999999999e-01 6.594724766273e-14 -2.372799733650e-11 -1.861946665585e-11 -1.586348132494e-16 -1.244832342810e-16 
6.500000000000e-01 1.722982786626e-07 1.012411543828e+05 1.012411543826e+05 9.999999999999e-01 6.550315845288e-14 -1.257368014486e-10 -1.021275073239e-10 -8.405625033811e-16 -6.827281072477e-16 
7.000000000000e-01 1.763303074809e-07 1.012347035152e+05 1.012347035150e+05 9.999999999999e-01 6.683542608243e-14 -6.389377354564e-10 -5.658355339476e-10 -4.271081327411e-15 -3.782414255026e-15 
7.500000000000e-01 1.786394770799e-07 1.012282476718e+05 1.012282476717e+05 9.999999999999e-01 6.772360450213e-14 -3.693406632785e-09 -2.585373979332e-09 -2.468758226784e-14 -1.728123948309e-14 
8.000000000000e-01 1.799760131120e-07 1.012217660644e+05 1.012217660643e+05 9.999999999999e-01 6.838973831691e-14 -2.127121000862e-08 -1.988239837421e-08 -1.421717770514e-13 -1.328892351211e-13 
8.500000000000e-01 2.037623903781e-07 1.012151840627e+05 1.012151840625e+05 9.999999999999e-01 1.227906665235e-13 -5.280506715484e-08 -3.877924305646e-08 -3.529177184416e-13 -2.591785626891e-13 
9.000000000000e-01 3.586710980678e-06 1.012082892695e+05 1.012082892659e+05 9.999999999093e-01 9.068990003414e-11 -2.288249573408e-07 -1.143367765128e-07 -1.525583547588e-12 -7.603955520096e-13 
9.500000000000e-01 1.667851628511e-02 1.012000075992e+05 1.011999909207e+05 9.999991859392e-01 8.140608003249e-07 -8.660507638683e-07 9.204004383494e-07 1.836231038078e-11 3.011633631353e-11 
1.000000000000e+00 1.139465012434e+02 1.013250000000e+05 1.012110534988e+05 9.999652851091e-01 3.471489086448e-05 9.297661011819e-06 1.109358799691e-05 4.648933509834e-11 5.985754076612e-11 
 TITLE = "Profiles along polylines"
 VARIABLES = "DIST" "PRESSURE1" "PRESSURE2" "PRESSURE_W" "SATURATION1" SATURATION2 "VELOCITY_X1" "VELOCITY_Y1" "VELOCITY_X2" "VELOCITY_Y2" 
 ZONE T="TIME=5.000000000000e+00"
0.000000000000e+00 0.000000000000e+00 1.013250000000e+05 1.013250000000e+05 9.999998825917e-01 1.174083368305e-07 -2.204889796504e-11 -1.571584022268e-11 -1.479529766051e-13 -3.030678491444e-14 
5.000000000000e-02 1.952615927125e+00 1.009102931253e+05 1.009083405093e+05 9.999993105661e-01 6.894338950847e-07 -8.754051415545e-11 3.741976332445e-11 -2.626530952647e-13 1.727133878670e-13 
1.000000000000e-01 2.923031578676e+00 1.004946002957e+05 1.004916772641e+05 9.999989031774e-01 1.096822606739e-06 -1.847515713271e-10 -1.274771046231e-10 -1.044162261305e-13 -8.256145777273e-14 
1.500000000000e-01 3.373516809637e+00 1.000783809409e+05 1.000750074240e+05 9.999987264896e-01 1.273510418454e-06 -1.875593364334e-10 -1.404321147836e-10 -3.554084262030e-14 -3.553986477286e-14 
2.000000000000e-01 3.572145785868e+00 9.966190153949e+04 9.965832939371e+04 9.999986481531e-01 1.351846872222e-06 -1.775476759807e-10 -1.992443542073e-10 -1.820333642239e-14 -1.800174473060e-14 
2.500000000000e-01 3.664271966286e+00 9.924530683338e+04 9.924164256142e+04 9.999986120143e-01 1.387985695489e-06 -1.428109439944e-10 -2.064081010210e-10 -5.497899285283e-15 -8.227230292635e-15 
3.000000000000e-01 3.711635214973e+00 9.882865767453e+04 9.882494603932e+04 9.999985934395e-01 1.406560517836e-06 -2.106772867629e-10 -2.353705386645e-10 -2.922638975346e-15 -3.434875520718e-15 
3.500000000000e-01 3.747996523941e+00 9.841198796816e+04 9.840823997164e+04 9.999985791577e-01 1.420842344113e-06 -1.758810335002e-10 -2.499595671525e-10 8.204704608049e-16 1.425984889439e-15 
4.000000000000e-01 3.797337834779e+00 9.799532132412e+04 9.799152398629e+04 9.999985598208e-01 1.440179225431e-06 -2.569676798904e-10 -2.563413311406e-10 8.518717683077e-15 6.379624411840e-15 
4.500000000000e-01 3.899902158715e+00 9.757869794382e+04 9.757479804166e+04 9.999985192736e-01 1.480726419700e-06 -3.092718981517e-10 -1.873138318732e-10 2.687753712354e-14 1.908423136242e-14 
5.000000000000e-01 4.159358044598e+00 9.716222100131e+04 9.715806164326e+04 9.999984156983e-01 1.584301711599e-06 -2.627053324781e-10 -1.796171748131e-10 6.983040913223e-14 3.547149899565e-14 
5.500000000000e-01 4.895106941728e+00 9.674620749864e+04 9.674131239170e+04 9.999981259329e-01 1.874067061536e-06 -3.534394515846e-10 -3.948176953712e-10 1.597992582701e-13 1.967593487234e-13 
6.000000000000e-01 6.900238647077e+00 9.633144673281e+04 9.632454649416e+04 9.999973281676e-01 2.671832435741e-06 -5.842546250336e-10 -6.264439040713e-10 4.683763136960e-13 4.641788158619e-13 
6.500000000000e-01 1.241777277796e+01 9.592016925505e+04 9.590775148227e+04 9.999951533902e-01 4.846609766740e-06 -1.470564077152e-09 -1.643653136392e-09 1.433766632142e-12 1.596438636392e-12 
7.000000000000e-01 2.711092434691e+01 9.551800746668e+04 9.549089654233e+04 9.999893763949e-01 1.062360508686e-05 -3.005096872617e-09 -4.836802772276e-09 3.244039221583e-12 5.133029819875e-12 
7.500000000000e-01 6.332813368972e+01 9.513724281739e+04 9.507391468370e+04 9.999751379276e-01 2.486207237262e-05 -7.072478409399e-09 -8.952108469061e-09 7.992415153911e-12 9.591708243068e-12 
8.000000000000e-01 1.517810180515e+02 9.480841903531e+04 9.465663801726e+04 9.999367895989e-01 6.321040109047e-05 -2.019075082782e-08 -3.172524892881e-08 2.326073100237e-11 3.261555034129e-11 
8.500000000000e-01 3.546491855063e+02 9.459337419043e+04 9.423872500492e+04 9.998639203336e-01 1.360796664365e-04 -3.736840251180e-08 -7.477516688842e-08 4.635673184672e-11 7.339474095798e-11 
9.000000000000e-01 7.486322303201e+02 9.456837950385e+04 9.381974727353e+04 9.997331122107e-01 2.668877893112e-04 -1.063353819061e-07 -2.017124182203e-07 1.333097627575e-10 1.798344655811e-10 
9.500000000000e-01 1.844307153922e+03 9.524113771488e+04 9.339683056096e+04 9.979560541808e-01 2.043945819166e-03 -1.041545231618e-06 -3.765535040921e-07 1.215780966715e-09 1.038325693991e-10 
1.000000000000e+00 8.380027022300e+03 1.013250000000e+05 9.294497297770e+04 9.582183479386e-01 4.178165206141e-02 -1.603462946132e-06 -1.090967352529e-06 2.624814201880e-09 1.200170523090e-09 
 TITLE = "Profiles along polylines"
 VARIABLES = "DIST" "PRESSURE1" "PRESSURE2" "PRESSURE_W" "SATURATION1" SATURATION2 "VELOCITY_X1" "VELOCITY_Y1" "VELOCITY_X2" "VELOCITY_Y2" 
 ZONE T="TIME=1.000000000000e+01"
0.000000000000e+00 0.000000000000e+00 1.013250000000e+05 1.013250000000e+05 9.999997872665e-01 2.127334501889e-07 -1.623562893543e-11 -1.199128482952e-11 -1.742245649298e-13 -4.022682113860e-14 
5.000000000000e-02 3.568164924970e+00 1.008877314624e+05 1.008841632975e+05 9.999987300789e-01 1.269921122815e-06 -6.892944458703e-11 2.508675988353e-11 -3.255703554692e-13 2.114696292514e-13 
1.000000000000e-01 5.813297340089e+00 1.004491370049e+05 1.004433237075e+05 9.999978178753e-01 2.182124674621e-06 -1.548802473109e-10 -1.068848806904e-10 -1.763210452340e-13 -1.334440798476e-13 
1.500000000000e-01 7.159170921901e+00 1.000096377311e+05 1.000024785602e+05 9.999972989624e-01 2.701037599806e-06 -1.758621974520e-10 -1.290561560249e-10 -7.892986456180e-14 -7.206544532131e-14 
2.000000000000e-01 7.941399055920e+00 9.956956725353e+04 9.956162585447e+04 9.999969962273e-01 3.003772658494e-06 -1.760024163158e-10 -2.002195281979e-10 -4.640495903721e-14 -4.615851767885e-14 
2.500000000000e-01 8.423759291130e+00 9.912918808813e+04 9.912076432884e+04 9.999968095993e-01 3.190400740927e-06 -1.556787755618e-10 -2.227370109303e-10 -1.061570054619e-14 -1.826146541122e-14 
3.000000000000e-01 8.787665920082e+00 9.868868002638e+04 9.867989236046e+04 9.999966680163e-01 3.331983729704e-06 -2.481537408744e-10 -2.761297307960e-10 1.188813957257e-14 1.182811370164e-14 
3.500000000000e-01 9.233160444624e+00 9.824824237445e+04 9.823900921401e+04 9.999964923943e-01 3.507605722541e-06 -2.351065833818e-10 -3.420004039852e-10 4.641686130328e-14 7.592640060017e-14 
4.000000000000e-01 1.006458127262e+01 9.780817754146e+04 9.779811296019e+04 9.999961687294e-01 3.831270597443e-06 -4.173400100825e-10 -4.001068266460e-10 1.632626798269e-13 1.415931605307e-13 
4.500000000000e-01 1.181772650315e+01 9.736901861709e+04 9.735720089059e+04 9.999954868501e-01 4.513149892249e-06 -6.261515758415e-10 -3.985232035123e-10 3.608776557880e-13 2.445493979876e-13 
5.000000000000e-01 1.558279501943e+01 9.693184997122e+04 9.691626717620e+04 9.999940185249e-01 5.981475072692e-06 -7.481244443703e-10 -4.581053656228e-10 6.132992503775e-13 3.419010138132e-13 
5.500000000000e-01 2.386247105390e+01 9.649916001737e+04 9.647529754631e+04 9.999908332284e-01 9.166771613001e-06 -1.188869998590e-09 -1.364017259732e-09 1.109999260843e-12 1.303736554912e-12 
6.000000000000e-01 4.085060307895e+01 9.607512052659e+04 9.603426992351e+04 9.999842453466e-01 1.575465343540e-05 -2.036938067618e-09 -2.134268155348e-09 2.140261022427e-12 2.201474316452e-12 
6.500000000000e-01 7.501717973522e+01 9.566815548395e+04 9.559313830421e+04 9.999710912113e-01 2.890878869777e-05 -4.321373660617e-09 -4.549862092063e-09 4.728074579343e-12 4.972157422831e-12 
7.000000000000e-01 1.403268982339e+02 9.529215438993e+04 9.515182749170e+04 9.999459287528e-01 5.407124716328e-05 -6.700941647471e-09 -9.531673897048e-09 7.531551654624e-12 1.065863049962e-11 
7.500000000000e-01 2.565561755519e+02 9.496678776727e+04 9.471023159172e+04 9.999012998351e-01 9.870016493041e-05 -1.004759589371e-08 -1.120839560271e-08 1.158430386442e-11 1.261231808830e-11 
8.000000000000e-01 4.553470302801e+02 9.472352819966e+04 9.426818116938e+04 9.998184800842e-01 1.815199157836e-04 -2.240101593485e-08 -2.980988568490e-08 2.680041355794e-11 3.330789892690e-11 
8.500000000000e-01 7.815988485495e+02 9.460703551703e+04 9.382543666848e+04 9.997079400536e-01 2.920599464407e-04 -5.344376267515e-08 -7.253465478520e-08 6.545098742738e-11 7.932397695670e-11 
9.000000000000e-01 1.289741850932e+03 9.467145465593e+04 9.338171280500e+04 9.991393800552e-01 8.606199448336e-04 -1.176379102609e-07 -1.745196202575e-07 1.460336751377e-10 1.855038537381e-10 
9.500000000000e-01 2.812610209084e+03 9.574514013683e+04 9.293252992775e+04 9.949985140090e-01 5.001485990968e-03 -8.281183869659e-07 -1.354261867233e-07 9.422389878766e-10 -1.599981341482e-11 
1.000000000000e+00 8.866544380362e+03 1.013250000000e+05 9.245845561964e+04 9.480572608877e-01 5.194273911233e-02 -1.509193497606e-06 -7.989657511798e-07 2.032615860546e-09 8.043459324002e-10 
 TITLE = "Profiles along polylines"
 VARIABLES = "DIST" "PRESSURE1" "PRESSURE2" "PRESSURE_W" "SATURATION1" SATURATION2 "VELOCITY_X1" "VELOCITY_Y1" "VELOCITY_X2" "VELOCITY_Y2" 
 ZONE T="TIME=2.000000000000e+01"
0.000000000000e+00 0.000000000000e+00 1.013250000000e+05 1.013250000000e+05 9.999996367791e-01 3.632208525062e-07 -1.341121531259e-11 -1.016454763917e-11 -1.871627398562e-13 -4.509866918201e-14 
5.000000000000e-02 6.127860299627e+00 1.008765637297e+05 1.008704358694e+05 9.999978032071e-01 2.196792897147e-06 -6.025741698223e-11 1.846459856701e-11 -3.559886964446e-13 2.312819693264e-13 
1.000000000000e-01 1.076652144570e+01 1.004266357914e+05 1.004158692700e+05 9.999959506789e-01 4.049321050359e-06 -1.456911886110e-10 -1.017573609432e-10 -2.048376629793e-13 -1.522367515301e-13 
1.500000000000e-01 1.435427049397e+01 9.997565170878e+04 9.996129743828e+04 9.999945767660e-01 5.423234010538e-06 -1.951559614202e-10 -1.399535373807e-10 -6.980629301013e-14 -6.994830195585e-14 
2.000000000000e-01 1.738893112268e+01 9.952410640561e+04 9.950671747449e+04 9.999934116031e-01 6.588396912810e-06 -2.234939795225e-10 -2.629709672621e-10 -2.001305396187e-15 1.503442957346e-14 
2.500000000000e-01 2.049508973609e+01 9.907262124228e+04 9.905212615255e+04 9.999922164974e-01 7.783502555148e-06 -2.610078998980e-10 -3.592687684979e-10 1.056504317835e-13 1.309888571834e-13 
3.000000000000e-01 2.451415928604e+01 9.862203239222e+04 9.859751823293e+04 9.999906726886e-01 9.327311379148e-06 -5.098168981485e-10 -5.605866360310e-10 3.104338282814e-13 3.362235838036e-13 
3.500000000000e-01 3.062716373132e+01 9.817351485763e+04 9.814288769390e+04 9.999882998287e-01 1.170017129426e-05 -6.021787481718e-10 -9.009294481738e-10 4.715997807191e-13 7.269380634882e-13 
4.000000000000e-01 4.076303153389e+01 9.772898687779e+04 9.768822384626e+04 9.999844246314e-01 1.557536860120e-05 -1.245957302839e-09 -1.176996071329e-09 1.133057546782e-12 1.051017456181e-12 
4.500000000000e-01 5.749202757110e+01 9.729100512113e+04 9.723351309356e+04 9.999780353569e-01 2.196464306226e-05 -1.923244903012e-09 -1.226129239169e-09 1.885190712046e-12 1.218610336839e-12 
5.000000000000e-01 8.460559283140e+01 9.686334078884e+04 9.677873519601e+04 9.999676610779e-01 3.233892205179e-05 -2.050803033022e-09 -1.315813325354e-09 2.151785621894e-12 1.351258118837e-12 
5.500000000000e-01 1.285802675467e+02 9.645243506049e+04 9.632385479294e+04 9.999509909591e-01 4.900904088045e-05 -2.851026063095e-09 -3.158482495374e-09 3.076238358295e-12 3.429922280844e-12 
6.000000000000e-01 1.959102344644e+02 9.606474822131e+04 9.586883798684e+04 9.999252776644e-01 7.472233564099e-05 -3.534428928770e-09 -3.962080803672e-09 3.926094784817e-12 4.380404534754e-12 
6.500000000000e-01 2.964703184478e+02 9.571010247250e+04 9.541363215406e+04 9.998870130637e-01 1.129869363130e-04 -5.776341307108e-09 -5.978472259098e-09 6.504066718549e-12 6.734582174001e-12 
7.000000000000e-01 4.405252349060e+02 9.539870863663e+04 9.495818340173e+04 9.998320455645e-01 1.679544355022e-04 -6.582838703690e-09 -8.938433669733e-09 7.507664665833e-12 1.018589642509e-11 
7.500000000000e-01 6.369563277881e+02 9.513940242734e+04 9.450244609955e+04 9.997574471612e-01 2.425528388016e-04 -5.413443835581e-09 -7.449547700433e-09 6.352518335219e-12 8.612486343771e-12 
8.000000000000e-01 8.927721456375e+02 9.493915796590e+04 9.404638582026e+04 9.996598128180e-01 3.401871819794e-04 -2.490367211173e-08 -2.976492109911e-08 2.994625202536e-11 3.500194865883e-11 
8.500000000000e-01 1.301994742769e+03 9.489149673565e+04 9.358950199288e+04 9.990526531134e-01 9.473468865677e-04 -6.539068998870e-08 -7.647281343473e-08 7.870256912675e-11 8.923032476763e-11 
9.000000000000e-01 2.095372083880e+03 9.522594340108e+04 9.313057131720e+04 9.976444919187e-01 2.355508081319e-03 -1.051626211720e-07 -1.366644762946e-07 1.284838830433e-10 1.627293533377e-10 
9.500000000000e-01 3.956717922694e+03 9.662271060686e+04 9.266599268416e+04 9.889783823794e-01 1.102161762059e-02 -5.345784642248e-07 1.916294756916e-08 5.946871324894e-10 -7.274563568428e-11 
1.000000000000e+00 9.142097039994e+03 1.013250000000e+05 9.218290296001e+04 9.389900629282e-01 6.100993707177e-02 -9.828169724667e-07 -3.701937996577e-07 1.252318456160e-09 4.222385473860e-10 
 TITLE = "Profiles along polylines"
 VARIABLES = "DIST" "PRESSURE1" "PRESSURE2" "PRESSURE_W" "SATURATION1" SATURATION2 "VELOCITY_X1" "VELOCITY_Y1" "VELOCITY_X2" "VELOCITY_Y2" 
 ZONE T="TIME=3.000000000000e+01"
0.000000000000e+00 0.000000000000e+00 1.013250000000e+05 1.013250000000e+05 9.999994503517e-01 5.496483398426e-07 -2.210347619741e-11 -1.613261040519e-11 -1.784213708713e-13 -3.834193114932e-14 
5.000000000000e-02 9.306961428450e+00 1.008737933902e+05 1.008644864288e+05 9.999966437910e-01 3.356209020366e-06 -9.793780869070e-11 2.839146392030e-11 -3.141379080841e-13 2.215833235166e-13 
1.000000000000e-01 1.737485687885e+01 1.004213437871e+05 1.004039689303e+05 9.999934473618e-01 6.552638215362e-06 -2.390399863500e-10 -1.677893985720e-10 -9.490325196546e-14 -7.423146649650e-14 
1.500000000000e-01 2.499141194676e+01 9.996843425747e+04 9.994344284553e+04 9.999905358328e-01 9.464167234685e-06 -3.394250953888e-10 -2.417353582437e-10 1.026913212577e-13 5.149773919965e-14 
2.000000000000e-01 3.312277273000e+01 9.951602552514e+04 9.948290275241e+04 9.999874243656e-01 1.257563439205e-05 -4.002932253112e-10 -4.753804717781e-10 2.100834565117e-13 2.697271811939e-13 
2.500000000000e-01 4.300034572179e+01 9.906534251821e+04 9.902234217249e+04 9.999836406043e-01 1.635939567746e-05 -4.802819114528e-10 -6.619542976233e-10 3.693558019923e-13 4.945557235642e-13 
3.000000000000e-01 5.638555720222e+01 9.861813650875e+04 9.856175095155e+04 9.999785325294e-01 2.146747055543e-05 -9.276628724393e-10 -1.020525638069e-09 8.136100261335e-13 8.902677129259e-13 
3.500000000000e-01 7.533501545277e+01 9.817645345582e+04 9.810111844037e+04 9.999712315427e-01 2.876845728272e-05 -1.034884245291e-09 -1.529431498691e-09 9.924666755491e-13 1.485999214799e-12 
4.000000000000e-01 1.028663662624e+02 9.774329460613e+04 9.764042823987e+04 9.999607745443e-01 3.922545567014e-05 -1.968012631210e-09 -1.891289425469e-09 2.005842641112e-12 1.914669091601e-12 
4.500000000000e-01 1.422492788789e+02 9.732191248735e+04 9.717966320847e+04 9.999458241604e-01 5.417583956835e-05 -2.777007113473e-09 -1.737421680750e-09 2.922912472573e-12 1.841429242672e-12 
5.000000000000e-01 1.975413069536e+02 9.691634328329e+04 9.671880197634e+04 9.999247916625e-01 7.520833745311e-05 -2.562406223407e-09 -1.728195596531e-09 2.785991743930e-12 1.857433122321e-12 
5.500000000000e-01 2.749959236480e+02 9.653280678565e+04 9.625781086200e+04 9.998955309789e-01 1.044690210841e-04 -3.225922018271e-09 -3.493671817844e-09 3.560000449379e-12 3.871307138345e-12 
6.000000000000e-01 3.788846157009e+02 9.617555296285e+04 9.579666834715e+04 9.998560036589e-01 1.439963411014e-04 -3.359302731648e-09 -3.955105648436e-09 3.770888885065e-12 4.429627929401e-12 
6.500000000000e-01 5.154381911041e+02 9.585078011824e+04 9.533534192713e+04 9.998041571074e-01 1.958428925710e-04 -4.794863252335e-09 -5.135556658766e-09 5.430969921850e-12 5.829048129433e-12 
7.000000000000e-01 6.893244442073e+02 9.556313259755e+04 9.487380815334e+04 9.997379302649e-01 2.620697351400e-04 -4.118509596222e-09 -6.752214284048e-09 4.696508338392e-12 7.744303677783e-12 
7.500000000000e-01 9.023273868784e+02 9.531438693735e+04 9.441205955047e+04 9.996631382364e-01 3.368617635653e-04 -8.510361229179e-09 -1.498160724418e-08 9.896999645285e-12 1.752747112304e-11 
8.000000000000e-01 1.196472612726e+03 9.514634530391e+04 9.394987269119e+04 9.991875233734e-01 8.124766265625e-04 -3.016394623134e-08 -3.493919515817e-08 3.612534686647e-11 4.141714076389e-11 
8.500000000000e-01 1.755282296111e+03 9.524155540627e+04 9.348627311016e+04 9.982497411766e-01 1.750258823436e-03 -7.354842656931e-08 -7.708581328447e-08 8.877576745265e-11 9.174818844369e-11 
9.000000000000e-01 2.674633697834e+03 9.569540001363e+04 9.302076631579e+04 9.959340195485e-01 4.065980451522e-03 -1.063458711612e-07 -1.284507556260e-07 1.298898584501e-10 1.557888488760e-10 
9.500000000000e-01 4.680030299543e+03 9.722955286802e+04 9.254952256848e+04 9.836841846622e-01 1.631581533782e-02 -3.836673068073e-07 1.603757649033e-09 4.290571364923e-10 -3.150684327653e-11 
1.000000000000e+00 9.261210681927e+03 1.013250000000e+05 9.206378931807e+04 9.339774820235e-01 6.602251797651e-02 -6.635281398966e-07 -2.410417080265e-07 8.337728857828e-10 2.714858872547e-10 
 TITLE = "Profiles along polylines"
 VARIABLES = "DIST" "PRESSURE1" "PRESSURE2" "PRESSURE_W" "SATURATION1" SATURATION2 "VELOCITY_X1" "VELOCITY_Y1" "VELOCITY_X2" "VELOCITY_Y2" 
 ZONE T="TIME=6.000000000000e+01"
0.000000000000e+00 0.000000000000e+00 1.013250000000e+05 1.013250000000e+05 9.999981685106e-01 1.831489363946e-06 -5.244981818159e-11 -3.850183400754e-11 -1.236750704177e-13 -6.112766244111e-15 
5.000000000000e-02 3.116397440482e+01 1.008873411615e+05 1.008561771871e+05 9.999886812331e-01 1.131876689275e-05 -2.303411921146e-10 7.140121325696e-11 -1.160859352853e-13 1.474638707434e-13 
1.000000000000e-01 6.224988322053e+01 1.004495949180e+05 1.003873450348e+05 9.999764770354e-01 2.352296463326e-05 -5.458416764035e-10 -3.795640096903e-10 3.105540106503e-13 2.075910850465e-13 
1.500000000000e-01 9.509074052986e+01 1.000135839962e+05 9.991849325566e+04 9.999639690454e-01 3.603095460991e-05 -7.147397192631e-10 -5.140245179020e-10 5.861693476235e-13 4.034981620168e-13 
2.000000000000e-01 1.315803969263e+02 9.958119189329e+04 9.944961149636e+04 9.999500721103e-01 4.992788968627e-05 -7.823606851021e-10 -9.140500966561e-10 6.997388345621e-13 8.309139478355e-13 
2.500000000000e-01 1.736050168670e+02 9.915429487694e+04 9.898068986007e+04 9.999340637567e-01 6.593624327778e-05 -8.070616835698e-10 -1.138717888066e-09 7.887280338858e-13 1.104629182137e-12 
3.000000000000e-01 2.235715210841e+02 9.873528650845e+04 9.851171498737e+04 9.999150930661e-01 8.490693388197e-05 -1.391132804178e-09 -1.541062271963e-09 1.413769953554e-12 1.563754304796e-12 
3.500000000000e-01 2.833305415709e+02 9.832600811096e+04 9.804267756939e+04 9.998922132032e-01 1.077867968247e-04 -1.334231996450e-09 -1.925603189294e-09 1.393106348644e-12 2.022190191060e-12 
4.000000000000e-01 3.552523716318e+02 9.792881742644e+04 9.757356505481e+04 9.998650285658e-01 1.349714342225e-04 -2.168349804468e-09 -2.137560655081e-09 2.316472933901e-12 2.279007332438e-12 
4.500000000000e-01 4.410589934328e+02 9.754542791161e+04 9.710436891817e+04 9.998325991262e-01 1.674008737665e-04 -2.691519089738e-09 -1.636764363670e-09 2.913124427547e-12 1.777714648815e-12 
5.000000000000e-01 5.424067097404e+02 9.717748769840e+04 9.663508098866e+04 9.997942042403e-01 2.057957597424e-04 -2.075483196762e-09 -1.491162547551e-09 2.280336396758e-12 1.628717921294e-12 
5.500000000000e-01 6.619657825198e+02 9.682765301426e+04 9.616568723174e+04 9.997491021008e-01 2.508978992158e-04 -2.347114881601e-09 -2.458214303655e-09 2.599411074108e-12 2.731018631737e-12 
6.000000000000e-01 8.000190220208e+02 9.649620648822e+04 9.569618746619e+04 9.996966840649e-01 3.033159351167e-04 -2.372721837224e-09 -2.661274713188e-09 2.657126977909e-12 2.980909779019e-12 
6.500000000000e-01 9.583182202321e+02 9.618489124636e+04 9.522657302613e+04 9.996376303180e-01 3.623696820013e-04 -8.246630514422e-09 -8.560453453747e-09 9.527414165799e-12 9.940206513334e-12 
7.000000000000e-01 1.159799436847e+03 9.591652202805e+04 9.475672259121e+04 9.993220380771e-01 6.779619228954e-04 -1.390593380548e-08 -1.874521535771e-08 1.630049297480e-11 2.206458185888e-11 
7.500000000000e-01 1.479453701487e+03 9.576569091758e+04 9.428623721609e+04 9.987411194285e-01 1.258880571492e-03 -1.771027446400e-08 -1.812127424217e-08 2.093218782160e-11 2.156883188522e-11 
8.000000000000e-01 1.960929538564e+03 9.577582001821e+04 9.381489047965e+04 9.978183383762e-01 2.181661623814e-03 -3.264662767816e-08 -3.335115602007e-08 3.954799241502e-11 4.039229218327e-11 
8.500000000000e-01 2.674353979912e+03 9.601667889482e+04 9.334232491490e+04 9.957548117330e-01 4.245188267027e-03 -7.464087428170e-08 -7.415606244830e-08 9.164314989806e-11 9.046473707934e-11 
9.000000000000e-01 3.770391517730e+03 9.663814782069e+04 9.286775630296e+04 9.907525961228e-01 9.247403877166e-03 -9.389913720475e-08 -1.026058487924e-07 1.154660112177e-10 1.256869597031e-10 
9.500000000000e-01 5.865109288733e+03 9.825297298568e+04 9.238786369695e+04 9.722106016312e-01 2.778939836876e-02 -2.024918294245e-07 -2.626345347403e-08 2.306196113200e-10 1.529190667606e-11 
1.000000000000e+00 9.425473108681e+03 1.013250000000e+05 9.189952689132e+04 9.262372801591e-01 7.376271984090e-02 -2.957937150515e-07 -1.154200515576e-07 3.635736834875e-10 1.170288664746e-10 
 ZONE T="TIME=1.200000000000e+02"