 TITLE = "Time curves in points"
 VARIABLES = "TIME"  "Tracer1" 
 ZONE T="POINT=POINT11"
0.000000000000e+00 1.000000000000e-10 
2.160000000000e+04 1.402732538568e-10 
4.320000000000e+04 8.201825717164e-10 
6.480000000000e+04 6.662587158954e-09 
8.640000000000e+04 4.077193894634e-08 
1.080000000000e+05 1.931308324657e-07 
1.296000000000e+05 7.489722672414e-07 
1.512000000000e+05 2.475348053778e-06 
1.728000000000e+05 7.173028465069e-06 
1.944000000000e+05 1.861049799282e-05 
2.160000000000e+05 4.392986790272e-05 
2.376000000000e+05 9.554192010020e-05 
2.592000000000e+05 1.934151020528e-04 
2.808000000000e+05 3.675332233983e-04 
3.024000000000e+05 6.601817370389e-04 
3.240000000000e+05 1.127656306127e-03 
3.456000000000e+05 1.840993241973e-03 
3.672000000000e+05 2.885405379669e-03 
3.888000000000e+05 4.358256224810e-03 
4.104000000000e+05 6.365592209208e-03 
4.320000000000e+05 9.017443075121e-03 
4.536000000000e+05 1.242226073621e-02 
4.752000000000e+05 1.668097285158e-02 
4.968000000000e+05 2.188116648388e-02 
5.184000000000e+05 2.809189003307e-02 
5.400000000000e+05 3.535947910369e-02 
5.616000000000e+05 4.370469174425e-02 
5.832000000000e+05 5.312130076443e-02 
6.048000000000e+05 6.357615458645e-02 
6.264000000000e+05 7.501059856264e-02 
6.480000000000e+05 8.734305603317e-02 
6.696000000000e+05 1.004725074451e-01 
6.912000000000e+05 1.142825767716e-01 
7.128000000000e+05 1.286459338714e-01 
7.344000000000e+05 1.434287436739e-01 
7.560000000000e+05 1.584949315015e-01 
7.776000000000e+05 1.737100817731e-01 
7.992000000000e+05 1.889448387986e-01 
8.208000000000e+05 2.040777285479e-01 
8.424000000000e+05 2.189973656385e-01 
8.640000000000e+05 2.336040481020e-01 
8.856000000000e+05 2.478107726908e-01 
9.072000000000e+05 2.615437253942e-01 
9.288000000000e+05 2.747423159744e-01 
9.504000000000e+05 2.873588326579e-01 
9.720000000000e+05 2.993577948183e-01 
9.936000000000e+05 3.107150788402e-01 
1.015200000000e+06 3.214168865661e-01 
1.036800000000e+06 3.314586179213e-01 
1.058400000000e+06 3.408437004023e-01 
1.080000000000e+06 3.495824188554e-01 
1.101600000000e+06 3.576907799357e-01 
1.123200000000e+06 3.651894372151e-01 
1.144800000000e+06 3.721026953608e-01 
1.166400000000e+06 3.784576052680e-01 
1.188000000000e+06 3.842831565544e-01 
1.209600000000e+06 3.896095693788e-01 
1.231200000000e+06 3.944676840681e-01 
1.252800000000e+06 3.988884444327e-01 
1.274400000000e+06 4.029024687941e-01 
1.296000000000e+06 4.065397015403e-01 
1.317600000000e+06 4.098291373336e-01 
1.339200000000e+06 4.127986098245e-01 
1.360800000000e+06 4.154746367769e-01 
1.382400000000e+06 4.178823138001e-01 
1.404000000000e+06 4.200452493368e-01 
1.425600000000e+06 4.219855341254e-01 
1.447200000000e+06 4.237237389844e-01 
1.468800000000e+06 4.252789354201e-01 
1.490400000000e+06 4.266687342140e-01 
1.512000000000e+06 4.279093377788e-01 
1.533600000000e+06 4.290156026683e-01 
1.555200000000e+06 4.300011091760e-01 
1.576800000000e+06 4.308782354617e-01 
1.598400000000e+06 4.316582340926e-01 
1.620000000000e+06 4.323513092838e-01 
1.641600000000e+06 4.329666934707e-01 
1.663200000000e+06 4.335127221438e-01 
1.684800000000e+06 4.339969061368e-01 
1.706400000000e+06 4.344260007699e-01 
1.728000000000e+06 4.348060714366e-01 
1.749600000000e+06 4.351425553670e-01 
1.771200000000e+06 4.354403194248e-01 
1.792800000000e+06 4.357037138920e-01 
1.814400000000e+06 4.359366222717e-01 
1.836000000000e+06 4.361425071996e-01 
1.857600000000e+06 4.363244525983e-01 
1.879200000000e+06 4.364852022423e-01 
1.900800000000e+06 4.366271949223e-01 
1.922400000000e+06 4.367525964117e-01 
1.944000000000e+06 4.368633284473e-01 
1.965600000000e+06 4.369610949339e-01 
1.987200000000e+06 4.370474055852e-01 
2.008800000000e+06 4.371235972050e-01 
2.030400000000e+06 4.371908528055e-01 
2.052000000000e+06 4.372502187513e-01 
2.073600000000e+06 4.373026201070e-01 
2.095200000000e+06 4.373488743532e-01 
2.116800000000e+06 4.373897036287e-01 
2.138400000000e+06 4.374257456402e-01 
2.160000000000e+06 4.374575633735e-01 
