 TITLE = "Time curves in points"
 VARIABLES = "TIME"  "WATER1"  "PRESSURE1"  "TEMPERATURE1"  "VELOCITY_X1"  "VELOCITY_Y1"  "VELOCITY_Z1" 
 ZONE T="POINT=POINT2"
0.000000000000e+00 0.000000000000e+00 1.013250000000e+05 3.181500000000e+02 0.000000000000e+00 0.000000000000e+00 0.000000000000e+00 
8.640000000000e+04 7.347443879178e-13 1.061353835415e+04 3.181500000000e+02 1.066699999597e-08 0.000000000000e+00 0.000000000000e+00 
1.728000000000e+05 1.260586006374e-11 1.061353835869e+04 3.181500000000e+02 1.066700000028e-08 0.000000000000e+00 0.000000000000e+00 
2.592000000000e+05 1.019313608596e-10 1.061353836187e+04 3.181500000000e+02 1.066700000401e-08 0.000000000000e+00 0.000000000000e+00 
3.456000000000e+05 5.566562815272e-10 1.061353836511e+04 3.181500000000e+02 1.066700000695e-08 0.000000000000e+00 0.000000000000e+00 
4.320000000000e+05 2.340466512731e-09 1.061353836601e+04 3.181500000000e+02 1.066700000798e-08 0.000000000000e+00 0.000000000000e+00 
5.184000000000e+05 8.115013588781e-09 1.061353837047e+04 3.181500000000e+02 1.066700001254e-08 0.000000000000e+00 0.000000000000e+00 
6.048000000000e+05 2.420897846905e-08 1.061353835354e+04 3.181500000000e+02 1.066699999580e-08 0.000000000000e+00 0.000000000000e+00 
6.912000000000e+05 6.395573427750e-08 1.061353836138e+04 3.181500000000e+02 1.066700000291e-08 0.000000000000e+00 0.000000000000e+00 
7.776000000000e+05 1.527713776633e-07 1.061353836099e+04 3.181500000000e+02 1.066700000320e-08 0.000000000000e+00 0.000000000000e+00 
8.640000000000e+05 3.351890190927e-07 -1.618451478939e-33 3.181500000000e+02 -1.671157011253e-45 0.000000000000e+00 0.000000000000e+00 
9.504000000000e+05 6.672478752685e-07 -5.323627927091e-71 3.181500000000e+02 -5.687164230976e-83 0.000000000000e+00 0.000000000000e+00 
1.036800000000e+06 1.252165676509e-06 -8.499761314962e-108 3.181500000000e+02 -8.585600201622e-120 0.000000000000e+00 0.000000000000e+00 
1.123200000000e+06 2.230838559796e-06 3.565212312838e-145 3.181500000000e+02 3.490941296853e-157 0.000000000000e+00 0.000000000000e+00 
1.209600000000e+06 3.795454193616e-06 -2.649671125868e-183 3.181500000000e+02 -3.346247612589e-195 0.000000000000e+00 0.000000000000e+00 
1.296000000000e+06 6.197361696333e-06 1.557528872265e-219 3.181500000000e+02 1.594772671869e-231 0.000000000000e+00 0.000000000000e+00 
1.382400000000e+06 9.752861987101e-06 -7.807111214022e-258 3.181500000000e+02 -7.954584762195e-270 0.000000000000e+00 0.000000000000e+00 
1.468800000000e+06 1.484603737238e-05 1.108464077688e-293 3.181500000000e+02 1.137006155086e-305 0.000000000000e+00 0.000000000000e+00 
1.555200000000e+06 2.192794126839e-05 -2.869953324660e-312 3.181500000000e+02 0.000000000000e+00 0.000000000000e+00 0.000000000000e+00 
1.641600000000e+06 3.151177668202e-05 2.337906849459e-312 3.181500000000e+02 0.000000000000e+00 0.000000000000e+00 0.000000000000e+00 
1.728000000000e+06 4.416406413002e-05 8.561791440478e-313 3.181500000000e+02 0.000000000000e+00 0.000000000000e+00 0.000000000000e+00 
1.814400000000e+06 6.049218078144e-05 3.516816901817e-312 3.181500000000e+02 0.000000000000e+00 0.000000000000e+00 0.000000000000e+00 
1.900800000000e+06 8.112898652426e-05 -3.189729109689e-312 3.181500000000e+02 0.000000000000e+00 0.000000000000e+00 0.000000000000e+00 
1.987200000000e+06 1.067154947306e-04 -3.237633847233e-312 3.181500000000e+02 0.000000000000e+00 0.000000000000e+00 0.000000000000e+00 
2.073600000000e+06 1.378826707289e-04 1.745792258698e-312 3.181500000000e+02 0.000000000000e+00 0.000000000000e+00 0.000000000000e+00 
2.160000000000e+06 1.752334461095e-04 -9.724700369869e-313 3.181500000000e+02 0.000000000000e+00 0.000000000000e+00 0.000000000000e+00 
2.246400000000e+06 2.193259372342e-04 -8.443921991842e-313 3.181500000000e+02 0.000000000000e+00 0.000000000000e+00 0.000000000000e+00 
2.332800000000e+06 2.706586791002e-04 1.224408594497e-312 3.181500000000e+02 0.000000000000e+00 0.000000000000e+00 0.000000000000e+00 
2.419200000000e+06 3.296584634261e-04 -1.434156716523e-312 3.181500000000e+02 0.000000000000e+00 0.000000000000e+00 0.000000000000e+00 
2.505600000000e+06 3.966711336878e-04 -3.071026466732e-312 3.181499999999e+02 0.000000000000e+00 0.000000000000e+00 0.000000000000e+00 
2.592000000000e+06 4.719554656194e-04 1.771394126980e-312 3.181499999999e+02 0.000000000000e+00 0.000000000000e+00 0.000000000000e+00 
2.678400000000e+06 5.556800676612e-04 -4.121042895276e-312 3.181499999999e+02 0.000000000000e+00 0.000000000000e+00 0.000000000000e+00 
2.764800000000e+06 6.479230824396e-04 8.812444160450e-313 3.181499999999e+02 0.000000000000e+00 0.000000000000e+00 0.000000000000e+00 
2.851200000000e+06 7.486743611836e-04 8.663758846338e-313 3.181499999999e+02 0.000000000000e+00 0.000000000000e+00 0.000000000000e+00 
2.937600000000e+06 8.578397163722e-04 5.093061380423e-313 3.181499999999e+02 0.000000000000e+00 0.000000000000e+00 0.000000000000e+00 
3.024000000000e+06 9.752468286940e-04 -4.243258983090e-312 3.181499999999e+02 0.000000000000e+00 0.000000000000e+00 0.000000000000e+00 
3.110400000000e+06 1.100652385573e-03 -1.654026739464e-312 3.181499999999e+02 0.000000000000e+00 0.000000000000e+00 0.000000000000e+00 
3.196800000000e+06 1.233750052450e-03 1.176098779160e-312 3.181499999999e+02 0.000000000000e+00 0.000000000000e+00 0.000000000000e+00 
3.283200000000e+06 1.374178917433e-03 8.342574101842e-312 3.181499999999e+02 0.000000000000e+00 0.000000000000e+00 0.000000000000e+00 
3.369600000000e+06 1.521532098472e-03 -2.041245292130e-312 3.181499999999e+02 0.000000000000e+00 0.000000000000e+00 0.000000000000e+00 
3.456000000000e+06 1.675365254630e-03 2.637465162552e-313 3.181499999999e+02 0.000000000000e+00 0.000000000000e+00 0.000000000000e+00 
3.542400000000e+06 1.835204795381e-03 -4.412110901355e-312 3.181499999999e+02 0.000000000000e+00 0.000000000000e+00 0.000000000000e+00 
3.628800000000e+06 2.000555631310e-03 2.496031622899e-312 3.181499999999e+02 0.000000000000e+00 0.000000000000e+00 0.000000000000e+00 
3.715200000000e+06 2.170908354325e-03 9.236421359606e-313 3.181499999999e+02 0.000000000000e+00 0.000000000000e+00 0.000000000000e+00 
3.801600000000e+06 2.345745774503e-03 -2.033970279323e-312 3.181499999999e+02 0.000000000000e+00 0.000000000000e+00 0.000000000000e+00 
3.888000000000e+06 2.524548773623e-03 1.111279923759e-312 3.181499999999e+02 0.000000000000e+00 0.000000000000e+00 0.000000000000e+00 
3.974400000000e+06 2.706801462332e-03 5.853671477615e-313 3.181499999999e+02 0.000000000000e+00 0.000000000000e+00 0.000000000000e+00 
4.060800000000e+06 2.891995649165e-03 -6.141257110412e-312 3.181499999999e+02 0.000000000000e+00 0.000000000000e+00 0.000000000000e+00 
4.147200000000e+06 3.079634645799e-03 -1.898181215852e-312 3.181499999999e+02 0.000000000000e+00 0.000000000000e+00 0.000000000000e+00 
4.233600000000e+06 3.269236444697e-03 3.813378788467e-312 3.181499999999e+02 0.000000000000e+00 0.000000000000e+00 0.000000000000e+00 
4.320000000000e+06 3.460336313246e-03 -4.827001360586e-314 3.181499999998e+02 0.000000000000e+00 0.000000000000e+00 0.000000000000e+00 
4.406400000000e+06 3.652488853442e-03 2.205788187265e-312 3.181499999998e+02 0.000000000000e+00 0.000000000000e+00 0.000000000000e+00 
4.492800000000e+06 3.845269578509e-03 4.432970515203e-312 3.181499999998e+02 0.000000000000e+00 0.000000000000e+00 0.000000000000e+00 
4.579200000000e+06 4.038276058368e-03 -2.141377950891e-312 3.181499999998e+02 0.000000000000e+00 0.000000000000e+00 0.000000000000e+00 
4.665600000000e+06 4.231128684773e-03 4.814511093167e-313 3.181499999998e+02 0.000000000000e+00 0.000000000000e+00 0.000000000000e+00 
4.752000000000e+06 4.423471104913e-03 -2.616814474955e-312 3.181499999998e+02 0.000000000000e+00 0.000000000000e+00 0.000000000000e+00 
4.838400000000e+06 4.614970369364e-03 -2.651201865704e-312 3.181499999998e+02 0.000000000000e+00 0.000000000000e+00 0.000000000000e+00 
4.924800000000e+06 4.805316837002e-03 -1.137567316755e-314 3.181499999998e+02 0.000000000000e+00 0.000000000000e+00 0.000000000000e+00 
5.011200000000e+06 4.994223875883e-03 9.631457456850e-313 3.181499999998e+02 0.000000000000e+00 0.000000000000e+00 0.000000000000e+00 
5.097600000000e+06 5.181427395408e-03 -2.934238404813e-312 3.181499999998e+02 0.000000000000e+00 0.000000000000e+00 0.000000000000e+00 
5.184000000000e+06 5.366685241425e-03 4.120422231094e-312 3.181499999998e+02 0.000000000000e+00 0.000000000000e+00 0.000000000000e+00 
5.270400000000e+06 5.549776482370e-03 -7.256120799160e-313 3.181499999998e+02 0.000000000000e+00 0.000000000000e+00 0.000000000000e+00 
5.356800000000e+06 5.730500611167e-03 2.369266634126e-312 3.181499999998e+02 0.000000000000e+00 0.000000000000e+00 0.000000000000e+00 
5.443200000000e+06 5.908676684447e-03 4.108802605657e-313 3.181499999998e+02 0.000000000000e+00 0.000000000000e+00 0.000000000000e+00 
5.529600000000e+06 6.084142417731e-03 3.947860903252e-312 3.181499999998e+02 0.000000000000e+00 0.000000000000e+00 0.000000000000e+00 
5.616000000000e+06 6.256753252562e-03 -5.048008931594e-313 3.181499999998e+02 0.000000000000e+00 0.000000000000e+00 0.000000000000e+00 
5.702400000000e+06 6.426381409135e-03 -6.922019822382e-312 3.181499999998e+02 0.000000000000e+00 0.000000000000e+00 0.000000000000e+00 
5.788800000000e+06 6.592914935847e-03 2.623795421406e-312 3.181499999998e+02 0.000000000000e+00 0.000000000000e+00 0.000000000000e+00 
5.875200000000e+06 6.756256765253e-03 -3.951308725070e-312 3.181499999997e+02 0.000000000000e+00 0.000000000000e+00 0.000000000000e+00 
5.961600000000e+06 6.916323784199e-03 -5.215659557130e-312 3.181499999997e+02 0.000000000000e+00 0.000000000000e+00 0.000000000000e+00 
6.048000000000e+06 7.073045924441e-03 1.629375080643e-312 3.181499999997e+02 0.000000000000e+00 0.000000000000e+00 0.000000000000e+00 
6.134400000000e+06 7.226365278748e-03 7.670905583114e-313 3.181499999997e+02 0.000000000000e+00 0.000000000000e+00 0.000000000000e+00 
6.220800000000e+06 7.376235246372e-03 -3.415538669159e-312 3.181499999997e+02 0.000000000000e+00 0.000000000000e+00 0.000000000000e+00 
6.307200000000e+06 7.522619710780e-03 -2.419147098840e-312 3.181499999997e+02 0.000000000000e+00 0.000000000000e+00 0.000000000000e+00 
6.393600000000e+06 7.665492251761e-03 8.999861133632e-314 3.181499999997e+02 0.000000000000e+00 0.000000000000e+00 0.000000000000e+00 
6.480000000000e+06 7.804835393276e-03 -1.390403114548e-313 3.181499999997e+02 0.000000000000e+00 0.000000000000e+00 0.000000000000e+00 
6.566400000000e+06 7.940639887866e-03 -7.811067531934e-312 3.181499999997e+02 0.000000000000e+00 0.000000000000e+00 0.000000000000e+00 
6.652800000000e+06 8.072904037923e-03 -5.027782623916e-313 3.181499999997e+02 0.000000000000e+00 0.000000000000e+00 0.000000000000e+00 
6.739200000000e+06 8.201633053730e-03 -1.592675275529e-312 3.181499999997e+02 0.000000000000e+00 0.000000000000e+00 0.000000000000e+00 
6.825600000000e+06 8.326838447847e-03 3.081613309230e-313 3.181499999997e+02 0.000000000000e+00 0.000000000000e+00 0.000000000000e+00 
6.912000000000e+06 8.448537465151e-03 -2.539482261616e-312 3.181499999997e+02 0.000000000000e+00 0.000000000000e+00 0.000000000000e+00 
6.998400000000e+06 8.566752547617e-03 2.329209552337e-312 3.181499999997e+02 0.000000000000e+00 0.000000000000e+00 0.000000000000e+00 
7.084800000000e+06 8.681510832793e-03 3.617826556512e-312 3.181499999996e+02 0.000000000000e+00 0.000000000000e+00 0.000000000000e+00 
7.171200000000e+06 8.792843684749e-03 -6.530051576813e-313 3.181499999996e+02 0.000000000000e+00 0.000000000000e+00 0.000000000000e+00 
7.257600000000e+06 8.900786256245e-03 -2.259360082023e-312 3.181499999996e+02 0.000000000000e+00 0.000000000000e+00 0.000000000000e+00 
7.344000000000e+06 9.005377080754e-03 -7.107992091425e-312 3.181499999996e+02 0.000000000000e+00 0.000000000000e+00 0.000000000000e+00 
7.430400000000e+06 9.106657692976e-03 6.505315436636e-313 3.181499999996e+02 0.000000000000e+00 0.000000000000e+00 0.000000000000e+00 
7.516800000000e+06 9.204672276437e-03 -2.918125376115e-312 3.181499999996e+02 0.000000000000e+00 0.000000000000e+00 0.000000000000e+00 
7.603200000000e+06 9.299467336785e-03 -2.233123913570e-312 3.181499999996e+02 0.000000000000e+00 0.000000000000e+00 0.000000000000e+00 
7.689600000000e+06 9.391091399383e-03 9.560757819538e-313 3.181499999996e+02 0.000000000000e+00 0.000000000000e+00 0.000000000000e+00 
7.776000000000e+06 9.479594729863e-03 4.203488401921e-313 3.181499999996e+02 0.000000000000e+00 0.000000000000e+00 0.000000000000e+00 
7.862400000000e+06 9.565029076293e-03 -4.299762522454e-312 3.181499999996e+02 0.000000000000e+00 0.000000000000e+00 0.000000000000e+00 
7.948800000000e+06 9.647447431672e-03 -5.227920054840e-313 3.181499999996e+02 0.000000000000e+00 0.000000000000e+00 0.000000000000e+00 
8.035200000000e+06 9.726903815517e-03 -1.137439616453e-312 3.181499999996e+02 0.000000000000e+00 0.000000000000e+00 0.000000000000e+00 
8.121600000000e+06 9.803453073336e-03 -3.908624740659e-312 3.181499999996e+02 0.000000000000e+00 0.000000000000e+00 0.000000000000e+00 
8.208000000000e+06 9.877150692838e-03 -1.749638563383e-312 3.181499999996e+02 0.000000000000e+00 0.000000000000e+00 0.000000000000e+00 
8.294400000000e+06 9.948052635790e-03 -2.154787905443e-312 3.181499999996e+02 0.000000000000e+00 0.000000000000e+00 0.000000000000e+00 
8.380800000000e+06 1.001621518448e-02 -6.170763178776e-312 3.181499999995e+02 0.000000000000e+00 0.000000000000e+00 0.000000000000e+00 
8.467200000000e+06 1.008169480176e-02 2.473139544133e-312 3.181499999995e+02 0.000000000000e+00 0.000000000000e+00 0.000000000000e+00 
8.553600000000e+06 1.014454800381e-02 -2.579101682339e-312 3.181499999995e+02 0.000000000000e+00 0.000000000000e+00 0.000000000000e+00 
8.640000000000e+06 1.020483124464e-02 1.979180389275e-312 3.181499999995e+02 0.000000000000e+00 0.000000000000e+00 0.000000000000e+00 
8.726400000000e+06 1.026260081153e-02 2.726905412347e-312 3.181499999995e+02 0.000000000000e+00 0.000000000000e+00 0.000000000000e+00 
8.812800000000e+06 1.031791273065e-02 -1.547660696358e-312 3.181499999995e+02 0.000000000000e+00 0.000000000000e+00 0.000000000000e+00 
8.899200000000e+06 1.037082268211e-02 4.894005147962e-312 3.181499999995e+02 0.000000000000e+00 0.000000000000e+00 0.000000000000e+00 
8.985600000000e+06 1.042138592362e-02 -2.197558759095e-312 3.181499999995e+02 0.000000000000e+00 0.000000000000e+00 0.000000000000e+00 
9.072000000000e+06 1.046965722233e-02 1.062916489938e-312 3.181499999995e+02 0.000000000000e+00 0.000000000000e+00 0.000000000000e+00 
9.158400000000e+06 1.051569079406e-02 5.800888499286e-313 3.181499999995e+02 0.000000000000e+00 0.000000000000e+00 0.000000000000e+00 
9.244800000000e+06 1.055954024937e-02 3.727708571873e-313 3.181499999995e+02 0.000000000000e+00 0.000000000000e+00 0.000000000000e+00 
9.331200000000e+06 1.060125854602e-02 8.901363164641e-313 3.181499999995e+02 0.000000000000e+00 0.000000000000e+00 0.000000000000e+00 
9.417600000000e+06 1.064089794726e-02 1.788705815475e-312 3.181499999995e+02 0.000000000000e+00 0.000000000000e+00 0.000000000000e+00 
9.504000000000e+06 1.067850998541e-02 -1.799098698363e-312 3.181499999995e+02 0.000000000000e+00 0.000000000000e+00 0.000000000000e+00 
9.590400000000e+06 1.071414543050e-02 1.958369815410e-312 3.181499999995e+02 0.000000000000e+00 0.000000000000e+00 0.000000000000e+00 
9.676800000000e+06 1.074785426336e-02 -2.831447894816e-312 3.181499999995e+02 0.000000000000e+00 0.000000000000e+00 0.000000000000e+00 
9.763200000000e+06 1.077968565285e-02 1.787333148158e-312 3.181499999995e+02 0.000000000000e+00 0.000000000000e+00 0.000000000000e+00 
9.849600000000e+06 1.080968793692e-02 -2.849533478920e-312 3.181499999994e+02 0.000000000000e+00 0.000000000000e+00 0.000000000000e+00 
9.936000000000e+06 1.083790860718e-02 1.220134279217e-312 3.181499999994e+02 0.000000000000e+00 0.000000000000e+00 0.000000000000e+00 
1.002240000000e+07 1.086439429660e-02 2.370389361163e-312 3.181499999994e+02 0.000000000000e+00 0.000000000000e+00 0.000000000000e+00 
1.010880000000e+07 1.088919077010e-02 1.430445239320e-312 3.181499999994e+02 0.000000000000e+00 0.000000000000e+00 0.000000000000e+00 
1.019520000000e+07 1.091234291781e-02 -2.358540308828e-312 3.181499999994e+02 0.000000000000e+00 0.000000000000e+00 0.000000000000e+00 
1.028160000000e+07 1.093389475073e-02 1.860830673269e-312 3.181499999994e+02 0.000000000000e+00 0.000000000000e+00 0.000000000000e+00 
1.036800000000e+07 1.095388939852e-02 1.351610617371e-313 3.181499999994e+02 0.000000000000e+00 0.000000000000e+00 0.000000000000e+00 
1.045440000000e+07 1.097236910930e-02 1.681648340951e-312 3.181499999994e+02 0.000000000000e+00 0.000000000000e+00 0.000000000000e+00 
1.054080000000e+07 1.098937525123e-02 -1.154599543139e-312 3.181499999994e+02 0.000000000000e+00 0.000000000000e+00 0.000000000000e+00 
1.062720000000e+07 1.100494831569e-02 -3.740597674693e-312 3.181499999994e+02 0.000000000000e+00 0.000000000000e+00 0.000000000000e+00 
1.071360000000e+07 1.101912792186e-02 -1.069377910523e-312 3.181499999994e+02 0.000000000000e+00 0.000000000000e+00 0.000000000000e+00 
1.080000000000e+07 1.103195282267e-02 -8.284809650582e-314 3.181499999994e+02 0.000000000000e+00 0.000000000000e+00 0.000000000000e+00 
1.088640000000e+07 1.104346091183e-02 7.391812759013e-313 3.181499999994e+02 0.000000000000e+00 0.000000000000e+00 0.000000000000e+00 
1.097280000000e+07 1.105368923198e-02 2.717888110587e-313 3.181499999994e+02 0.000000000000e+00 0.000000000000e+00 0.000000000000e+00 
1.105920000000e+07 1.106267398363e-02 3.363824225925e-312 3.181499999994e+02 0.000000000000e+00 0.000000000000e+00 0.000000000000e+00 
1.114560000000e+07 1.107045053505e-02 -2.140851960230e-312 3.181499999994e+02 0.000000000000e+00 0.000000000000e+00 0.000000000000e+00 
1.123200000000e+07 1.107705343274e-02 -9.502085405936e-313 3.181499999994e+02 0.000000000000e+00 0.000000000000e+00 0.000000000000e+00 
1.131840000000e+07 1.108251641258e-02 1.299548383933e-313 3.181499999994e+02 0.000000000000e+00 0.000000000000e+00 0.000000000000e+00 
1.140480000000e+07 1.108687241154e-02 1.161093571232e-312 3.181499999994e+02 0.000000000000e+00 0.000000000000e+00 0.000000000000e+00 
1.149120000000e+07 1.109015357978e-02 -1.612304774797e-312 3.181499999994e+02 0.000000000000e+00 0.000000000000e+00 0.000000000000e+00 
1.157760000000e+07 1.109239129319e-02 -1.602471795388e-312 3.181499999993e+02 0.000000000000e+00 0.000000000000e+00 0.000000000000e+00 
1.166400000000e+07 1.109361616625e-02 -1.501338589717e-312 3.181499999993e+02 0.000000000000e+00 0.000000000000e+00 0.000000000000e+00 
1.175040000000e+07 1.109385806511e-02 -2.465350213317e-312 3.181499999993e+02 0.000000000000e+00 0.000000000000e+00 0.000000000000e+00 
1.183680000000e+07 1.109314612099e-02 -5.205595028630e-313 3.181499999993e+02 0.000000000000e+00 0.000000000000e+00 0.000000000000e+00 
1.192320000000e+07 1.109150874362e-02 7.029827563677e-313 3.181499999993e+02 0.000000000000e+00 0.000000000000e+00 0.000000000000e+00 
1.200960000000e+07 1.108897363491e-02 -2.703763875821e-312 3.181499999993e+02 0.000000000000e+00 0.000000000000e+00 0.000000000000e+00 
1.209600000000e+07 1.108556780265e-02 7.517825469555e-312 3.181499999993e+02 0.000000000000e+00 0.000000000000e+00 0.000000000000e+00 
1.218240000000e+07 1.108131757422e-02 -1.753938244803e-313 3.181499999993e+02 0.000000000000e+00 0.000000000000e+00 0.000000000000e+00 
1.226880000000e+07 1.107624861046e-02 1.893429320316e-312 3.181499999993e+02 0.000000000000e+00 0.000000000000e+00 0.000000000000e+00 
1.235520000000e+07 1.107038591933e-02 -3.387803802999e-313 3.181499999993e+02 0.000000000000e+00 0.000000000000e+00 0.000000000000e+00 
1.244160000000e+07 1.106375386968e-02 -2.104465478348e-312 3.181499999993e+02 0.000000000000e+00 0.000000000000e+00 0.000000000000e+00 
1.252800000000e+07 1.105637620490e-02 1.916994676047e-313 3.181499999993e+02 0.000000000000e+00 0.000000000000e+00 0.000000000000e+00 
1.261440000000e+07 1.104827605647e-02 5.341872169715e-313 3.181499999993e+02 0.000000000000e+00 0.000000000000e+00 0.000000000000e+00 
1.270080000000e+07 1.103947595745e-02 -7.152383768490e-312 3.181499999993e+02 0.000000000000e+00 0.000000000000e+00 0.000000000000e+00 
1.278720000000e+07 1.102999785577e-02 1.313503739834e-313 3.181499999993e+02 0.000000000000e+00 0.000000000000e+00 0.000000000000e+00 
1.287360000000e+07 1.101986312749e-02 2.610184588824e-312 3.181499999993e+02 0.000000000000e+00 0.000000000000e+00 0.000000000000e+00 
1.296000000000e+07 1.100909258980e-02 -8.105486643467e-313 3.181499999993e+02 0.000000000000e+00 0.000000000000e+00 0.000000000000e+00 
1.304640000000e+07 1.099770651397e-02 -6.992223770460e-313 3.181499999993e+02 0.000000000000e+00 0.000000000000e+00 0.000000000000e+00 
1.313280000000e+07 1.098572463800e-02 -1.072125406833e-312 3.181499999993e+02 0.000000000000e+00 0.000000000000e+00 0.000000000000e+00 
1.321920000000e+07 1.097316617919e-02 3.797678611774e-313 3.181499999993e+02 0.000000000000e+00 0.000000000000e+00 0.000000000000e+00 
1.330560000000e+07 1.096004984650e-02 2.433438714747e-313 3.181499999993e+02 0.000000000000e+00 0.000000000000e+00 0.000000000000e+00 
1.339200000000e+07 1.094639385267e-02 5.367562553829e-312 3.181499999993e+02 0.000000000000e+00 0.000000000000e+00 0.000000000000e+00 
1.347840000000e+07 1.093221592619e-02 1.955726915604e-312 3.181499999992e+02 0.000000000000e+00 0.000000000000e+00 0.000000000000e+00 
1.356480000000e+07 1.091753332303e-02 5.984356464209e-313 3.181499999992e+02 0.000000000000e+00 0.000000000000e+00 0.000000000000e+00 
1.365120000000e+07 1.090236283820e-02 1.547985296573e-312 3.181499999992e+02 0.000000000000e+00 0.000000000000e+00 0.000000000000e+00 
1.373760000000e+07 1.088672081705e-02 2.541181309148e-312 3.181499999992e+02 0.000000000000e+00 0.000000000000e+00 0.000000000000e+00 
1.382400000000e+07 1.087062316638e-02 2.816254929225e-312 3.181499999992e+02 0.000000000000e+00 0.000000000000e+00 0.000000000000e+00 
1.391040000000e+07 1.085408536535e-02 3.225190805109e-312 3.181499999992e+02 0.000000000000e+00 0.000000000000e+00 0.000000000000e+00 
1.399680000000e+07 1.083712247615e-02 2.683335979172e-312 3.181499999992e+02 0.000000000000e+00 0.000000000000e+00 0.000000000000e+00 
1.408320000000e+07 1.081974915445e-02 -2.761181382030e-312 3.181499999992e+02 0.000000000000e+00 0.000000000000e+00 0.000000000000e+00 
1.416960000000e+07 1.080197965967e-02 1.996906950356e-312 3.181499999992e+02 0.000000000000e+00 0.000000000000e+00 0.000000000000e+00 
1.425600000000e+07 1.078382786498e-02 4.583721506580e-312 3.181499999992e+02 0.000000000000e+00 0.000000000000e+00 0.000000000000e+00 
1.434240000000e+07 1.076530726711e-02 2.370623797258e-312 3.181499999992e+02 0.000000000000e+00 0.000000000000e+00 0.000000000000e+00 
1.442880000000e+07 1.074643099599e-02 -8.197456009696e-313 3.181499999992e+02 0.000000000000e+00 0.000000000000e+00 0.000000000000e+00 
1.451520000000e+07 1.072721182411e-02 3.051602565211e-312 3.181499999992e+02 0.000000000000e+00 0.000000000000e+00 0.000000000000e+00 
1.460160000000e+07 1.070766217566e-02 6.793083253438e-314 3.181499999992e+02 0.000000000000e+00 0.000000000000e+00 0.000000000000e+00 
1.468800000000e+07 1.068779413559e-02 3.069907058330e-313 3.181499999992e+02 0.000000000000e+00 0.000000000000e+00 0.000000000000e+00 
1.477440000000e+07 1.066761945826e-02 -9.398743523777e-313 3.181499999992e+02 0.000000000000e+00 0.000000000000e+00 0.000000000000e+00 
1.486080000000e+07 1.064714957609e-02 3.547839710577e-312 3.181499999992e+02 0.000000000000e+00 0.000000000000e+00 0.000000000000e+00 
1.494720000000e+07 1.062639560788e-02 -5.303634786912e-313 3.181499999992e+02 0.000000000000e+00 0.000000000000e+00 0.000000000000e+00 
1.503360000000e+07 1.060536836697e-02 1.163116288521e-312 3.181499999992e+02 0.000000000000e+00 0.000000000000e+00 0.000000000000e+00 
1.512000000000e+07 1.058407836921e-02 -1.296782090047e-312 3.181499999991e+02 0.000000000000e+00 0.000000000000e+00 0.000000000000e+00 
1.520640000000e+07 1.056253584074e-02 8.490126942366e-314 3.181499999991e+02 0.000000000000e+00 0.000000000000e+00 0.000000000000e+00 
1.529280000000e+07 1.054075072555e-02 -8.050332436744e-313 3.181499999991e+02 0.000000000000e+00 0.000000000000e+00 0.000000000000e+00 
1.537920000000e+07 1.051873269292e-02 1.268709381941e-312 3.181499999991e+02 0.000000000000e+00 0.000000000000e+00 0.000000000000e+00 
1.546560000000e+07 1.049649114463e-02 2.115392804352e-312 3.181499999991e+02 0.000000000000e+00 0.000000000000e+00 0.000000000000e+00 
1.555200000000e+07 1.047403522195e-02 2.284457660325e-312 3.181499999991e+02 0.000000000000e+00 0.000000000000e+00 0.000000000000e+00 
1.563840000000e+07 1.045137381257e-02 -1.473854439723e-312 3.181499999991e+02 0.000000000000e+00 0.000000000000e+00 0.000000000000e+00 
1.572480000000e+07 1.042851555726e-02 2.137138539837e-312 3.181499999991e+02 0.000000000000e+00 0.000000000000e+00 0.000000000000e+00 
1.581120000000e+07 1.040546885641e-02 -6.228119397149e-313 3.181499999991e+02 0.000000000000e+00 0.000000000000e+00 0.000000000000e+00 
1.589760000000e+07 1.038224187636e-02 -3.674223937768e-313 3.181499999991e+02 0.000000000000e+00 0.000000000000e+00 0.000000000000e+00 
1.598400000000e+07 1.035884255563e-02 -3.024911878740e-312 3.181499999991e+02 0.000000000000e+00 0.000000000000e+00 0.000000000000e+00 
1.607040000000e+07 1.033527861094e-02 -8.312886486522e-313 3.181499999991e+02 0.000000000000e+00 0.000000000000e+00 0.000000000000e+00 
1.615680000000e+07 1.031155754312e-02 -4.134032037462e-312 3.181499999991e+02 0.000000000000e+00 0.000000000000e+00 0.000000000000e+00 
1.624320000000e+07 1.028768664281e-02 6.705876549404e-313 3.181499999991e+02 0.000000000000e+00 0.000000000000e+00 0.000000000000e+00 
1.632960000000e+07 1.026367299608e-02 4.161574989015e-312 3.181499999991e+02 0.000000000000e+00 0.000000000000e+00 0.000000000000e+00 
1.641600000000e+07 1.023952348984e-02 -1.654406411684e-312 3.181499999991e+02 0.000000000000e+00 0.000000000000e+00 0.000000000000e+00 
1.650240000000e+07 1.021524481718e-02 -2.101811871734e-312 3.181499999991e+02 0.000000000000e+00 0.000000000000e+00 0.000000000000e+00 
1.658880000000e+07 1.019084348247e-02 -1.672543513599e-312 3.181499999990e+02 0.000000000000e+00 0.000000000000e+00 0.000000000000e+00 
1.667520000000e+07 1.016632580649e-02 -1.491461897362e-312 3.181499999990e+02 0.000000000000e+00 0.000000000000e+00 0.000000000000e+00 
1.676160000000e+07 1.014169793120e-02 1.650361810606e-312 3.181499999990e+02 0.000000000000e+00 0.000000000000e+00 0.000000000000e+00 
1.684800000000e+07 1.011696582463e-02 -3.128559720027e-312 3.181499999990e+02 0.000000000000e+00 0.000000000000e+00 0.000000000000e+00 
1.693440000000e+07 1.009213528543e-02 2.989458510703e-312 3.181499999990e+02 0.000000000000e+00 0.000000000000e+00 0.000000000000e+00 
1.702080000000e+07 1.006721194745e-02 9.028135014117e-313 3.181499999990e+02 0.000000000000e+00 0.000000000000e+00 0.000000000000e+00 
1.710720000000e+07 1.004220128410e-02 1.089433949469e-312 3.181499999990e+02 0.000000000000e+00 0.000000000000e+00 0.000000000000e+00 
1.719360000000e+07 1.001710861269e-02 8.400574716865e-313 3.181499999990e+02 0.000000000000e+00 0.000000000000e+00 0.000000000000e+00 
1.728000000000e+07 9.991939098542e-03 5.237034610878e-313 3.181499999990e+02 0.000000000000e+00 0.000000000000e+00 0.000000000000e+00 
1.736640000000e+07 9.966697759081e-03 1.802736166608e-313 3.181499999990e+02 0.000000000000e+00 0.000000000000e+00 0.000000000000e+00 
1.745280000000e+07 9.941389467797e-03 2.134979593522e-312 3.181499999990e+02 0.000000000000e+00 0.000000000000e+00 0.000000000000e+00 
1.753920000000e+07 9.916018958079e-03 7.156201953547e-312 3.181499999990e+02 0.000000000000e+00 0.000000000000e+00 0.000000000000e+00 
1.762560000000e+07 9.890590826967e-03 -7.843753821947e-313 3.181499999990e+02 0.000000000000e+00 0.000000000000e+00 0.000000000000e+00 
1.771200000000e+07 9.865109538802e-03 1.410322363208e-312 3.181499999990e+02 0.000000000000e+00 0.000000000000e+00 0.000000000000e+00 
1.779840000000e+07 9.839579428769e-03 1.090502734517e-312 3.181499999990e+02 0.000000000000e+00 0.000000000000e+00 0.000000000000e+00 
1.788480000000e+07 9.814004706361e-03 -1.312252181307e-312 3.181499999990e+02 0.000000000000e+00 0.000000000000e+00 0.000000000000e+00 
1.797120000000e+07 9.788389458735e-03 9.297813243476e-313 3.181499999990e+02 0.000000000000e+00 0.000000000000e+00 0.000000000000e+00 
1.805760000000e+07 9.762737653989e-03 -9.338590449584e-313 3.181499999990e+02 0.000000000000e+00 0.000000000000e+00 0.000000000000e+00 
1.814400000000e+07 9.737053144346e-03 -2.001179840666e-312 3.181499999989e+02 0.000000000000e+00 0.000000000000e+00 0.000000000000e+00 
1.823040000000e+07 9.711339669258e-03 -4.418427672849e-313 3.181499999989e+02 0.000000000000e+00 0.000000000000e+00 0.000000000000e+00 
1.831680000000e+07 9.685600858419e-03 -2.947624767192e-312 3.181499999989e+02 0.000000000000e+00 0.000000000000e+00 0.000000000000e+00 
1.840320000000e+07 9.659840234706e-03 1.673024495423e-312 3.181499999989e+02 0.000000000000e+00 0.000000000000e+00 0.000000000000e+00 
1.848960000000e+07 9.634061217037e-03 2.180515416525e-312 3.181499999989e+02 0.000000000000e+00 0.000000000000e+00 0.000000000000e+00 
1.857600000000e+07 9.608267123152e-03 2.690387228774e-312 3.181499999989e+02 0.000000000000e+00 0.000000000000e+00 0.000000000000e+00 
1.866240000000e+07 9.582461172320e-03 7.717847126920e-313 3.181499999989e+02 0.000000000000e+00 0.000000000000e+00 0.000000000000e+00 
1.874880000000e+07 9.556646487977e-03 -3.989731798459e-314 3.181499999989e+02 0.000000000000e+00 0.000000000000e+00 0.000000000000e+00 
1.883520000000e+07 9.530826100285e-03 1.994413636537e-312 3.181499999989e+02 0.000000000000e+00 0.000000000000e+00 0.000000000000e+00 
1.892160000000e+07 9.505002948635e-03 -1.143032623005e-314 3.181499999989e+02 0.000000000000e+00 0.000000000000e+00 0.000000000000e+00 