 TITLE = "Time curves in points"
 VARIABLES = "TIME"  "WATER1"  "PRESSURE1"  "TEMPERATURE1"  "VELOCITY_X1"  "VELOCITY_Y1"  "VELOCITY_Z1" 
 ZONE T="POINT=POINT3"
0.000000000000e+00 0.000000000000e+00 1.013250000000e+05 3.181500000000e+02 0.000000000000e+00 0.000000000000e+00 0.000000000000e+00 
8.640000000000e+04 4.067016987583e-25 1.056032999638e+04 3.181500000000e+02 1.066699999614e-08 0.000000000000e+00 0.000000000000e+00 
1.728000000000e+05 1.555182443833e-23 1.056033000089e+04 3.181500000000e+02 1.066700000072e-08 0.000000000000e+00 0.000000000000e+00 
2.592000000000e+05 2.488669093592e-22 1.056033000406e+04 3.181500000000e+02 1.066700000417e-08 0.000000000000e+00 0.000000000000e+00 
3.456000000000e+05 2.589542575667e-21 1.056033000728e+04 3.181500000000e+02 1.066700000710e-08 0.000000000000e+00 0.000000000000e+00 
4.320000000000e+05 2.023474076820e-20 1.056033000818e+04 3.181500000000e+02 1.066700000812e-08 0.000000000000e+00 0.000000000000e+00 
5.184000000000e+05 1.277201419518e-19 1.056033001262e+04 3.181500000000e+02 1.066700001259e-08 0.000000000000e+00 0.000000000000e+00 
6.048000000000e+05 6.807094952172e-19 1.056032999577e+04 3.181500000000e+02 1.066699999572e-08 0.000000000000e+00 0.000000000000e+00 
6.912000000000e+05 3.156346133515e-18 1.056033000357e+04 3.181500000000e+02 1.066700000354e-08 0.000000000000e+00 0.000000000000e+00 
7.776000000000e+05 1.301018106478e-17 1.056033000318e+04 3.181500000000e+02 1.066700000325e-08 0.000000000000e+00 0.000000000000e+00 
8.640000000000e+05 4.845353269261e-17 -1.610193631124e-33 3.181500000000e+02 -1.679095142733e-45 0.000000000000e+00 0.000000000000e+00 
9.504000000000e+05 1.573569228563e-16 -5.293280430788e-71 3.181500000000e+02 -5.963733061155e-83 0.000000000000e+00 0.000000000000e+00 
1.036800000000e+06 4.762025540031e-16 -8.457109273550e-108 3.181500000000e+02 -8.508990887508e-120 0.000000000000e+00 0.000000000000e+00 
1.123200000000e+06 1.351802666015e-15 3.547519648889e-145 3.181500000000e+02 3.623575174513e-157 0.000000000000e+00 0.000000000000e+00 
1.209600000000e+06 3.620228227498e-15 -2.633202522702e-183 3.181500000000e+02 -3.547884885563e-195 0.000000000000e+00 0.000000000000e+00 
1.296000000000e+06 9.192338621113e-15 1.549715130316e-219 3.181500000000e+02 1.532594815496e-231 0.000000000000e+00 0.000000000000e+00 
1.382400000000e+06 2.222714950354e-14 -7.767728173378e-258 3.181500000000e+02 -7.903409711319e-270 0.000000000000e+00 0.000000000000e+00 
1.468800000000e+06 5.137904705057e-14 1.102801780662e-293 3.181500000000e+02 1.116216384678e-305 0.000000000000e+00 0.000000000000e+00 
1.555200000000e+06 1.139254152774e-13 -2.857526906061e-312 3.181500000000e+02 0.000000000000e+00 0.000000000000e+00 0.000000000000e+00 
1.641600000000e+06 2.430603985203e-13 2.335869854434e-312 3.181500000000e+02 0.000000000000e+00 0.000000000000e+00 0.000000000000e+00 
1.728000000000e+06 5.003285990063e-13 8.585568711933e-313 3.181500000000e+02 0.000000000000e+00 0.000000000000e+00 0.000000000000e+00 
1.814400000000e+06 9.961235652148e-13 3.495933757727e-312 3.181500000000e+02 0.000000000000e+00 0.000000000000e+00 0.000000000000e+00 
1.900800000000e+06 1.922443049347e-12 -3.176111869545e-312 3.181500000000e+02 0.000000000000e+00 0.000000000000e+00 0.000000000000e+00 
1.987200000000e+06 3.603722045925e-12 -3.231629137053e-312 3.181500000000e+02 0.000000000000e+00 0.000000000000e+00 0.000000000000e+00 
2.073600000000e+06 6.573586700047e-12 1.733952228823e-312 3.181500000000e+02 0.000000000000e+00 0.000000000000e+00 0.000000000000e+00 
2.160000000000e+06 1.168779572018e-11 -9.702449552517e-313 3.181500000000e+02 0.000000000000e+00 0.000000000000e+00 0.000000000000e+00 
2.246400000000e+06 2.028643904184e-11 -8.419134352881e-313 3.181500000000e+02 0.000000000000e+00 0.000000000000e+00 0.000000000000e+00 
2.332800000000e+06 3.442158768386e-11 1.227598821011e-312 3.181500000000e+02 0.000000000000e+00 0.000000000000e+00 0.000000000000e+00 
2.419200000000e+06 5.716993511248e-11 -1.441756333690e-312 3.181500000000e+02 0.000000000000e+00 0.000000000000e+00 0.000000000000e+00 
2.505600000000e+06 9.305339906088e-11 -3.066529251933e-312 3.181500000000e+02 0.000000000000e+00 0.000000000000e+00 0.000000000000e+00 
2.592000000000e+06 1.485939859625e-10 1.765330647053e-312 3.181500000000e+02 0.000000000000e+00 0.000000000000e+00 0.000000000000e+00 
2.678400000000e+06 2.330322497632e-10 -4.112395010387e-312 3.181500000000e+02 0.000000000000e+00 0.000000000000e+00 0.000000000000e+00 
2.764800000000e+06 3.592411752105e-10 8.833410228864e-313 3.181500000000e+02 0.000000000000e+00 0.000000000000e+00 0.000000000000e+00 
2.851200000000e+06 5.448690496427e-10 8.713199063117e-313 3.181500000000e+02 0.000000000000e+00 0.000000000000e+00 0.000000000000e+00 
2.937600000000e+06 8.137456341872e-10 5.080049783580e-313 3.181500000000e+02 0.000000000000e+00 0.000000000000e+00 0.000000000000e+00 
3.024000000000e+06 1.197585509497e-09 -4.235563621905e-312 3.181500000000e+02 0.000000000000e+00 0.000000000000e+00 0.000000000000e+00 
3.110400000000e+06 1.738020699749e-09 -1.655306843493e-312 3.181500000000e+02 0.000000000000e+00 0.000000000000e+00 0.000000000000e+00 
3.196800000000e+06 2.488991474604e-09 1.180033290960e-312 3.181500000000e+02 0.000000000000e+00 0.000000000000e+00 0.000000000000e+00 
3.283200000000e+06 3.519519561055e-09 8.325828363563e-312 3.181500000000e+02 0.000000000000e+00 0.000000000000e+00 0.000000000000e+00 
3.369600000000e+06 4.916881905842e-09 -2.038165629484e-312 3.181500000000e+02 0.000000000000e+00 0.000000000000e+00 0.000000000000e+00 
3.456000000000e+06 6.790195726728e-09 2.573589435584e-313 3.181500000000e+02 0.000000000000e+00 0.000000000000e+00 0.000000000000e+00 
3.542400000000e+06 9.274417058147e-09 -4.408174671886e-312 3.181500000000e+02 0.000000000000e+00 0.000000000000e+00 0.000000000000e+00 
3.628800000000e+06 1.253474557377e-08 2.479041233781e-312 3.181500000000e+02 0.000000000000e+00 0.000000000000e+00 0.000000000000e+00 
3.715200000000e+06 1.677141844374e-08 9.169752417638e-313 3.181500000000e+02 0.000000000000e+00 0.000000000000e+00 0.000000000000e+00 
3.801600000000e+06 2.222486567909e-08 -2.036007008323e-312 3.181500000000e+02 0.000000000000e+00 0.000000000000e+00 0.000000000000e+00 
3.888000000000e+06 2.918118916879e-08 1.105266282784e-312 3.181500000000e+02 0.000000000000e+00 0.000000000000e+00 0.000000000000e+00 
3.974400000000e+06 3.797791776467e-08 5.828301878828e-313 3.181500000000e+02 0.000000000000e+00 0.000000000000e+00 0.000000000000e+00 
4.060800000000e+06 4.900998164086e-08 -6.133292718482e-312 3.181500000000e+02 0.000000000000e+00 0.000000000000e+00 0.000000000000e+00 
4.147200000000e+06 6.273584104071e-08 -1.888067459638e-312 3.181500000000e+02 0.000000000000e+00 0.000000000000e+00 0.000000000000e+00 
4.233600000000e+06 7.968369768016e-08 3.802038542365e-312 3.181500000000e+02 0.000000000000e+00 0.000000000000e+00 0.000000000000e+00 
4.320000000000e+06 1.004577117038e-07 -4.632246843006e-314 3.181500000000e+02 0.000000000000e+00 0.000000000000e+00 0.000000000000e+00 
4.406400000000e+06 1.257441433380e-07 2.194676451737e-312 3.181500000000e+02 0.000000000000e+00 0.000000000000e+00 0.000000000000e+00 
4.492800000000e+06 1.563173363390e-07 4.427780141426e-312 3.181500000000e+02 0.000000000000e+00 0.000000000000e+00 0.000000000000e+00 
4.579200000000e+06 1.930454600285e-07 -2.145196279933e-312 3.181500000000e+02 0.000000000000e+00 0.000000000000e+00 0.000000000000e+00 
4.665600000000e+06 2.368959281110e-07 4.889987443308e-313 3.181500000000e+02 0.000000000000e+00 0.000000000000e+00 0.000000000000e+00 
4.752000000000e+06 2.889404155074e-07 -2.612627639521e-312 3.181500000000e+02 0.000000000000e+00 0.000000000000e+00 0.000000000000e+00 
4.838400000000e+06 3.503593989865e-07 -2.633479666161e-312 3.181500000000e+02 0.000000000000e+00 0.000000000000e+00 0.000000000000e+00 
4.924800000000e+06 4.224461532840e-07 -9.036327832888e-315 3.181500000000e+02 0.000000000000e+00 0.000000000000e+00 0.000000000000e+00 
5.011200000000e+06 5.066101414657e-07 9.649618655799e-313 3.181500000000e+02 0.000000000000e+00 0.000000000000e+00 0.000000000000e+00 
5.097600000000e+06 6.043797463259e-07 -2.922648554845e-312 3.181500000000e+02 0.000000000000e+00 0.000000000000e+00 0.000000000000e+00 
5.184000000000e+06 7.174042983831e-07 4.111936630534e-312 3.181500000000e+02 0.000000000000e+00 0.000000000000e+00 0.000000000000e+00 
5.270400000000e+06 8.474553653306e-07 -7.208607643585e-313 3.181500000000e+02 0.000000000000e+00 0.000000000000e+00 0.000000000000e+00 
5.356800000000e+06 9.964272773963e-07 2.361645553497e-312 3.181500000000e+02 0.000000000000e+00 0.000000000000e+00 0.000000000000e+00 
5.443200000000e+06 1.166336872753e-06 4.155322687752e-313 3.181500000000e+02 0.000000000000e+00 0.000000000000e+00 0.000000000000e+00 
5.529600000000e+06 1.359322456715e-06 3.924540082609e-312 3.181500000000e+02 0.000000000000e+00 0.000000000000e+00 0.000000000000e+00 
5.616000000000e+06 1.577641977765e-06 -5.053475030177e-313 3.181500000000e+02 0.000000000000e+00 0.000000000000e+00 0.000000000000e+00 
5.702400000000e+06 1.823670432337e-06 -6.894411020085e-312 3.181500000000e+02 0.000000000000e+00 0.000000000000e+00 0.000000000000e+00 
5.788800000000e+06 2.099896518613e-06 2.619154153932e-312 3.181500000000e+02 0.000000000000e+00 0.000000000000e+00 0.000000000000e+00 
5.875200000000e+06 2.408918567217e-06 -3.938178268182e-312 3.181500000000e+02 0.000000000000e+00 0.000000000000e+00 0.000000000000e+00 
5.961600000000e+06 2.753439783616e-06 -5.209626916115e-312 3.181500000000e+02 0.000000000000e+00 0.000000000000e+00 0.000000000000e+00 
6.048000000000e+06 3.136262843095e-06 1.628794613860e-312 3.181500000000e+02 0.000000000000e+00 0.000000000000e+00 0.000000000000e+00 
6.134400000000e+06 3.560283884411e-06 7.630770246638e-313 3.181500000000e+02 0.000000000000e+00 0.000000000000e+00 0.000000000000e+00 
6.220800000000e+06 4.028485952602e-06 -3.409914483487e-312 3.181500000000e+02 0.000000000000e+00 0.000000000000e+00 0.000000000000e+00 
6.307200000000e+06 4.543931944900e-06 -2.411004565478e-312 3.181500000000e+02 0.000000000000e+00 0.000000000000e+00 0.000000000000e+00 
6.393600000000e+06 5.109757116322e-06 9.053702666628e-314 3.181500000000e+02 0.000000000000e+00 0.000000000000e+00 0.000000000000e+00 
6.480000000000e+06 5.729161203367e-06 -1.355889623883e-313 3.181500000000e+02 0.000000000000e+00 0.000000000000e+00 0.000000000000e+00 
6.566400000000e+06 6.405400225210e-06 -7.785079743740e-312 3.181500000000e+02 0.000000000000e+00 0.000000000000e+00 0.000000000000e+00 
6.652800000000e+06 7.141778022142e-06 -4.955315485481e-313 3.181500000000e+02 0.000000000000e+00 0.000000000000e+00 0.000000000000e+00 
6.739200000000e+06 7.941637590574e-06 -1.581444457113e-312 3.181500000000e+02 0.000000000000e+00 0.000000000000e+00 0.000000000000e+00 
6.825600000000e+06 8.808352272979e-06 3.078562675209e-313 3.181500000000e+02 0.000000000000e+00 0.000000000000e+00 0.000000000000e+00 
6.912000000000e+06 9.745316859573e-06 -2.535461753001e-312 3.181500000000e+02 0.000000000000e+00 0.000000000000e+00 0.000000000000e+00 
6.998400000000e+06 1.075593865654e-05 2.309882649553e-312 3.181500000000e+02 0.000000000000e+00 0.000000000000e+00 0.000000000000e+00 
7.084800000000e+06 1.184362857323e-05 3.611315670089e-312 3.181500000000e+02 0.000000000000e+00 0.000000000000e+00 0.000000000000e+00 
7.171200000000e+06 1.301179227782e-05 -6.477624015131e-313 3.181500000000e+02 0.000000000000e+00 0.000000000000e+00 0.000000000000e+00 
7.257600000000e+06 1.426382146821e-05 -2.245745778768e-312 3.181500000000e+02 0.000000000000e+00 0.000000000000e+00 0.000000000000e+00 
7.344000000000e+06 1.560308530127e-05 -7.096944579323e-312 3.181500000000e+02 0.000000000000e+00 0.000000000000e+00 0.000000000000e+00 
7.430400000000e+06 1.703292202044e-05 6.373033475331e-313 3.181500000000e+02 0.000000000000e+00 0.000000000000e+00 0.000000000000e+00 
7.516800000000e+06 1.855663081800e-05 -2.900962476645e-312 3.181500000000e+02 0.000000000000e+00 0.000000000000e+00 0.000000000000e+00 
7.603200000000e+06 2.017746396478e-05 -2.227809764491e-312 3.181500000000e+02 0.000000000000e+00 0.000000000000e+00 0.000000000000e+00 
7.689600000000e+06 2.189861923648e-05 9.567802848715e-313 3.181500000000e+02 0.000000000000e+00 0.000000000000e+00 0.000000000000e+00 
7.776000000000e+06 2.372323266220e-05 4.238301571018e-313 3.181500000000e+02 0.000000000000e+00 0.000000000000e+00 0.000000000000e+00 
7.862400000000e+06 2.565437161717e-05 -4.292844130800e-312 3.181500000000e+02 0.000000000000e+00 0.000000000000e+00 0.000000000000e+00 
7.948800000000e+06 2.769502827850e-05 -5.237364912339e-313 3.181500000000e+02 0.000000000000e+00 0.000000000000e+00 0.000000000000e+00 
8.035200000000e+06 2.984811345904e-05 -1.133315382941e-312 3.181500000000e+02 0.000000000000e+00 0.000000000000e+00 0.000000000000e+00 
8.121600000000e+06 3.211645083174e-05 -3.889405535618e-312 3.181500000000e+02 0.000000000000e+00 0.000000000000e+00 0.000000000000e+00 
8.208000000000e+06 3.450277155350e-05 -1.748475500367e-312 3.181499999999e+02 0.000000000000e+00 0.000000000000e+00 0.000000000000e+00 
8.294400000000e+06 3.700970929482e-05 -2.154076083916e-312 3.181499999999e+02 0.000000000000e+00 0.000000000000e+00 0.000000000000e+00 
8.380800000000e+06 3.963979567891e-05 -6.156952398163e-312 3.181499999999e+02 0.000000000000e+00 0.000000000000e+00 0.000000000000e+00 
8.467200000000e+06 4.239545613135e-05 2.464944754209e-312 3.181499999999e+02 0.000000000000e+00 0.000000000000e+00 0.000000000000e+00 
8.553600000000e+06 4.527900613908e-05 -2.572593027640e-312 3.181499999999e+02 0.000000000000e+00 0.000000000000e+00 0.000000000000e+00 
8.640000000000e+06 4.829264791553e-05 1.971298432988e-312 3.181499999999e+02 0.000000000000e+00 0.000000000000e+00 0.000000000000e+00 
8.726400000000e+06 5.143846746656e-05 2.709089792239e-312 3.181499999999e+02 0.000000000000e+00 0.000000000000e+00 0.000000000000e+00 
8.812800000000e+06 5.471843205035e-05 -1.541952628156e-312 3.181499999999e+02 0.000000000000e+00 0.000000000000e+00 0.000000000000e+00 
8.899200000000e+06 5.813438802275e-05 4.876412187143e-312 3.181499999999e+02 0.000000000000e+00 0.000000000000e+00 0.000000000000e+00 
8.985600000000e+06 6.168805905815e-05 -2.182177367089e-312 3.181499999999e+02 0.000000000000e+00 0.000000000000e+00 0.000000000000e+00 
9.072000000000e+06 6.538104473496e-05 1.060456205614e-312 3.181499999999e+02 0.000000000000e+00 0.000000000000e+00 0.000000000000e+00 
9.158400000000e+06 6.921481947341e-05 5.715245362578e-313 3.181499999999e+02 0.000000000000e+00 0.000000000000e+00 0.000000000000e+00 
9.244800000000e+06 7.319073181292e-05 3.706148567284e-313 3.181499999999e+02 0.000000000000e+00 0.000000000000e+00 0.000000000000e+00 
9.331200000000e+06 7.731000401520e-05 8.935390908144e-313 3.181499999999e+02 0.000000000000e+00 0.000000000000e+00 0.000000000000e+00 
9.417600000000e+06 8.157373197877e-05 1.788808998461e-312 3.181499999999e+02 0.000000000000e+00 0.000000000000e+00 0.000000000000e+00 
9.504000000000e+06 8.598288545040e-05 -1.797334631851e-312 3.181499999999e+02 0.000000000000e+00 0.000000000000e+00 0.000000000000e+00 
9.590400000000e+06 9.053830851798e-05 1.943929714901e-312 3.181499999999e+02 0.000000000000e+00 0.000000000000e+00 0.000000000000e+00 
9.676800000000e+06 9.524072036998e-05 -2.827208464049e-312 3.181499999999e+02 0.000000000000e+00 0.000000000000e+00 0.000000000000e+00 
9.763200000000e+06 1.000907163056e-04 1.772757331378e-312 3.181499999999e+02 0.000000000000e+00 0.000000000000e+00 0.000000000000e+00 
9.849600000000e+06 1.050887689806e-04 -2.851376521687e-312 3.181499999999e+02 0.000000000000e+00 0.000000000000e+00 0.000000000000e+00 
9.936000000000e+06 1.102352298730e-04 1.232449369890e-312 3.181499999999e+02 0.000000000000e+00 0.000000000000e+00 0.000000000000e+00 
1.002240000000e+07 1.155303309533e-04 2.362751712921e-312 3.181499999999e+02 0.000000000000e+00 0.000000000000e+00 0.000000000000e+00 
1.010880000000e+07 1.209741865452e-04 1.434690277080e-312 3.181499999999e+02 0.000000000000e+00 0.000000000000e+00 0.000000000000e+00 
1.019520000000e+07 1.265667953597e-04 -2.354509641953e-312 3.181499999999e+02 0.000000000000e+00 0.000000000000e+00 0.000000000000e+00 
1.028160000000e+07 1.323080426909e-04 1.855554893293e-312 3.181499999999e+02 0.000000000000e+00 0.000000000000e+00 0.000000000000e+00 
1.036800000000e+07 1.381977027571e-04 1.399503817084e-313 3.181499999999e+02 0.000000000000e+00 0.000000000000e+00 0.000000000000e+00 
1.045440000000e+07 1.442354411742e-04 1.673942524600e-312 3.181499999999e+02 0.000000000000e+00 0.000000000000e+00 0.000000000000e+00 
1.054080000000e+07 1.504208175482e-04 -1.160599460809e-312 3.181499999999e+02 0.000000000000e+00 0.000000000000e+00 0.000000000000e+00 
1.062720000000e+07 1.567532881739e-04 -3.744031636088e-312 3.181499999999e+02 0.000000000000e+00 0.000000000000e+00 0.000000000000e+00 
1.071360000000e+07 1.632322088268e-04 -1.062099625149e-312 3.181499999999e+02 0.000000000000e+00 0.000000000000e+00 0.000000000000e+00 
1.080000000000e+07 1.698568376366e-04 -7.642931223455e-314 3.181499999999e+02 0.000000000000e+00 0.000000000000e+00 0.000000000000e+00 
1.088640000000e+07 1.766263380316e-04 7.387974537959e-313 3.181499999999e+02 0.000000000000e+00 0.000000000000e+00 0.000000000000e+00 
1.097280000000e+07 1.835397817416e-04 2.731239740106e-313 3.181499999999e+02 0.000000000000e+00 0.000000000000e+00 0.000000000000e+00 
1.105920000000e+07 1.905961518500e-04 3.351939702998e-312 3.181499999999e+02 0.000000000000e+00 0.000000000000e+00 0.000000000000e+00 
1.114560000000e+07 1.977943458848e-04 -2.138278878802e-312 3.181499999999e+02 0.000000000000e+00 0.000000000000e+00 0.000000000000e+00 
1.123200000000e+07 2.051331789395e-04 -9.459344784581e-313 3.181499999999e+02 0.000000000000e+00 0.000000000000e+00 0.000000000000e+00 
1.131840000000e+07 2.126113868147e-04 1.284602938957e-313 3.181499999999e+02 0.000000000000e+00 0.000000000000e+00 0.000000000000e+00 
1.140480000000e+07 2.202276291718e-04 1.162062517110e-312 3.181499999999e+02 0.000000000000e+00 0.000000000000e+00 0.000000000000e+00 
1.149120000000e+07 2.279804926920e-04 -1.607260096142e-312 3.181499999999e+02 0.000000000000e+00 0.000000000000e+00 0.000000000000e+00 
1.157760000000e+07 2.358684942324e-04 -1.595216558779e-312 3.181499999999e+02 0.000000000000e+00 0.000000000000e+00 0.000000000000e+00 
1.166400000000e+07 2.438900839724e-04 -1.497492117970e-312 3.181499999999e+02 0.000000000000e+00 0.000000000000e+00 0.000000000000e+00 
1.175040000000e+07 2.520436485443e-04 -2.455334404906e-312 3.181499999999e+02 0.000000000000e+00 0.000000000000e+00 0.000000000000e+00 
1.183680000000e+07 2.603275141427e-04 -5.179235146352e-313 3.181499999999e+02 0.000000000000e+00 0.000000000000e+00 0.000000000000e+00 
1.192320000000e+07 2.687399496062e-04 7.031291188390e-313 3.181499999999e+02 0.000000000000e+00 0.000000000000e+00 0.000000000000e+00 
1.200960000000e+07 2.772791694664e-04 -2.687814931161e-312 3.181499999999e+02 0.000000000000e+00 0.000000000000e+00 0.000000000000e+00 
1.209600000000e+07 2.859433369614e-04 7.495998201430e-312 3.181499999999e+02 0.000000000000e+00 0.000000000000e+00 0.000000000000e+00 
1.218240000000e+07 2.947305670069e-04 -1.699678770363e-313 3.181499999999e+02 0.000000000000e+00 0.000000000000e+00 0.000000000000e+00 
1.226880000000e+07 3.036389291233e-04 1.889605602445e-312 3.181499999999e+02 0.000000000000e+00 0.000000000000e+00 0.000000000000e+00 
1.235520000000e+07 3.126664503137e-04 -3.385725510425e-313 3.181499999999e+02 0.000000000000e+00 0.000000000000e+00 0.000000000000e+00 
1.244160000000e+07 3.218111178914e-04 -2.102102835486e-312 3.181499999999e+02 0.000000000000e+00 0.000000000000e+00 0.000000000000e+00 
1.252800000000e+07 3.310708822521e-04 2.022774965891e-313 3.181499999998e+02 0.000000000000e+00 0.000000000000e+00 0.000000000000e+00 
1.261440000000e+07 3.404436595901e-04 5.388200842330e-313 3.181499999998e+02 0.000000000000e+00 0.000000000000e+00 0.000000000000e+00 
1.270080000000e+07 3.499273345555e-04 -7.126545732497e-312 3.181499999998e+02 0.000000000000e+00 0.000000000000e+00 0.000000000000e+00 
1.278720000000e+07 3.595197628502e-04 1.356298941757e-313 3.181499999998e+02 0.000000000000e+00 0.000000000000e+00 0.000000000000e+00 
1.287360000000e+07 3.692187737623e-04 2.593984798503e-312 3.181499999998e+02 0.000000000000e+00 0.000000000000e+00 0.000000000000e+00 
1.296000000000e+07 3.790221726359e-04 -8.166881397463e-313 3.181499999998e+02 0.000000000000e+00 0.000000000000e+00 0.000000000000e+00 
1.304640000000e+07 3.889277432768e-04 -6.977472996290e-313 3.181499999998e+02 0.000000000000e+00 0.000000000000e+00 0.000000000000e+00 
1.313280000000e+07 3.989332502919e-04 -1.059175920994e-312 3.181499999998e+02 0.000000000000e+00 0.000000000000e+00 0.000000000000e+00 
1.321920000000e+07 4.090364413625e-04 3.825881377537e-313 3.181499999998e+02 0.000000000000e+00 0.000000000000e+00 0.000000000000e+00 
1.330560000000e+07 4.192350494503e-04 2.416909041804e-313 3.181499999998e+02 0.000000000000e+00 0.000000000000e+00 0.000000000000e+00 
1.339200000000e+07 4.295267949368e-04 5.352961281933e-312 3.181499999998e+02 0.000000000000e+00 0.000000000000e+00 0.000000000000e+00 
1.347840000000e+07 4.399093876946e-04 1.942823586395e-312 3.181499999998e+02 0.000000000000e+00 0.000000000000e+00 0.000000000000e+00 
1.356480000000e+07 4.503805290914e-04 6.033777143557e-313 3.181499999998e+02 0.000000000000e+00 0.000000000000e+00 0.000000000000e+00 
1.365120000000e+07 4.609379139277e-04 1.537922065687e-312 3.181499999998e+02 0.000000000000e+00 0.000000000000e+00 0.000000000000e+00 
1.373760000000e+07 4.715792323062e-04 2.536221406046e-312 3.181499999998e+02 0.000000000000e+00 0.000000000000e+00 0.000000000000e+00 
1.382400000000e+07 4.823021714357e-04 2.817110440951e-312 3.181499999998e+02 0.000000000000e+00 0.000000000000e+00 0.000000000000e+00 
1.391040000000e+07 4.931044173687e-04 3.213449046195e-312 3.181499999998e+02 0.000000000000e+00 0.000000000000e+00 0.000000000000e+00 
1.399680000000e+07 5.039836566739e-04 2.677894225180e-312 3.181499999998e+02 0.000000000000e+00 0.000000000000e+00 0.000000000000e+00 
1.408320000000e+07 5.149375780434e-04 -2.745113087394e-312 3.181499999998e+02 0.000000000000e+00 0.000000000000e+00 0.000000000000e+00 
1.416960000000e+07 5.259638738373e-04 1.983217190283e-312 3.181499999998e+02 0.000000000000e+00 0.000000000000e+00 0.000000000000e+00 
1.425600000000e+07 5.370602415641e-04 4.566375668317e-312 3.181499999998e+02 0.000000000000e+00 0.000000000000e+00 0.000000000000e+00 
1.434240000000e+07 5.482243853002e-04 2.352444118046e-312 3.181499999998e+02 0.000000000000e+00 0.000000000000e+00 0.000000000000e+00 
1.442880000000e+07 5.594540170482e-04 -8.210687517133e-313 3.181499999998e+02 0.000000000000e+00 0.000000000000e+00 0.000000000000e+00 
1.451520000000e+07 5.707468580348e-04 3.044467411005e-312 3.181499999998e+02 0.000000000000e+00 0.000000000000e+00 0.000000000000e+00 
1.460160000000e+07 5.821006399512e-04 6.750705204973e-314 3.181499999998e+02 0.000000000000e+00 0.000000000000e+00 0.000000000000e+00 
1.468800000000e+07 5.935131061346e-04 3.055229147035e-313 3.181499999998e+02 0.000000000000e+00 0.000000000000e+00 0.000000000000e+00 
1.477440000000e+07 6.049820126946e-04 -9.313889726602e-313 3.181499999998e+02 0.000000000000e+00 0.000000000000e+00 0.000000000000e+00 
1.486080000000e+07 6.165051295836e-04 3.540261211717e-312 3.181499999998e+02 0.000000000000e+00 0.000000000000e+00 0.000000000000e+00 
1.494720000000e+07 6.280802416140e-04 -5.401683801958e-313 3.181499999998e+02 0.000000000000e+00 0.000000000000e+00 0.000000000000e+00 
1.503360000000e+07 6.397051494224e-04 1.160327722841e-312 3.181499999998e+02 0.000000000000e+00 0.000000000000e+00 0.000000000000e+00 
1.512000000000e+07 6.513776703831e-04 -1.288661272698e-312 3.181499999998e+02 0.000000000000e+00 0.000000000000e+00 0.000000000000e+00 
1.520640000000e+07 6.630956394709e-04 8.710860996310e-314 3.181499999998e+02 0.000000000000e+00 0.000000000000e+00 0.000000000000e+00 
1.529280000000e+07 6.748569100760e-04 -7.986167101143e-313 3.181499999998e+02 0.000000000000e+00 0.000000000000e+00 0.000000000000e+00 
1.537920000000e+07 6.866593547716e-04 1.261876010467e-312 3.181499999998e+02 0.000000000000e+00 0.000000000000e+00 0.000000000000e+00 
1.546560000000e+07 6.985008660347e-04 2.114111674233e-312 3.181499999998e+02 0.000000000000e+00 0.000000000000e+00 0.000000000000e+00 
1.555200000000e+07 7.103793569233e-04 2.266055340257e-312 3.181499999998e+02 0.000000000000e+00 0.000000000000e+00 0.000000000000e+00 
1.563840000000e+07 7.222927617098e-04 -1.472675048422e-312 3.181499999998e+02 0.000000000000e+00 0.000000000000e+00 0.000000000000e+00 
1.572480000000e+07 7.342390364723e-04 2.134873085078e-312 3.181499999998e+02 0.000000000000e+00 0.000000000000e+00 0.000000000000e+00 
1.581120000000e+07 7.462161596455e-04 -6.201166637430e-313 3.181499999998e+02 0.000000000000e+00 0.000000000000e+00 0.000000000000e+00 
1.589760000000e+07 7.582221325319e-04 -3.707930760091e-313 3.181499999998e+02 0.000000000000e+00 0.000000000000e+00 0.000000000000e+00 
1.598400000000e+07 7.702549797752e-04 -3.010266001451e-312 3.181499999998e+02 0.000000000000e+00 0.000000000000e+00 0.000000000000e+00 
1.607040000000e+07 7.823127497967e-04 -8.319630076071e-313 3.181499999997e+02 0.000000000000e+00 0.000000000000e+00 0.000000000000e+00 
1.615680000000e+07 7.943935151960e-04 -4.125610658673e-312 3.181499999997e+02 0.000000000000e+00 0.000000000000e+00 0.000000000000e+00 
1.624320000000e+07 8.064953731174e-04 6.639632982838e-313 3.181499999997e+02 0.000000000000e+00 0.000000000000e+00 0.000000000000e+00 
1.632960000000e+07 8.186164455835e-04 4.149652668060e-312 3.181499999997e+02 0.000000000000e+00 0.000000000000e+00 0.000000000000e+00 
1.641600000000e+07 8.307548797961e-04 -1.653450127785e-312 3.181499999997e+02 0.000000000000e+00 0.000000000000e+00 0.000000000000e+00 
1.650240000000e+07 8.429088484070e-04 -2.098801533227e-312 3.181499999997e+02 0.000000000000e+00 0.000000000000e+00 0.000000000000e+00 
1.658880000000e+07 8.550765497591e-04 -1.670022168695e-312 3.181499999997e+02 0.000000000000e+00 0.000000000000e+00 0.000000000000e+00 
1.667520000000e+07 8.672562080984e-04 -1.500782898512e-312 3.181499999997e+02 0.000000000000e+00 0.000000000000e+00 0.000000000000e+00 
1.676160000000e+07 8.794460737593e-04 1.640207738601e-312 3.181499999997e+02 0.000000000000e+00 0.000000000000e+00 0.000000000000e+00 
1.684800000000e+07 8.916444233233e-04 -3.123661098842e-312 3.181499999997e+02 0.000000000000e+00 0.000000000000e+00 0.000000000000e+00 
1.693440000000e+07 9.038495597526e-04 2.974122114145e-312 3.181499999997e+02 0.000000000000e+00 0.000000000000e+00 0.000000000000e+00 
1.702080000000e+07 9.160598124992e-04 8.942949964652e-313 3.181499999997e+02 0.000000000000e+00 0.000000000000e+00 0.000000000000e+00 
1.710720000000e+07 9.282735375909e-04 1.080532196245e-312 3.181499999997e+02 0.000000000000e+00 0.000000000000e+00 0.000000000000e+00 
1.719360000000e+07 9.404891176954e-04 8.318901332109e-313 3.181499999997e+02 0.000000000000e+00 0.000000000000e+00 0.000000000000e+00 
1.728000000000e+07 9.527049621626e-04 5.141578358418e-313 3.181499999997e+02 0.000000000000e+00 0.000000000000e+00 0.000000000000e+00 
1.736640000000e+07 9.649195070473e-04 1.769354059939e-313 3.181499999997e+02 0.000000000000e+00 0.000000000000e+00 0.000000000000e+00 
1.745280000000e+07 9.771312151115e-04 2.134283856510e-312 3.181499999997e+02 0.000000000000e+00 0.000000000000e+00 0.000000000000e+00 
1.753920000000e+07 9.893385758092e-04 7.128637320333e-312 3.181499999997e+02 4.940656458412e-324 0.000000000000e+00 0.000000000000e+00 
1.762560000000e+07 1.001540105253e-03 -7.855732074167e-313 3.181499999997e+02 0.000000000000e+00 0.000000000000e+00 0.000000000000e+00 
1.771200000000e+07 1.013734346163e-03 1.407803374572e-312 3.181499999997e+02 0.000000000000e+00 0.000000000000e+00 0.000000000000e+00 
1.779840000000e+07 1.025919867803e-03 1.086410518465e-312 3.181499999997e+02 0.000000000000e+00 0.000000000000e+00 0.000000000000e+00 
1.788480000000e+07 1.038095265897e-03 -1.321480190949e-312 3.181499999997e+02 0.000000000000e+00 0.000000000000e+00 0.000000000000e+00 
1.797120000000e+07 1.050259162532e-03 9.315693096100e-313 3.181499999997e+02 0.000000000000e+00 0.000000000000e+00 0.000000000000e+00 
1.805760000000e+07 1.062410206054e-03 -9.285430035784e-313 3.181499999997e+02 0.000000000000e+00 0.000000000000e+00 0.000000000000e+00 
1.814400000000e+07 1.074547070940e-03 -1.997635937418e-312 3.181499999997e+02 0.000000000000e+00 0.000000000000e+00 0.000000000000e+00 
1.823040000000e+07 1.086668457663e-03 -4.400628621598e-313 3.181499999997e+02 0.000000000000e+00 0.000000000000e+00 0.000000000000e+00 
1.831680000000e+07 1.098773092550e-03 -2.939720871776e-312 3.181499999997e+02 0.000000000000e+00 0.000000000000e+00 0.000000000000e+00 
1.840320000000e+07 1.110859727622e-03 1.662919571824e-312 3.181499999997e+02 0.000000000000e+00 0.000000000000e+00 0.000000000000e+00 
1.848960000000e+07 1.122927140425e-03 2.167782346508e-312 3.181499999997e+02 0.000000000000e+00 0.000000000000e+00 0.000000000000e+00 
1.857600000000e+07 1.134974133853e-03 2.687894709551e-312 3.181499999997e+02 0.000000000000e+00 0.000000000000e+00 0.000000000000e+00 
1.866240000000e+07 1.146999535962e-03 7.703712432354e-313 3.181499999997e+02 0.000000000000e+00 0.000000000000e+00 0.000000000000e+00 
1.874880000000e+07 1.159002199775e-03 -3.700183598563e-314 3.181499999997e+02 0.000000000000e+00 0.000000000000e+00 0.000000000000e+00 
1.883520000000e+07 1.170981003077e-03 1.988341243548e-312 3.181499999997e+02 0.000000000000e+00 0.000000000000e+00 0.000000000000e+00 
1.892160000000e+07 1.182934848206e-03 -8.900556528216e-315 3.181499999997e+02 0.000000000000e+00 0.000000000000e+00 0.000000000000e+00 