VARIABLES  = "X","Y","Z", "TEMPERATURE1"
ZONE T="0.000000000000e+00s", N=118, E=96, F=FEPOINT, ET=QUADRILATERAL
STRANDID=1, SOLUTIONTIME=0.000000000000e+00
0.000000000000e+00 0.000000000000e+00 1.600000000000e-01 3.000000000000e+01 
1.000000000000e-02 0.000000000000e+00 1.600000000000e-01 3.000000000000e+01 
2.000000000000e-02 0.000000000000e+00 1.600000000000e-01 3.000000000000e+01 
3.000000000000e-02 0.000000000000e+00 1.600000000000e-01 3.000000000000e+01 
4.000000000000e-02 0.000000000000e+00 1.600000000000e-01 3.000000000000e+01 
5.000000000000e-02 0.000000000000e+00 1.600000000000e-01 3.000000000000e+01 
6.000000000000e-02 0.000000000000e+00 1.600000000000e-01 3.000000000000e+01 
7.000000000000e-02 0.000000000000e+00 1.600000000000e-01 3.000000000000e+01 
8.000000000000e-02 0.000000000000e+00 1.600000000000e-01 3.000000000000e+01 
9.000000000000e-02 0.000000000000e+00 1.600000000000e-01 3.000000000000e+01 
1.000000000000e-01 0.000000000000e+00 1.600000000000e-01 3.000000000000e+01 
0.000000000000e+00 0.000000000000e+00 1.500000000000e-01 3.000000000000e+01 
1.000000000000e-02 0.000000000000e+00 1.500000000000e-01 3.000000000000e+01 
2.000000000000e-02 0.000000000000e+00 1.500000000000e-01 3.000000000000e+01 
3.000000000000e-02 0.000000000000e+00 1.500000000000e-01 3.000000000000e+01 
4.000000000000e-02 0.000000000000e+00 1.500000000000e-01 3.000000000000e+01 
5.000000000000e-02 0.000000000000e+00 1.500000000000e-01 3.000000000000e+01 
6.000000000000e-02 0.000000000000e+00 1.500000000000e-01 3.000000000000e+01 
7.000000000000e-02 0.000000000000e+00 1.500000000000e-01 3.000000000000e+01 
8.000000000000e-02 0.000000000000e+00 1.500000000000e-01 3.000000000000e+01 
9.000000000000e-02 0.000000000000e+00 1.500000000000e-01 3.000000000000e+01 
1.000000000000e-01 0.000000000000e+00 1.500000000000e-01 3.000000000000e+01 
0.000000000000e+00 0.000000000000e+00 1.400000000000e-01 3.000000000000e+01 
1.000000000000e-02 0.000000000000e+00 1.400000000000e-01 3.000000000000e+01 
2.000000000000e-02 0.000000000000e+00 1.400000000000e-01 3.000000000000e+01 
3.000000000000e-02 0.000000000000e+00 1.400000000000e-01 3.000000000000e+01 
4.000000000000e-02 0.000000000000e+00 1.400000000000e-01 3.000000000000e+01 
5.000000000000e-02 0.000000000000e+00 1.400000000000e-01 3.000000000000e+01 
6.000000000000e-02 0.000000000000e+00 1.400000000000e-01 3.000000000000e+01 
7.000000000000e-02 0.000000000000e+00 1.400000000000e-01 3.000000000000e+01 
8.000000000000e-02 0.000000000000e+00 1.400000000000e-01 3.000000000000e+01 
9.000000000000e-02 0.000000000000e+00 1.400000000000e-01 3.000000000000e+01 
1.000000000000e-01 0.000000000000e+00 1.400000000000e-01 3.000000000000e+01 
0.000000000000e+00 0.000000000000e+00 1.300000000000e-01 3.000000000000e+01 
1.000000000000e-02 0.000000000000e+00 1.300000000000e-01 3.000000000000e+01 
2.000000000000e-02 0.000000000000e+00 1.300000000000e-01 3.000000000000e+01 
3.000000000000e-02 0.000000000000e+00 1.300000000000e-01 3.000000000000e+01 
4.000000000000e-02 0.000000000000e+00 1.300000000000e-01 3.000000000000e+01 
5.000000000000e-02 0.000000000000e+00 1.300000000000e-01 3.000000000000e+01 
6.000000000000e-02 0.000000000000e+00 1.300000000000e-01 3.000000000000e+01 
7.000000000000e-02 0.000000000000e+00 1.300000000000e-01 3.000000000000e+01 
8.000000000000e-02 0.000000000000e+00 1.300000000000e-01 3.000000000000e+01 
9.000000000000e-02 0.000000000000e+00 1.300000000000e-01 3.000000000000e+01 
1.000000000000e-01 0.000000000000e+00 1.300000000000e-01 3.000000000000e+01 
0.000000000000e+00 0.000000000000e+00 1.200000000000e-01 3.000000000000e+01 
1.000000000000e-02 0.000000000000e+00 1.200000000000e-01 3.000000000000e+01 
2.000000000000e-02 0.000000000000e+00 1.200000000000e-01 3.000000000000e+01 
3.000000000000e-02 0.000000000000e+00 1.200000000000e-01 3.000000000000e+01 
4.000000000000e-02 0.000000000000e+00 1.200000000000e-01 3.000000000000e+01 
5.000000000000e-02 0.000000000000e+00 1.200000000000e-01 3.000000000000e+01 
6.000000000000e-02 0.000000000000e+00 1.200000000000e-01 3.000000000000e+01 
7.000000000000e-02 0.000000000000e+00 1.200000000000e-01 3.000000000000e+01 
8.000000000000e-02 0.000000000000e+00 1.200000000000e-01 3.000000000000e+01 
9.000000000000e-02 0.000000000000e+00 1.200000000000e-01 3.000000000000e+01 
1.000000000000e-01 0.000000000000e+00 1.200000000000e-01 3.000000000000e+01 
0.000000000000e+00 0.000000000000e+00 1.100000000000e-01 3.000000000000e+01 
1.000000000000e-02 0.000000000000e+00 1.100000000000e-01 3.000000000000e+01 
2.000000000000e-02 0.000000000000e+00 1.100000000000e-01 3.000000000000e+01 
3.000000000000e-02 0.000000000000e+00 1.100000000000e-01 3.000000000000e+01 
4.000000000000e-02 0.000000000000e+00 1.100000000000e-01 3.000000000000e+01 
5.000000000000e-02 0.000000000000e+00 1.100000000000e-01 3.000000000000e+01 
6.000000000000e-02 0.000000000000e+00 1.100000000000e-01 3.000000000000e+01 
7.000000000000e-02 0.000000000000e+00 1.100000000000e-01 3.000000000000e+01 
8.000000000000e-02 0.000000000000e+00 1.100000000000e-01 3.000000000000e+01 
9.000000000000e-02 0.000000000000e+00 1.100000000000e-01 3.000000000000e+01 
1.000000000000e-01 0.000000000000e+00 1.100000000000e-01 3.000000000000e+01 
0.000000000000e+00 0.000000000000e+00 1.000000000000e-01 3.000000000000e+01 
1.000000000000e-02 0.000000000000e+00 1.000000000000e-01 3.000000000000e+01 
2.000000000000e-02 0.000000000000e+00 1.000000000000e-01 3.000000000000e+01 
3.000000000000e-02 0.000000000000e+00 1.000000000000e-01 3.000000000000e+01 
4.000000000000e-02 0.000000000000e+00 1.000000000000e-01 3.000000000000e+01 
5.000000000000e-02 0.000000000000e+00 1.000000000000e-01 3.000000000000e+01 
6.000000000000e-02 0.000000000000e+00 1.000000000000e-01 3.000000000000e+01 
7.000000000000e-02 0.000000000000e+00 1.000000000000e-01 3.000000000000e+01 
8.000000000000e-02 0.000000000000e+00 1.000000000000e-01 3.000000000000e+01 
9.000000000000e-02 0.000000000000e+00 1.000000000000e-01 3.000000000000e+01 
1.000000000000e-01 0.000000000000e+00 1.000000000000e-01 3.000000000000e+01 
0.000000000000e+00 0.000000000000e+00 9.000000000000e-02 3.000000000000e+01 
1.000000000000e-02 0.000000000000e+00 9.000000000000e-02 3.000000000000e+01 
2.000000000000e-02 0.000000000000e+00 9.000000000000e-02 3.000000000000e+01 
3.000000000000e-02 0.000000000000e+00 9.000000000000e-02 3.000000000000e+01 
4.000000000000e-02 0.000000000000e+00 9.000000000000e-02 3.000000000000e+01 
5.000000000000e-02 0.000000000000e+00 9.000000000000e-02 3.000000000000e+01 
6.000000000000e-02 0.000000000000e+00 9.000000000000e-02 3.000000000000e+01 
7.000000000000e-02 0.000000000000e+00 9.000000000000e-02 3.000000000000e+01 
0.000000000000e+00 0.000000000000e+00 8.000000000000e-02 3.000000000000e+01 
1.000000000000e-02 0.000000000000e+00 8.000000000000e-02 3.000000000000e+01 
2.000000000000e-02 0.000000000000e+00 8.000000000000e-02 3.000000000000e+01 
3.000000000000e-02 0.000000000000e+00 8.000000000000e-02 3.000000000000e+01 
4.000000000000e-02 0.000000000000e+00 8.000000000000e-02 3.000000000000e+01 
0.000000000000e+00 0.000000000000e+00 7.000000000000e-02 3.000000000000e+01 
1.000000000000e-02 0.000000000000e+00 7.000000000000e-02 3.000000000000e+01 
2.000000000000e-02 0.000000000000e+00 7.000000000000e-02 3.000000000000e+01 
1.000000000000e-02 0.000000000000e+00 1.700000000000e-01 3.000000000000e+01 
0.000000000000e+00 0.000000000000e+00 1.700000000000e-01 3.000000000000e+01 
2.000000000000e-02 0.000000000000e+00 1.700000000000e-01 3.000000000000e+01 
3.000000000000e-02 0.000000000000e+00 1.700000000000e-01 3.000000000000e+01 
4.000000000000e-02 0.000000000000e+00 1.700000000000e-01 3.000000000000e+01 
5.000000000000e-02 0.000000000000e+00 1.700000000000e-01 3.000000000000e+01 
6.000000000000e-02 0.000000000000e+00 1.700000000000e-01 3.000000000000e+01 
7.000000000000e-02 0.000000000000e+00 1.700000000000e-01 3.000000000000e+01 
8.000000000000e-02 0.000000000000e+00 1.700000000000e-01 3.000000000000e+01 
9.000000000000e-02 0.000000000000e+00 1.700000000000e-01 3.000000000000e+01 
1.000000000000e-01 0.000000000000e+00 1.700000000000e-01 3.000000000000e+01 
8.000000000000e-02 0.000000000000e+00 9.000000000000e-02 3.000000000000e+01 
9.000000000000e-02 0.000000000000e+00 9.000000000000e-02 3.000000000000e+01 
1.000000000000e-01 0.000000000000e+00 9.000000000000e-02 3.000000000000e+01 
5.000000000000e-02 0.000000000000e+00 8.000000000000e-02 3.000000000000e+01 
6.000000000000e-02 0.000000000000e+00 8.000000000000e-02 3.000000000000e+01 
7.000000000000e-02 0.000000000000e+00 8.000000000000e-02 3.000000000000e+01 
8.000000000000e-02 0.000000000000e+00 8.000000000000e-02 3.000000000000e+01 
3.000000000000e-02 0.000000000000e+00 7.000000000000e-02 3.000000000000e+01 
4.000000000000e-02 0.000000000000e+00 7.000000000000e-02 3.000000000000e+01 
5.000000000000e-02 0.000000000000e+00 7.000000000000e-02 3.000000000000e+01 
0.000000000000e+00 0.000000000000e+00 6.000000000000e-02 3.000000000000e+01 
1.000000000000e-02 0.000000000000e+00 6.000000000000e-02 3.000000000000e+01 
2.000000000000e-02 0.000000000000e+00 6.000000000000e-02 3.000000000000e+01 
3.000000000000e-02 0.000000000000e+00 6.000000000000e-02 3.000000000000e+01 
12  13  2  1  
13  14  3  2  
14  15  4  3  
15  16  5  4  
16  17  6  5  
17  18  7  6  
18  19  8  7  
19  20  9  8  
20  21  10  9  
21  22  11  10  
23  24  13  12  
24  25  14  13  
25  26  15  14  
26  27  16  15  
27  28  17  16  
28  29  18  17  
29  30  19  18  
30  31  20  19  
31  32  21  20  
32  33  22  21  
34  35  24  23  
35  36  25  24  
36  37  26  25  
37  38  27  26  
38  39  28  27  
39  40  29  28  
40  41  30  29  
41  42  31  30  
42  43  32  31  
43  44  33  32  
45  46  35  34  
46  47  36  35  
47  48  37  36  
48  49  38  37  
49  50  39  38  
50  51  40  39  
51  52  41  40  
52  53  42  41  
53  54  43  42  
54  55  44  43  
56  57  46  45  
57  58  47  46  
58  59  48  47  
59  60  49  48  
60  61  50  49  
61  62  51  50  
62  63  52  51  
63  64  53  52  
64  65  54  53  
65  66  55  54  
67  68  57  56  
68  69  58  57  
69  70  59  58  
70  71  60  59  
71  72  61  60  
72  73  62  61  
73  74  63  62  
74  75  64  63  
75  76  65  64  
76  77  66  65  
78  79  68  67  
79  80  69  68  
80  81  70  69  
81  82  71  70  
82  83  72  71  
83  84  73  72  
84  85  74  73  
86  87  79  78  
87  88  80  79  
88  89  81  80  
89  90  82  81  
91  92  87  86  
92  93  88  87  
1  2  94  95  
2  3  96  94  
3  4  97  96  
4  5  98  97  
5  6  99  98  
6  7  100  99  
7  8  101  100  
8  9  102  101  
9  10  103  102  
10  11  104  103  
85  105  75  74  
105  106  76  75  
106  107  77  76  
90  108  83  82  
108  109  84  83  
109  110  85  84  
110  111  105  85  
93  112  89  88  
112  113  90  89  
113  114  108  90  
115  116  92  91  
116  117  93  92  
117  118  112  93  
VARIABLES  = "X","Y","Z", "TEMPERATURE1"
ZONE T="1.000000000000e-02s", N=118, E=96, F=FEPOINT, ET=QUADRILATERAL
STRANDID=1, SOLUTIONTIME=1.000000000000e-02
0.000000000000e+00 0.000000000000e+00 1.600000000000e-01 3.000000001013e+01 
1.000000000000e-02 0.000000000000e+00 1.600000000000e-01 3.000000001517e+01 
2.000000000000e-02 0.000000000000e+00 1.600000000000e-01 2.999999999992e+01 
3.000000000000e-02 0.000000000000e+00 1.600000000000e-01 3.000000006423e+01 
4.000000000000e-02 0.000000000000e+00 1.600000000000e-01 2.999999982198e+01 
5.000000000000e-02 0.000000000000e+00 1.600000000000e-01 3.000000073591e+01 
6.000000000000e-02 0.000000000000e+00 1.600000000000e-01 2.999999991659e+01 
7.000000000000e-02 0.000000000000e+00 1.600000000000e-01 3.000000006833e+01 
8.000000000000e-02 0.000000000000e+00 1.600000000000e-01 2.999999998041e+01 
9.000000000000e-02 0.000000000000e+00 1.600000000000e-01 3.000000000220e+01 
1.000000000000e-01 0.000000000000e+00 1.600000000000e-01 2.999999999495e+01 
0.000000000000e+00 0.000000000000e+00 1.500000000000e-01 2.999999999794e+01 
1.000000000000e-02 0.000000000000e+00 1.500000000000e-01 2.999999999638e+01 
2.000000000000e-02 0.000000000000e+00 1.500000000000e-01 3.000000000086e+01 
3.000000000000e-02 0.000000000000e+00 1.500000000000e-01 2.999999998254e+01 
4.000000000000e-02 0.000000000000e+00 1.500000000000e-01 3.000000005147e+01 
5.000000000000e-02 0.000000000000e+00 1.500000000000e-01 2.999999979138e+01 
6.000000000000e-02 0.000000000000e+00 1.500000000000e-01 3.000000002739e+01 
7.000000000000e-02 0.000000000000e+00 1.500000000000e-01 2.999999997791e+01 
8.000000000000e-02 0.000000000000e+00 1.500000000000e-01 3.000000000735e+01 
9.000000000000e-02 0.000000000000e+00 1.500000000000e-01 2.999999999925e+01 
1.000000000000e-01 0.000000000000e+00 1.500000000000e-01 3.000000000225e+01 
0.000000000000e+00 0.000000000000e+00 1.400000000000e-01 3.000000000101e+01 
1.000000000000e-02 0.000000000000e+00 1.400000000000e-01 3.000000000177e+01 
2.000000000000e-02 0.000000000000e+00 1.400000000000e-01 3.000000000033e+01 
3.000000000000e-02 0.000000000000e+00 1.400000000000e-01 3.000000000523e+01 
4.000000000000e-02 0.000000000000e+00 1.400000000000e-01 2.999999998688e+01 
5.000000000000e-02 0.000000000000e+00 1.400000000000e-01 3.000000005666e+01 
6.000000000000e-02 0.000000000000e+00 1.400000000000e-01 2.999999999292e+01 
7.000000000000e-02 0.000000000000e+00 1.400000000000e-01 3.000000000617e+01 
8.000000000000e-02 0.000000000000e+00 1.400000000000e-01 2.999999999732e+01 
9.000000000000e-02 0.000000000000e+00 1.400000000000e-01 3.000000000215e+01 
1.000000000000e-01 0.000000000000e+00 1.400000000000e-01 2.999999999938e+01 
0.000000000000e+00 0.000000000000e+00 1.300000000000e-01 3.000000000080e+01 
1.000000000000e-02 0.000000000000e+00 1.300000000000e-01 2.999999999909e+01 
2.000000000000e-02 0.000000000000e+00 1.300000000000e-01 3.000000000064e+01 
3.000000000000e-02 0.000000000000e+00 1.300000000000e-01 2.999999999889e+01 
4.000000000000e-02 0.000000000000e+00 1.300000000000e-01 3.000000000501e+01 
5.000000000000e-02 0.000000000000e+00 1.300000000000e-01 2.999999997957e+01 
6.000000000000e-02 0.000000000000e+00 1.300000000000e-01 3.000000000491e+01 
7.000000000000e-02 0.000000000000e+00 1.300000000000e-01 2.999999999892e+01 
8.000000000000e-02 0.000000000000e+00 1.300000000000e-01 3.000000000650e+01 
9.000000000000e-02 0.000000000000e+00 1.300000000000e-01 2.999999999464e+01 
1.000000000000e-01 0.000000000000e+00 1.300000000000e-01 3.000000000308e+01 
0.000000000000e+00 0.000000000000e+00 1.200000000000e-01 2.999999999852e+01 
1.000000000000e-02 0.000000000000e+00 1.200000000000e-01 3.000000000454e+01 
2.000000000000e-02 0.000000000000e+00 1.200000000000e-01 2.999999999985e+01 
3.000000000000e-02 0.000000000000e+00 1.200000000000e-01 3.000000000197e+01 
4.000000000000e-02 0.000000000000e+00 1.200000000000e-01 2.999999999568e+01 
5.000000000000e-02 0.000000000000e+00 1.200000000000e-01 3.000000002834e+01 
6.000000000000e-02 0.000000000000e+00 1.200000000000e-01 2.999999999005e+01 
7.000000000000e-02 0.000000000000e+00 1.200000000000e-01 3.000000000083e+01 
8.000000000000e-02 0.000000000000e+00 1.200000000000e-01 2.999999997923e+01 
9.000000000000e-02 0.000000000000e+00 1.200000000000e-01 3.000000002213e+01 
1.000000000000e-01 0.000000000000e+00 1.200000000000e-01 2.999999999096e+01 
0.000000000000e+00 0.000000000000e+00 1.100000000000e-01 3.000000000795e+01 
1.000000000000e-02 0.000000000000e+00 1.100000000000e-01 2.999999998524e+01 
2.000000000000e-02 0.000000000000e+00 1.100000000000e-01 3.000000000271e+01 
3.000000000000e-02 0.000000000000e+00 1.100000000000e-01 2.999999999591e+01 
4.000000000000e-02 0.000000000000e+00 1.100000000000e-01 3.000000001517e+01 
5.000000000000e-02 0.000000000000e+00 1.100000000000e-01 2.999999990872e+01 
6.000000000000e-02 0.000000000000e+00 1.100000000000e-01 3.000000003800e+01 
7.000000000000e-02 0.000000000000e+00 1.100000000000e-01 3.000000000043e+01 
8.000000000000e-02 0.000000000000e+00 1.100000000000e-01 3.000000008015e+01 
9.000000000000e-02 0.000000000000e+00 1.100000000000e-01 2.999999991862e+01 
1.000000000000e-01 0.000000000000e+00 1.100000000000e-01 3.000000003626e+01 
0.000000000000e+00 0.000000000000e+00 1.000000000000e-01 2.999999997214e+01 
1.000000000000e-02 0.000000000000e+00 1.000000000000e-01 3.000000005771e+01 
2.000000000000e-02 0.000000000000e+00 1.000000000000e-01 2.999999999197e+01 
3.000000000000e-02 0.000000000000e+00 1.000000000000e-01 3.000000001729e+01 
4.000000000000e-02 0.000000000000e+00 1.000000000000e-01 2.999999994582e+01 
5.000000000000e-02 0.000000000000e+00 1.000000000000e-01 3.000000034299e+01 
6.000000000000e-02 0.000000000000e+00 1.000000000000e-01 2.999999985923e+01 
7.000000000000e-02 0.000000000000e+00 1.000000000000e-01 3.000000000015e+01 
8.000000000000e-02 0.000000000000e+00 1.000000000000e-01 2.999999969989e+01 
9.000000000000e-02 0.000000000000e+00 1.000000000000e-01 3.000000030917e+01 
1.000000000000e-01 0.000000000000e+00 1.000000000000e-01 2.999999986521e+01 
0.000000000000e+00 0.000000000000e+00 9.000000000000e-02 3.000000010731e+01 
1.000000000000e-02 0.000000000000e+00 9.000000000000e-02 2.999999978437e+01 
2.000000000000e-02 0.000000000000e+00 9.000000000000e-02 3.000000003245e+01 
3.000000000000e-02 0.000000000000e+00 9.000000000000e-02 2.999999993705e+01 
4.000000000000e-02 0.000000000000e+00 9.000000000000e-02 3.000000020631e+01 
5.000000000000e-02 0.000000000000e+00 9.000000000000e-02 2.999999870901e+01 
6.000000000000e-02 0.000000000000e+00 9.000000000000e-02 3.000000053315e+01 
7.000000000000e-02 0.000000000000e+00 9.000000000000e-02 3.000000000164e+01 
0.000000000000e+00 0.000000000000e+00 8.000000000000e-02 2.999999959706e+01 
1.000000000000e-02 0.000000000000e+00 8.000000000000e-02 3.000000081625e+01 
2.000000000000e-02 0.000000000000e+00 8.000000000000e-02 2.999999987765e+01 
3.000000000000e-02 0.000000000000e+00 8.000000000000e-02 3.000000024777e+01 
4.000000000000e-02 0.000000000000e+00 8.000000000000e-02 2.999999919261e+01 
0.000000000000e+00 0.000000000000e+00 7.000000000000e-02 3.000000150423e+01 
1.000000000000e-02 0.000000000000e+00 7.000000000000e-02 2.999999908249e+01 
2.000000000000e-02 0.000000000000e+00 7.000000000000e-02 3.000000002148e+01 
1.000000000000e-02 0.000000000000e+00 1.700000000000e-01 3.000000001232e+01 
0.000000000000e+00 0.000000000000e+00 1.700000000000e-01 3.000000001181e+01 
2.000000000000e-02 0.000000000000e+00 1.700000000000e-01 3.000000001046e+01 
3.000000000000e-02 0.000000000000e+00 1.700000000000e-01 2.999999998675e+01 
4.000000000000e-02 0.000000000000e+00 1.700000000000e-01 3.000000007684e+01 
5.000000000000e-02 0.000000000000e+00 1.700000000000e-01 2.999999973520e+01 
6.000000000000e-02 0.000000000000e+00 1.700000000000e-01 3.000000038861e+01 
7.000000000000e-02 0.000000000000e+00 1.700000000000e-01 2.999999969919e+01 
8.000000000000e-02 0.000000000000e+00 1.700000000000e-01 3.000000008767e+01 
9.000000000000e-02 0.000000000000e+00 1.700000000000e-01 2.999999999078e+01 
1.000000000000e-01 0.000000000000e+00 1.700000000000e-01 3.000000002276e+01 
8.000000000000e-02 0.000000000000e+00 9.000000000000e-02 2.999999993684e+01 
9.000000000000e-02 0.000000000000e+00 9.000000000000e-02 2.999999980441e+01 
1.000000000000e-01 0.000000000000e+00 9.000000000000e-02 3.000000011582e+01 
5.000000000000e-02 0.000000000000e+00 8.000000000000e-02 3.000000081750e+01 
6.000000000000e-02 0.000000000000e+00 8.000000000000e-02 2.999999956480e+01 
7.000000000000e-02 0.000000000000e+00 8.000000000000e-02 3.000000034641e+01 
8.000000000000e-02 0.000000000000e+00 8.000000000000e-02 2.999999999819e+01 
3.000000000000e-02 0.000000000000e+00 7.000000000000e-02 2.999999969463e+01 
4.000000000000e-02 0.000000000000e+00 7.000000000000e-02 3.000000128301e+01 
5.000000000000e-02 0.000000000000e+00 7.000000000000e-02 2.999999980405e+01 
0.000000000000e+00 0.000000000000e+00 6.000000000000e-02 2.999999897102e+01 
1.000000000000e-02 0.000000000000e+00 6.000000000000e-02 3.000000026051e+01 
2.000000000000e-02 0.000000000000e+00 6.000000000000e-02 3.000000000411e+01 
3.000000000000e-02 0.000000000000e+00 6.000000000000e-02 3.000000008241e+01 
12  13  2  1  
13  14  3  2  
14  15  4  3  
15  16  5  4  
16  17  6  5  
17  18  7  6  
18  19  8  7  
19  20  9  8  
20  21  10  9  
21  22  11  10  
23  24  13  12  
24  25  14  13  
25  26  15  14  
26  27  16  15  
27  28  17  16  
28  29  18  17  
29  30  19  18  
30  31  20  19  
31  32  21  20  
32  33  22  21  
34  35  24  23  
35  36  25  24  
36  37  26  25  
37  38  27  26  
38  39  28  27  
39  40  29  28  
40  41  30  29  
41  42  31  30  
42  43  32  31  
43  44  33  32  
45  46  35  34  
46  47  36  35  
47  48  37  36  
48  49  38  37  
49  50  39  38  
50  51  40  39  
51  52  41  40  
52  53  42  41  
53  54  43  42  
54  55  44  43  
56  57  46  45  
57  58  47  46  
58  59  48  47  
59  60  49  48  
60  61  50  49  
61  62  51  50  
62  63  52  51  
63  64  53  52  
64  65  54  53  
65  66  55  54  
67  68  57  56  
68  69  58  57  
69  70  59  58  
70  71  60  59  
71  72  61  60  
72  73  62  61  
73  74  63  62  
74  75  64  63  
75  76  65  64  
76  77  66  65  
78  79  68  67  
79  80  69  68  
80  81  70  69  
81  82  71  70  
82  83  72  71  
83  84  73  72  
84  85  74  73  
86  87  79  78  
87  88  80  79  
88  89  81  80  
89  90  82  81  
91  92  87  86  
92  93  88  87  
1  2  94  95  
2  3  96  94  
3  4  97  96  
4  5  98  97  
5  6  99  98  
6  7  100  99  
7  8  101  100  
8  9  102  101  
9  10  103  102  
10  11  104  103  
85  105  75  74  
105  106  76  75  
106  107  77  76  
90  108  83  82  
108  109  84  83  
109  110  85  84  
110  111  105  85  
93  112  89  88  
112  113  90  89  
113  114  108  90  
115  116  92  91  
116  117  93  92  
117  118  112  93  
VARIABLES  = "X","Y","Z", "TEMPERATURE1"
ZONE T="7.000000000000e-02s", N=118, E=96, F=FEPOINT, ET=QUADRILATERAL
STRANDID=1, SOLUTIONTIME=7.000000000000e-02
0.000000000000e+00 0.000000000000e+00 1.600000000000e-01 3.000000001473e+01 
1.000000000000e-02 0.000000000000e+00 1.600000000000e-01 3.000000002075e+01 
2.000000000000e-02 0.000000000000e+00 1.600000000000e-01 3.000000000245e+01 
3.000000000000e-02 0.000000000000e+00 1.600000000000e-01 3.000000007840e+01 
4.000000000000e-02 0.000000000000e+00 1.600000000000e-01 2.999999977427e+01 
5.000000000000e-02 0.000000000000e+00 1.600000000000e-01 3.000000098619e+01 
6.000000000000e-02 0.000000000000e+00 1.600000000000e-01 2.999999991439e+01 
7.000000000000e-02 0.000000000000e+00 1.600000000000e-01 3.000000009099e+01 
8.000000000000e-02 0.000000000000e+00 1.600000000000e-01 2.999999997227e+01 
9.000000000000e-02 0.000000000000e+00 1.600000000000e-01 3.000000000312e+01 
1.000000000000e-01 0.000000000000e+00 1.600000000000e-01 2.999999999331e+01 
0.000000000000e+00 0.000000000000e+00 1.500000000000e-01 2.999999999712e+01 
1.000000000000e-02 0.000000000000e+00 1.500000000000e-01 2.999999999530e+01 
2.000000000000e-02 0.000000000000e+00 1.500000000000e-01 3.000000000069e+01 
3.000000000000e-02 0.000000000000e+00 1.500000000000e-01 2.999999997995e+01 
4.000000000000e-02 0.000000000000e+00 1.500000000000e-01 3.000000006233e+01 
5.000000000000e-02 0.000000000000e+00 1.500000000000e-01 2.999999973648e+01 
6.000000000000e-02 0.000000000000e+00 1.500000000000e-01 3.000000002859e+01 
7.000000000000e-02 0.000000000000e+00 1.500000000000e-01 2.999999997243e+01 
8.000000000000e-02 0.000000000000e+00 1.500000000000e-01 3.000000001003e+01 
9.000000000000e-02 0.000000000000e+00 1.500000000000e-01 2.999999999912e+01 
1.000000000000e-01 0.000000000000e+00 1.500000000000e-01 3.000000000325e+01 
0.000000000000e+00 0.000000000000e+00 1.400000000000e-01 3.000000000193e+01 
1.000000000000e-02 0.000000000000e+00 1.400000000000e-01 3.000000000220e+01 
2.000000000000e-02 0.000000000000e+00 1.400000000000e-01 3.000000000099e+01 
3.000000000000e-02 0.000000000000e+00 1.400000000000e-01 3.000000000615e+01 
4.000000000000e-02 0.000000000000e+00 1.400000000000e-01 2.999999998546e+01 
5.000000000000e-02 0.000000000000e+00 1.400000000000e-01 3.000000006728e+01 
6.000000000000e-02 0.000000000000e+00 1.400000000000e-01 2.999999999351e+01 
7.000000000000e-02 0.000000000000e+00 1.400000000000e-01 3.000000000758e+01 
8.000000000000e-02 0.000000000000e+00 1.400000000000e-01 2.999999999715e+01 
9.000000000000e-02 0.000000000000e+00 1.400000000000e-01 3.000000000261e+01 
1.000000000000e-01 0.000000000000e+00 1.400000000000e-01 2.999999999976e+01 
0.000000000000e+00 0.000000000000e+00 1.300000000000e-01 3.000000000111e+01 
1.000000000000e-02 0.000000000000e+00 1.300000000000e-01 2.999999999922e+01 
2.000000000000e-02 0.000000000000e+00 1.300000000000e-01 3.000000000097e+01 
3.000000000000e-02 0.000000000000e+00 1.300000000000e-01 2.999999999927e+01 
4.000000000000e-02 0.000000000000e+00 1.300000000000e-01 3.000000000557e+01 
5.000000000000e-02 0.000000000000e+00 1.300000000000e-01 2.999999997795e+01 
6.000000000000e-02 0.000000000000e+00 1.300000000000e-01 3.000000000539e+01 
7.000000000000e-02 0.000000000000e+00 1.300000000000e-01 2.999999999927e+01 
8.000000000000e-02 0.000000000000e+00 1.300000000000e-01 3.000000000807e+01 
9.000000000000e-02 0.000000000000e+00 1.300000000000e-01 2.999999999341e+01 
1.000000000000e-01 0.000000000000e+00 1.300000000000e-01 3.000000000398e+01 
0.000000000000e+00 0.000000000000e+00 1.200000000000e-01 2.999999999929e+01 
1.000000000000e-02 0.000000000000e+00 1.200000000000e-01 3.000000000489e+01 
2.000000000000e-02 0.000000000000e+00 1.200000000000e-01 3.000000000057e+01 
3.000000000000e-02 0.000000000000e+00 1.200000000000e-01 3.000000000220e+01 
4.000000000000e-02 0.000000000000e+00 1.200000000000e-01 2.999999999637e+01 
5.000000000000e-02 0.000000000000e+00 1.200000000000e-01 3.000000003178e+01 
6.000000000000e-02 0.000000000000e+00 1.200000000000e-01 2.999999998912e+01 
7.000000000000e-02 0.000000000000e+00 1.200000000000e-01 3.000000000063e+01 
8.000000000000e-02 0.000000000000e+00 1.200000000000e-01 2.999999997432e+01 
9.000000000000e-02 0.000000000000e+00 1.200000000000e-01 3.000000002916e+01 
1.000000000000e-01 0.000000000000e+00 1.200000000000e-01 2.999999998929e+01 
0.000000000000e+00 0.000000000000e+00 1.100000000000e-01 3.000000000800e+01 
1.000000000000e-02 0.000000000000e+00 1.100000000000e-01 2.999999998377e+01 
2.000000000000e-02 0.000000000000e+00 1.100000000000e-01 3.000000000229e+01 
3.000000000000e-02 0.000000000000e+00 1.100000000000e-01 2.999999999678e+01 
4.000000000000e-02 0.000000000000e+00 1.100000000000e-01 3.000000001513e+01 
5.000000000000e-02 0.000000000000e+00 1.100000000000e-01 2.999999989190e+01 
6.000000000000e-02 0.000000000000e+00 1.100000000000e-01 3.000000004624e+01 
7.000000000000e-02 0.000000000000e+00 1.100000000000e-01 3.000000000339e+01 
8.000000000000e-02 0.000000000000e+00 1.100000000000e-01 3.000000010700e+01 
9.000000000000e-02 0.000000000000e+00 1.100000000000e-01 2.999999988601e+01 
1.000000000000e-01 0.000000000000e+00 1.100000000000e-01 3.000000004834e+01 
0.000000000000e+00 0.000000000000e+00 1.000000000000e-01 2.999999997278e+01 
1.000000000000e-02 0.000000000000e+00 1.000000000000e-01 3.000000006808e+01 
2.000000000000e-02 0.000000000000e+00 1.000000000000e-01 2.999999999554e+01 
3.000000000000e-02 0.000000000000e+00 1.000000000000e-01 3.000000001660e+01 
4.000000000000e-02 0.000000000000e+00 1.000000000000e-01 2.999999994493e+01 
5.000000000000e-02 0.000000000000e+00 1.000000000000e-01 3.000000043409e+01 
6.000000000000e-02 0.000000000000e+00 1.000000000000e-01 2.999999981969e+01 
7.000000000000e-02 0.000000000000e+00 1.000000000000e-01 2.999999998972e+01 
8.000000000000e-02 0.000000000000e+00 1.000000000000e-01 2.999999957621e+01 
9.000000000000e-02 0.000000000000e+00 1.000000000000e-01 3.000000046014e+01 
1.000000000000e-01 0.000000000000e+00 1.000000000000e-01 2.999999980870e+01 
0.000000000000e+00 0.000000000000e+00 9.000000000000e-02 3.000000011360e+01 
1.000000000000e-02 0.000000000000e+00 9.000000000000e-02 2.999999973015e+01 
2.000000000000e-02 0.000000000000e+00 9.000000000000e-02 3.000000002177e+01 
3.000000000000e-02 0.000000000000e+00 9.000000000000e-02 2.999999993883e+01 
4.000000000000e-02 0.000000000000e+00 9.000000000000e-02 3.000000022350e+01 
5.000000000000e-02 0.000000000000e+00 9.000000000000e-02 2.999999826338e+01 
6.000000000000e-02 0.000000000000e+00 9.000000000000e-02 3.000000073183e+01 
7.000000000000e-02 0.000000000000e+00 9.000000000000e-02 3.000000002111e+01 
0.000000000000e+00 0.000000000000e+00 8.000000000000e-02 2.999999955039e+01 
1.000000000000e-02 0.000000000000e+00 8.000000000000e-02 3.000000108632e+01 
2.000000000000e-02 0.000000000000e+00 8.000000000000e-02 2.999999991245e+01 
3.000000000000e-02 0.000000000000e+00 8.000000000000e-02 3.000000027554e+01 
4.000000000000e-02 0.000000000000e+00 8.000000000000e-02 2.999999899279e+01 
0.000000000000e+00 0.000000000000e+00 7.000000000000e-02 3.000000185928e+01 
1.000000000000e-02 0.000000000000e+00 7.000000000000e-02 2.999999887194e+01 
2.000000000000e-02 0.000000000000e+00 7.000000000000e-02 2.999999991387e+01 
1.000000000000e-02 0.000000000000e+00 1.700000000000e-01 3.000000001746e+01 
0.000000000000e+00 0.000000000000e+00 1.700000000000e-01 3.000000001864e+01 
2.000000000000e-02 0.000000000000e+00 1.700000000000e-01 3.000000001930e+01 
3.000000000000e-02 0.000000000000e+00 1.700000000000e-01 2.999999999945e+01 
4.000000000000e-02 0.000000000000e+00 1.700000000000e-01 3.000000008982e+01 
5.000000000000e-02 0.000000000000e+00 1.700000000000e-01 2.999999968580e+01 
6.000000000000e-02 0.000000000000e+00 1.700000000000e-01 3.000000049281e+01 
7.000000000000e-02 0.000000000000e+00 1.700000000000e-01 2.999999956459e+01 
8.000000000000e-02 0.000000000000e+00 1.700000000000e-01 3.000000013228e+01 
9.000000000000e-02 0.000000000000e+00 1.700000000000e-01 2.999999998659e+01 
1.000000000000e-01 0.000000000000e+00 1.700000000000e-01 3.000000003342e+01 
8.000000000000e-02 0.000000000000e+00 9.000000000000e-02 2.999999991202e+01 