 TITLE = "Time curves in points"
 VARIABLES = "TIME"  "DISPLACEMENT_X1"  "DISPLACEMENT_Y1"  "STRESS_XX"  "STRESS_XY"  "STRESS_YY"  "STRESS_ZZ"  "STRAIN_XX"  "STRAIN_XY"  "STRAIN_YY"  "STRAIN_PLS"  p_(1st_Invariant)  q_(2nd_Invariant)   Effective_Strain
 ZONE T="POINT=POINT6"
0.000000000000e+00 0.000000000000e+00 0.000000000000e+00 0.000000000000e+00 0.000000000000e+00 0.000000000000e+00 0.000000000000e+00 0.000000000000e+00 0.000000000000e+00 0.000000000000e+00 0.000000000000e+00 -0.000000000000e+00 0.000000000000e+00  0.000000000000e+00
1.000000000000e-02 -5.655633263082e-10 -7.022706754084e-06 7.660213156341e+03 -4.705772158700e-02 1.477654527709e+03 3.655146961575e+03 1.869030890891e-04 -4.392054014786e-09 -1.016163135804e-04 0.000000000000e+00 -4.264338215208e+03 5.431669160293e+03  2.534778942326e-04
7.000000000000e-02 6.442953960997e-09 -2.417573327669e-05 7.782081859041e+03 5.025179166788e-01 -7.060127320696e+03 2.887816536833e+02 3.496873429167e-04 4.690167222336e-08 -3.429490854710e-04 0.000000000000e+00 -3.369120640095e+02 1.285393297656e+04  5.998502096982e-04
4.300000000000e-01 3.414356663861e-08 -1.270910580135e-04 8.513395491320e+03 2.707589016682e+00 -5.828479036633e+04 -1.990855800927e+04 1.326357830028e-03 2.527083082237e-07 -1.790890843329e-03 0.000000000000e+00 2.322665096143e+04 5.806264000444e+04  2.709589893389e-03
1.430000000000e+00 5.763566554296e-10 -4.129386381001e-04 1.054524786403e+04 9.069301284791e-02 -2.005605090179e+05 -7.600610453681e+04 4.039063112039e-03 8.464681199138e-09 -5.812538875783e-03 0.000000000000e+00 8.867378856356e+04 1.838077485673e+05  8.577694933152e-03
2.430000000000e+00 6.760650642675e-08 -6.987788596116e-04 1.257849997890e+04 5.516796220649e+00 -3.428302451885e+05 -1.321006981549e+05 6.751695912912e-03 5.149009805939e-07 -9.834045528232e-03 0.000000000000e+00 1.541174811215e+05 3.095596781637e+05  1.444611833495e-02
3.430000000000e+00 1.046322156273e-07 -9.845931647198e-04 1.461232242081e+04 8.460267331653e+00 -4.850870454537e+05 -1.881898892664e+05 9.464103212070e-03 7.896249509543e-07 -1.385520062207e-02 0.000000000000e+00 2.195548707664e+05 4.353022611364e+05  2.031410555423e-02
4.430000000000e+00 1.320997948294e-07 -1.270412194465e-03 1.664785169496e+04 1.051650800152e+01 -6.273435765678e+05 -2.442782899767e+05 1.217655327801e-02 9.815407468081e-07 -1.787638004092e-02 0.000000000000e+00 2.849913382832e+05 5.610465335150e+05  2.618217160543e-02
5.430000000000e+00 9.048043027270e-08 -1.556206684556e-03 1.868341478454e+04 6.081494971533e+00 -7.695895318770e+05 -3.003624468349e+05 1.488880687557e-02 5.676061973431e-07 -2.189726396863e-02 0.000000000000e+00 3.504228546425e+05 6.867818277350e+05  3.204981863894e-02
6.430000000000e+00 7.517524547006e-08 -1.842023820249e-03 2.072099612839e+04 6.083174689482e+00 -9.118408272218e+05 -3.564479324040e+05 1.760121666485e-02 5.677629710183e-07 -2.591833509149e-02 0.000000000000e+00 4.158559211658e+05 8.125236066898e+05  3.791776832176e-02
7.430000000000e+00 2.457954784928e-08 -2.127818876327e-03 2.275816250343e+04 1.744148704826e+00 -1.054083371401e+06 -4.125300834941e+05 2.031345147988e-02 1.627872124505e-07 -2.993915343564e-02 0.000000000000e+00 4.812850974638e+05 9.382574719890e+05  4.378534869350e-02
8.430000000000e+00 1.052915421622e-07 -2.413622263567e-03 2.479668891773e+04 8.424022451818e+00 -1.196327833833e+06 -4.686124578700e+05 2.302576018343e-02 7.862420955030e-07 -3.396005087825e-02 0.000000000000e+00 5.467145342616e+05 1.063994209344e+06  4.965306311671e-02
9.430000000000e+00 5.130892717731e-08 -2.699422494441e-03 2.683525381799e+04 4.534948568024e+00 -1.338570448376e+06 -5.246940776968e+05 2.573803547069e-02 4.232618663489e-07 -3.798089729835e-02 0.000000000000e+00 6.121430907515e+05 1.189729398220e+06  5.552070525389e-02
