 TITLE = "Time curves in points"
 VARIABLES = "TIME"  "PRESSURE1"  "PRESSURE2"  "PRESSURE_W"  "SATURATION1" SATURATION2  "VELOCITY_X1"  "VELOCITY_Y1"  "VELOCITY_X2"  "VELOCITY_Y2"  p_(1st_Invariant)  q_(2nd_Invariant)   Effective_Strain
 ZONE T="POINT=POINT6"
0.000000000000e+00 1.000000000000e+05 1.000000000000e+05 0.000000000000e+00 9.251121356155e-01 7.488786438454e-02 0.000000000000e+00 0.000000000000e+00 0.000000000000e+00 0.000000000000e+00 -0.000000000000e+00 0.000000000000e+00  0.000000000000e+00
1.000000000000e-02 9.999999996316e+04 9.999999999176e+04 2.859614323825e-05 9.251121356947e-01 7.488786430534e-02 -3.548548865788e-15 -9.238128939690e-07 4.022528873059e-14 -2.360506191838e-11 -4.264338215208e+03 5.431669160293e+03  2.534778942326e-04
7.000000000000e-02 9.999999995746e+04 9.999999995110e+04 -6.359230610542e-06 9.251121357069e-01 7.488786429308e-02 7.584946015968e-16 -9.238121490050e-07 -3.357903161234e-14 -2.359840033291e-11 -3.369120640095e+02 1.285393297656e+04  5.998502096982e-04
4.300000000000e-01 9.999999451284e+04 9.999999946158e+04 4.948736270308e-03 9.251121474128e-01 7.488785258716e-02 9.865640623500e-15 -9.237390586571e-07 -2.425446094795e-13 -2.353819802351e-11 2.322665096143e+04 5.806264000444e+04  2.709589893389e-03
1.430000000000e+00 9.999922225128e+04 9.999999903197e+04 7.767806967167e-01 9.251138077745e-01 7.488619222545e-02 -5.575505093572e-13 -9.182200343360e-07 -2.671971574570e-13 -2.360275084941e-11 8.867378856356e+04 1.838077485673e+05  8.577694933152e-03
2.430000000000e+00 9.999699062304e+04 9.999999862299e+04 3.007999950787e+00 9.251186057733e-01 7.488139422666e-02 -1.112682300759e-12 -9.055030051455e-07 -2.899689410137e-13 -2.366380953137e-11 1.541174811215e+05 3.095596781637e+05  1.444611833495e-02
3.430000000000e+00 9.999298849518e+04 9.999999822683e+04 7.009731647326e+00 9.251272103448e-01 7.487278965521e-02 -1.864463379382e-12 -8.867834079613e-07 -3.117593018349e-13 -2.372209256339e-11 2.195548707664e+05 4.353022611364e+05  2.031410555423e-02
4.430000000000e+00 9.998725220350e+04 9.999999783912e+04 1.274563562025e+01 9.251395433670e-01 7.486045663303e-02 -2.825347378789e-12 -8.643050791946e-07 -3.331402860462e-13 -2.377810160212e-11 2.849913382832e+05 5.610465335150e+05  2.618217160543e-02
5.430000000000e+00 9.997999938663e+04 9.999999745723e+04 1.999807059726e+01 9.251551369170e-01 7.484486308298e-02 -3.927545315091e-12 -8.400700480719e-07 -3.544885852120e-13 -2.383224663284e-11 3.504228546425e+05 6.867818277350e+05  3.204981863894e-02
6.430000000000e+00 9.997150174045e+04 9.999999707951e+04 2.849533906307e+01 9.251734068490e-01 7.482659315099e-02 -5.083224193729e-12 -8.154737671644e-07 -3.760536017058e-13 -2.388486027892e-11 4.158559211658e+05 8.125236066898e+05  3.791776832176e-02
7.430000000000e+00 9.996201952057e+04 9.999999670498e+04 3.797718440869e+01 9.251937936136e-01 7.480620638638e-02 -6.215270274723e-12 -7.913641453940e-07 -3.980001462881e-13 -2.393620339375e-11 4.812850974638e+05 9.382574719890e+05  4.378534869350e-02
8.430000000000e+00 9.995177697879e+04 9.999999633298e+04 4.821935418990e+01 9.252158150696e-01 7.478418493037e-02 -7.268410358894e-12 -7.682011785180e-07 -4.204367841444e-13 -2.398647582173e-11 5.467145342616e+05 1.063994209344e+06  4.965306311671e-02
9.430000000000e+00 9.994095810726e+04 9.999999596315e+04 5.903785588387e+01 9.252390756341e-01 7.476092436587e-02 -8.209579073500e-12 -7.461983583077e-07 -4.434343521741e-13 -2.403582923838e-11 6.121430907515e+05 1.189729398220e+06  5.552070525389e-02
