VARIABLES  = "X","Y","Z", "TEMPERATURE1"
ZONE T="0.000000000000e+00s", N=110, E=90, F=FEPOINT, ET=QUADRILATERAL
STRANDID=1, SOLUTIONTIME=0.000000000000e+00
0.000000000000e+00 0.000000000000e+00 3.400000000000e-01 3.000000000000e+01 
1.000000000000e-02 0.000000000000e+00 3.400000000000e-01 3.000000000000e+01 
2.000000000000e-02 0.000000000000e+00 3.400000000000e-01 3.000000000000e+01 
3.000000000000e-02 0.000000000000e+00 3.400000000000e-01 3.000000000000e+01 
4.000000000000e-02 0.000000000000e+00 3.400000000000e-01 3.000000000000e+01 
5.000000000000e-02 0.000000000000e+00 3.400000000000e-01 3.000000000000e+01 
6.000000000000e-02 0.000000000000e+00 3.400000000000e-01 3.000000000000e+01 
7.000000000000e-02 0.000000000000e+00 3.400000000000e-01 3.000000000000e+01 
8.000000000000e-02 0.000000000000e+00 3.400000000000e-01 3.000000000000e+01 
9.000000000000e-02 0.000000000000e+00 3.400000000000e-01 3.000000000000e+01 
1.000000000000e-01 0.000000000000e+00 3.400000000000e-01 3.000000000000e+01 
0.000000000000e+00 0.000000000000e+00 3.300000000000e-01 3.000000000000e+01 
1.000000000000e-02 0.000000000000e+00 3.300000000000e-01 3.000000000000e+01 
2.000000000000e-02 0.000000000000e+00 3.300000000000e-01 3.000000000000e+01 
3.000000000000e-02 0.000000000000e+00 3.300000000000e-01 3.000000000000e+01 
4.000000000000e-02 0.000000000000e+00 3.300000000000e-01 3.000000000000e+01 
5.000000000000e-02 0.000000000000e+00 3.300000000000e-01 3.000000000000e+01 
6.000000000000e-02 0.000000000000e+00 3.300000000000e-01 3.000000000000e+01 
7.000000000000e-02 0.000000000000e+00 3.300000000000e-01 3.000000000000e+01 
8.000000000000e-02 0.000000000000e+00 3.300000000000e-01 3.000000000000e+01 
9.000000000000e-02 0.000000000000e+00 3.300000000000e-01 3.000000000000e+01 
1.000000000000e-01 0.000000000000e+00 3.300000000000e-01 3.000000000000e+01 
0.000000000000e+00 0.000000000000e+00 3.200000000000e-01 3.000000000000e+01 
1.000000000000e-02 0.000000000000e+00 3.200000000000e-01 3.000000000000e+01 
2.000000000000e-02 0.000000000000e+00 3.200000000000e-01 3.000000000000e+01 
3.000000000000e-02 0.000000000000e+00 3.200000000000e-01 3.000000000000e+01 
4.000000000000e-02 0.000000000000e+00 3.200000000000e-01 3.000000000000e+01 
5.000000000000e-02 0.000000000000e+00 3.200000000000e-01 3.000000000000e+01 
6.000000000000e-02 0.000000000000e+00 3.200000000000e-01 3.000000000000e+01 
7.000000000000e-02 0.000000000000e+00 3.200000000000e-01 3.000000000000e+01 
8.000000000000e-02 0.000000000000e+00 3.200000000000e-01 3.000000000000e+01 
9.000000000000e-02 0.000000000000e+00 3.200000000000e-01 3.000000000000e+01 
1.000000000000e-01 0.000000000000e+00 3.200000000000e-01 3.000000000000e+01 
0.000000000000e+00 0.000000000000e+00 3.100000000000e-01 3.000000000000e+01 
1.000000000000e-02 0.000000000000e+00 3.100000000000e-01 3.000000000000e+01 
2.000000000000e-02 0.000000000000e+00 3.100000000000e-01 3.000000000000e+01 
3.000000000000e-02 0.000000000000e+00 3.100000000000e-01 3.000000000000e+01 
4.000000000000e-02 0.000000000000e+00 3.100000000000e-01 3.000000000000e+01 
5.000000000000e-02 0.000000000000e+00 3.100000000000e-01 3.000000000000e+01 
6.000000000000e-02 0.000000000000e+00 3.100000000000e-01 3.000000000000e+01 
7.000000000000e-02 0.000000000000e+00 3.100000000000e-01 3.000000000000e+01 
8.000000000000e-02 0.000000000000e+00 3.100000000000e-01 3.000000000000e+01 
9.000000000000e-02 0.000000000000e+00 3.100000000000e-01 3.000000000000e+01 
1.000000000000e-01 0.000000000000e+00 3.100000000000e-01 3.000000000000e+01 
0.000000000000e+00 0.000000000000e+00 3.000000000000e-01 3.000000000000e+01 
1.000000000000e-02 0.000000000000e+00 3.000000000000e-01 3.000000000000e+01 
2.000000000000e-02 0.000000000000e+00 3.000000000000e-01 3.000000000000e+01 
3.000000000000e-02 0.000000000000e+00 3.000000000000e-01 3.000000000000e+01 
4.000000000000e-02 0.000000000000e+00 3.000000000000e-01 3.000000000000e+01 
5.000000000000e-02 0.000000000000e+00 3.000000000000e-01 3.000000000000e+01 
6.000000000000e-02 0.000000000000e+00 3.000000000000e-01 3.000000000000e+01 
7.000000000000e-02 0.000000000000e+00 3.000000000000e-01 3.000000000000e+01 
8.000000000000e-02 0.000000000000e+00 3.000000000000e-01 3.000000000000e+01 
9.000000000000e-02 0.000000000000e+00 3.000000000000e-01 3.000000000000e+01 
1.000000000000e-01 0.000000000000e+00 3.000000000000e-01 3.000000000000e+01 
0.000000000000e+00 0.000000000000e+00 2.900000000000e-01 3.000000000000e+01 
1.000000000000e-02 0.000000000000e+00 2.900000000000e-01 3.000000000000e+01 
2.000000000000e-02 0.000000000000e+00 2.900000000000e-01 3.000000000000e+01 
3.000000000000e-02 0.000000000000e+00 2.900000000000e-01 3.000000000000e+01 
4.000000000000e-02 0.000000000000e+00 2.900000000000e-01 3.000000000000e+01 
5.000000000000e-02 0.000000000000e+00 2.900000000000e-01 3.000000000000e+01 
6.000000000000e-02 0.000000000000e+00 2.900000000000e-01 3.000000000000e+01 
7.000000000000e-02 0.000000000000e+00 2.900000000000e-01 3.000000000000e+01 
8.000000000000e-02 0.000000000000e+00 2.900000000000e-01 3.000000000000e+01 
9.000000000000e-02 0.000000000000e+00 2.900000000000e-01 3.000000000000e+01 
1.000000000000e-01 0.000000000000e+00 2.900000000000e-01 3.000000000000e+01 
0.000000000000e+00 0.000000000000e+00 2.800000000000e-01 3.000000000000e+01 
1.000000000000e-02 0.000000000000e+00 2.800000000000e-01 3.000000000000e+01 
2.000000000000e-02 0.000000000000e+00 2.800000000000e-01 3.000000000000e+01 
3.000000000000e-02 0.000000000000e+00 2.800000000000e-01 3.000000000000e+01 
4.000000000000e-02 0.000000000000e+00 2.800000000000e-01 3.000000000000e+01 
5.000000000000e-02 0.000000000000e+00 2.800000000000e-01 3.000000000000e+01 
6.000000000000e-02 0.000000000000e+00 2.800000000000e-01 3.000000000000e+01 
7.000000000000e-02 0.000000000000e+00 2.800000000000e-01 3.000000000000e+01 
8.000000000000e-02 0.000000000000e+00 2.800000000000e-01 3.000000000000e+01 
9.000000000000e-02 0.000000000000e+00 2.800000000000e-01 3.000000000000e+01 
1.000000000000e-01 0.000000000000e+00 2.800000000000e-01 3.000000000000e+01 
0.000000000000e+00 0.000000000000e+00 2.700000000000e-01 3.000000000000e+01 
1.000000000000e-02 0.000000000000e+00 2.700000000000e-01 3.000000000000e+01 
2.000000000000e-02 0.000000000000e+00 2.700000000000e-01 3.000000000000e+01 
3.000000000000e-02 0.000000000000e+00 2.700000000000e-01 3.000000000000e+01 
4.000000000000e-02 0.000000000000e+00 2.700000000000e-01 3.000000000000e+01 
5.000000000000e-02 0.000000000000e+00 2.700000000000e-01 3.000000000000e+01 
6.000000000000e-02 0.000000000000e+00 2.700000000000e-01 3.000000000000e+01 
7.000000000000e-02 0.000000000000e+00 2.700000000000e-01 3.000000000000e+01 
8.000000000000e-02 0.000000000000e+00 2.700000000000e-01 3.000000000000e+01 
9.000000000000e-02 0.000000000000e+00 2.700000000000e-01 3.000000000000e+01 
1.000000000000e-01 0.000000000000e+00 2.700000000000e-01 3.000000000000e+01 
0.000000000000e+00 0.000000000000e+00 2.600000000000e-01 3.000000000000e+01 
1.000000000000e-02 0.000000000000e+00 2.600000000000e-01 3.000000000000e+01 
2.000000000000e-02 0.000000000000e+00 2.600000000000e-01 3.000000000000e+01 
3.000000000000e-02 0.000000000000e+00 2.600000000000e-01 3.000000000000e+01 
4.000000000000e-02 0.000000000000e+00 2.600000000000e-01 3.000000000000e+01 
5.000000000000e-02 0.000000000000e+00 2.600000000000e-01 3.000000000000e+01 
6.000000000000e-02 0.000000000000e+00 2.600000000000e-01 3.000000000000e+01 
7.000000000000e-02 0.000000000000e+00 2.600000000000e-01 3.000000000000e+01 
8.000000000000e-02 0.000000000000e+00 2.600000000000e-01 3.000000000000e+01 
9.000000000000e-02 0.000000000000e+00 2.600000000000e-01 3.000000000000e+01 
1.000000000000e-01 0.000000000000e+00 2.600000000000e-01 3.000000000000e+01 
0.000000000000e+00 0.000000000000e+00 2.500000000000e-01 3.000000000000e+01 
1.000000000000e-02 0.000000000000e+00 2.500000000000e-01 3.000000000000e+01 
2.000000000000e-02 0.000000000000e+00 2.500000000000e-01 3.000000000000e+01 
3.000000000000e-02 0.000000000000e+00 2.500000000000e-01 3.000000000000e+01 
4.000000000000e-02 0.000000000000e+00 2.500000000000e-01 3.000000000000e+01 
5.000000000000e-02 0.000000000000e+00 2.500000000000e-01 3.000000000000e+01 
6.000000000000e-02 0.000000000000e+00 2.500000000000e-01 3.000000000000e+01 
7.000000000000e-02 0.000000000000e+00 2.500000000000e-01 3.000000000000e+01 
8.000000000000e-02 0.000000000000e+00 2.500000000000e-01 3.000000000000e+01 
9.000000000000e-02 0.000000000000e+00 2.500000000000e-01 3.000000000000e+01 
1.000000000000e-01 0.000000000000e+00 2.500000000000e-01 3.000000000000e+01 
12  13  2  1  
13  14  3  2  
14  15  4  3  
15  16  5  4  
16  17  6  5  
17  18  7  6  
18  19  8  7  
19  20  9  8  
20  21  10  9  
21  22  11  10  
23  24  13  12  
24  25  14  13  
25  26  15  14  
26  27  16  15  
27  28  17  16  
28  29  18  17  
29  30  19  18  
30  31  20  19  
31  32  21  20  
32  33  22  21  
34  35  24  23  
35  36  25  24  
36  37  26  25  
37  38  27  26  
38  39  28  27  
39  40  29  28  
40  41  30  29  
41  42  31  30  
42  43  32  31  
43  44  33  32  
45  46  35  34  
46  47  36  35  
47  48  37  36  
48  49  38  37  
49  50  39  38  
50  51  40  39  
51  52  41  40  
52  53  42  41  
53  54  43  42  
54  55  44  43  
56  57  46  45  
57  58  47  46  
58  59  48  47  
59  60  49  48  
60  61  50  49  
61  62  51  50  
62  63  52  51  
63  64  53  52  
64  65  54  53  
65  66  55  54  
67  68  57  56  
68  69  58  57  
69  70  59  58  
70  71  60  59  
71  72  61  60  
72  73  62  61  
73  74  63  62  
74  75  64  63  
75  76  65  64  
76  77  66  65  
78  79  68  67  
79  80  69  68  
80  81  70  69  
81  82  71  70  
82  83  72  71  
83  84  73  72  
84  85  74  73  
85  86  75  74  
86  87  76  75  
87  88  77  76  
89  90  79  78  
90  91  80  79  
91  92  81  80  
92  93  82  81  
93  94  83  82  
94  95  84  83  
95  96  85  84  
96  97  86  85  
97  98  87  86  
98  99  88  87  
100  101  90  89  
101  102  91  90  
102  103  92  91  
103  104  93  92  
104  105  94  93  
105  106  95  94  
106  107  96  95  
107  108  97  96  
108  109  98  97  
109  110  99  98  
VARIABLES  = "X","Y","Z", "TEMPERATURE1"
ZONE T="1.000000000000e-02s", N=110, E=90, F=FEPOINT, ET=QUADRILATERAL
STRANDID=1, SOLUTIONTIME=1.000000000000e-02
0.000000000000e+00 0.000000000000e+00 3.400000000000e-01 3.559200439077e+01 
1.000000000000e-02 0.000000000000e+00 3.400000000000e-01 1.870950419473e+01 
2.000000000000e-02 0.000000000000e+00 3.400000000000e-01 7.000000000037e+01 
3.000000000000e-02 0.000000000000e+00 3.400000000000e-01 7.000000000037e+01 
4.000000000000e-02 0.000000000000e+00 3.400000000000e-01 7.000000000037e+01 
5.000000000000e-02 0.000000000000e+00 3.400000000000e-01 7.000000000037e+01 
6.000000000000e-02 0.000000000000e+00 3.400000000000e-01 7.000000000037e+01 
7.000000000000e-02 0.000000000000e+00 3.400000000000e-01 7.000000000037e+01 
8.000000000000e-02 0.000000000000e+00 3.400000000000e-01 7.000000000037e+01 
9.000000000000e-02 0.000000000000e+00 3.400000000000e-01 1.870950381728e+01 
1.000000000000e-01 0.000000000000e+00 3.400000000000e-01 3.559200591453e+01 
0.000000000000e+00 0.000000000000e+00 3.300000000000e-01 2.851761024589e+01 
1.000000000000e-02 0.000000000000e+00 3.300000000000e-01 3.299269405850e+01 
2.000000000000e-02 0.000000000000e+00 3.300000000000e-01 1.939890240291e+01 
3.000000000000e-02 0.000000000000e+00 3.300000000000e-01 1.939939613756e+01 
4.000000000000e-02 0.000000000000e+00 3.300000000000e-01 1.939926302441e+01 
5.000000000000e-02 0.000000000000e+00 3.300000000000e-01 1.939930681635e+01 
6.000000000000e-02 0.000000000000e+00 3.300000000000e-01 1.939926309245e+01 
7.000000000000e-02 0.000000000000e+00 3.300000000000e-01 1.939939586276e+01 
8.000000000000e-02 0.000000000000e+00 3.300000000000e-01 1.939890344456e+01 
9.000000000000e-02 0.000000000000e+00 3.300000000000e-01 3.299269371857e+01 
1.000000000000e-01 0.000000000000e+00 3.300000000000e-01 2.851761057799e+01 
0.000000000000e+00 0.000000000000e+00 3.200000000000e-01 3.039296889892e+01 
1.000000000000e-02 0.000000000000e+00 3.200000000000e-01 2.920674560707e+01 
2.000000000000e-02 0.000000000000e+00 3.200000000000e-01 3.280958806340e+01 
3.000000000000e-02 0.000000000000e+00 3.200000000000e-01 3.280932674815e+01 
4.000000000000e-02 0.000000000000e+00 3.200000000000e-01 3.280939720665e+01 
5.000000000000e-02 0.000000000000e+00 3.200000000000e-01 3.280937401719e+01 
6.000000000000e-02 0.000000000000e+00 3.200000000000e-01 3.280939719554e+01 
7.000000000000e-02 0.000000000000e+00 3.200000000000e-01 3.280932679300e+01 
8.000000000000e-02 0.000000000000e+00 3.200000000000e-01 3.280958789338e+01 
9.000000000000e-02 0.000000000000e+00 3.200000000000e-01 2.920674565164e+01 
1.000000000000e-01 0.000000000000e+00 3.200000000000e-01 3.039296888435e+01 
0.000000000000e+00 0.000000000000e+00 3.100000000000e-01 2.989582734159e+01 
1.000000000000e-02 0.000000000000e+00 3.100000000000e-01 3.021026280599e+01 
2.000000000000e-02 0.000000000000e+00 3.100000000000e-01 2.925538076745e+01 
3.000000000000e-02 0.000000000000e+00 3.100000000000e-01 2.925548462714e+01 
4.000000000000e-02 0.000000000000e+00 3.100000000000e-01 2.925545662156e+01 
5.000000000000e-02 0.000000000000e+00 3.100000000000e-01 2.925546583981e+01 
6.000000000000e-02 0.000000000000e+00 3.100000000000e-01 2.925545662494e+01 
7.000000000000e-02 0.000000000000e+00 3.100000000000e-01 2.925548461350e+01 
8.000000000000e-02 0.000000000000e+00 3.100000000000e-01 2.925538081921e+01 
9.000000000000e-02 0.000000000000e+00 3.100000000000e-01 3.021026279337e+01 
1.000000000000e-01 0.000000000000e+00 3.100000000000e-01 2.989582735817e+01 
0.000000000000e+00 0.000000000000e+00 3.000000000000e-01 3.002761527657e+01 
1.000000000000e-02 0.000000000000e+00 3.000000000000e-01 2.994426699808e+01 
2.000000000000e-02 0.000000000000e+00 3.000000000000e-01 3.019734490039e+01 
3.000000000000e-02 0.000000000000e+00 3.000000000000e-01 3.019730820490e+01 
4.000000000000e-02 0.000000000000e+00 3.000000000000e-01 3.019731810046e+01 
5.000000000000e-02 0.000000000000e+00 3.000000000000e-01 3.019731484282e+01 
6.000000000000e-02 0.000000000000e+00 3.000000000000e-01 3.019731809992e+01 
7.000000000000e-02 0.000000000000e+00 3.000000000000e-01 3.019730820712e+01 
8.000000000000e-02 0.000000000000e+00 3.000000000000e-01 3.019734489191e+01 
9.000000000000e-02 0.000000000000e+00 3.000000000000e-01 2.994426699217e+01 
1.000000000000e-01 0.000000000000e+00 3.000000000000e-01 3.002761524345e+01 
0.000000000000e+00 0.000000000000e+00 2.900000000000e-01 2.999267941539e+01 
1.000000000000e-02 0.000000000000e+00 2.900000000000e-01 3.001477277347e+01 
2.000000000000e-02 0.000000000000e+00 2.900000000000e-01 2.994769807657e+01 
3.000000000000e-02 0.000000000000e+00 2.900000000000e-01 2.994771023249e+01 
4.000000000000e-02 0.000000000000e+00 2.900000000000e-01 2.994770695412e+01 
5.000000000000e-02 0.000000000000e+00 2.900000000000e-01 2.994770803385e+01 
6.000000000000e-02 0.000000000000e+00 2.900000000000e-01 2.994770695307e+01 
7.000000000000e-02 0.000000000000e+00 2.900000000000e-01 2.994771023659e+01 
8.000000000000e-02 0.000000000000e+00 2.900000000000e-01 2.994769806117e+01 
9.000000000000e-02 0.000000000000e+00 2.900000000000e-01 3.001477280915e+01 
1.000000000000e-01 0.000000000000e+00 2.900000000000e-01 2.999267953390e+01 
0.000000000000e+00 0.000000000000e+00 2.800000000000e-01 3.000194067487e+01 
1.000000000000e-02 0.000000000000e+00 2.800000000000e-01 2.999608432771e+01 
2.000000000000e-02 0.000000000000e+00 2.800000000000e-01 3.001386152172e+01 
3.000000000000e-02 0.000000000000e+00 2.800000000000e-01 3.001385765578e+01 
4.000000000000e-02 0.000000000000e+00 2.800000000000e-01 3.001385869887e+01 
5.000000000000e-02 0.000000000000e+00 2.800000000000e-01 3.001385835383e+01 
6.000000000000e-02 0.000000000000e+00 2.800000000000e-01 3.001385870366e+01 
7.000000000000e-02 0.000000000000e+00 2.800000000000e-01 3.001385763697e+01 
8.000000000000e-02 0.000000000000e+00 2.800000000000e-01 3.001386159252e+01 
9.000000000000e-02 0.000000000000e+00 2.800000000000e-01 2.999608418953e+01 
1.000000000000e-01 0.000000000000e+00 2.800000000000e-01 3.000194022954e+01 
0.000000000000e+00 0.000000000000e+00 2.700000000000e-01 2.999948535094e+01 
1.000000000000e-02 0.000000000000e+00 2.700000000000e-01 3.000103770915e+01 
2.000000000000e-02 0.000000000000e+00 2.700000000000e-01 2.999632611666e+01 
3.000000000000e-02 0.000000000000e+00 2.700000000000e-01 2.999632731244e+01 
4.000000000000e-02 0.000000000000e+00 2.700000000000e-01 2.999632698828e+01 
5.000000000000e-02 0.000000000000e+00 2.700000000000e-01 2.999632710106e+01 
6.000000000000e-02 0.000000000000e+00 2.700000000000e-01 2.999632696998e+01 
7.000000000000e-02 0.000000000000e+00 2.700000000000e-01 2.999632738431e+01 
8.000000000000e-02 0.000000000000e+00 2.700000000000e-01 2.999632584619e+01 
9.000000000000e-02 0.000000000000e+00 2.700000000000e-01 3.000103823148e+01 
1.000000000000e-01 0.000000000000e+00 2.700000000000e-01 2.999948703063e+01 
0.000000000000e+00 0.000000000000e+00 2.600000000000e-01 3.000013715745e+01 
1.000000000000e-02 0.000000000000e+00 2.600000000000e-01 2.999972566945e+01 
2.000000000000e-02 0.000000000000e+00 2.600000000000e-01 3.000097441031e+01 
3.000000000000e-02 0.000000000000e+00 2.600000000000e-01 3.000097404649e+01 
4.000000000000e-02 0.000000000000e+00 2.600000000000e-01 3.000097415080e+01 
5.000000000000e-02 0.000000000000e+00 2.600000000000e-01 3.000097409363e+01 
6.000000000000e-02 0.000000000000e+00 2.600000000000e-01 3.000097421987e+01 
7.000000000000e-02 0.000000000000e+00 2.600000000000e-01 3.000097377513e+01 
8.000000000000e-02 0.000000000000e+00 2.600000000000e-01 3.000097543165e+01 
9.000000000000e-02 0.000000000000e+00 2.600000000000e-01 2.999972603878e+01 
1.000000000000e-01 0.000000000000e+00 2.600000000000e-01 3.000013614047e+01 
0.000000000000e+00 0.000000000000e+00 2.500000000000e-01 2.999996463188e+01 
1.000000000000e-02 0.000000000000e+00 2.500000000000e-01 3.000007370591e+01 
2.000000000000e-02 0.000000000000e+00 2.500000000000e-01 2.999974274552e+01 
3.000000000000e-02 0.000000000000e+00 2.500000000000e-01 2.999974285252e+01 
4.000000000000e-02 0.000000000000e+00 2.500000000000e-01 2.999974282691e+01 
5.000000000000e-02 0.000000000000e+00 2.500000000000e-01 2.999974282330e+01 
6.000000000000e-02 0.000000000000e+00 2.500000000000e-01 2.999974286629e+01 
7.000000000000e-02 0.000000000000e+00 2.500000000000e-01 2.999974269082e+01 
8.000000000000e-02 0.000000000000e+00 2.500000000000e-01 2.999974336644e+01 
9.000000000000e-02 0.000000000000e+00 2.500000000000e-01 3.000007260762e+01 
1.000000000000e-01 0.000000000000e+00 2.500000000000e-01 2.999996385676e+01 
12  13  2  1  
13  14  3  2  
14  15  4  3  
15  16  5  4  
16  17  6  5  
17  18  7  6  
18  19  8  7  
19  20  9  8  
20  21  10  9  
21  22  11  10  
23  24  13  12  
24  25  14  13  
25  26  15  14  
26  27  16  15  
27  28  17  16  
28  29  18  17  
29  30  19  18  
30  31  20  19  
31  32  21  20  
32  33  22  21  
34  35  24  23  
35  36  25  24  
36  37  26  25  
37  38  27  26  
38  39  28  27  
39  40  29  28  
40  41  30  29  
41  42  31  30  
42  43  32  31  
43  44  33  32  
45  46  35  34  
46  47  36  35  
47  48  37  36  
48  49  38  37  
49  50  39  38  
50  51  40  39  
51  52  41  40  
52  53  42  41  
53  54  43  42  
54  55  44  43  
56  57  46  45  
57  58  47  46  
58  59  48  47  
59  60  49  48  
60  61  50  49  
61  62  51  50  
62  63  52  51  
63  64  53  52  
64  65  54  53  
65  66  55  54  
67  68  57  56  
68  69  58  57  
69  70  59  58  
70  71  60  59  
71  72  61  60  
72  73  62  61  
73  74  63  62  
74  75  64  63  
75  76  65  64  
76  77  66  65  
78  79  68  67  
79  80  69  68  
80  81  70  69  
81  82  71  70  
82  83  72  71  
83  84  73  72  
84  85  74  73  
85  86  75  74  
86  87  76  75  
87  88  77  76  
89  90  79  78  
90  91  80  79  
91  92  81  80  
92  93  82  81  
93  94  83  82  
94  95  84  83  
95  96  85  84  
96  97  86  85  
97  98  87  86  
98  99  88  87  
100  101  90  89  
101  102  91  90  
102  103  92  91  
103  104  93  92  
104  105  94  93  
105  106  95  94  
106  107  96  95  
107  108  97  96  
108  109  98  97  
109  110  99  98  
VARIABLES  = "X","Y","Z", "TEMPERATURE1"
ZONE T="7.000000000000e-02s", N=110, E=90, F=FEPOINT, ET=QUADRILATERAL
STRANDID=1, SOLUTIONTIME=7.000000000000e-02
0.000000000000e+00 0.000000000000e+00 3.400000000000e-01 3.492585949762e+01 
1.000000000000e-02 0.000000000000e+00 3.400000000000e-01 1.947805720558e+01 
2.000000000000e-02 0.000000000000e+00 3.400000000000e-01 7.000000000094e+01 
3.000000000000e-02 0.000000000000e+00 3.400000000000e-01 7.000000000094e+01 
4.000000000000e-02 0.000000000000e+00 3.400000000000e-01 7.000000000094e+01 
5.000000000000e-02 0.000000000000e+00 3.400000000000e-01 7.000000000094e+01 
6.000000000000e-02 0.000000000000e+00 3.400000000000e-01 7.000000000094e+01 
7.000000000000e-02 0.000000000000e+00 3.400000000000e-01 7.000000000094e+01 
8.000000000000e-02 0.000000000000e+00 3.400000000000e-01 7.000000000094e+01 
9.000000000000e-02 0.000000000000e+00 3.400000000000e-01 1.947805678067e+01 
1.000000000000e-01 0.000000000000e+00 3.400000000000e-01 3.492586131439e+01 
0.000000000000e+00 0.000000000000e+00 3.300000000000e-01 2.876538929176e+01 
1.000000000000e-02 0.000000000000e+00 3.300000000000e-01 3.262646607593e+01 
2.000000000000e-02 0.000000000000e+00 3.300000000000e-01 2.006552053803e+01 
3.000000000000e-02 0.000000000000e+00 3.300000000000e-01 2.008407175753e+01 
4.000000000000e-02 0.000000000000e+00 3.300000000000e-01 2.007934078118e+01 
5.000000000000e-02 0.000000000000e+00 3.300000000000e-01 2.008080505922e+01 
6.000000000000e-02 0.000000000000e+00 3.300000000000e-01 2.007934085156e+01 
7.000000000000e-02 0.000000000000e+00 3.300000000000e-01 2.008407145717e+01 
8.000000000000e-02 0.000000000000e+00 3.300000000000e-01 2.006552175084e+01 
9.000000000000e-02 0.000000000000e+00 3.300000000000e-01 3.262646570003e+01 
1.000000000000e-01 0.000000000000e+00 3.300000000000e-01 2.876538968261e+01 
0.000000000000e+00 0.000000000000e+00 3.200000000000e-01 3.030922913523e+01 
1.000000000000e-02 0.000000000000e+00 3.200000000000e-01 2.934484787808e+01 
2.000000000000e-02 0.000000000000e+00 3.200000000000e-01 3.246545525261e+01 
3.000000000000e-02 0.000000000000e+00 3.200000000000e-01 3.245612326843e+01 
4.000000000000e-02 0.000000000000e+00 3.200000000000e-01 3.245850823957e+01 
5.000000000000e-02 0.000000000000e+00 3.200000000000e-01 3.245776826010e+01 
6.000000000000e-02 0.000000000000e+00 3.200000000000e-01 3.245850822900e+01 
7.000000000000e-02 0.000000000000e+00 3.200000000000e-01 3.245612331329e+01 
8.000000000000e-02 0.000000000000e+00 3.200000000000e-01 3.246545507239e+01 
9.000000000000e-02 0.000000000000e+00 3.200000000000e-01 2.934484792324e+01 
1.000000000000e-01 0.000000000000e+00 3.200000000000e-01 3.030922911960e+01 
0.000000000000e+00 0.000000000000e+00 3.100000000000e-01 2.992260383770e+01 
1.000000000000e-02 0.000000000000e+00 3.100000000000e-01 3.016330113832e+01 
2.000000000000e-02 0.000000000000e+00 3.100000000000e-01 2.938863621810e+01 
3.000000000000e-02 0.000000000000e+00 3.100000000000e-01 2.939215478765e+01 
4.000000000000e-02 0.000000000000e+00 3.100000000000e-01 2.939125350549e+01 
5.000000000000e-02 0.000000000000e+00 3.100000000000e-01 2.939153384504e+01 
6.000000000000e-02 0.000000000000e+00 3.100000000000e-01 2.939125350853e+01 
7.000000000000e-02 0.000000000000e+00 3.100000000000e-01 2.939215477474e+01 
8.000000000000e-02 0.000000000000e+00 3.100000000000e-01 2.938863627044e+01 
9.000000000000e-02 0.000000000000e+00 3.100000000000e-01 3.016330112593e+01 
1.000000000000e-01 0.000000000000e+00 3.100000000000e-01 2.992260385623e+01 
0.000000000000e+00 0.000000000000e+00 3.000000000000e-01 3.001935644169e+01 
1.000000000000e-02 0.000000000000e+00 3.000000000000e-01 2.995932866460e+01 
2.000000000000e-02 0.000000000000e+00 3.000000000000e-01 3.015146850691e+01 
3.000000000000e-02 0.000000000000e+00 3.000000000000e-01 3.015028929533e+01 
4.000000000000e-02 0.000000000000e+00 3.000000000000e-01 3.015059203674e+01 
5.000000000000e-02 0.000000000000e+00 3.000000000000e-01 3.015049763576e+01 
6.000000000000e-02 0.000000000000e+00 3.000000000000e-01 3.015059203640e+01 
7.000000000000e-02 0.000000000000e+00 3.000000000000e-01 3.015028929690e+01 
8.000000000000e-02 0.000000000000e+00 3.000000000000e-01 3.015146850025e+01 
9.000000000000e-02 0.000000000000e+00 3.000000000000e-01 2.995932865861e+01 
1.000000000000e-01 0.000000000000e+00 3.000000000000e-01 3.001935640126e+01 
0.000000000000e+00 0.000000000000e+00 2.900000000000e-01 2.999516299097e+01 
1.000000000000e-02 0.000000000000e+00 2.900000000000e-01 3.001012073965e+01 
2.000000000000e-02 0.000000000000e+00 2.900000000000e-01 2.996250845184e+01 
3.000000000000e-02 0.000000000000e+00 2.900000000000e-01 2.996287893966e+01 
4.000000000000e-02 0.000000000000e+00 2.900000000000e-01 2.996278360841e+01 
5.000000000000e-02 0.000000000000e+00 2.900000000000e-01 2.996281340888e+01 
6.000000000000e-02 0.000000000000e+00 2.900000000000e-01 2.996278360694e+01 
7.000000000000e-02 0.000000000000e+00 2.900000000000e-01 2.996287894547e+01 
8.000000000000e-02 0.000000000000e+00 2.900000000000e-01 2.996250843034e+01 
9.000000000000e-02 0.000000000000e+00 2.900000000000e-01 3.001012077712e+01 
1.000000000000e-01 0.000000000000e+00 2.900000000000e-01 2.999516314605e+01 
0.000000000000e+00 0.000000000000e+00 2.800000000000e-01 3.000120772818e+01 
1.000000000000e-02 0.000000000000e+00 2.800000000000e-01 2.999748394312e+01 
2.000000000000e-02 0.000000000000e+00 2.800000000000e-01 3.000927042910e+01 
3.000000000000e-02 0.000000000000e+00 2.800000000000e-01 3.000915868708e+01 
4.000000000000e-02 0.000000000000e+00 2.800000000000e-01 3.000918750515e+01 
5.000000000000e-02 0.000000000000e+00 2.800000000000e-01 3.000917847241e+01 
6.000000000000e-02 0.000000000000e+00 2.800000000000e-01 3.000918751167e+01 
7.000000000000e-02 0.000000000000e+00 2.800000000000e-01 3.000915866110e+01 
8.000000000000e-02 0.000000000000e+00 2.800000000000e-01 3.000927052732e+01 
9.000000000000e-02 0.000000000000e+00 2.800000000000e-01 2.999748378894e+01 
1.000000000000e-01 0.000000000000e+00 2.800000000000e-01 3.000120710782e+01 
0.000000000000e+00 0.000000000000e+00 2.700000000000e-01 2.999969847484e+01 
1.000000000000e-02 0.000000000000e+00 2.700000000000e-01 3.000062461567e+01 
2.000000000000e-02 0.000000000000e+00 2.700000000000e-01 2.999771003995e+01 
3.000000000000e-02 0.000000000000e+00 2.700000000000e-01 2.999774280604e+01 
4.000000000000e-02 0.000000000000e+00 2.700000000000e-01 2.999773433464e+01 
5.000000000000e-02 0.000000000000e+00 2.700000000000e-01 2.999773700433e+01 
6.000000000000e-02 0.000000000000e+00 2.700000000000e-01 2.999773430848e+01 
7.000000000000e-02 0.000000000000e+00 2.700000000000e-01 2.999774291066e+01 
8.000000000000e-02 0.000000000000e+00 2.700000000000e-01 2.999770964331e+01 
9.000000000000e-02 0.000000000000e+00 2.700000000000e-01 3.000062523793e+01 
1.000000000000e-01 0.000000000000e+00 2.700000000000e-01 2.999970096168e+01 
0.000000000000e+00 0.000000000000e+00 2.600000000000e-01 3.000007623746e+01 
1.000000000000e-02 0.000000000000e+00 2.600000000000e-01 2.999984614102e+01 
2.000000000000e-02 0.000000000000e+00 2.600000000000e-01 3.000056600381e+01 
3.000000000000e-02 0.000000000000e+00 2.600000000000e-01 3.000055658988e+01 
4.000000000000e-02 0.000000000000e+00 2.600000000000e-01 3.000055903755e+01 
5.000000000000e-02 0.000000000000e+00 2.600000000000e-01 3.000055823279e+01 
6.000000000000e-02 0.000000000000e+00 2.600000000000e-01 3.000055914274e+01 
7.000000000000e-02 0.000000000000e+00 2.600000000000e-01 3.000055616743e+01 
8.000000000000e-02 0.000000000000e+00 2.600000000000e-01 3.000056761359e+01 
9.000000000000e-02 0.000000000000e+00 2.600000000000e-01 2.999984683178e+01 
1.000000000000e-01 0.000000000000e+00 2.600000000000e-01 3.000007470450e+01 
0.000000000000e+00 0.000000000000e+00 2.500000000000e-01 2.999998249031e+01 
1.000000000000e-02 0.000000000000e+00 2.500000000000e-01 3.000003958996e+01 
2.000000000000e-02 0.000000000000e+00 2.500000000000e-01 2.999986202621e+01 
3.000000000000e-02 0.000000000000e+00 2.500000000000e-01 2.999986468593e+01 
4.000000000000e-02 0.000000000000e+00 2.500000000000e-01 2.999986399907e+01 
5.000000000000e-02 0.000000000000e+00 2.500000000000e-01 2.999986420168e+01 
6.000000000000e-02 0.000000000000e+00 2.500000000000e-01 2.999986404672e+01 
7.000000000000e-02 0.000000000000e+00 2.500000000000e-01 2.999986448934e+01 
8.000000000000e-02 0.000000000000e+00 2.500000000000e-01 2.999986277848e+01 
9.000000000000e-02 0.000000000000e+00 2.500000000000e-01 3.000003797881e+01 
1.000000000000e-01 0.000000000000e+00 2.500000000000e-01 2.999998130782e+01 
12  13  2  1  
13  14  3  2  
14  15  4  3  
15  16  5  4  
16  17  6  5  
17  18  7  6  
18  19  8  7  
19  20  9  8  
20  21  10  9  
21  22  11  10  
23  24  13  12  
24  25  14  13  
25  26  15  14  
26  27  16  15  
27  28  17  16  
28  29  18  17  
29  30  19  18  
30  31  20  19  
31  32  21  20  
32  33  22  21  
34  35  24  23  
35  36  25  24  
36  37  26  25  
37  38  27  26  
38  39  28  27  
39  40  29  28  
40  41  30  29  
41  42  31  30  
42  43  32  31  
43  44  33  32  
45  46  35  34  
46  47  36  35  
47  48  37  36  
48  49  38  37  
49  50  39  38  
50  51  40  39  
51  52  41  40  
52  53  42  41  
53  54  43  42  
54  55  44  43  
56  57  46  45  
57  58  47  46  
58  59  48  47  
59  60  49  48  
60  61  50  49  
61  62  51  50  
62  63  52  51  
63  64  53  52  
64  65  54  53  
65  66  55  54  
67  68  57  56  
68  69  58  57  
69  70  59  58  
70  71  60  59  
71  72  61  60  
72  73  62  61  
73  74  63  62  
74  75  64  63  
75  76  65  64  
76  77  66  65  
78  79  68  67  
79  80  69  68  
80  81  70  69  