VARIABLES  = "X","Y","Z", "TEMPERATURE1"
ZONE T="0.000000000000e+00s", N=108, E=87, F=FEPOINT, ET=QUADRILATERAL
STRANDID=1, SOLUTIONTIME=0.000000000000e+00
8.000000000000e-02 0.000000000000e+00 9.000000000000e-02 3.000000000000e+01 
9.000000000000e-02 0.000000000000e+00 9.000000000000e-02 3.000000000000e+01 
1.000000000000e-01 0.000000000000e+00 9.000000000000e-02 3.000000000000e+01 
5.000000000000e-02 0.000000000000e+00 8.000000000000e-02 3.000000000000e+01 
6.000000000000e-02 0.000000000000e+00 8.000000000000e-02 3.000000000000e+01 
7.000000000000e-02 0.000000000000e+00 8.000000000000e-02 3.000000000000e+01 
8.000000000000e-02 0.000000000000e+00 8.000000000000e-02 3.000000000000e+01 
9.000000000000e-02 0.000000000000e+00 8.000000000000e-02 3.000000000000e+01 
1.000000000000e-01 0.000000000000e+00 8.000000000000e-02 3.000000000000e+01 
3.000000000000e-02 0.000000000000e+00 7.000000000000e-02 3.000000000000e+01 
4.000000000000e-02 0.000000000000e+00 7.000000000000e-02 3.000000000000e+01 
5.000000000000e-02 0.000000000000e+00 7.000000000000e-02 3.000000000000e+01 
6.000000000000e-02 0.000000000000e+00 7.000000000000e-02 3.000000000000e+01 
7.000000000000e-02 0.000000000000e+00 7.000000000000e-02 3.000000000000e+01 
8.000000000000e-02 0.000000000000e+00 7.000000000000e-02 3.000000000000e+01 
9.000000000000e-02 0.000000000000e+00 7.000000000000e-02 3.000000000000e+01 
1.000000000000e-01 0.000000000000e+00 7.000000000000e-02 3.000000000000e+01 
0.000000000000e+00 0.000000000000e+00 6.000000000000e-02 3.000000000000e+01 
1.000000000000e-02 0.000000000000e+00 6.000000000000e-02 3.000000000000e+01 
2.000000000000e-02 0.000000000000e+00 6.000000000000e-02 3.000000000000e+01 
3.000000000000e-02 0.000000000000e+00 6.000000000000e-02 3.000000000000e+01 
4.000000000000e-02 0.000000000000e+00 6.000000000000e-02 3.000000000000e+01 
5.000000000000e-02 0.000000000000e+00 6.000000000000e-02 3.000000000000e+01 
6.000000000000e-02 0.000000000000e+00 6.000000000000e-02 3.000000000000e+01 
7.000000000000e-02 0.000000000000e+00 6.000000000000e-02 3.000000000000e+01 
8.000000000000e-02 0.000000000000e+00 6.000000000000e-02 3.000000000000e+01 
9.000000000000e-02 0.000000000000e+00 6.000000000000e-02 3.000000000000e+01 
1.000000000000e-01 0.000000000000e+00 6.000000000000e-02 3.000000000000e+01 
0.000000000000e+00 0.000000000000e+00 5.000000000000e-02 3.000000000000e+01 
1.000000000000e-02 0.000000000000e+00 5.000000000000e-02 3.000000000000e+01 
2.000000000000e-02 0.000000000000e+00 5.000000000000e-02 3.000000000000e+01 
3.000000000000e-02 0.000000000000e+00 5.000000000000e-02 3.000000000000e+01 
4.000000000000e-02 0.000000000000e+00 5.000000000000e-02 3.000000000000e+01 
5.000000000000e-02 0.000000000000e+00 5.000000000000e-02 3.000000000000e+01 
6.000000000000e-02 0.000000000000e+00 5.000000000000e-02 3.000000000000e+01 
7.000000000000e-02 0.000000000000e+00 5.000000000000e-02 3.000000000000e+01 
8.000000000000e-02 0.000000000000e+00 5.000000000000e-02 3.000000000000e+01 
9.000000000000e-02 0.000000000000e+00 5.000000000000e-02 3.000000000000e+01 
1.000000000000e-01 0.000000000000e+00 5.000000000000e-02 3.000000000000e+01 
0.000000000000e+00 0.000000000000e+00 4.000000000000e-02 3.000000000000e+01 
1.000000000000e-02 0.000000000000e+00 4.000000000000e-02 3.000000000000e+01 
2.000000000000e-02 0.000000000000e+00 4.000000000000e-02 3.000000000000e+01 
3.000000000000e-02 0.000000000000e+00 4.000000000000e-02 3.000000000000e+01 
4.000000000000e-02 0.000000000000e+00 4.000000000000e-02 3.000000000000e+01 
5.000000000000e-02 0.000000000000e+00 4.000000000000e-02 3.000000000000e+01 
6.000000000000e-02 0.000000000000e+00 4.000000000000e-02 3.000000000000e+01 
7.000000000000e-02 0.000000000000e+00 4.000000000000e-02 3.000000000000e+01 
8.000000000000e-02 0.000000000000e+00 4.000000000000e-02 3.000000000000e+01 
9.000000000000e-02 0.000000000000e+00 4.000000000000e-02 3.000000000000e+01 
1.000000000000e-01 0.000000000000e+00 4.000000000000e-02 3.000000000000e+01 
0.000000000000e+00 0.000000000000e+00 3.000000000000e-02 3.000000000000e+01 
1.000000000000e-02 0.000000000000e+00 3.000000000000e-02 3.000000000000e+01 
2.000000000000e-02 0.000000000000e+00 3.000000000000e-02 3.000000000000e+01 
3.000000000000e-02 0.000000000000e+00 3.000000000000e-02 3.000000000000e+01 
4.000000000000e-02 0.000000000000e+00 3.000000000000e-02 3.000000000000e+01 
5.000000000000e-02 0.000000000000e+00 3.000000000000e-02 3.000000000000e+01 
6.000000000000e-02 0.000000000000e+00 3.000000000000e-02 3.000000000000e+01 
7.000000000000e-02 0.000000000000e+00 3.000000000000e-02 3.000000000000e+01 
8.000000000000e-02 0.000000000000e+00 3.000000000000e-02 3.000000000000e+01 
9.000000000000e-02 0.000000000000e+00 3.000000000000e-02 3.000000000000e+01 
1.000000000000e-01 0.000000000000e+00 3.000000000000e-02 3.000000000000e+01 
0.000000000000e+00 0.000000000000e+00 2.000000000000e-02 3.000000000000e+01 
1.000000000000e-02 0.000000000000e+00 2.000000000000e-02 3.000000000000e+01 
2.000000000000e-02 0.000000000000e+00 2.000000000000e-02 3.000000000000e+01 
3.000000000000e-02 0.000000000000e+00 2.000000000000e-02 3.000000000000e+01 
4.000000000000e-02 0.000000000000e+00 2.000000000000e-02 3.000000000000e+01 
5.000000000000e-02 0.000000000000e+00 2.000000000000e-02 3.000000000000e+01 
6.000000000000e-02 0.000000000000e+00 2.000000000000e-02 3.000000000000e+01 
7.000000000000e-02 0.000000000000e+00 2.000000000000e-02 3.000000000000e+01 
8.000000000000e-02 0.000000000000e+00 2.000000000000e-02 3.000000000000e+01 
9.000000000000e-02 0.000000000000e+00 2.000000000000e-02 3.000000000000e+01 
1.000000000000e-01 0.000000000000e+00 2.000000000000e-02 3.000000000000e+01 
0.000000000000e+00 0.000000000000e+00 1.000000000000e-02 3.000000000000e+01 
1.000000000000e-02 0.000000000000e+00 1.000000000000e-02 3.000000000000e+01 
2.000000000000e-02 0.000000000000e+00 1.000000000000e-02 3.000000000000e+01 
3.000000000000e-02 0.000000000000e+00 1.000000000000e-02 3.000000000000e+01 
4.000000000000e-02 0.000000000000e+00 1.000000000000e-02 3.000000000000e+01 
5.000000000000e-02 0.000000000000e+00 1.000000000000e-02 3.000000000000e+01 
6.000000000000e-02 0.000000000000e+00 1.000000000000e-02 3.000000000000e+01 
7.000000000000e-02 0.000000000000e+00 1.000000000000e-02 3.000000000000e+01 
8.000000000000e-02 0.000000000000e+00 1.000000000000e-02 3.000000000000e+01 
9.000000000000e-02 0.000000000000e+00 1.000000000000e-02 3.000000000000e+01 
1.000000000000e-01 0.000000000000e+00 1.000000000000e-02 3.000000000000e+01 
0.000000000000e+00 0.000000000000e+00 0.000000000000e+00 3.000000000000e+01 
1.000000000000e-02 0.000000000000e+00 0.000000000000e+00 3.000000000000e+01 
2.000000000000e-02 0.000000000000e+00 0.000000000000e+00 3.000000000000e+01 
3.000000000000e-02 0.000000000000e+00 0.000000000000e+00 3.000000000000e+01 
4.000000000000e-02 0.000000000000e+00 0.000000000000e+00 3.000000000000e+01 
5.000000000000e-02 0.000000000000e+00 0.000000000000e+00 3.000000000000e+01 
6.000000000000e-02 0.000000000000e+00 0.000000000000e+00 3.000000000000e+01 
7.000000000000e-02 0.000000000000e+00 0.000000000000e+00 3.000000000000e+01 
8.000000000000e-02 0.000000000000e+00 0.000000000000e+00 3.000000000000e+01 
9.000000000000e-02 0.000000000000e+00 0.000000000000e+00 3.000000000000e+01 
1.000000000000e-01 0.000000000000e+00 0.000000000000e+00 3.000000000000e+01 
7.000000000000e-02 0.000000000000e+00 9.000000000000e-02 3.000000000000e+01 
8.000000000000e-02 0.000000000000e+00 1.000000000000e-01 3.000000000000e+01 
7.000000000000e-02 0.000000000000e+00 1.000000000000e-01 3.000000000000e+01 
9.000000000000e-02 0.000000000000e+00 1.000000000000e-01 3.000000000000e+01 
1.000000000000e-01 0.000000000000e+00 1.000000000000e-01 3.000000000000e+01 
4.000000000000e-02 0.000000000000e+00 8.000000000000e-02 3.000000000000e+01 
5.000000000000e-02 0.000000000000e+00 9.000000000000e-02 3.000000000000e+01 
4.000000000000e-02 0.000000000000e+00 9.000000000000e-02 3.000000000000e+01 
6.000000000000e-02 0.000000000000e+00 9.000000000000e-02 3.000000000000e+01 
2.000000000000e-02 0.000000000000e+00 7.000000000000e-02 3.000000000000e+01 
3.000000000000e-02 0.000000000000e+00 8.000000000000e-02 3.000000000000e+01 
2.000000000000e-02 0.000000000000e+00 8.000000000000e-02 3.000000000000e+01 
1.000000000000e-02 0.000000000000e+00 7.000000000000e-02 3.000000000000e+01 
0.000000000000e+00 0.000000000000e+00 7.000000000000e-02 3.000000000000e+01 
7  8  2  1  
8  9  3  2  
12  13  5  4  
13  14  6  5  
14  15  7  6  
15  16  8  7  
16  17  9  8  
21  22  11  10  
22  23  12  11  
23  24  13  12  
24  25  14  13  
25  26  15  14  
26  27  16  15  
27  28  17  16  
29  30  19  18  
30  31  20  19  
31  32  21  20  
32  33  22  21  
33  34  23  22  
34  35  24  23  
35  36  25  24  
36  37  26  25  
37  38  27  26  
38  39  28  27  
40  41  30  29  
41  42  31  30  
42  43  32  31  
43  44  33  32  
44  45  34  33  
45  46  35  34  
46  47  36  35  
47  48  37  36  
48  49  38  37  
49  50  39  38  
51  52  41  40  
52  53  42  41  
53  54  43  42  
54  55  44  43  
55  56  45  44  
56  57  46  45  
57  58  47  46  
58  59  48  47  
59  60  49  48  
60  61  50  49  
62  63  52  51  
63  64  53  52  
64  65  54  53  
65  66  55  54  
66  67  56  55  
67  68  57  56  
68  69  58  57  
69  70  59  58  
70  71  60  59  
71  72  61  60  
73  74  63  62  
74  75  64  63  
75  76  65  64  
76  77  66  65  
77  78  67  66  
78  79  68  67  
79  80  69  68  
80  81  70  69  
81  82  71  70  
82  83  72  71  
84  85  74  73  
85  86  75  74  
86  87  76  75  
87  88  77  76  
88  89  78  77  
89  90  79  78  
90  91  80  79  
91  92  81  80  
92  93  82  81  
93  94  83  82  
95  1  96  97  
1  2  98  96  
2  3  99  98  
100  4  101  102  
4  5  103  101  
5  6  95  103  
6  7  1  95  
104  10  105  106  
10  11  100  105  
11  12  4  100  
18  19  107  108  
19  20  104  107  
20  21  10  104  
VARIABLES  = "X","Y","Z", "TEMPERATURE1"
ZONE T="1.000000000000e-02s", N=108, E=87, F=FEPOINT, ET=QUADRILATERAL
STRANDID=1, SOLUTIONTIME=1.000000000000e-02
8.000000000000e-02 0.000000000000e+00 9.000000000000e-02 2.999999993684e+01 
9.000000000000e-02 0.000000000000e+00 9.000000000000e-02 2.999999980441e+01 
1.000000000000e-01 0.000000000000e+00 9.000000000000e-02 3.000000011582e+01 
5.000000000000e-02 0.000000000000e+00 8.000000000000e-02 3.000000081750e+01 
6.000000000000e-02 0.000000000000e+00 8.000000000000e-02 2.999999956480e+01 
7.000000000000e-02 0.000000000000e+00 8.000000000000e-02 3.000000034641e+01 
8.000000000000e-02 0.000000000000e+00 8.000000000000e-02 2.999999999819e+01 
9.000000000000e-02 0.000000000000e+00 8.000000000000e-02 3.000000005319e+01 
1.000000000000e-01 0.000000000000e+00 8.000000000000e-02 2.999999996949e+01 
3.000000000000e-02 0.000000000000e+00 7.000000000000e-02 2.999999969463e+01 
4.000000000000e-02 0.000000000000e+00 7.000000000000e-02 3.000000128301e+01 
5.000000000000e-02 0.000000000000e+00 7.000000000000e-02 2.999999980405e+01 
6.000000000000e-02 0.000000000000e+00 7.000000000000e-02 3.000000010406e+01 
7.000000000000e-02 0.000000000000e+00 7.000000000000e-02 2.999999989894e+01 
8.000000000000e-02 0.000000000000e+00 7.000000000000e-02 3.000000000464e+01 
9.000000000000e-02 0.000000000000e+00 7.000000000000e-02 2.999999998181e+01 
1.000000000000e-01 0.000000000000e+00 7.000000000000e-02 3.000000001097e+01 
0.000000000000e+00 0.000000000000e+00 6.000000000000e-02 2.999999897102e+01 
1.000000000000e-02 0.000000000000e+00 6.000000000000e-02 3.000000026051e+01 
2.000000000000e-02 0.000000000000e+00 6.000000000000e-02 3.000000000411e+01 
3.000000000000e-02 0.000000000000e+00 6.000000000000e-02 3.000000008241e+01 
4.000000000000e-02 0.000000000000e+00 6.000000000000e-02 2.999999964771e+01 
5.000000000000e-02 0.000000000000e+00 6.000000000000e-02 3.000000005674e+01 
6.000000000000e-02 0.000000000000e+00 6.000000000000e-02 2.999999996876e+01 
7.000000000000e-02 0.000000000000e+00 6.000000000000e-02 3.000000002776e+01 
8.000000000000e-02 0.000000000000e+00 6.000000000000e-02 2.999999999929e+01 
9.000000000000e-02 0.000000000000e+00 6.000000000000e-02 3.000000000519e+01 
1.000000000000e-01 0.000000000000e+00 6.000000000000e-02 2.999999999777e+01 
0.000000000000e+00 0.000000000000e+00 5.000000000000e-02 3.000000024438e+01 
1.000000000000e-02 0.000000000000e+00 5.000000000000e-02 2.999999994013e+01 
2.000000000000e-02 0.000000000000e+00 5.000000000000e-02 2.999999999357e+01 
3.000000000000e-02 0.000000000000e+00 5.000000000000e-02 2.999999998049e+01 
4.000000000000e-02 0.000000000000e+00 5.000000000000e-02 3.000000009275e+01 
5.000000000000e-02 0.000000000000e+00 5.000000000000e-02 2.999999998589e+01 
6.000000000000e-02 0.000000000000e+00 5.000000000000e-02 3.000000000858e+01 
7.000000000000e-02 0.000000000000e+00 5.000000000000e-02 2.999999999323e+01 
8.000000000000e-02 0.000000000000e+00 5.000000000000e-02 3.000000000077e+01 
9.000000000000e-02 0.000000000000e+00 5.000000000000e-02 2.999999999916e+01 
1.000000000000e-01 0.000000000000e+00 5.000000000000e-02 3.000000000118e+01 
0.000000000000e+00 0.000000000000e+00 4.000000000000e-02 2.999999993428e+01 
1.000000000000e-02 0.000000000000e+00 4.000000000000e-02 3.000000001688e+01 
2.000000000000e-02 0.000000000000e+00 4.000000000000e-02 3.000000000197e+01 
3.000000000000e-02 0.000000000000e+00 4.000000000000e-02 3.000000000584e+01 
4.000000000000e-02 0.000000000000e+00 4.000000000000e-02 2.999999997591e+01 
5.000000000000e-02 0.000000000000e+00 4.000000000000e-02 3.000000000434e+01 
6.000000000000e-02 0.000000000000e+00 4.000000000000e-02 2.999999999828e+01 
7.000000000000e-02 0.000000000000e+00 4.000000000000e-02 3.000000000237e+01 
8.000000000000e-02 0.000000000000e+00 4.000000000000e-02 3.000000000037e+01 
9.000000000000e-02 0.000000000000e+00 4.000000000000e-02 3.000000000077e+01 
1.000000000000e-01 0.000000000000e+00 4.000000000000e-02 3.000000000027e+01 
0.000000000000e+00 0.000000000000e+00 3.000000000000e-02 3.000000001789e+01 
1.000000000000e-02 0.000000000000e+00 3.000000000000e-02 2.999999999611e+01 
2.000000000000e-02 0.000000000000e+00 3.000000000000e-02 3.000000000003e+01 
3.000000000000e-02 0.000000000000e+00 3.000000000000e-02 2.999999999903e+01 
4.000000000000e-02 0.000000000000e+00 3.000000000000e-02 3.000000000695e+01 
5.000000000000e-02 0.000000000000e+00 3.000000000000e-02 2.999999999942e+01 
6.000000000000e-02 0.000000000000e+00 3.000000000000e-02 3.000000000103e+01 
7.000000000000e-02 0.000000000000e+00 3.000000000000e-02 2.999999999994e+01 
8.000000000000e-02 0.000000000000e+00 3.000000000000e-02 3.000000000048e+01 
9.000000000000e-02 0.000000000000e+00 3.000000000000e-02 3.000000000035e+01 
1.000000000000e-01 0.000000000000e+00 3.000000000000e-02 3.000000000051e+01 
0.000000000000e+00 0.000000000000e+00 2.000000000000e-02 2.999999999581e+01 
1.000000000000e-02 0.000000000000e+00 2.000000000000e-02 3.000000000159e+01 
2.000000000000e-02 0.000000000000e+00 2.000000000000e-02 3.000000000057e+01 
3.000000000000e-02 0.000000000000e+00 2.000000000000e-02 3.000000000083e+01 
4.000000000000e-02 0.000000000000e+00 2.000000000000e-02 2.999999999872e+01 
5.000000000000e-02 0.000000000000e+00 2.000000000000e-02 3.000000000073e+01 
6.000000000000e-02 0.000000000000e+00 2.000000000000e-02 3.000000000030e+01 
7.000000000000e-02 0.000000000000e+00 2.000000000000e-02 3.000000000059e+01 
8.000000000000e-02 0.000000000000e+00 2.000000000000e-02 3.000000000045e+01 
9.000000000000e-02 0.000000000000e+00 2.000000000000e-02 3.000000000046e+01 
1.000000000000e-01 0.000000000000e+00 2.000000000000e-02 3.000000000045e+01 
0.000000000000e+00 0.000000000000e+00 1.000000000000e-02 3.000000000176e+01 
1.000000000000e-02 0.000000000000e+00 1.000000000000e-02 3.000000000011e+01 
2.000000000000e-02 0.000000000000e+00 1.000000000000e-02 3.000000000042e+01 
3.000000000000e-02 0.000000000000e+00 1.000000000000e-02 3.000000000034e+01 
4.000000000000e-02 0.000000000000e+00 1.000000000000e-02 3.000000000094e+01 
5.000000000000e-02 0.000000000000e+00 1.000000000000e-02 3.000000000037e+01 
6.000000000000e-02 0.000000000000e+00 1.000000000000e-02 3.000000000049e+01 
7.000000000000e-02 0.000000000000e+00 1.000000000000e-02 3.000000000041e+01 
8.000000000000e-02 0.000000000000e+00 1.000000000000e-02 3.000000000046e+01 
9.000000000000e-02 0.000000000000e+00 1.000000000000e-02 3.000000000043e+01 
1.000000000000e-01 0.000000000000e+00 1.000000000000e-02 3.000000000047e+01 
0.000000000000e+00 0.000000000000e+00 0.000000000000e+00 2.999999999985e+01 
1.000000000000e-02 0.000000000000e+00 0.000000000000e+00 3.000000000061e+01 
2.000000000000e-02 0.000000000000e+00 0.000000000000e+00 3.000000000048e+01 
3.000000000000e-02 0.000000000000e+00 0.000000000000e+00 3.000000000051e+01 
4.000000000000e-02 0.000000000000e+00 0.000000000000e+00 3.000000000022e+01 
5.000000000000e-02 0.000000000000e+00 0.000000000000e+00 3.000000000050e+01 
6.000000000000e-02 0.000000000000e+00 0.000000000000e+00 3.000000000044e+01 
7.000000000000e-02 0.000000000000e+00 0.000000000000e+00 3.000000000048e+01 
8.000000000000e-02 0.000000000000e+00 0.000000000000e+00 3.000000000047e+01 
9.000000000000e-02 0.000000000000e+00 0.000000000000e+00 3.000000000043e+01 
1.000000000000e-01 0.000000000000e+00 0.000000000000e+00 3.000000000044e+01 
7.000000000000e-02 0.000000000000e+00 9.000000000000e-02 3.000000000164e+01 
8.000000000000e-02 0.000000000000e+00 1.000000000000e-01 2.999999969989e+01 
7.000000000000e-02 0.000000000000e+00 1.000000000000e-01 3.000000000015e+01 
9.000000000000e-02 0.000000000000e+00 1.000000000000e-01 3.000000030917e+01 
1.000000000000e-01 0.000000000000e+00 1.000000000000e-01 2.999999986521e+01 
4.000000000000e-02 0.000000000000e+00 8.000000000000e-02 2.999999919261e+01 
5.000000000000e-02 0.000000000000e+00 9.000000000000e-02 2.999999870901e+01 
4.000000000000e-02 0.000000000000e+00 9.000000000000e-02 3.000000020631e+01 
6.000000000000e-02 0.000000000000e+00 9.000000000000e-02 3.000000053315e+01 
2.000000000000e-02 0.000000000000e+00 7.000000000000e-02 3.000000002148e+01 
3.000000000000e-02 0.000000000000e+00 8.000000000000e-02 3.000000024777e+01 
2.000000000000e-02 0.000000000000e+00 8.000000000000e-02 2.999999987765e+01 
1.000000000000e-02 0.000000000000e+00 7.000000000000e-02 2.999999908249e+01 
0.000000000000e+00 0.000000000000e+00 7.000000000000e-02 3.000000150423e+01 
7  8  2  1  
8  9  3  2  
12  13  5  4  
13  14  6  5  
14  15  7  6  
15  16  8  7  
16  17  9  8  
21  22  11  10  
22  23  12  11  
23  24  13  12  
24  25  14  13  
25  26  15  14  
26  27  16  15  
27  28  17  16  
29  30  19  18  
30  31  20  19  
31  32  21  20  
32  33  22  21  
33  34  23  22  
34  35  24  23  
35  36  25  24  
36  37  26  25  
37  38  27  26  
38  39  28  27  
40  41  30  29  
41  42  31  30  
42  43  32  31  
43  44  33  32  
44  45  34  33  
45  46  35  34  
46  47  36  35  
47  48  37  36  
48  49  38  37  
49  50  39  38  
51  52  41  40  
52  53  42  41  
53  54  43  42  
54  55  44  43  
55  56  45  44  
56  57  46  45  
57  58  47  46  
58  59  48  47  
59  60  49  48  
60  61  50  49  
62  63  52  51  
63  64  53  52  
64  65  54  53  
65  66  55  54  
66  67  56  55  
67  68  57  56  
68  69  58  57  
69  70  59  58  
70  71  60  59  
71  72  61  60  
73  74  63  62  
74  75  64  63  
75  76  65  64  
76  77  66  65  
77  78  67  66  
78  79  68  67  
79  80  69  68  
80  81  70  69  
81  82  71  70  
82  83  72  71  
84  85  74  73  
85  86  75  74  
86  87  76  75  
87  88  77  76  
88  89  78  77  
89  90  79  78  
90  91  80  79  
91  92  81  80  
92  93  82  81  
93  94  83  82  
95  1  96  97  
1  2  98  96  
2  3  99  98  
100  4  101  102  
4  5  103  101  
5  6  95  103  
6  7  1  95  
104  10  105  106  
10  11  100  105  
11  12  4  100  
18  19  107  108  
19  20  104  107  
20  21  10  104  
VARIABLES  = "X","Y","Z", "TEMPERATURE1"
ZONE T="7.000000000000e-02s", N=108, E=87, F=FEPOINT, ET=QUADRILATERAL
STRANDID=1, SOLUTIONTIME=7.000000000000e-02
8.000000000000e-02 0.000000000000e+00 9.000000000000e-02 2.999999991202e+01 
9.000000000000e-02 0.000000000000e+00 9.000000000000e-02 2.999999967950e+01 
1.000000000000e-01 0.000000000000e+00 9.000000000000e-02 3.000000018374e+01 
5.000000000000e-02 0.000000000000e+00 8.000000000000e-02 3.000000102519e+01 
6.000000000000e-02 0.000000000000e+00 8.000000000000e-02 2.999999939855e+01 
7.000000000000e-02 0.000000000000e+00 8.000000000000e-02 3.000000046357e+01 
8.000000000000e-02 0.000000000000e+00 8.000000000000e-02 3.000000000555e+01 
9.000000000000e-02 0.000000000000e+00 8.000000000000e-02 3.000000007897e+01 
1.000000000000e-01 0.000000000000e+00 8.000000000000e-02 2.999999995601e+01 
3.000000000000e-02 0.000000000000e+00 7.000000000000e-02 2.999999964402e+01 
4.000000000000e-02 0.000000000000e+00 7.000000000000e-02 3.000000171208e+01 
5.000000000000e-02 0.000000000000e+00 7.000000000000e-02 2.999999978945e+01 
6.000000000000e-02 0.000000000000e+00 7.000000000000e-02 3.000000013101e+01 
7.000000000000e-02 0.000000000000e+00 7.000000000000e-02 2.999999987296e+01 
8.000000000000e-02 0.000000000000e+00 7.000000000000e-02 3.000000000431e+01 
9.000000000000e-02 0.000000000000e+00 7.000000000000e-02 2.999999997504e+01 
1.000000000000e-01 0.000000000000e+00 7.000000000000e-02 3.000000001504e+01 
0.000000000000e+00 0.000000000000e+00 6.000000000000e-02 2.999999861403e+01 
1.000000000000e-02 0.000000000000e+00 6.000000000000e-02 3.000000029606e+01 
2.000000000000e-02 0.000000000000e+00 6.000000000000e-02 3.000000003865e+01 
3.000000000000e-02 0.000000000000e+00 6.000000000000e-02 3.000000009043e+01 
4.000000000000e-02 0.000000000000e+00 6.000000000000e-02 2.999999955722e+01 
5.000000000000e-02 0.000000000000e+00 6.000000000000e-02 3.000000005937e+01 
6.000000000000e-02 0.000000000000e+00 6.000000000000e-02 2.999999996269e+01 
7.000000000000e-02 0.000000000000e+00 6.000000000000e-02 3.000000003319e+01 
8.000000000000e-02 0.000000000000e+00 6.000000000000e-02 2.999999999995e+01 
9.000000000000e-02 0.000000000000e+00 6.000000000000e-02 3.000000000674e+01 
1.000000000000e-01 0.000000000000e+00 6.000000000000e-02 2.999999999756e+01 
0.000000000000e+00 0.000000000000e+00 5.000000000000e-02 3.000000030843e+01 
1.000000000000e-02 0.000000000000e+00 5.000000000000e-02 2.999999993745e+01 
2.000000000000e-02 0.000000000000e+00 5.000000000000e-02 2.999999998423e+01 
3.000000000000e-02 0.000000000000e+00 5.000000000000e-02 2.999999998046e+01 
4.000000000000e-02 0.000000000000e+00 5.000000000000e-02 3.000000010993e+01 
5.000000000000e-02 0.000000000000e+00 5.000000000000e-02 2.999999998655e+01 
6.000000000000e-02 0.000000000000e+00 5.000000000000e-02 3.000000001010e+01 
7.000000000000e-02 0.000000000000e+00 5.000000000000e-02 2.999999999277e+01 
8.000000000000e-02 0.000000000000e+00 5.000000000000e-02 3.000000000119e+01 
9.000000000000e-02 0.000000000000e+00 5.000000000000e-02 2.999999999903e+01 
1.000000000000e-01 0.000000000000e+00 5.000000000000e-02 3.000000000185e+01 
0.000000000000e+00 0.000000000000e+00 4.000000000000e-02 2.999999992231e+01 
1.000000000000e-02 0.000000000000e+00 4.000000000000e-02 3.000000001697e+01 
2.000000000000e-02 0.000000000000e+00 4.000000000000e-02 3.000000000463e+01 
3.000000000000e-02 0.000000000000e+00 4.000000000000e-02 3.000000000609e+01 
4.000000000000e-02 0.000000000000e+00 4.000000000000e-02 2.999999997359e+01 
5.000000000000e-02 0.000000000000e+00 4.000000000000e-02 3.000000000448e+01 
6.000000000000e-02 0.000000000000e+00 4.000000000000e-02 2.999999999852e+01 
7.000000000000e-02 0.000000000000e+00 4.000000000000e-02 3.000000000285e+01 
8.000000000000e-02 0.000000000000e+00 4.000000000000e-02 3.000000000085e+01 
9.000000000000e-02 0.000000000000e+00 4.000000000000e-02 3.000000000098e+01 
1.000000000000e-01 0.000000000000e+00 4.000000000000e-02 3.000000000076e+01 
0.000000000000e+00 0.000000000000e+00 3.000000000000e-02 3.000000002042e+01 
1.000000000000e-02 0.000000000000e+00 3.000000000000e-02 2.999999999656e+01 
2.000000000000e-02 0.000000000000e+00 3.000000000000e-02 2.999999999997e+01 
3.000000000000e-02 0.000000000000e+00 3.000000000000e-02 2.999999999955e+01 
4.000000000000e-02 0.000000000000e+00 3.000000000000e-02 3.000000000764e+01 
5.000000000000e-02 0.000000000000e+00 3.000000000000e-02 2.999999999994e+01 
6.000000000000e-02 0.000000000000e+00 3.000000000000e-02 3.000000000144e+01 
7.000000000000e-02 0.000000000000e+00 3.000000000000e-02 3.000000000033e+01 
8.000000000000e-02 0.000000000000e+00 3.000000000000e-02 3.000000000094e+01 
9.000000000000e-02 0.000000000000e+00 3.000000000000e-02 3.000000000050e+01 
1.000000000000e-01 0.000000000000e+00 3.000000000000e-02 3.000000000104e+01 
0.000000000000e+00 0.000000000000e+00 2.000000000000e-02 2.999999999613e+01 
1.000000000000e-02 0.000000000000e+00 2.000000000000e-02 3.000000000164e+01 
2.000000000000e-02 0.000000000000e+00 2.000000000000e-02 3.000000000115e+01 
3.000000000000e-02 0.000000000000e+00 2.000000000000e-02 3.000000000119e+01 
4.000000000000e-02 0.000000000000e+00 2.000000000000e-02 2.999999999917e+01 
5.000000000000e-02 0.000000000000e+00 2.000000000000e-02 3.000000000109e+01 
6.000000000000e-02 0.000000000000e+00 2.000000000000e-02 3.000000000072e+01 
7.000000000000e-02 0.000000000000e+00 2.000000000000e-02 3.000000000097e+01 
8.000000000000e-02 0.000000000000e+00 2.000000000000e-02 3.000000000093e+01 
9.000000000000e-02 0.000000000000e+00 2.000000000000e-02 3.000000000060e+01 
1.000000000000e-01 0.000000000000e+00 2.000000000000e-02 3.000000000094e+01 
0.000000000000e+00 0.000000000000e+00 1.000000000000e-02 3.000000000210e+01 
1.000000000000e-02 0.000000000000e+00 1.000000000000e-02 3.000000000028e+01 
2.000000000000e-02 0.000000000000e+00 1.000000000000e-02 3.000000000084e+01 
3.000000000000e-02 0.000000000000e+00 1.000000000000e-02 3.000000000074e+01 
4.000000000000e-02 0.000000000000e+00 1.000000000000e-02 3.000000000128e+01 
5.000000000000e-02 0.000000000000e+00 1.000000000000e-02 3.000000000077e+01 
6.000000000000e-02 0.000000000000e+00 1.000000000000e-02 3.000000000087e+01 
7.000000000000e-02 0.000000000000e+00 1.000000000000e-02 3.000000000078e+01 
8.000000000000e-02 0.000000000000e+00 1.000000000000e-02 3.000000000088e+01 
9.000000000000e-02 0.000000000000e+00 1.000000000000e-02 3.000000000063e+01 
1.000000000000e-01 0.000000000000e+00 1.000000000000e-02 3.000000000107e+01 
0.000000000000e+00 0.000000000000e+00 0.000000000000e+00 3.000000000099e+01 
1.000000000000e-02 0.000000000000e+00 0.000000000000e+00 3.000000000096e+01 
2.000000000000e-02 0.000000000000e+00 0.000000000000e+00 3.000000000101e+01 
3.000000000000e-02 0.000000000000e+00 0.000000000000e+00 3.000000000099e+01 
4.000000000000e-02 0.000000000000e+00 0.000000000000e+00 3.000000000075e+01 
5.000000000000e-02 0.000000000000e+00 0.000000000000e+00 3.000000000098e+01 
6.000000000000e-02 0.000000000000e+00 0.000000000000e+00 3.000000000095e+01 
7.000000000000e-02 0.000000000000e+00 0.000000000000e+00 3.000000000093e+01 
8.000000000000e-02 0.000000000000e+00 0.000000000000e+00 3.000000000109e+01 
9.000000000000e-02 0.000000000000e+00 0.000000000000e+00 3.000000000042e+01 
1.000000000000e-01 0.000000000000e+00 0.000000000000e+00 3.000000000062e+01 
7.000000000000e-02 0.000000000000e+00 9.000000000000e-02 3.000000002111e+01 
8.000000000000e-02 0.000000000000e+00 1.000000000000e-01 2.999999957621e+01 
7.000000000000e-02 0.000000000000e+00 1.000000000000e-01 2.999999998972e+01 
9.000000000000e-02 0.000000000000e+00 1.000000000000e-01 3.000000046014e+01 
1.000000000000e-01 0.000000000000e+00 1.000000000000e-01 2.999999980870e+01 
4.000000000000e-02 0.000000000000e+00 8.000000000000e-02 2.999999899279e+01 
5.000000000000e-02 0.000000000000e+00 9.000000000000e-02 2.999999826338e+01 
4.000000000000e-02 0.000000000000e+00 9.000000000000e-02 3.000000022350e+01 
6.000000000000e-02 0.000000000000e+00 9.000000000000e-02 3.000000073183e+01 
2.000000000000e-02 0.000000000000e+00 7.000000000000e-02 2.999999991387e+01 
3.000000000000e-02 0.000000000000e+00 8.000000000000e-02 3.000000027554e+01 
2.000000000000e-02 0.000000000000e+00 8.000000000000e-02 2.999999991245e+01 
1.000000000000e-02 0.000000000000e+00 7.000000000000e-02 2.999999887194e+01 
0.000000000000e+00 0.000000000000e+00 7.000000000000e-02 3.000000185928e+01 
7  8  2  1  
8  9  3  2  
12  13  5  4  
13  14  6  5  
14  15  7  6  
15  16  8  7  
16  17  9  8  
21  22  11  10  
22  23  12  11  
23  24  13  12  
24  25  14  13  
25  26  15  14  
26  27  16  15  
27  28  17  16  
29  30  19  18  
30  31  20  19  
31  32  21  20  
32  33  22  21  
33  34  23  22  
34  35  24  23  
35  36  25  24  
36  37  26  25  
37  38  27  26  
38  39  28  27  
40  41  30  29  
41  42  31  30  
42  43  32  31  
43  44  33  32  
44  45  34  33  
45  46  35  34  
46  47  36  35  
47  48  37  36  
48  49  38  37  
49  50  39  38  
51  52  41  40  
52  53  42  41  
53  54  43  42  
54  55  44  43  
55  56  45  44  
56  57  46  45  
57  58  47  46  
58  59  48  47  
59  60  49  48  
60  61  50  49  
62  63  52  51  
63  64  53  52  
64  65  54  53  
65  66  55  54  
66  67  56  55  
67  68  57  56  
68  69  58  57  
69  70  59  58  
70  71  60  59  
71  72  61  60  
73  74  63  62  
74  75  64  63  
75  76  65  64  
76  77  66  65  
77  78  67  66  
78  79  68  67  
79  80  69  68  
80  81  70  69  
81  82  71  70  
82  83  72  71  
84  85  74  73  
85  86  75  74  
86  87  76  75  
87  88  77  76  
88  89  78  77  
89  90  79  78  
90  91  80  79  
91  92  81  80  
92  93  82  81  
93  94  83  82  
95  1  96  97  
1  2  98  96  
2  3  99  98  
100  4  101  102  
4  5  103  101  
5  6  95  103  
6  7  1  95  
104  10  105  106  
10  11  100  105  
11  12  4  100  
18  19  107  108  
19  20  104  107  
20  21  10  104  
VARIABLES  = "X","Y","Z", "TEMPERATURE1"
ZONE T="4.300000000000e-01s", N=108, E=87, F=FEPOINT, ET=QUADRILATERAL
STRANDID=1, SOLUTIONTIME=4.300000000000e-01