VARIABLES  = "X","Y","Z", "TEMPERATURE1"
ZONE T="0.000000000000e+00s", N=104, E=84, F=FEPOINT, ET=QUADRILATERAL
STRANDID=1, SOLUTIONTIME=0.000000000000e+00
7.000000000000e-02 0.000000000000e+00 8.000000000000e-02 3.000000000000e+01 
8.000000000000e-02 0.000000000000e+00 8.000000000000e-02 3.000000000000e+01 
9.000000000000e-02 0.000000000000e+00 8.000000000000e-02 3.000000000000e+01 
1.000000000000e-01 0.000000000000e+00 8.000000000000e-02 3.000000000000e+01 
0.000000000000e+00 0.000000000000e+00 7.000000000000e-02 3.000000000000e+01 
1.000000000000e-02 0.000000000000e+00 7.000000000000e-02 3.000000000000e+01 
2.000000000000e-02 0.000000000000e+00 7.000000000000e-02 3.000000000000e+01 
3.000000000000e-02 0.000000000000e+00 7.000000000000e-02 3.000000000000e+01 
4.000000000000e-02 0.000000000000e+00 7.000000000000e-02 3.000000000000e+01 
5.000000000000e-02 0.000000000000e+00 7.000000000000e-02 3.000000000000e+01 
6.000000000000e-02 0.000000000000e+00 7.000000000000e-02 3.000000000000e+01 
7.000000000000e-02 0.000000000000e+00 7.000000000000e-02 3.000000000000e+01 
8.000000000000e-02 0.000000000000e+00 7.000000000000e-02 3.000000000000e+01 
9.000000000000e-02 0.000000000000e+00 7.000000000000e-02 3.000000000000e+01 
1.000000000000e-01 0.000000000000e+00 7.000000000000e-02 3.000000000000e+01 
0.000000000000e+00 0.000000000000e+00 6.000000000000e-02 3.000000000000e+01 
1.000000000000e-02 0.000000000000e+00 6.000000000000e-02 3.000000000000e+01 
2.000000000000e-02 0.000000000000e+00 6.000000000000e-02 3.000000000000e+01 
3.000000000000e-02 0.000000000000e+00 6.000000000000e-02 3.000000000000e+01 
4.000000000000e-02 0.000000000000e+00 6.000000000000e-02 3.000000000000e+01 
5.000000000000e-02 0.000000000000e+00 6.000000000000e-02 3.000000000000e+01 
6.000000000000e-02 0.000000000000e+00 6.000000000000e-02 3.000000000000e+01 
7.000000000000e-02 0.000000000000e+00 6.000000000000e-02 3.000000000000e+01 
8.000000000000e-02 0.000000000000e+00 6.000000000000e-02 3.000000000000e+01 
9.000000000000e-02 0.000000000000e+00 6.000000000000e-02 3.000000000000e+01 
1.000000000000e-01 0.000000000000e+00 6.000000000000e-02 3.000000000000e+01 
0.000000000000e+00 0.000000000000e+00 5.000000000000e-02 3.000000000000e+01 
1.000000000000e-02 0.000000000000e+00 5.000000000000e-02 3.000000000000e+01 
2.000000000000e-02 0.000000000000e+00 5.000000000000e-02 3.000000000000e+01 
3.000000000000e-02 0.000000000000e+00 5.000000000000e-02 3.000000000000e+01 
4.000000000000e-02 0.000000000000e+00 5.000000000000e-02 3.000000000000e+01 
5.000000000000e-02 0.000000000000e+00 5.000000000000e-02 3.000000000000e+01 
6.000000000000e-02 0.000000000000e+00 5.000000000000e-02 3.000000000000e+01 
7.000000000000e-02 0.000000000000e+00 5.000000000000e-02 3.000000000000e+01 
8.000000000000e-02 0.000000000000e+00 5.000000000000e-02 3.000000000000e+01 
9.000000000000e-02 0.000000000000e+00 5.000000000000e-02 3.000000000000e+01 
1.000000000000e-01 0.000000000000e+00 5.000000000000e-02 3.000000000000e+01 
0.000000000000e+00 0.000000000000e+00 4.000000000000e-02 3.000000000000e+01 
1.000000000000e-02 0.000000000000e+00 4.000000000000e-02 3.000000000000e+01 
2.000000000000e-02 0.000000000000e+00 4.000000000000e-02 3.000000000000e+01 
3.000000000000e-02 0.000000000000e+00 4.000000000000e-02 3.000000000000e+01 
4.000000000000e-02 0.000000000000e+00 4.000000000000e-02 3.000000000000e+01 
5.000000000000e-02 0.000000000000e+00 4.000000000000e-02 3.000000000000e+01 
6.000000000000e-02 0.000000000000e+00 4.000000000000e-02 3.000000000000e+01 
7.000000000000e-02 0.000000000000e+00 4.000000000000e-02 3.000000000000e+01 
8.000000000000e-02 0.000000000000e+00 4.000000000000e-02 3.000000000000e+01 
9.000000000000e-02 0.000000000000e+00 4.000000000000e-02 3.000000000000e+01 
1.000000000000e-01 0.000000000000e+00 4.000000000000e-02 3.000000000000e+01 
0.000000000000e+00 0.000000000000e+00 3.000000000000e-02 3.000000000000e+01 
1.000000000000e-02 0.000000000000e+00 3.000000000000e-02 3.000000000000e+01 
2.000000000000e-02 0.000000000000e+00 3.000000000000e-02 3.000000000000e+01 
3.000000000000e-02 0.000000000000e+00 3.000000000000e-02 3.000000000000e+01 
4.000000000000e-02 0.000000000000e+00 3.000000000000e-02 3.000000000000e+01 
5.000000000000e-02 0.000000000000e+00 3.000000000000e-02 3.000000000000e+01 
6.000000000000e-02 0.000000000000e+00 3.000000000000e-02 3.000000000000e+01 
7.000000000000e-02 0.000000000000e+00 3.000000000000e-02 3.000000000000e+01 
8.000000000000e-02 0.000000000000e+00 3.000000000000e-02 3.000000000000e+01 
9.000000000000e-02 0.000000000000e+00 3.000000000000e-02 3.000000000000e+01 
1.000000000000e-01 0.000000000000e+00 3.000000000000e-02 3.000000000000e+01 
0.000000000000e+00 0.000000000000e+00 2.000000000000e-02 3.000000000000e+01 
1.000000000000e-02 0.000000000000e+00 2.000000000000e-02 3.000000000000e+01 
2.000000000000e-02 0.000000000000e+00 2.000000000000e-02 3.000000000000e+01 
3.000000000000e-02 0.000000000000e+00 2.000000000000e-02 3.000000000000e+01 
4.000000000000e-02 0.000000000000e+00 2.000000000000e-02 3.000000000000e+01 
5.000000000000e-02 0.000000000000e+00 2.000000000000e-02 3.000000000000e+01 
6.000000000000e-02 0.000000000000e+00 2.000000000000e-02 3.000000000000e+01 
7.000000000000e-02 0.000000000000e+00 2.000000000000e-02 3.000000000000e+01 
8.000000000000e-02 0.000000000000e+00 2.000000000000e-02 3.000000000000e+01 
9.000000000000e-02 0.000000000000e+00 2.000000000000e-02 3.000000000000e+01 
1.000000000000e-01 0.000000000000e+00 2.000000000000e-02 3.000000000000e+01 
0.000000000000e+00 0.000000000000e+00 1.000000000000e-02 3.000000000000e+01 
1.000000000000e-02 0.000000000000e+00 1.000000000000e-02 3.000000000000e+01 
2.000000000000e-02 0.000000000000e+00 1.000000000000e-02 3.000000000000e+01 
3.000000000000e-02 0.000000000000e+00 1.000000000000e-02 3.000000000000e+01 
4.000000000000e-02 0.000000000000e+00 1.000000000000e-02 3.000000000000e+01 
5.000000000000e-02 0.000000000000e+00 1.000000000000e-02 3.000000000000e+01 
6.000000000000e-02 0.000000000000e+00 1.000000000000e-02 3.000000000000e+01 
7.000000000000e-02 0.000000000000e+00 1.000000000000e-02 3.000000000000e+01 
8.000000000000e-02 0.000000000000e+00 1.000000000000e-02 3.000000000000e+01 
9.000000000000e-02 0.000000000000e+00 1.000000000000e-02 3.000000000000e+01 
1.000000000000e-01 0.000000000000e+00 1.000000000000e-02 3.000000000000e+01 
0.000000000000e+00 0.000000000000e+00 0.000000000000e+00 3.000000000000e+01 
1.000000000000e-02 0.000000000000e+00 0.000000000000e+00 3.000000000000e+01 
2.000000000000e-02 0.000000000000e+00 0.000000000000e+00 3.000000000000e+01 
3.000000000000e-02 0.000000000000e+00 0.000000000000e+00 3.000000000000e+01 
4.000000000000e-02 0.000000000000e+00 0.000000000000e+00 3.000000000000e+01 
5.000000000000e-02 0.000000000000e+00 0.000000000000e+00 3.000000000000e+01 
6.000000000000e-02 0.000000000000e+00 0.000000000000e+00 3.000000000000e+01 
7.000000000000e-02 0.000000000000e+00 0.000000000000e+00 3.000000000000e+01 
8.000000000000e-02 0.000000000000e+00 0.000000000000e+00 3.000000000000e+01 
9.000000000000e-02 0.000000000000e+00 0.000000000000e+00 3.000000000000e+01 
1.000000000000e-01 0.000000000000e+00 0.000000000000e+00 3.000000000000e+01 
6.000000000000e-02 0.000000000000e+00 8.000000000000e-02 3.000000000000e+01 
7.000000000000e-02 0.000000000000e+00 9.000000000000e-02 3.000000000000e+01 
6.000000000000e-02 0.000000000000e+00 9.000000000000e-02 3.000000000000e+01 
8.000000000000e-02 0.000000000000e+00 9.000000000000e-02 3.000000000000e+01 
9.000000000000e-02 0.000000000000e+00 9.000000000000e-02 3.000000000000e+01 
1.000000000000e-01 0.000000000000e+00 9.000000000000e-02 3.000000000000e+01 
1.000000000000e-02 0.000000000000e+00 8.000000000000e-02 3.000000000000e+01 
0.000000000000e+00 0.000000000000e+00 8.000000000000e-02 3.000000000000e+01 
2.000000000000e-02 0.000000000000e+00 8.000000000000e-02 3.000000000000e+01 
3.000000000000e-02 0.000000000000e+00 8.000000000000e-02 3.000000000000e+01 
4.000000000000e-02 0.000000000000e+00 8.000000000000e-02 3.000000000000e+01 
5.000000000000e-02 0.000000000000e+00 8.000000000000e-02 3.000000000000e+01 
12  13  2  1  
13  14  3  2  
14  15  4  3  
16  17  6  5  
17  18  7  6  
18  19  8  7  
19  20  9  8  
20  21  10  9  
21  22  11  10  
22  23  12  11  
23  24  13  12  
24  25  14  13  
25  26  15  14  
27  28  17  16  
28  29  18  17  
29  30  19  18  
30  31  20  19  
31  32  21  20  
32  33  22  21  
33  34  23  22  
34  35  24  23  
35  36  25  24  
36  37  26  25  
38  39  28  27  
39  40  29  28  
40  41  30  29  
41  42  31  30  
42  43  32  31  
43  44  33  32  
44  45  34  33  
45  46  35  34  
46  47  36  35  
47  48  37  36  
49  50  39  38  
50  51  40  39  
51  52  41  40  
52  53  42  41  
53  54  43  42  
54  55  44  43  
55  56  45  44  
56  57  46  45  
57  58  47  46  
58  59  48  47  
60  61  50  49  
61  62  51  50  
62  63  52  51  
63  64  53  52  
64  65  54  53  
65  66  55  54  
66  67  56  55  
67  68  57  56  
68  69  58  57  
69  70  59  58  
71  72  61  60  
72  73  62  61  
73  74  63  62  
74  75  64  63  
75  76  65  64  
76  77  66  65  
77  78  67  66  
78  79  68  67  
79  80  69  68  
80  81  70  69  
82  83  72  71  
83  84  73  72  
84  85  74  73  
85  86  75  74  
86  87  76  75  
87  88  77  76  
88  89  78  77  
89  90  79  78  
90  91  80  79  
91  92  81  80  
93  1  94  95  
1  2  96  94  
11  12  1  93  
2  3  97  96  
3  4  98  97  
5  6  99  100  
6  7  101  99  
7  8  102  101  
8  9  103  102  
9  10  104  103  
10  11  93  104  
VARIABLES  = "X","Y","Z", "TEMPERATURE1"
ZONE T="1.000000000000e-02s", N=104, E=84, F=FEPOINT, ET=QUADRILATERAL
STRANDID=1, SOLUTIONTIME=1.000000000000e-02
7.000000000000e-02 0.000000000000e+00 8.000000000000e-02 3.000000169293e+01 
8.000000000000e-02 0.000000000000e+00 8.000000000000e-02 3.000000007926e+01 
9.000000000000e-02 0.000000000000e+00 8.000000000000e-02 3.000000098237e+01 
1.000000000000e-01 0.000000000000e+00 8.000000000000e-02 3.000000068483e+01 
0.000000000000e+00 0.000000000000e+00 7.000000000000e-02 3.000000078390e+01 
1.000000000000e-02 0.000000000000e+00 7.000000000000e-02 3.000000078204e+01 
2.000000000000e-02 0.000000000000e+00 7.000000000000e-02 3.000000078769e+01 
3.000000000000e-02 0.000000000000e+00 7.000000000000e-02 3.000000076699e+01 
4.000000000000e-02 0.000000000000e+00 7.000000000000e-02 3.000000084477e+01 
5.000000000000e-02 0.000000000000e+00 7.000000000000e-02 3.000000055200e+01 
6.000000000000e-02 0.000000000000e+00 7.000000000000e-02 3.000000165626e+01 
7.000000000000e-02 0.000000000000e+00 7.000000000000e-02 2.999999952749e+01 
8.000000000000e-02 0.000000000000e+00 7.000000000000e-02 2.999999995219e+01 
9.000000000000e-02 0.000000000000e+00 7.000000000000e-02 2.999999974743e+01 
1.000000000000e-01 0.000000000000e+00 7.000000000000e-02 2.999999981483e+01 
0.000000000000e+00 0.000000000000e+00 6.000000000000e-02 2.999999979251e+01 
1.000000000000e-02 0.000000000000e+00 6.000000000000e-02 2.999999979287e+01 
2.000000000000e-02 0.000000000000e+00 6.000000000000e-02 2.999999979172e+01 
3.000000000000e-02 0.000000000000e+00 6.000000000000e-02 2.999999979570e+01 
4.000000000000e-02 0.000000000000e+00 6.000000000000e-02 2.999999978079e+01 
5.000000000000e-02 0.000000000000e+00 6.000000000000e-02 2.999999983699e+01 
6.000000000000e-02 0.000000000000e+00 6.000000000000e-02 2.999999962459e+01 
7.000000000000e-02 0.000000000000e+00 6.000000000000e-02 3.000000010420e+01 
8.000000000000e-02 0.000000000000e+00 6.000000000000e-02 3.000000003469e+01 
9.000000000000e-02 0.000000000000e+00 6.000000000000e-02 3.000000006094e+01 
1.000000000000e-01 0.000000000000e+00 6.000000000000e-02 3.000000005220e+01 
0.000000000000e+00 0.000000000000e+00 5.000000000000e-02 3.000000005503e+01 
1.000000000000e-02 0.000000000000e+00 5.000000000000e-02 3.000000005507e+01 
2.000000000000e-02 0.000000000000e+00 5.000000000000e-02 3.000000005529e+01 
3.000000000000e-02 0.000000000000e+00 5.000000000000e-02 3.000000005418e+01 
4.000000000000e-02 0.000000000000e+00 5.000000000000e-02 3.000000005841e+01 
5.000000000000e-02 0.000000000000e+00 5.000000000000e-02 3.000000004242e+01 
6.000000000000e-02 0.000000000000e+00 5.000000000000e-02 3.000000010297e+01 
7.000000000000e-02 0.000000000000e+00 5.000000000000e-02 2.999999997139e+01 
8.000000000000e-02 0.000000000000e+00 5.000000000000e-02 2.999999999199e+01 
9.000000000000e-02 0.000000000000e+00 5.000000000000e-02 2.999999998373e+01 
1.000000000000e-01 0.000000000000e+00 5.000000000000e-02 2.999999998638e+01 
0.000000000000e+00 0.000000000000e+00 4.000000000000e-02 2.999999998549e+01 
1.000000000000e-02 0.000000000000e+00 4.000000000000e-02 2.999999998559e+01 
2.000000000000e-02 0.000000000000e+00 4.000000000000e-02 2.999999998544e+01 
3.000000000000e-02 0.000000000000e+00 4.000000000000e-02 2.999999998574e+01 
4.000000000000e-02 0.000000000000e+00 4.000000000000e-02 2.999999998465e+01 
5.000000000000e-02 0.000000000000e+00 4.000000000000e-02 2.999999998879e+01 
6.000000000000e-02 0.000000000000e+00 4.000000000000e-02 2.999999997307e+01 
7.000000000000e-02 0.000000000000e+00 4.000000000000e-02 3.000000000761e+01 
8.000000000000e-02 0.000000000000e+00 4.000000000000e-02 3.000000000229e+01 
9.000000000000e-02 0.000000000000e+00 4.000000000000e-02 3.000000000448e+01 
1.000000000000e-01 0.000000000000e+00 4.000000000000e-02 3.000000000369e+01 
0.000000000000e+00 0.000000000000e+00 3.000000000000e-02 3.000000000391e+01 
1.000000000000e-02 0.000000000000e+00 3.000000000000e-02 3.000000000401e+01 
2.000000000000e-02 0.000000000000e+00 3.000000000000e-02 3.000000000395e+01 
3.000000000000e-02 0.000000000000e+00 3.000000000000e-02 3.000000000389e+01 
4.000000000000e-02 0.000000000000e+00 3.000000000000e-02 3.000000000418e+01 
5.000000000000e-02 0.000000000000e+00 3.000000000000e-02 3.000000000307e+01 
6.000000000000e-02 0.000000000000e+00 3.000000000000e-02 3.000000000726e+01 
7.000000000000e-02 0.000000000000e+00 3.000000000000e-02 2.999999999809e+01 
8.000000000000e-02 0.000000000000e+00 3.000000000000e-02 2.999999999948e+01 
9.000000000000e-02 0.000000000000e+00 3.000000000000e-02 2.999999999900e+01 
1.000000000000e-01 0.000000000000e+00 3.000000000000e-02 2.999999999909e+01 
0.000000000000e+00 0.000000000000e+00 2.000000000000e-02 2.999999999902e+01 
1.000000000000e-02 0.000000000000e+00 2.000000000000e-02 2.999999999912e+01 
2.000000000000e-02 0.000000000000e+00 2.000000000000e-02 2.999999999904e+01 
3.000000000000e-02 0.000000000000e+00 2.000000000000e-02 2.999999999907e+01 
4.000000000000e-02 0.000000000000e+00 2.000000000000e-02 2.999999999899e+01 
5.000000000000e-02 0.000000000000e+00 2.000000000000e-02 2.999999999929e+01 
6.000000000000e-02 0.000000000000e+00 2.000000000000e-02 2.999999999817e+01 
7.000000000000e-02 0.000000000000e+00 2.000000000000e-02 3.000000000062e+01 
8.000000000000e-02 0.000000000000e+00 2.000000000000e-02 3.000000000022e+01 
9.000000000000e-02 0.000000000000e+00 2.000000000000e-02 3.000000000046e+01 
1.000000000000e-01 0.000000000000e+00 2.000000000000e-02 3.000000000031e+01 
0.000000000000e+00 0.000000000000e+00 1.000000000000e-02 3.000000000039e+01 
1.000000000000e-02 0.000000000000e+00 1.000000000000e-02 3.000000000045e+01 
2.000000000000e-02 0.000000000000e+00 1.000000000000e-02 3.000000000037e+01 
3.000000000000e-02 0.000000000000e+00 1.000000000000e-02 3.000000000038e+01 
4.000000000000e-02 0.000000000000e+00 1.000000000000e-02 3.000000000040e+01 
5.000000000000e-02 0.000000000000e+00 1.000000000000e-02 3.000000000032e+01 
6.000000000000e-02 0.000000000000e+00 1.000000000000e-02 3.000000000063e+01 
7.000000000000e-02 0.000000000000e+00 1.000000000000e-02 2.999999999994e+01 
8.000000000000e-02 0.000000000000e+00 1.000000000000e-02 3.000000000003e+01 
9.000000000000e-02 0.000000000000e+00 1.000000000000e-02 3.000000000005e+01 
1.000000000000e-01 0.000000000000e+00 1.000000000000e-02 2.999999999996e+01 
0.000000000000e+00 0.000000000000e+00 0.000000000000e+00 2.999999999975e+01 
1.000000000000e-02 0.000000000000e+00 0.000000000000e+00 2.999999999995e+01 
2.000000000000e-02 0.000000000000e+00 0.000000000000e+00 2.999999999990e+01 
3.000000000000e-02 0.000000000000e+00 0.000000000000e+00 2.999999999992e+01 
4.000000000000e-02 0.000000000000e+00 0.000000000000e+00 2.999999999991e+01 
5.000000000000e-02 0.000000000000e+00 0.000000000000e+00 2.999999999995e+01 
6.000000000000e-02 0.000000000000e+00 0.000000000000e+00 2.999999999979e+01 
7.000000000000e-02 0.000000000000e+00 0.000000000000e+00 3.000000000014e+01 
8.000000000000e-02 0.000000000000e+00 0.000000000000e+00 3.000000000004e+01 
9.000000000000e-02 0.000000000000e+00 0.000000000000e+00 3.000000000024e+01 
1.000000000000e-01 0.000000000000e+00 0.000000000000e+00 3.000000000017e+01 
6.000000000000e-02 0.000000000000e+00 8.000000000000e-02 3.000000232480e+01 
7.000000000000e-02 0.000000000000e+00 9.000000000000e-02 3.000000082639e+01 
6.000000000000e-02 0.000000000000e+00 9.000000000000e-02 2.999999938261e+01 
8.000000000000e-02 0.000000000000e+00 9.000000000000e-02 3.000000099975e+01 
9.000000000000e-02 0.000000000000e+00 9.000000000000e-02 3.000000072524e+01 
1.000000000000e-01 0.000000000000e+00 9.000000000000e-02 3.000000081274e+01 
1.000000000000e-02 0.000000000000e+00 8.000000000000e-02 3.000000078126e+01 
0.000000000000e+00 0.000000000000e+00 8.000000000000e-02 3.000000078462e+01 
2.000000000000e-02 0.000000000000e+00 8.000000000000e-02 3.000000079121e+01 
3.000000000000e-02 0.000000000000e+00 8.000000000000e-02 3.000000075451e+01 
4.000000000000e-02 0.000000000000e+00 8.000000000000e-02 3.000000089241e+01 
5.000000000000e-02 0.000000000000e+00 8.000000000000e-02 3.000000037348e+01 
12  13  2  1  
13  14  3  2  
14  15  4  3  
16  17  6  5  
17  18  7  6  
18  19  8  7  
19  20  9  8  
20  21  10  9  
21  22  11  10  
22  23  12  11  
23  24  13  12  
24  25  14  13  
25  26  15  14  
27  28  17  16  
28  29  18  17  
29  30  19  18  
30  31  20  19  
31  32  21  20  
32  33  22  21  
33  34  23  22  
34  35  24  23  
35  36  25  24  
36  37  26  25  
38  39  28  27  
39  40  29  28  
40  41  30  29  
41  42  31  30  
42  43  32  31  
43  44  33  32  
44  45  34  33  
45  46  35  34  
46  47  36  35  
47  48  37  36  
49  50  39  38  
50  51  40  39  
51  52  41  40  
52  53  42  41  
53  54  43  42  
54  55  44  43  
55  56  45  44  
56  57  46  45  
57  58  47  46  
58  59  48  47  
60  61  50  49  
61  62  51  50  
62  63  52  51  
63  64  53  52  
64  65  54  53  
65  66  55  54  
66  67  56  55  
67  68  57  56  
68  69  58  57  
69  70  59  58  
71  72  61  60  
72  73  62  61  
73  74  63  62  
74  75  64  63  
75  76  65  64  
76  77  66  65  
77  78  67  66  
78  79  68  67  
79  80  69  68  
80  81  70  69  
82  83  72  71  
83  84  73  72  
84  85  74  73  
85  86  75  74  
86  87  76  75  
87  88  77  76  
88  89  78  77  
89  90  79  78  
90  91  80  79  
91  92  81  80  
93  1  94  95  
1  2  96  94  
11  12  1  93  
2  3  97  96  
3  4  98  97  
5  6  99  100  
6  7  101  99  
7  8  102  101  
8  9  103  102  
9  10  104  103  
10  11  93  104  
VARIABLES  = "X","Y","Z", "TEMPERATURE1"
ZONE T="7.000000000000e-02s", N=104, E=84, F=FEPOINT, ET=QUADRILATERAL
STRANDID=1, SOLUTIONTIME=7.000000000000e-02
7.000000000000e-02 0.000000000000e+00 8.000000000000e-02 3.000000257105e+01 
8.000000000000e-02 0.000000000000e+00 8.000000000000e-02 3.000000015436e+01 
9.000000000000e-02 0.000000000000e+00 8.000000000000e-02 3.000000145162e+01 
1.000000000000e-01 0.000000000000e+00 8.000000000000e-02 3.000000104199e+01 
0.000000000000e+00 0.000000000000e+00 7.000000000000e-02 3.000000117424e+01 
1.000000000000e-02 0.000000000000e+00 7.000000000000e-02 3.000000117207e+01 
2.000000000000e-02 0.000000000000e+00 7.000000000000e-02 3.000000117919e+01 
3.000000000000e-02 0.000000000000e+00 7.000000000000e-02 3.000000115573e+01 
4.000000000000e-02 0.000000000000e+00 7.000000000000e-02 3.000000124607e+01 
5.000000000000e-02 0.000000000000e+00 7.000000000000e-02 3.000000089569e+01 
6.000000000000e-02 0.000000000000e+00 7.000000000000e-02 3.000000224220e+01 
7.000000000000e-02 0.000000000000e+00 7.000000000000e-02 2.999999937107e+01 
8.000000000000e-02 0.000000000000e+00 7.000000000000e-02 2.999999991172e+01 
9.000000000000e-02 0.000000000000e+00 7.000000000000e-02 2.999999965201e+01 
1.000000000000e-01 0.000000000000e+00 7.000000000000e-02 2.999999973424e+01 
0.000000000000e+00 0.000000000000e+00 6.000000000000e-02 2.999999970864e+01 
1.000000000000e-02 0.000000000000e+00 6.000000000000e-02 2.999999970906e+01 
2.000000000000e-02 0.000000000000e+00 6.000000000000e-02 2.999999970706e+01 
3.000000000000e-02 0.000000000000e+00 6.000000000000e-02 2.999999971135e+01 
4.000000000000e-02 0.000000000000e+00 6.000000000000e-02 2.999999969513e+01 
5.000000000000e-02 0.000000000000e+00 6.000000000000e-02 2.999999975881e+01 
6.000000000000e-02 0.000000000000e+00 6.000000000000e-02 2.999999951428e+01 
7.000000000000e-02 0.000000000000e+00 6.000000000000e-02 3.000000013414e+01 
8.000000000000e-02 0.000000000000e+00 6.000000000000e-02 3.000000004570e+01 
9.000000000000e-02 0.000000000000e+00 6.000000000000e-02 3.000000008090e+01 
1.000000000000e-01 0.000000000000e+00 6.000000000000e-02 3.000000006844e+01 
0.000000000000e+00 0.000000000000e+00 5.000000000000e-02 3.000000007159e+01 
1.000000000000e-02 0.000000000000e+00 5.000000000000e-02 3.000000007285e+01 
2.000000000000e-02 0.000000000000e+00 5.000000000000e-02 3.000000007234e+01 
3.000000000000e-02 0.000000000000e+00 5.000000000000e-02 3.000000007148e+01 
4.000000000000e-02 0.000000000000e+00 5.000000000000e-02 3.000000007560e+01 
5.000000000000e-02 0.000000000000e+00 5.000000000000e-02 3.000000005888e+01 
6.000000000000e-02 0.000000000000e+00 5.000000000000e-02 3.000000012461e+01 
7.000000000000e-02 0.000000000000e+00 5.000000000000e-02 2.999999996515e+01 
8.000000000000e-02 0.000000000000e+00 5.000000000000e-02 2.999999998954e+01 
9.000000000000e-02 0.000000000000e+00 5.000000000000e-02 2.999999998012e+01 
1.000000000000e-01 0.000000000000e+00 5.000000000000e-02 2.999999998255e+01 
0.000000000000e+00 0.000000000000e+00 4.000000000000e-02 2.999999998172e+01 
1.000000000000e-02 0.000000000000e+00 4.000000000000e-02 2.999999998245e+01 
2.000000000000e-02 0.000000000000e+00 4.000000000000e-02 2.999999998166e+01 
3.000000000000e-02 0.000000000000e+00 4.000000000000e-02 2.999999998202e+01 
4.000000000000e-02 0.000000000000e+00 4.000000000000e-02 2.999999998107e+01 
5.000000000000e-02 0.000000000000e+00 4.000000000000e-02 2.999999998507e+01 
6.000000000000e-02 0.000000000000e+00 4.000000000000e-02 2.999999996903e+01 
7.000000000000e-02 0.000000000000e+00 4.000000000000e-02 3.000000000845e+01 
8.000000000000e-02 0.000000000000e+00 4.000000000000e-02 3.000000000224e+01 
9.000000000000e-02 0.000000000000e+00 4.000000000000e-02 3.000000000553e+01 
1.000000000000e-01 0.000000000000e+00 4.000000000000e-02 3.000000000374e+01 
0.000000000000e+00 0.000000000000e+00 3.000000000000e-02 3.000000000397e+01 
1.000000000000e-02 0.000000000000e+00 3.000000000000e-02 3.000000000491e+01 
2.000000000000e-02 0.000000000000e+00 3.000000000000e-02 3.000000000415e+01 
3.000000000000e-02 0.000000000000e+00 3.000000000000e-02 3.000000000425e+01 
4.000000000000e-02 0.000000000000e+00 3.000000000000e-02 3.000000000447e+01 
5.000000000000e-02 0.000000000000e+00 3.000000000000e-02 3.000000000350e+01 
6.000000000000e-02 0.000000000000e+00 3.000000000000e-02 3.000000000750e+01 
7.000000000000e-02 0.000000000000e+00 3.000000000000e-02 2.999999999772e+01 
8.000000000000e-02 0.000000000000e+00 3.000000000000e-02 2.999999999904e+01 
9.000000000000e-02 0.000000000000e+00 3.000000000000e-02 2.999999999921e+01 
1.000000000000e-01 0.000000000000e+00 3.000000000000e-02 2.999999999846e+01 
0.000000000000e+00 0.000000000000e+00 2.000000000000e-02 2.999999999835e+01 
1.000000000000e-02 0.000000000000e+00 2.000000000000e-02 2.999999999929e+01 
2.000000000000e-02 0.000000000000e+00 2.000000000000e-02 2.999999999856e+01 
3.000000000000e-02 0.000000000000e+00 2.000000000000e-02 2.999999999871e+01 
4.000000000000e-02 0.000000000000e+00 2.000000000000e-02 2.999999999865e+01 
5.000000000000e-02 0.000000000000e+00 2.000000000000e-02 2.999999999890e+01 
6.000000000000e-02 0.000000000000e+00 2.000000000000e-02 2.999999999788e+01 
7.000000000000e-02 0.000000000000e+00 2.000000000000e-02 3.000000000039e+01 
8.000000000000e-02 0.000000000000e+00 2.000000000000e-02 2.999999999979e+01 
9.000000000000e-02 0.000000000000e+00 2.000000000000e-02 3.000000000082e+01 
1.000000000000e-01 0.000000000000e+00 2.000000000000e-02 2.999999999983e+01 
0.000000000000e+00 0.000000000000e+00 1.000000000000e-02 3.000000000021e+01 
1.000000000000e-02 0.000000000000e+00 1.000000000000e-02 3.000000000086e+01 
2.000000000000e-02 0.000000000000e+00 1.000000000000e-02 3.000000000002e+01 
3.000000000000e-02 0.000000000000e+00 1.000000000000e-02 3.000000000017e+01 
4.000000000000e-02 0.000000000000e+00 1.000000000000e-02 3.000000000019e+01 
5.000000000000e-02 0.000000000000e+00 1.000000000000e-02 3.000000000013e+01 
6.000000000000e-02 0.000000000000e+00 1.000000000000e-02 3.000000000038e+01 
7.000000000000e-02 0.000000000000e+00 1.000000000000e-02 2.999999999978e+01 
8.000000000000e-02 0.000000000000e+00 1.000000000000e-02 2.999999999973e+01 
9.000000000000e-02 0.000000000000e+00 1.000000000000e-02 3.000000000029e+01 
1.000000000000e-01 0.000000000000e+00 1.000000000000e-02 2.999999999923e+01 
0.000000000000e+00 0.000000000000e+00 0.000000000000e+00 2.999999999787e+01 
1.000000000000e-02 0.000000000000e+00 0.000000000000e+00 2.999999999974e+01 
2.000000000000e-02 0.000000000000e+00 0.000000000000e+00 2.999999999936e+01 
3.000000000000e-02 0.000000000000e+00 0.000000000000e+00 2.999999999946e+01 
4.000000000000e-02 0.000000000000e+00 0.000000000000e+00 2.999999999943e+01 
5.000000000000e-02 0.000000000000e+00 0.000000000000e+00 2.999999999947e+01 
6.000000000000e-02 0.000000000000e+00 0.000000000000e+00 2.999999999932e+01 
7.000000000000e-02 0.000000000000e+00 0.000000000000e+00 2.999999999973e+01 
8.000000000000e-02 0.000000000000e+00 0.000000000000e+00 2.999999999926e+01 
9.000000000000e-02 0.000000000000e+00 0.000000000000e+00 3.000000000095e+01 
1.000000000000e-01 0.000000000000e+00 0.000000000000e+00 3.000000000043e+01 
6.000000000000e-02 0.000000000000e+00 8.000000000000e-02 3.000000363410e+01 
7.000000000000e-02 0.000000000000e+00 9.000000000000e-02 3.000000114058e+01 
6.000000000000e-02 0.000000000000e+00 9.000000000000e-02 2.999999910954e+01 
8.000000000000e-02 0.000000000000e+00 9.000000000000e-02 3.000000148946e+01 
9.000000000000e-02 0.000000000000e+00 9.000000000000e-02 3.000000109546e+01 
1.000000000000e-01 0.000000000000e+00 9.000000000000e-02 3.000000121134e+01 
1.000000000000e-02 0.000000000000e+00 8.000000000000e-02 3.000000117144e+01 
0.000000000000e+00 0.000000000000e+00 8.000000000000e-02 3.000000117743e+01 
2.000000000000e-02 0.000000000000e+00 8.000000000000e-02 3.000000118577e+01 
3.000000000000e-02 0.000000000000e+00 8.000000000000e-02 3.000000113272e+01 
4.000000000000e-02 0.000000000000e+00 8.000000000000e-02 3.000000133842e+01 
5.000000000000e-02 0.000000000000e+00 8.000000000000e-02 3.000000053885e+01 
12  13  2  1  
13  14  3  2  
14  15  4  3  
16  17  6  5  
17  18  7  6  
18  19  8  7  
19  20  9  8  
20  21  10  9  
21  22  11  10  
22  23  12  11  
23  24  13  12  
24  25  14  13  
25  26  15  14  
27  28  17  16  
28  29  18  17  
29  30  19  18  
30  31  20  19  
31  32  21  20  
32  33  22  21  
33  34  23  22  
34  35  24  23  
35  36  25  24  
36  37  26  25  
38  39  28  27  
39  40  29  28  
40  41  30  29  
41  42  31  30  
42  43  32  31  
43  44  33  32  
44  45  34  33  
45  46  35  34  
46  47  36  35  
47  48  37  36  
49  50  39  38  
50  51  40  39  
51  52  41  40  
52  53  42  41  
53  54  43  42  
54  55  44  43  
55  56  45  44  
56  57  46  45  
57  58  47  46  
58  59  48  47  
60  61  50  49  
61  62  51  50  
62  63  52  51  
63  64  53  52  
64  65  54  53  
65  66  55  54  
66  67  56  55  
67  68  57  56  
68  69  58  57  
69  70  59  58  
71  72  61  60  
72  73  62  61  
73  74  63  62  
74  75  64  63  
75  76  65  64  
76  77  66  65  
77  78  67  66  
78  79  68  67  
79  80  69  68  
80  81  70  69  
82  83  72  71  
83  84  73  72  
84  85  74  73  
85  86  75  74  
86  87  76  75  
87  88  77  76  
88  89  78  77  
89  90  79  78  
90  91  80  79  
91  92  81  80  
93  1  94  95  
1  2  96  94  
11  12  1  93  
2  3  97  96  
3  4  98  97  
5  6  99  100  
6  7  101  99  
7  8  102  101  
8  9  103  102  
9  10  104  103  
10  11  93  104  
VARIABLES  = "X","Y","Z", "TEMPERATURE1"
ZONE T="4.300000000000e-01s", N=104, E=84, F=FEPOINT, ET=QUADRILATERAL
STRANDID=1, SOLUTIONTIME=4.300000000000e-01
7.000000000000e-02 0.000000000000e+00 8.000000000000e-02 2.999999913549e+01 
8.000000000000e-02 0.000000000000e+00 8.000000000000e-02 2.999999971824e+01 
9.000000000000e-02 0.000000000000e+00 8.000000000000e-02 3.000000071091e+01 
1.000000000000e-01 0.000000000000e+00 8.000000000000e-02 3.000000033033e+01 
0.000000000000e+00 0.000000000000e+00 7.000000000000e-02 3.000000041780e+01 
1.000000000000e-02 0.000000000000e+00 7.000000000000e-02 3.000000044945e+01 
2.000000000000e-02 0.000000000000e+00 7.000000000000e-02 3.000000043355e+01 
3.000000000000e-02 0.000000000000e+00 7.000000000000e-02 3.000000048745e+01 
4.000000000000e-02 0.000000000000e+00 7.000000000000e-02 3.000000037898e+01 
5.000000000000e-02 0.000000000000e+00 7.000000000000e-02 3.000000018769e+01 
6.000000000000e-02 0.000000000000e+00 7.000000000000e-02 3.000000357405e+01 
7.000000000000e-02 0.000000000000e+00 7.000000000000e-02 3.000000035766e+01 
8.000000000000e-02 0.000000000000e+00 7.000000000000e-02 3.000000003412e+01 
9.000000000000e-02 0.000000000000e+00 7.000000000000e-02 2.999999991173e+01 