 TITLE = "Time curves in points"
 VARIABLES = "TIME"  "DISPLACEMENT_X1"  "DISPLACEMENT_Y1"  "STRESS_XX"  "STRESS_XY"  "STRESS_YY"  "STRESS_ZZ"  "STRAIN_XX"  "STRAIN_XY"  "STRAIN_YY"  "STRAIN_PLS"  p_(1st_Invariant)  q_(2nd_Invariant)   Effective_Strain
 ZONE T="POINT=POINT6"
0.000000000000e+00 0.000000000000e+00 0.000000000000e+00 0.000000000000e+00 0.000000000000e+00 0.000000000000e+00 0.000000000000e+00 0.000000000000e+00 0.000000000000e+00 0.000000000000e+00 0.000000000000e+00 -0.000000000000e+00 0.000000000000e+00  0.000000000000e+00
1.000000000000e-02 -1.829442209657e-09 -7.022606264827e-06 7.660207119488e+03 -1.331139401017e-01 1.477699961923e+03 3.655162587314e+03 1.869020781681e-04 -1.242396774282e-08 -1.016149225183e-04 0.000000000000e+00 -4.264356556242e+03 5.431625909860e+03  2.534758764786e-04
7.000000000000e-02 3.705264102035e-09 -2.417612152502e-05 7.782099937179e+03 3.087373194060e-01 -7.060285687669e+03 2.887253922469e+02 3.496908120968e-04 2.881548314456e-08 -3.429538503961e-04 0.000000000000e+00 -3.368465472522e+02 1.285408568378e+04  5.998573334670e-04
4.300000000000e-01 -5.100319027683e-08 -1.270904567963e-04 8.513349876214e+03 -3.997883569146e+00 -5.828455948447e+04 -1.990848409202e+04 1.326352251851e-03 -3.731357997870e-07 -1.790883518314e-03 0.000000000000e+00 2.322656456676e+04 5.806240005159e+04  2.709578726882e-03
1.430000000000e+00 5.670030999005e-08 -4.129437833593e-04 1.054541092149e+04 4.661990036474e+00 -2.005626065235e+05 -7.600687899614e+04 4.039106862823e-03 4.351190700709e-07 -5.812600617945e-03 0.000000000000e+00 8.867469153273e+04 1.838097158882e+05  8.577786766283e-03
2.430000000000e+00 -8.746457743447e-08 -6.987680766636e-04 1.257807736881e+04 -7.014052535936e+00 -3.428258998165e+05 -1.320991300580e+05 6.751603013251e-03 -6.546449033540e-07 -9.833915922065e-03 0.000000000000e+00 1.541156508352e+05 3.095555306694e+05  1.444592479795e-02
3.430000000000e+00 1.005973169754e-07 -9.845834009226e-04 1.461194755930e+04 7.492146653103e+00 -4.850830370535e+05 -1.881884370734e+05 9.464017949527e-03 6.992670209563e-07 -1.385508133241e-02 0.000000000000e+00 2.195531755226e+05 4.352984479002e+05  2.031392759575e-02
4.430000000000e+00 6.283376913815e-08 -1.270419503201e-03 1.664801359563e+04 5.442729201587e+00 -6.273466520729e+05 -2.442794567874e+05 1.217661528454e-02 5.079880588148e-07 -1.787646911332e-02 0.000000000000e+00 2.849926984215e+05 5.610493518807e+05  2.618230309886e-02
5.430000000000e+00 1.110378968127e-07 -1.556223502202e-03 1.868407399061e+04 9.071402806824e+00 -7.695952897207e+05 -3.003644877655e+05 1.488893288195e-02 8.466642619702e-07 -2.189743742458e-02 0.000000000000e+00 3.504252344986e+05 6.867874074301e+05  3.205007903857e-02
6.430000000000e+00 4.430705126293e-08 -1.842019121230e-03 2.072079978337e+04 2.755287701549e+00 -9.118389022501e+05 -3.564472425119e+05 1.760117530711e-02 2.571601854779e-07 -2.591827745445e-02 0.000000000000e+00 4.158551149929e+05 8.125217614741e+05  3.791768220409e-02
7.430000000000e+00 5.337376461835e-08 -2.127809888820e-03 2.275798425137e+04 3.844846689506e+00 -1.054079556095e+06 -4.125286302993e+05 2.031337534570e-02 3.588523576872e-07 -2.993904320378e-02 0.000000000000e+00 4.812834007142e+05 9.382539942848e+05  4.378518640327e-02
8.430000000000e+00 1.134776958750e-07 -2.413617305561e-03 2.479644509676e+04 9.345752686915e+00 -1.196325758138e+06 -4.686117268061e+05 2.302571468880e-02 8.722702507787e-07 -3.395998812884e-02 0.000000000000e+00 5.467136799493e+05 1.063992192466e+06  4.965296899898e-02
9.430000000000e+00 4.947418790867e-08 -2.699419728703e-03 2.683509700896e+04 4.277766959993e+00 -1.338569440461e+06 -5.246937389916e+05 2.573801234669e-02 3.992582495993e-07 -3.798086606858e-02 0.000000000000e+00 6.121426941479e+05 1.189728386111e+06  5.552065802174e-02
