VARIABLES  = "X","Y","Z", "TEMPERATURE1"
ZONE T="0.000000000000e+00s", N=110, E=90, F=FEPOINT, ET=QUADRILATERAL
STRANDID=1, SOLUTIONTIME=0.000000000000e+00
0.000000000000e+00 0.000000000000e+00 3.400000000000e-01 3.000000000000e+01 
1.000000000000e-02 0.000000000000e+00 3.400000000000e-01 3.000000000000e+01 
2.000000000000e-02 0.000000000000e+00 3.400000000000e-01 3.000000000000e+01 
3.000000000000e-02 0.000000000000e+00 3.400000000000e-01 3.000000000000e+01 
4.000000000000e-02 0.000000000000e+00 3.400000000000e-01 3.000000000000e+01 
5.000000000000e-02 0.000000000000e+00 3.400000000000e-01 3.000000000000e+01 
6.000000000000e-02 0.000000000000e+00 3.400000000000e-01 3.000000000000e+01 
7.000000000000e-02 0.000000000000e+00 3.400000000000e-01 3.000000000000e+01 
8.000000000000e-02 0.000000000000e+00 3.400000000000e-01 3.000000000000e+01 
9.000000000000e-02 0.000000000000e+00 3.400000000000e-01 3.000000000000e+01 
1.000000000000e-01 0.000000000000e+00 3.400000000000e-01 3.000000000000e+01 
0.000000000000e+00 0.000000000000e+00 3.300000000000e-01 3.000000000000e+01 
1.000000000000e-02 0.000000000000e+00 3.300000000000e-01 3.000000000000e+01 
2.000000000000e-02 0.000000000000e+00 3.300000000000e-01 3.000000000000e+01 
3.000000000000e-02 0.000000000000e+00 3.300000000000e-01 3.000000000000e+01 
4.000000000000e-02 0.000000000000e+00 3.300000000000e-01 3.000000000000e+01 
5.000000000000e-02 0.000000000000e+00 3.300000000000e-01 3.000000000000e+01 
6.000000000000e-02 0.000000000000e+00 3.300000000000e-01 3.000000000000e+01 
7.000000000000e-02 0.000000000000e+00 3.300000000000e-01 3.000000000000e+01 
8.000000000000e-02 0.000000000000e+00 3.300000000000e-01 3.000000000000e+01 
9.000000000000e-02 0.000000000000e+00 3.300000000000e-01 3.000000000000e+01 
1.000000000000e-01 0.000000000000e+00 3.300000000000e-01 3.000000000000e+01 
0.000000000000e+00 0.000000000000e+00 3.200000000000e-01 3.000000000000e+01 
1.000000000000e-02 0.000000000000e+00 3.200000000000e-01 3.000000000000e+01 
2.000000000000e-02 0.000000000000e+00 3.200000000000e-01 3.000000000000e+01 
3.000000000000e-02 0.000000000000e+00 3.200000000000e-01 3.000000000000e+01 
4.000000000000e-02 0.000000000000e+00 3.200000000000e-01 3.000000000000e+01 
5.000000000000e-02 0.000000000000e+00 3.200000000000e-01 3.000000000000e+01 
6.000000000000e-02 0.000000000000e+00 3.200000000000e-01 3.000000000000e+01 
7.000000000000e-02 0.000000000000e+00 3.200000000000e-01 3.000000000000e+01 
8.000000000000e-02 0.000000000000e+00 3.200000000000e-01 3.000000000000e+01 
9.000000000000e-02 0.000000000000e+00 3.200000000000e-01 3.000000000000e+01 
1.000000000000e-01 0.000000000000e+00 3.200000000000e-01 3.000000000000e+01 
0.000000000000e+00 0.000000000000e+00 3.100000000000e-01 3.000000000000e+01 
1.000000000000e-02 0.000000000000e+00 3.100000000000e-01 3.000000000000e+01 
2.000000000000e-02 0.000000000000e+00 3.100000000000e-01 3.000000000000e+01 
3.000000000000e-02 0.000000000000e+00 3.100000000000e-01 3.000000000000e+01 
4.000000000000e-02 0.000000000000e+00 3.100000000000e-01 3.000000000000e+01 
5.000000000000e-02 0.000000000000e+00 3.100000000000e-01 3.000000000000e+01 
6.000000000000e-02 0.000000000000e+00 3.100000000000e-01 3.000000000000e+01 
7.000000000000e-02 0.000000000000e+00 3.100000000000e-01 3.000000000000e+01 
8.000000000000e-02 0.000000000000e+00 3.100000000000e-01 3.000000000000e+01 
9.000000000000e-02 0.000000000000e+00 3.100000000000e-01 3.000000000000e+01 
1.000000000000e-01 0.000000000000e+00 3.100000000000e-01 3.000000000000e+01 
0.000000000000e+00 0.000000000000e+00 3.000000000000e-01 3.000000000000e+01 
1.000000000000e-02 0.000000000000e+00 3.000000000000e-01 3.000000000000e+01 
2.000000000000e-02 0.000000000000e+00 3.000000000000e-01 3.000000000000e+01 
3.000000000000e-02 0.000000000000e+00 3.000000000000e-01 3.000000000000e+01 
4.000000000000e-02 0.000000000000e+00 3.000000000000e-01 3.000000000000e+01 
5.000000000000e-02 0.000000000000e+00 3.000000000000e-01 3.000000000000e+01 
6.000000000000e-02 0.000000000000e+00 3.000000000000e-01 3.000000000000e+01 
7.000000000000e-02 0.000000000000e+00 3.000000000000e-01 3.000000000000e+01 
8.000000000000e-02 0.000000000000e+00 3.000000000000e-01 3.000000000000e+01 
9.000000000000e-02 0.000000000000e+00 3.000000000000e-01 3.000000000000e+01 
1.000000000000e-01 0.000000000000e+00 3.000000000000e-01 3.000000000000e+01 
0.000000000000e+00 0.000000000000e+00 2.900000000000e-01 3.000000000000e+01 
1.000000000000e-02 0.000000000000e+00 2.900000000000e-01 3.000000000000e+01 
2.000000000000e-02 0.000000000000e+00 2.900000000000e-01 3.000000000000e+01 
3.000000000000e-02 0.000000000000e+00 2.900000000000e-01 3.000000000000e+01 
4.000000000000e-02 0.000000000000e+00 2.900000000000e-01 3.000000000000e+01 
5.000000000000e-02 0.000000000000e+00 2.900000000000e-01 3.000000000000e+01 
6.000000000000e-02 0.000000000000e+00 2.900000000000e-01 3.000000000000e+01 
7.000000000000e-02 0.000000000000e+00 2.900000000000e-01 3.000000000000e+01 
8.000000000000e-02 0.000000000000e+00 2.900000000000e-01 3.000000000000e+01 
9.000000000000e-02 0.000000000000e+00 2.900000000000e-01 3.000000000000e+01 
1.000000000000e-01 0.000000000000e+00 2.900000000000e-01 3.000000000000e+01 
0.000000000000e+00 0.000000000000e+00 2.800000000000e-01 3.000000000000e+01 
1.000000000000e-02 0.000000000000e+00 2.800000000000e-01 3.000000000000e+01 
2.000000000000e-02 0.000000000000e+00 2.800000000000e-01 3.000000000000e+01 
3.000000000000e-02 0.000000000000e+00 2.800000000000e-01 3.000000000000e+01 
4.000000000000e-02 0.000000000000e+00 2.800000000000e-01 3.000000000000e+01 
5.000000000000e-02 0.000000000000e+00 2.800000000000e-01 3.000000000000e+01 
6.000000000000e-02 0.000000000000e+00 2.800000000000e-01 3.000000000000e+01 
7.000000000000e-02 0.000000000000e+00 2.800000000000e-01 3.000000000000e+01 
8.000000000000e-02 0.000000000000e+00 2.800000000000e-01 3.000000000000e+01 
9.000000000000e-02 0.000000000000e+00 2.800000000000e-01 3.000000000000e+01 
1.000000000000e-01 0.000000000000e+00 2.800000000000e-01 3.000000000000e+01 
0.000000000000e+00 0.000000000000e+00 2.700000000000e-01 3.000000000000e+01 
1.000000000000e-02 0.000000000000e+00 2.700000000000e-01 3.000000000000e+01 
2.000000000000e-02 0.000000000000e+00 2.700000000000e-01 3.000000000000e+01 
3.000000000000e-02 0.000000000000e+00 2.700000000000e-01 3.000000000000e+01 
4.000000000000e-02 0.000000000000e+00 2.700000000000e-01 3.000000000000e+01 
5.000000000000e-02 0.000000000000e+00 2.700000000000e-01 3.000000000000e+01 
6.000000000000e-02 0.000000000000e+00 2.700000000000e-01 3.000000000000e+01 
7.000000000000e-02 0.000000000000e+00 2.700000000000e-01 3.000000000000e+01 
8.000000000000e-02 0.000000000000e+00 2.700000000000e-01 3.000000000000e+01 
9.000000000000e-02 0.000000000000e+00 2.700000000000e-01 3.000000000000e+01 
1.000000000000e-01 0.000000000000e+00 2.700000000000e-01 3.000000000000e+01 
0.000000000000e+00 0.000000000000e+00 2.600000000000e-01 3.000000000000e+01 
1.000000000000e-02 0.000000000000e+00 2.600000000000e-01 3.000000000000e+01 
2.000000000000e-02 0.000000000000e+00 2.600000000000e-01 3.000000000000e+01 
3.000000000000e-02 0.000000000000e+00 2.600000000000e-01 3.000000000000e+01 
4.000000000000e-02 0.000000000000e+00 2.600000000000e-01 3.000000000000e+01 
5.000000000000e-02 0.000000000000e+00 2.600000000000e-01 3.000000000000e+01 
6.000000000000e-02 0.000000000000e+00 2.600000000000e-01 3.000000000000e+01 
7.000000000000e-02 0.000000000000e+00 2.600000000000e-01 3.000000000000e+01 
8.000000000000e-02 0.000000000000e+00 2.600000000000e-01 3.000000000000e+01 
9.000000000000e-02 0.000000000000e+00 2.600000000000e-01 3.000000000000e+01 
1.000000000000e-01 0.000000000000e+00 2.600000000000e-01 3.000000000000e+01 
0.000000000000e+00 0.000000000000e+00 2.500000000000e-01 3.000000000000e+01 
1.000000000000e-02 0.000000000000e+00 2.500000000000e-01 3.000000000000e+01 
2.000000000000e-02 0.000000000000e+00 2.500000000000e-01 3.000000000000e+01 
3.000000000000e-02 0.000000000000e+00 2.500000000000e-01 3.000000000000e+01 
4.000000000000e-02 0.000000000000e+00 2.500000000000e-01 3.000000000000e+01 
5.000000000000e-02 0.000000000000e+00 2.500000000000e-01 3.000000000000e+01 
6.000000000000e-02 0.000000000000e+00 2.500000000000e-01 3.000000000000e+01 
7.000000000000e-02 0.000000000000e+00 2.500000000000e-01 3.000000000000e+01 
8.000000000000e-02 0.000000000000e+00 2.500000000000e-01 3.000000000000e+01 
9.000000000000e-02 0.000000000000e+00 2.500000000000e-01 3.000000000000e+01 
1.000000000000e-01 0.000000000000e+00 2.500000000000e-01 3.000000000000e+01 
12  13  2  1  
13  14  3  2  
14  15  4  3  
15  16  5  4  
16  17  6  5  
17  18  7  6  
18  19  8  7  
19  20  9  8  
20  21  10  9  
21  22  11  10  
23  24  13  12  
24  25  14  13  
25  26  15  14  
26  27  16  15  
27  28  17  16  
28  29  18  17  
29  30  19  18  
30  31  20  19  
31  32  21  20  
32  33  22  21  
34  35  24  23  
35  36  25  24  
36  37  26  25  
37  38  27  26  
38  39  28  27  
39  40  29  28  
40  41  30  29  
41  42  31  30  
42  43  32  31  
43  44  33  32  
45  46  35  34  
46  47  36  35  
47  48  37  36  
48  49  38  37  
49  50  39  38  
50  51  40  39  
51  52  41  40  
52  53  42  41  
53  54  43  42  
54  55  44  43  
56  57  46  45  
57  58  47  46  
58  59  48  47  
59  60  49  48  
60  61  50  49  
61  62  51  50  
62  63  52  51  
63  64  53  52  
64  65  54  53  
65  66  55  54  
67  68  57  56  
68  69  58  57  
69  70  59  58  
70  71  60  59  
71  72  61  60  
72  73  62  61  
73  74  63  62  
74  75  64  63  
75  76  65  64  
76  77  66  65  
78  79  68  67  
79  80  69  68  
80  81  70  69  
81  82  71  70  
82  83  72  71  
83  84  73  72  
84  85  74  73  
85  86  75  74  
86  87  76  75  
87  88  77  76  
89  90  79  78  
90  91  80  79  
91  92  81  80  
92  93  82  81  
93  94  83  82  
94  95  84  83  
95  96  85  84  
96  97  86  85  
97  98  87  86  
98  99  88  87  
100  101  90  89  
101  102  91  90  
102  103  92  91  
103  104  93  92  
104  105  94  93  
105  106  95  94  
106  107  96  95  
107  108  97  96  
108  109  98  97  
109  110  99  98  
VARIABLES  = "X","Y","Z", "TEMPERATURE1"
ZONE T="1.000000000000e-02s", N=110, E=90, F=FEPOINT, ET=QUADRILATERAL
STRANDID=1, SOLUTIONTIME=1.000000000000e-02
0.000000000000e+00 0.000000000000e+00 3.400000000000e-01 3.559200439083e+01 
1.000000000000e-02 0.000000000000e+00 3.400000000000e-01 1.870950419493e+01 
2.000000000000e-02 0.000000000000e+00 3.400000000000e-01 7.000000000102e+01 
3.000000000000e-02 0.000000000000e+00 3.400000000000e-01 7.000000000102e+01 
4.000000000000e-02 0.000000000000e+00 3.400000000000e-01 7.000000000102e+01 
5.000000000000e-02 0.000000000000e+00 3.400000000000e-01 7.000000000102e+01 
6.000000000000e-02 0.000000000000e+00 3.400000000000e-01 7.000000000102e+01 
7.000000000000e-02 0.000000000000e+00 3.400000000000e-01 7.000000000102e+01 
8.000000000000e-02 0.000000000000e+00 3.400000000000e-01 7.000000000102e+01 
9.000000000000e-02 0.000000000000e+00 3.400000000000e-01 1.870950417187e+01 
1.000000000000e-01 0.000000000000e+00 3.400000000000e-01 3.559200448411e+01 
0.000000000000e+00 0.000000000000e+00 3.300000000000e-01 2.851761024667e+01 
1.000000000000e-02 0.000000000000e+00 3.300000000000e-01 3.299269405882e+01 
2.000000000000e-02 0.000000000000e+00 3.300000000000e-01 1.939890240288e+01 
3.000000000000e-02 0.000000000000e+00 3.300000000000e-01 1.939939613932e+01 
4.000000000000e-02 0.000000000000e+00 3.300000000000e-01 1.939926301902e+01 
5.000000000000e-02 0.000000000000e+00 3.300000000000e-01 1.939930683802e+01 
6.000000000000e-02 0.000000000000e+00 3.300000000000e-01 1.939926301204e+01 
7.000000000000e-02 0.000000000000e+00 3.300000000000e-01 1.939939616751e+01 
8.000000000000e-02 0.000000000000e+00 3.300000000000e-01 1.939890229600e+01 
9.000000000000e-02 0.000000000000e+00 3.300000000000e-01 3.299269410054e+01 
1.000000000000e-01 0.000000000000e+00 3.300000000000e-01 2.851761018475e+01 
0.000000000000e+00 0.000000000000e+00 3.200000000000e-01 3.039296889895e+01 
1.000000000000e-02 0.000000000000e+00 3.200000000000e-01 2.920674560709e+01 
2.000000000000e-02 0.000000000000e+00 3.200000000000e-01 3.280958806358e+01 
3.000000000000e-02 0.000000000000e+00 3.200000000000e-01 3.280932674804e+01 
4.000000000000e-02 0.000000000000e+00 3.200000000000e-01 3.280939720764e+01 
5.000000000000e-02 0.000000000000e+00 3.200000000000e-01 3.280937401396e+01 
6.000000000000e-02 0.000000000000e+00 3.200000000000e-01 3.280939720827e+01 
7.000000000000e-02 0.000000000000e+00 3.200000000000e-01 3.280932674546e+01 
8.000000000000e-02 0.000000000000e+00 3.200000000000e-01 3.280958807337e+01 
9.000000000000e-02 0.000000000000e+00 3.200000000000e-01 2.920674560551e+01 
1.000000000000e-01 0.000000000000e+00 3.200000000000e-01 3.039296889693e+01 
0.000000000000e+00 0.000000000000e+00 3.100000000000e-01 2.989582734305e+01 
1.000000000000e-02 0.000000000000e+00 3.100000000000e-01 3.021026280729e+01 
2.000000000000e-02 0.000000000000e+00 3.100000000000e-01 2.925538076883e+01 
3.000000000000e-02 0.000000000000e+00 3.100000000000e-01 2.925548462858e+01 
4.000000000000e-02 0.000000000000e+00 3.100000000000e-01 2.925545662266e+01 
5.000000000000e-02 0.000000000000e+00 3.100000000000e-01 2.925546584223e+01 
6.000000000000e-02 0.000000000000e+00 3.100000000000e-01 2.925545662234e+01 
7.000000000000e-02 0.000000000000e+00 3.100000000000e-01 2.925548462988e+01 
8.000000000000e-02 0.000000000000e+00 3.100000000000e-01 2.925538076389e+01 
9.000000000000e-02 0.000000000000e+00 3.100000000000e-01 3.021026280664e+01 
1.000000000000e-01 0.000000000000e+00 3.100000000000e-01 2.989582734535e+01 
0.000000000000e+00 0.000000000000e+00 3.000000000000e-01 3.002761527315e+01 
1.000000000000e-02 0.000000000000e+00 3.000000000000e-01 2.994426699456e+01 
2.000000000000e-02 0.000000000000e+00 3.000000000000e-01 3.019734489698e+01 
3.000000000000e-02 0.000000000000e+00 3.000000000000e-01 3.019730820145e+01 
4.000000000000e-02 0.000000000000e+00 3.000000000000e-01 3.019731809708e+01 
5.000000000000e-02 0.000000000000e+00 3.000000000000e-01 3.019731483917e+01 
6.000000000000e-02 0.000000000000e+00 3.000000000000e-01 3.019731809728e+01 
7.000000000000e-02 0.000000000000e+00 3.000000000000e-01 3.019730820062e+01 
8.000000000000e-02 0.000000000000e+00 3.000000000000e-01 3.019734490011e+01 
9.000000000000e-02 0.000000000000e+00 3.000000000000e-01 2.994426700157e+01 
1.000000000000e-01 0.000000000000e+00 3.000000000000e-01 3.002761526153e+01 
0.000000000000e+00 0.000000000000e+00 2.900000000000e-01 2.999267943017e+01 
1.000000000000e-02 0.000000000000e+00 2.900000000000e-01 3.001477278814e+01 
2.000000000000e-02 0.000000000000e+00 2.900000000000e-01 2.994769809131e+01 
3.000000000000e-02 0.000000000000e+00 2.900000000000e-01 2.994771024720e+01 
4.000000000000e-02 0.000000000000e+00 2.900000000000e-01 2.994770696889e+01 
5.000000000000e-02 0.000000000000e+00 2.900000000000e-01 2.994770804842e+01 
6.000000000000e-02 0.000000000000e+00 2.900000000000e-01 2.994770696835e+01 
7.000000000000e-02 0.000000000000e+00 2.900000000000e-01 2.994771024935e+01 
8.000000000000e-02 0.000000000000e+00 2.900000000000e-01 2.994769808313e+01 
9.000000000000e-02 0.000000000000e+00 2.900000000000e-01 3.001477276067e+01 
1.000000000000e-01 0.000000000000e+00 2.900000000000e-01 2.999267947451e+01 
0.000000000000e+00 0.000000000000e+00 2.800000000000e-01 3.000194062106e+01 
1.000000000000e-02 0.000000000000e+00 2.800000000000e-01 2.999608427378e+01 
2.000000000000e-02 0.000000000000e+00 2.800000000000e-01 3.001386146793e+01 
3.000000000000e-02 0.000000000000e+00 2.800000000000e-01 3.001385760203e+01 
4.000000000000e-02 0.000000000000e+00 2.800000000000e-01 3.001385864484e+01 
5.000000000000e-02 0.000000000000e+00 2.800000000000e-01 3.001385830084e+01 
6.000000000000e-02 0.000000000000e+00 2.800000000000e-01 3.001385864681e+01 
7.000000000000e-02 0.000000000000e+00 2.800000000000e-01 3.001385759418e+01 
8.000000000000e-02 0.000000000000e+00 2.800000000000e-01 3.001386149781e+01 
9.000000000000e-02 0.000000000000e+00 2.800000000000e-01 2.999608437767e+01 
1.000000000000e-01 0.000000000000e+00 2.800000000000e-01 3.000194045363e+01 
0.000000000000e+00 0.000000000000e+00 2.700000000000e-01 2.999948555592e+01 
1.000000000000e-02 0.000000000000e+00 2.700000000000e-01 3.000103791398e+01 
2.000000000000e-02 0.000000000000e+00 2.700000000000e-01 2.999632632158e+01 
3.000000000000e-02 0.000000000000e+00 2.700000000000e-01 2.999632751707e+01 
4.000000000000e-02 0.000000000000e+00 2.700000000000e-01 2.999632719396e+01 
5.000000000000e-02 0.000000000000e+00 2.700000000000e-01 2.999632730278e+01 
6.000000000000e-02 0.000000000000e+00 2.700000000000e-01 2.999632718657e+01 
7.000000000000e-02 0.000000000000e+00 2.700000000000e-01 2.999632754659e+01 
8.000000000000e-02 0.000000000000e+00 2.700000000000e-01 2.999632620909e+01 
9.000000000000e-02 0.000000000000e+00 2.700000000000e-01 3.000103752198e+01 
1.000000000000e-01 0.000000000000e+00 2.700000000000e-01 2.999948618767e+01 
0.000000000000e+00 0.000000000000e+00 2.600000000000e-01 3.000013638591e+01 
1.000000000000e-02 0.000000000000e+00 2.600000000000e-01 2.999972489804e+01 
2.000000000000e-02 0.000000000000e+00 2.600000000000e-01 3.000097363864e+01 
3.000000000000e-02 0.000000000000e+00 2.600000000000e-01 3.000097327588e+01 
4.000000000000e-02 0.000000000000e+00 2.600000000000e-01 3.000097337621e+01 
5.000000000000e-02 0.000000000000e+00 2.600000000000e-01 3.000097333402e+01 
6.000000000000e-02 0.000000000000e+00 2.600000000000e-01 3.000097340412e+01 
7.000000000000e-02 0.000000000000e+00 2.600000000000e-01 3.000097316447e+01 
8.000000000000e-02 0.000000000000e+00 2.600000000000e-01 3.000097406307e+01 
9.000000000000e-02 0.000000000000e+00 2.600000000000e-01 2.999972440738e+01 
1.000000000000e-01 0.000000000000e+00 2.600000000000e-01 3.000013621159e+01 
0.000000000000e+00 0.000000000000e+00 2.500000000000e-01 2.999996386035e+01 
1.000000000000e-02 0.000000000000e+00 2.500000000000e-01 3.000007293448e+01 
2.000000000000e-02 0.000000000000e+00 2.500000000000e-01 2.999974197385e+01 
3.000000000000e-02 0.000000000000e+00 2.500000000000e-01 2.999974208131e+01 
4.000000000000e-02 0.000000000000e+00 2.500000000000e-01 2.999974205399e+01 
5.000000000000e-02 0.000000000000e+00 2.500000000000e-01 2.999974205678e+01 
6.000000000000e-02 0.000000000000e+00 2.500000000000e-01 2.999974207355e+01 
7.000000000000e-02 0.000000000000e+00 2.500000000000e-01 2.999974200379e+01 
8.000000000000e-02 0.000000000000e+00 2.500000000000e-01 2.999974226882e+01 
9.000000000000e-02 0.000000000000e+00 2.500000000000e-01 3.000007308004e+01 
1.000000000000e-01 0.000000000000e+00 2.500000000000e-01 2.999996385520e+01 
12  13  2  1  
13  14  3  2  
14  15  4  3  
15  16  5  4  
16  17  6  5  
17  18  7  6  
18  19  8  7  
19  20  9  8  
20  21  10  9  
21  22  11  10  
23  24  13  12  
24  25  14  13  
25  26  15  14  
26  27  16  15  
27  28  17  16  
28  29  18  17  
29  30  19  18  
30  31  20  19  
31  32  21  20  
32  33  22  21  
34  35  24  23  
35  36  25  24  
36  37  26  25  
37  38  27  26  
38  39  28  27  
39  40  29  28  
40  41  30  29  
41  42  31  30  
42  43  32  31  
43  44  33  32  
45  46  35  34  
46  47  36  35  
47  48  37  36  
48  49  38  37  
49  50  39  38  
50  51  40  39  
51  52  41  40  
52  53  42  41  
53  54  43  42  
54  55  44  43  
56  57  46  45  
57  58  47  46  
58  59  48  47  
59  60  49  48  
60  61  50  49  
61  62  51  50  
62  63  52  51  
63  64  53  52  
64  65  54  53  
65  66  55  54  
67  68  57  56  
68  69  58  57  
69  70  59  58  
70  71  60  59  
71  72  61  60  
72  73  62  61  
73  74  63  62  
74  75  64  63  
75  76  65  64  
76  77  66  65  
78  79  68  67  
79  80  69  68  
80  81  70  69  
81  82  71  70  
82  83  72  71  
83  84  73  72  
84  85  74  73  
85  86  75  74  
86  87  76  75  
87  88  77  76  
89  90  79  78  
90  91  80  79  
91  92  81  80  
92  93  82  81  
93  94  83  82  
94  95  84  83  
95  96  85  84  
96  97  86  85  
97  98  87  86  
98  99  88  87  
100  101  90  89  
101  102  91  90  
102  103  92  91  
103  104  93  92  
104  105  94  93  
105  106  95  94  
106  107  96  95  
107  108  97  96  
108  109  98  97  
109  110  99  98  
VARIABLES  = "X","Y","Z", "TEMPERATURE1"
ZONE T="7.000000000000e-02s", N=110, E=90, F=FEPOINT, ET=QUADRILATERAL
STRANDID=1, SOLUTIONTIME=7.000000000000e-02
0.000000000000e+00 0.000000000000e+00 3.400000000000e-01 3.492585949510e+01 
1.000000000000e-02 0.000000000000e+00 3.400000000000e-01 1.947805720641e+01 
2.000000000000e-02 0.000000000000e+00 3.400000000000e-01 7.000000000029e+01 
3.000000000000e-02 0.000000000000e+00 3.400000000000e-01 7.000000000029e+01 
4.000000000000e-02 0.000000000000e+00 3.400000000000e-01 7.000000000029e+01 
5.000000000000e-02 0.000000000000e+00 3.400000000000e-01 7.000000000029e+01 
6.000000000000e-02 0.000000000000e+00 3.400000000000e-01 7.000000000029e+01 
7.000000000000e-02 0.000000000000e+00 3.400000000000e-01 7.000000000029e+01 
8.000000000000e-02 0.000000000000e+00 3.400000000000e-01 7.000000000029e+01 
9.000000000000e-02 0.000000000000e+00 3.400000000000e-01 1.947805718225e+01 
1.000000000000e-01 0.000000000000e+00 3.400000000000e-01 3.492585959755e+01 
0.000000000000e+00 0.000000000000e+00 3.300000000000e-01 2.876538929738e+01 
1.000000000000e-02 0.000000000000e+00 3.300000000000e-01 3.262646607430e+01 
2.000000000000e-02 0.000000000000e+00 3.300000000000e-01 2.006552053931e+01 
3.000000000000e-02 0.000000000000e+00 3.300000000000e-01 2.008407175902e+01 
4.000000000000e-02 0.000000000000e+00 3.300000000000e-01 2.007934077626e+01 
5.000000000000e-02 0.000000000000e+00 3.300000000000e-01 2.008080508030e+01 
6.000000000000e-02 0.000000000000e+00 3.300000000000e-01 2.007934076802e+01 
7.000000000000e-02 0.000000000000e+00 3.300000000000e-01 2.008407179427e+01 
8.000000000000e-02 0.000000000000e+00 3.300000000000e-01 2.006552039582e+01 
9.000000000000e-02 0.000000000000e+00 3.300000000000e-01 3.262646612686e+01 
1.000000000000e-01 0.000000000000e+00 3.300000000000e-01 2.876538921749e+01 
0.000000000000e+00 0.000000000000e+00 3.200000000000e-01 3.030922913507e+01 
1.000000000000e-02 0.000000000000e+00 3.200000000000e-01 2.934484787827e+01 
2.000000000000e-02 0.000000000000e+00 3.200000000000e-01 3.246545525328e+01 
3.000000000000e-02 0.000000000000e+00 3.200000000000e-01 3.245612326891e+01 
4.000000000000e-02 0.000000000000e+00 3.200000000000e-01 3.245850824089e+01 
5.000000000000e-02 0.000000000000e+00 3.200000000000e-01 3.245776825784e+01 
6.000000000000e-02 0.000000000000e+00 3.200000000000e-01 3.245850824132e+01 
7.000000000000e-02 0.000000000000e+00 3.200000000000e-01 3.245612326638e+01 
8.000000000000e-02 0.000000000000e+00 3.200000000000e-01 3.246545526402e+01 
9.000000000000e-02 0.000000000000e+00 3.200000000000e-01 2.934484787692e+01 
1.000000000000e-01 0.000000000000e+00 3.200000000000e-01 3.030922913140e+01 
0.000000000000e+00 0.000000000000e+00 3.100000000000e-01 2.992260384074e+01 
1.000000000000e-02 0.000000000000e+00 3.100000000000e-01 3.016330113956e+01 
2.000000000000e-02 0.000000000000e+00 3.100000000000e-01 2.938863622053e+01 
3.000000000000e-02 0.000000000000e+00 3.100000000000e-01 2.939215478988e+01 
4.000000000000e-02 0.000000000000e+00 3.100000000000e-01 2.939125350748e+01 
5.000000000000e-02 0.000000000000e+00 3.100000000000e-01 2.939153384808e+01 
6.000000000000e-02 0.000000000000e+00 3.100000000000e-01 2.939125350724e+01 
7.000000000000e-02 0.000000000000e+00 3.100000000000e-01 2.939215479118e+01 
8.000000000000e-02 0.000000000000e+00 3.100000000000e-01 2.938863621497e+01 
9.000000000000e-02 0.000000000000e+00 3.100000000000e-01 3.016330113870e+01 
1.000000000000e-01 0.000000000000e+00 3.100000000000e-01 2.992260384364e+01 
0.000000000000e+00 0.000000000000e+00 3.000000000000e-01 3.001935643852e+01 
1.000000000000e-02 0.000000000000e+00 3.000000000000e-01 2.995932866034e+01 
2.000000000000e-02 0.000000000000e+00 3.000000000000e-01 3.015146850372e+01 
3.000000000000e-02 0.000000000000e+00 3.000000000000e-01 3.015028929194e+01 
4.000000000000e-02 0.000000000000e+00 3.000000000000e-01 3.015059203338e+01 
5.000000000000e-02 0.000000000000e+00 3.000000000000e-01 3.015049763224e+01 
6.000000000000e-02 0.000000000000e+00 3.000000000000e-01 3.015059203357e+01 
7.000000000000e-02 0.000000000000e+00 3.000000000000e-01 3.015028929105e+01 
8.000000000000e-02 0.000000000000e+00 3.000000000000e-01 3.015146850718e+01 
9.000000000000e-02 0.000000000000e+00 3.000000000000e-01 2.995932866876e+01 
1.000000000000e-01 0.000000000000e+00 3.000000000000e-01 3.001935642399e+01 
0.000000000000e+00 0.000000000000e+00 2.900000000000e-01 2.999516301027e+01 
1.000000000000e-02 0.000000000000e+00 2.900000000000e-01 3.001012075769e+01 
2.000000000000e-02 0.000000000000e+00 2.900000000000e-01 2.996250847076e+01 
3.000000000000e-02 0.000000000000e+00 2.900000000000e-01 2.996287895838e+01 
4.000000000000e-02 0.000000000000e+00 2.900000000000e-01 2.996278362722e+01 
5.000000000000e-02 0.000000000000e+00 2.900000000000e-01 2.996281342737e+01 
6.000000000000e-02 0.000000000000e+00 2.900000000000e-01 2.996278362658e+01 
7.000000000000e-02 0.000000000000e+00 2.900000000000e-01 2.996287896096e+01 
8.000000000000e-02 0.000000000000e+00 2.900000000000e-01 2.996250846091e+01 
9.000000000000e-02 0.000000000000e+00 2.900000000000e-01 3.001012072284e+01 
1.000000000000e-01 0.000000000000e+00 2.900000000000e-01 2.999516306895e+01 
0.000000000000e+00 0.000000000000e+00 2.800000000000e-01 3.000120765787e+01 
1.000000000000e-02 0.000000000000e+00 2.800000000000e-01 2.999748387152e+01 
2.000000000000e-02 0.000000000000e+00 2.800000000000e-01 3.000927035903e+01 
3.000000000000e-02 0.000000000000e+00 2.800000000000e-01 3.000915861683e+01 
4.000000000000e-02 0.000000000000e+00 2.800000000000e-01 3.000918743451e+01 
5.000000000000e-02 0.000000000000e+00 2.800000000000e-01 3.000917840319e+01 
6.000000000000e-02 0.000000000000e+00 2.800000000000e-01 3.000918743706e+01 
7.000000000000e-02 0.000000000000e+00 2.800000000000e-01 3.000915860662e+01 
8.000000000000e-02 0.000000000000e+00 2.800000000000e-01 3.000927039780e+01 
9.000000000000e-02 0.000000000000e+00 2.800000000000e-01 2.999748401117e+01 
1.000000000000e-01 0.000000000000e+00 2.800000000000e-01 3.000120742270e+01 
0.000000000000e+00 0.000000000000e+00 2.700000000000e-01 2.999969876466e+01 
1.000000000000e-02 0.000000000000e+00 2.700000000000e-01 3.000062490407e+01 
2.000000000000e-02 0.000000000000e+00 2.700000000000e-01 2.999771032867e+01 
3.000000000000e-02 0.000000000000e+00 2.700000000000e-01 2.999774309431e+01 
4.000000000000e-02 0.000000000000e+00 2.700000000000e-01 2.999773462441e+01 
5.000000000000e-02 0.000000000000e+00 2.700000000000e-01 2.999773728842e+01 
6.000000000000e-02 0.000000000000e+00 2.700000000000e-01 2.999773461426e+01 
7.000000000000e-02 0.000000000000e+00 2.700000000000e-01 2.999774313517e+01 
8.000000000000e-02 0.000000000000e+00 2.700000000000e-01 2.999771017244e+01 
9.000000000000e-02 0.000000000000e+00 2.700000000000e-01 3.000062434518e+01 
1.000000000000e-01 0.000000000000e+00 2.700000000000e-01 2.999969970656e+01 
0.000000000000e+00 0.000000000000e+00 2.600000000000e-01 3.000007508001e+01 
1.000000000000e-02 0.000000000000e+00 2.600000000000e-01 2.999984498446e+01 
2.000000000000e-02 0.000000000000e+00 2.600000000000e-01 3.000056484638e+01 
3.000000000000e-02 0.000000000000e+00 2.600000000000e-01 3.000055543414e+01 
4.000000000000e-02 0.000000000000e+00 2.600000000000e-01 3.000055787568e+01 
5.000000000000e-02 0.000000000000e+00 2.600000000000e-01 3.000055709456e+01 
6.000000000000e-02 0.000000000000e+00 2.600000000000e-01 3.000055791350e+01 
7.000000000000e-02 0.000000000000e+00 2.600000000000e-01 3.000055528182e+01 
8.000000000000e-02 0.000000000000e+00 2.600000000000e-01 3.000056542956e+01 
9.000000000000e-02 0.000000000000e+00 2.600000000000e-01 2.999984432173e+01 
1.000000000000e-01 0.000000000000e+00 2.600000000000e-01 3.000007472200e+01 
0.000000000000e+00 0.000000000000e+00 2.500000000000e-01 2.999998133323e+01 
1.000000000000e-02 0.000000000000e+00 2.500000000000e-01 3.000003843349e+01 
2.000000000000e-02 0.000000000000e+00 2.500000000000e-01 2.999986086892e+01 
3.000000000000e-02 0.000000000000e+00 2.500000000000e-01 2.999986352930e+01 
4.000000000000e-02 0.000000000000e+00 2.500000000000e-01 2.999986284041e+01 
5.000000000000e-02 0.000000000000e+00 2.500000000000e-01 2.999986305045e+01 
6.000000000000e-02 0.000000000000e+00 2.500000000000e-01 2.999986286583e+01 
7.000000000000e-02 0.000000000000e+00 2.500000000000e-01 2.999986342263e+01 
8.000000000000e-02 0.000000000000e+00 2.500000000000e-01 2.999986129563e+01 
9.000000000000e-02 0.000000000000e+00 2.500000000000e-01 3.000003862570e+01 
1.000000000000e-01 0.000000000000e+00 2.500000000000e-01 2.999998134948e+01 
12  13  2  1  
13  14  3  2  
14  15  4  3  
15  16  5  4  
16  17  6  5  
17  18  7  6  
18  19  8  7  
19  20  9  8  
20  21  10  9  
21  22  11  10  
23  24  13  12  
24  25  14  13  
25  26  15  14  
26  27  16  15  
27  28  17  16  
28  29  18  17  
29  30  19  18  
30  31  20  19  
31  32  21  20  
32  33  22  21  
34  35  24  23  
35  36  25  24  
36  37  26  25  
37  38  27  26  
38  39  28  27  
39  40  29  28  
40  41  30  29  
41  42  31  30  
42  43  32  31  
43  44  33  32  
45  46  35  34  
46  47  36  35  
47  48  37  36  
48  49  38  37  
49  50  39  38  
50  51  40  39  
51  52  41  40  
52  53  42  41  
53  54  43  42  
54  55  44  43  
56  57  46  45  
57  58  47  46  
58  59  48  47  
59  60  49  48  
60  61  50  49  
61  62  51  50  
62  63  52  51  
63  64  53  52  
64  65  54  53  
65  66  55  54  
67  68  57  56  
68  69  58  57  
69  70  59  58  
70  71  60  59  
71  72  61  60  
72  73  62  61  
73  74  63  62  
74  75  64  63  
75  76  65  64  
76  77  66  65  
78  79  68  67  
79  80  69  68  
80  81  70  69  