 TITLE = "Time curves in points"
 VARIABLES = "TIME"  "TEMPERATURE1"  p_(1st_Invariant)  q_(2nd_Invariant)   Effective_Strain
 ZONE T="POINT=POINT6"
0.000000000000e+00 3.000000000000e+01 -0.000000000000e+00 0.000000000000e+00  0.000000000000e+00
1.000000000000e-02 3.000000037348e+01 -4.264338215208e+03 5.431669160293e+03  2.534778942326e-04
7.000000000000e-02 3.000000053885e+01 -3.369120640095e+02 1.285393297656e+04  5.998502096982e-04
4.300000000000e-01 3.000000019757e+01 2.322665096143e+04 5.806264000444e+04  2.709589893389e-03
1.430000000000e+00 3.000000025091e+01 8.867378856356e+04 1.838077485673e+05  8.577694933152e-03
2.430000000000e+00 3.000000023702e+01 1.541174811215e+05 3.095596781637e+05  1.444611833495e-02
3.430000000000e+00 3.000000017752e+01 2.195548707664e+05 4.353022611364e+05  2.031410555423e-02
4.430000000000e+00 3.000000009186e+01 2.849913382832e+05 5.610465335150e+05  2.618217160543e-02
5.430000000000e+00 2.999999999308e+01 3.504228546425e+05 6.867818277350e+05  3.204981863894e-02
6.430000000000e+00 2.999999988899e+01 4.158559211658e+05 8.125236066898e+05  3.791776832176e-02
7.430000000000e+00 2.999999978395e+01 4.812850974638e+05 9.382574719890e+05  4.378534869350e-02
8.430000000000e+00 2.999999968025e+01 5.467145342616e+05 1.063994209344e+06  4.965306311671e-02
9.430000000000e+00 2.999999957905e+01 6.121430907515e+05 1.189729398220e+06  5.552070525389e-02
