 TITLE = "Time curves in points"
 VARIABLES = "TIME"  "PRESSURE1"  "PRESSURE2"  "PRESSURE_W"  "SATURATION1" SATURATION2  "VELOCITY_X1"  "VELOCITY_Y1"  "VELOCITY_X2"  "VELOCITY_Y2"  p_(1st_Invariant)  q_(2nd_Invariant)   Effective_Strain
 ZONE T="POINT=POINT6"
0.000000000000e+00 1.000000000000e+05 1.000000000000e+05 0.000000000000e+00 9.251121356155e-01 7.488786438454e-02 0.000000000000e+00 0.000000000000e+00 0.000000000000e+00 0.000000000000e+00 -0.000000000000e+00 0.000000000000e+00  0.000000000000e+00
1.000000000000e-02 1.000000101475e+05 1.000000101729e+05 2.541505091358e-05 9.251121137984e-01 7.488788620157e-02 1.354573174632e-14 -9.238121040886e-07 -4.556102962327e-13 -2.313290018785e-11 -4.264356556242e+03 5.431625909860e+03  2.534758764786e-04
7.000000000000e-02 1.000000192319e+05 1.000000192211e+05 -1.076095213648e-05 9.251120942669e-01 7.488790573306e-02 5.246850290342e-14 -9.238107059784e-07 -9.169836548600e-13 -2.275654650295e-11 -3.368465472522e+02 1.285408568378e+04  5.998573334670e-04
4.300000000000e-01 1.000000259248e+05 1.000000308707e+05 4.945921828039e-03 9.251120798771e-01 7.488792012286e-02 1.272265984366e-13 -9.237367769652e-07 -1.706174370314e-12 -2.199138595875e-11 2.322656456676e+04 5.806240005159e+04  2.709578726882e-03
1.430000000000e+00 9.999925389927e+04 1.000000302931e+05 7.763938067947e-01 9.251137397314e-01 7.488626026860e-02 6.382747770236e-14 -9.182174471052e-07 -1.715860216530e-12 -2.201912698577e-11 8.867469153273e+04 1.838097158882e+05  8.577786766283e-03
2.430000000000e+00 9.999702269412e+04 1.000000297269e+05 3.007032816691e+00 9.251185368205e-01 7.488146317946e-02 2.972708101739e-14 -9.054983922236e-07 -1.727675620507e-12 -2.204398156648e-11 1.541156508352e+05 3.095555306694e+05  1.444592479795e-02
3.430000000000e+00 9.999302129644e+04 1.000000291660e+05 7.007869563589e+00 9.251271398221e-01 7.487286017788e-02 2.379700454435e-14 -8.867753803967e-07 -1.740193695989e-12 -2.206673726182e-11 2.195531755226e+05 4.352984479002e+05  2.031392759575e-02
4.430000000000e+00 9.998728609385e+04 1.000000286068e+05 1.274251298502e+01 9.251394705028e-01 7.486052949724e-02 3.668181760449e-14 -8.642925507522e-07 -1.752605325639e-12 -2.208793449226e-11 2.849926984215e+05 5.610493518807e+05  2.618230309886e-02
5.430000000000e+00 9.998003472067e+04 1.000000280475e+05 1.999332686150e+01 9.251550609489e-01 7.484493905112e-02 6.105870730960e-14 -8.400523082305e-07 -1.764425287609e-12 -2.210799451903e-11 3.504252344986e+05 6.867874074301e+05  3.205007903857e-02
6.430000000000e+00 9.997153883639e+04 1.000000274870e+05 2.848865062397e+01 9.251733270928e-01 7.482667290722e-02 9.159944563752e-14 -8.154504500710e-07 -1.775352045936e-12 -2.212724863649e-11 4.158551149929e+05 8.125217614741e+05  3.791768220409e-02
7.430000000000e+00 9.996205864702e+04 1.000000269247e+05 3.796827766552e+01 9.251937094918e-01 7.480629050822e-02 1.245127197288e-13 -7.913351517986e-07 -1.785194645103e-12 -2.214595299891e-11 4.812834007142e+05 9.382539942848e+05  4.378518640327e-02
8.430000000000e+00 9.995181835297e+04 1.000000263602e+05 4.820800726009e+01 9.252157261152e-01 7.478427388482e-02 1.570398540127e-13 -7.681665955358e-07 -1.793833960950e-12 -2.216430170077e-11 5.467136799493e+05 1.063992192466e+06  4.965296899898e-02
9.430000000000e+00 9.994100189891e+04 1.000000257936e+05 5.902389465163e+01 9.252389814821e-01 7.476101851787e-02 1.870649417506e-13 -7.461583941566e-07 -1.801201317281e-12 -2.218243936734e-11 6.121426941479e+05 1.189728386111e+06  5.552065802174e-02
