 TITLE = "Time curves in points"
 VARIABLES = "TIME"  "TEMPERATURE1"  p_(1st_Invariant)  q_(2nd_Invariant)   Effective_Strain
 ZONE T="POINT=POINT6"
0.000000000000e+00 3.000000000000e+01 -0.000000000000e+00 0.000000000000e+00  0.000000000000e+00
1.000000000000e-02 3.000000081750e+01 -4.264356556242e+03 5.431625909860e+03  2.534758764786e-04
7.000000000000e-02 3.000000102519e+01 -3.368465472522e+02 1.285408568378e+04  5.998573334670e-04
4.300000000000e-01 3.000000082906e+01 2.322656456676e+04 5.806240005159e+04  2.709578726882e-03
1.430000000000e+00 3.000000251774e+01 8.867469153273e+04 1.838097158882e+05  8.577786766283e-03
2.430000000000e+00 3.000000359635e+01 1.541156508352e+05 3.095555306694e+05  1.444592479795e-02
3.430000000000e+00 3.000000425238e+01 2.195531755226e+05 4.352984479002e+05  2.031392759575e-02
4.430000000000e+00 3.000000465497e+01 2.849926984215e+05 5.610493518807e+05  2.618230309886e-02
5.430000000000e+00 3.000000491166e+01 3.504252344986e+05 6.867874074301e+05  3.205007903857e-02
6.430000000000e+00 3.000000508415e+01 4.158551149929e+05 8.125217614741e+05  3.791768220409e-02
7.430000000000e+00 3.000000520667e+01 4.812834007142e+05 9.382539942848e+05  4.378518640327e-02
8.430000000000e+00 3.000000529814e+01 5.467136799493e+05 1.063992192466e+06  4.965296899898e-02
9.430000000000e+00 3.000000536918e+01 6.121426941479e+05 1.189728386111e+06  5.552065802174e-02
