VARIABLES  = "X","Y","Z", "TEMPERATURE1"
ZONE T="0.000000000000e+00s", N=121, E=100, F=FEPOINT, ET=QUADRILATERAL
STRANDID=1, SOLUTIONTIME=0.000000000000e+00
0.000000000000e+00 0.000000000000e+00 2.500000000000e-01 3.000000000000e+01 
1.000000000000e-02 0.000000000000e+00 2.500000000000e-01 3.000000000000e+01 
2.000000000000e-02 0.000000000000e+00 2.500000000000e-01 3.000000000000e+01 
3.000000000000e-02 0.000000000000e+00 2.500000000000e-01 3.000000000000e+01 
4.000000000000e-02 0.000000000000e+00 2.500000000000e-01 3.000000000000e+01 
5.000000000000e-02 0.000000000000e+00 2.500000000000e-01 3.000000000000e+01 
6.000000000000e-02 0.000000000000e+00 2.500000000000e-01 3.000000000000e+01 
7.000000000000e-02 0.000000000000e+00 2.500000000000e-01 3.000000000000e+01 
8.000000000000e-02 0.000000000000e+00 2.500000000000e-01 3.000000000000e+01 
9.000000000000e-02 0.000000000000e+00 2.500000000000e-01 3.000000000000e+01 
1.000000000000e-01 0.000000000000e+00 2.500000000000e-01 3.000000000000e+01 
0.000000000000e+00 0.000000000000e+00 2.400000000000e-01 3.000000000000e+01 
1.000000000000e-02 0.000000000000e+00 2.400000000000e-01 3.000000000000e+01 
2.000000000000e-02 0.000000000000e+00 2.400000000000e-01 3.000000000000e+01 
3.000000000000e-02 0.000000000000e+00 2.400000000000e-01 3.000000000000e+01 
4.000000000000e-02 0.000000000000e+00 2.400000000000e-01 3.000000000000e+01 
5.000000000000e-02 0.000000000000e+00 2.400000000000e-01 3.000000000000e+01 
6.000000000000e-02 0.000000000000e+00 2.400000000000e-01 3.000000000000e+01 
7.000000000000e-02 0.000000000000e+00 2.400000000000e-01 3.000000000000e+01 
8.000000000000e-02 0.000000000000e+00 2.400000000000e-01 3.000000000000e+01 
9.000000000000e-02 0.000000000000e+00 2.400000000000e-01 3.000000000000e+01 
1.000000000000e-01 0.000000000000e+00 2.400000000000e-01 3.000000000000e+01 
0.000000000000e+00 0.000000000000e+00 2.300000000000e-01 3.000000000000e+01 
1.000000000000e-02 0.000000000000e+00 2.300000000000e-01 3.000000000000e+01 
2.000000000000e-02 0.000000000000e+00 2.300000000000e-01 3.000000000000e+01 
3.000000000000e-02 0.000000000000e+00 2.300000000000e-01 3.000000000000e+01 
4.000000000000e-02 0.000000000000e+00 2.300000000000e-01 3.000000000000e+01 
5.000000000000e-02 0.000000000000e+00 2.300000000000e-01 3.000000000000e+01 
6.000000000000e-02 0.000000000000e+00 2.300000000000e-01 3.000000000000e+01 
7.000000000000e-02 0.000000000000e+00 2.300000000000e-01 3.000000000000e+01 
8.000000000000e-02 0.000000000000e+00 2.300000000000e-01 3.000000000000e+01 
9.000000000000e-02 0.000000000000e+00 2.300000000000e-01 3.000000000000e+01 
1.000000000000e-01 0.000000000000e+00 2.300000000000e-01 3.000000000000e+01 
0.000000000000e+00 0.000000000000e+00 2.200000000000e-01 3.000000000000e+01 
1.000000000000e-02 0.000000000000e+00 2.200000000000e-01 3.000000000000e+01 
2.000000000000e-02 0.000000000000e+00 2.200000000000e-01 3.000000000000e+01 
3.000000000000e-02 0.000000000000e+00 2.200000000000e-01 3.000000000000e+01 
4.000000000000e-02 0.000000000000e+00 2.200000000000e-01 3.000000000000e+01 
5.000000000000e-02 0.000000000000e+00 2.200000000000e-01 3.000000000000e+01 
6.000000000000e-02 0.000000000000e+00 2.200000000000e-01 3.000000000000e+01 
7.000000000000e-02 0.000000000000e+00 2.200000000000e-01 3.000000000000e+01 
8.000000000000e-02 0.000000000000e+00 2.200000000000e-01 3.000000000000e+01 
9.000000000000e-02 0.000000000000e+00 2.200000000000e-01 3.000000000000e+01 
1.000000000000e-01 0.000000000000e+00 2.200000000000e-01 3.000000000000e+01 
0.000000000000e+00 0.000000000000e+00 2.100000000000e-01 3.000000000000e+01 
1.000000000000e-02 0.000000000000e+00 2.100000000000e-01 3.000000000000e+01 
2.000000000000e-02 0.000000000000e+00 2.100000000000e-01 3.000000000000e+01 
3.000000000000e-02 0.000000000000e+00 2.100000000000e-01 3.000000000000e+01 
4.000000000000e-02 0.000000000000e+00 2.100000000000e-01 3.000000000000e+01 
5.000000000000e-02 0.000000000000e+00 2.100000000000e-01 3.000000000000e+01 
6.000000000000e-02 0.000000000000e+00 2.100000000000e-01 3.000000000000e+01 
7.000000000000e-02 0.000000000000e+00 2.100000000000e-01 3.000000000000e+01 
8.000000000000e-02 0.000000000000e+00 2.100000000000e-01 3.000000000000e+01 
9.000000000000e-02 0.000000000000e+00 2.100000000000e-01 3.000000000000e+01 
1.000000000000e-01 0.000000000000e+00 2.100000000000e-01 3.000000000000e+01 
0.000000000000e+00 0.000000000000e+00 2.000000000000e-01 3.000000000000e+01 
1.000000000000e-02 0.000000000000e+00 2.000000000000e-01 3.000000000000e+01 
2.000000000000e-02 0.000000000000e+00 2.000000000000e-01 3.000000000000e+01 
3.000000000000e-02 0.000000000000e+00 2.000000000000e-01 3.000000000000e+01 
4.000000000000e-02 0.000000000000e+00 2.000000000000e-01 3.000000000000e+01 
5.000000000000e-02 0.000000000000e+00 2.000000000000e-01 3.000000000000e+01 
6.000000000000e-02 0.000000000000e+00 2.000000000000e-01 3.000000000000e+01 
7.000000000000e-02 0.000000000000e+00 2.000000000000e-01 3.000000000000e+01 
8.000000000000e-02 0.000000000000e+00 2.000000000000e-01 3.000000000000e+01 
9.000000000000e-02 0.000000000000e+00 2.000000000000e-01 3.000000000000e+01 
1.000000000000e-01 0.000000000000e+00 2.000000000000e-01 3.000000000000e+01 
0.000000000000e+00 0.000000000000e+00 1.900000000000e-01 3.000000000000e+01 
1.000000000000e-02 0.000000000000e+00 1.900000000000e-01 3.000000000000e+01 
2.000000000000e-02 0.000000000000e+00 1.900000000000e-01 3.000000000000e+01 
3.000000000000e-02 0.000000000000e+00 1.900000000000e-01 3.000000000000e+01 
4.000000000000e-02 0.000000000000e+00 1.900000000000e-01 3.000000000000e+01 
5.000000000000e-02 0.000000000000e+00 1.900000000000e-01 3.000000000000e+01 
6.000000000000e-02 0.000000000000e+00 1.900000000000e-01 3.000000000000e+01 
7.000000000000e-02 0.000000000000e+00 1.900000000000e-01 3.000000000000e+01 
8.000000000000e-02 0.000000000000e+00 1.900000000000e-01 3.000000000000e+01 
9.000000000000e-02 0.000000000000e+00 1.900000000000e-01 3.000000000000e+01 
1.000000000000e-01 0.000000000000e+00 1.900000000000e-01 3.000000000000e+01 
0.000000000000e+00 0.000000000000e+00 1.800000000000e-01 3.000000000000e+01 
1.000000000000e-02 0.000000000000e+00 1.800000000000e-01 3.000000000000e+01 
2.000000000000e-02 0.000000000000e+00 1.800000000000e-01 3.000000000000e+01 
3.000000000000e-02 0.000000000000e+00 1.800000000000e-01 3.000000000000e+01 
4.000000000000e-02 0.000000000000e+00 1.800000000000e-01 3.000000000000e+01 
5.000000000000e-02 0.000000000000e+00 1.800000000000e-01 3.000000000000e+01 
6.000000000000e-02 0.000000000000e+00 1.800000000000e-01 3.000000000000e+01 
7.000000000000e-02 0.000000000000e+00 1.800000000000e-01 3.000000000000e+01 
8.000000000000e-02 0.000000000000e+00 1.800000000000e-01 3.000000000000e+01 
9.000000000000e-02 0.000000000000e+00 1.800000000000e-01 3.000000000000e+01 
1.000000000000e-01 0.000000000000e+00 1.800000000000e-01 3.000000000000e+01 
0.000000000000e+00 0.000000000000e+00 1.700000000000e-01 3.000000000000e+01 
1.000000000000e-02 0.000000000000e+00 1.700000000000e-01 3.000000000000e+01 
2.000000000000e-02 0.000000000000e+00 1.700000000000e-01 3.000000000000e+01 
3.000000000000e-02 0.000000000000e+00 1.700000000000e-01 3.000000000000e+01 
4.000000000000e-02 0.000000000000e+00 1.700000000000e-01 3.000000000000e+01 
5.000000000000e-02 0.000000000000e+00 1.700000000000e-01 3.000000000000e+01 
6.000000000000e-02 0.000000000000e+00 1.700000000000e-01 3.000000000000e+01 
7.000000000000e-02 0.000000000000e+00 1.700000000000e-01 3.000000000000e+01 
8.000000000000e-02 0.000000000000e+00 1.700000000000e-01 3.000000000000e+01 
9.000000000000e-02 0.000000000000e+00 1.700000000000e-01 3.000000000000e+01 
1.000000000000e-01 0.000000000000e+00 1.700000000000e-01 3.000000000000e+01 
1.000000000000e-02 0.000000000000e+00 2.600000000000e-01 3.000000000000e+01 
0.000000000000e+00 0.000000000000e+00 2.600000000000e-01 3.000000000000e+01 
2.000000000000e-02 0.000000000000e+00 2.600000000000e-01 3.000000000000e+01 
3.000000000000e-02 0.000000000000e+00 2.600000000000e-01 3.000000000000e+01 
4.000000000000e-02 0.000000000000e+00 2.600000000000e-01 3.000000000000e+01 
5.000000000000e-02 0.000000000000e+00 2.600000000000e-01 3.000000000000e+01 
6.000000000000e-02 0.000000000000e+00 2.600000000000e-01 3.000000000000e+01 
7.000000000000e-02 0.000000000000e+00 2.600000000000e-01 3.000000000000e+01 
8.000000000000e-02 0.000000000000e+00 2.600000000000e-01 3.000000000000e+01 
9.000000000000e-02 0.000000000000e+00 2.600000000000e-01 3.000000000000e+01 
1.000000000000e-01 0.000000000000e+00 2.600000000000e-01 3.000000000000e+01 
0.000000000000e+00 0.000000000000e+00 1.600000000000e-01 3.000000000000e+01 
1.000000000000e-02 0.000000000000e+00 1.600000000000e-01 3.000000000000e+01 
2.000000000000e-02 0.000000000000e+00 1.600000000000e-01 3.000000000000e+01 
3.000000000000e-02 0.000000000000e+00 1.600000000000e-01 3.000000000000e+01 
4.000000000000e-02 0.000000000000e+00 1.600000000000e-01 3.000000000000e+01 
5.000000000000e-02 0.000000000000e+00 1.600000000000e-01 3.000000000000e+01 
6.000000000000e-02 0.000000000000e+00 1.600000000000e-01 3.000000000000e+01 
7.000000000000e-02 0.000000000000e+00 1.600000000000e-01 3.000000000000e+01 
8.000000000000e-02 0.000000000000e+00 1.600000000000e-01 3.000000000000e+01 
9.000000000000e-02 0.000000000000e+00 1.600000000000e-01 3.000000000000e+01 
1.000000000000e-01 0.000000000000e+00 1.600000000000e-01 3.000000000000e+01 
12  13  2  1  
13  14  3  2  
14  15  4  3  
15  16  5  4  
16  17  6  5  
17  18  7  6  
18  19  8  7  
19  20  9  8  
20  21  10  9  
21  22  11  10  
23  24  13  12  
24  25  14  13  
25  26  15  14  
26  27  16  15  
27  28  17  16  
28  29  18  17  
29  30  19  18  
30  31  20  19  
31  32  21  20  
32  33  22  21  
34  35  24  23  
35  36  25  24  
36  37  26  25  
37  38  27  26  
38  39  28  27  
39  40  29  28  
40  41  30  29  
41  42  31  30  
42  43  32  31  
43  44  33  32  
45  46  35  34  
46  47  36  35  
47  48  37  36  
48  49  38  37  
49  50  39  38  
50  51  40  39  
51  52  41  40  
52  53  42  41  
53  54  43  42  
54  55  44  43  
56  57  46  45  
57  58  47  46  
58  59  48  47  
59  60  49  48  
60  61  50  49  
61  62  51  50  
62  63  52  51  
63  64  53  52  
64  65  54  53  
65  66  55  54  
67  68  57  56  
68  69  58  57  
69  70  59  58  
70  71  60  59  
71  72  61  60  
72  73  62  61  
73  74  63  62  
74  75  64  63  
75  76  65  64  
76  77  66  65  
78  79  68  67  
79  80  69  68  
80  81  70  69  
81  82  71  70  
82  83  72  71  
83  84  73  72  
84  85  74  73  
85  86  75  74  
86  87  76  75  
87  88  77  76  
89  90  79  78  
90  91  80  79  
91  92  81  80  
92  93  82  81  
93  94  83  82  
94  95  84  83  
95  96  85  84  
96  97  86  85  
97  98  87  86  
98  99  88  87  
1  2  100  101  
2  3  102  100  
3  4  103  102  
4  5  104  103  
5  6  105  104  
6  7  106  105  
7  8  107  106  
8  9  108  107  
9  10  109  108  
10  11  110  109  
111  112  90  89  
112  113  91  90  
113  114  92  91  
114  115  93  92  
115  116  94  93  
116  117  95  94  
117  118  96  95  
118  119  97  96  
119  120  98  97  
120  121  99  98  
VARIABLES  = "X","Y","Z", "TEMPERATURE1"
ZONE T="1.000000000000e-02s", N=121, E=100, F=FEPOINT, ET=QUADRILATERAL
STRANDID=1, SOLUTIONTIME=1.000000000000e-02
0.000000000000e+00 0.000000000000e+00 2.500000000000e-01 2.999996386035e+01 
1.000000000000e-02 0.000000000000e+00 2.500000000000e-01 3.000007293448e+01 
2.000000000000e-02 0.000000000000e+00 2.500000000000e-01 2.999974197385e+01 
3.000000000000e-02 0.000000000000e+00 2.500000000000e-01 2.999974208131e+01 
4.000000000000e-02 0.000000000000e+00 2.500000000000e-01 2.999974205399e+01 
5.000000000000e-02 0.000000000000e+00 2.500000000000e-01 2.999974205678e+01 
6.000000000000e-02 0.000000000000e+00 2.500000000000e-01 2.999974207355e+01 
7.000000000000e-02 0.000000000000e+00 2.500000000000e-01 2.999974200379e+01 
8.000000000000e-02 0.000000000000e+00 2.500000000000e-01 2.999974226882e+01 
9.000000000000e-02 0.000000000000e+00 2.500000000000e-01 3.000007308004e+01 
1.000000000000e-01 0.000000000000e+00 2.500000000000e-01 2.999996385520e+01 
0.000000000000e+00 0.000000000000e+00 2.400000000000e-01 3.000000958086e+01 
1.000000000000e-02 0.000000000000e+00 2.400000000000e-01 2.999998066828e+01 
2.000000000000e-02 0.000000000000e+00 2.400000000000e-01 3.000006838470e+01 
3.000000000000e-02 0.000000000000e+00 2.400000000000e-01 3.000006835306e+01 
4.000000000000e-02 0.000000000000e+00 2.400000000000e-01 3.000006836106e+01 
5.000000000000e-02 0.000000000000e+00 2.400000000000e-01 3.000006836039e+01 
6.000000000000e-02 0.000000000000e+00 2.400000000000e-01 3.000006835478e+01 
7.000000000000e-02 0.000000000000e+00 2.400000000000e-01 3.000006837732e+01 
8.000000000000e-02 0.000000000000e+00 2.400000000000e-01 3.000006829297e+01 
9.000000000000e-02 0.000000000000e+00 2.400000000000e-01 2.999998063526e+01 
1.000000000000e-01 0.000000000000e+00 2.400000000000e-01 3.000000957342e+01 
0.000000000000e+00 0.000000000000e+00 2.300000000000e-01 2.999999746079e+01 
1.000000000000e-02 0.000000000000e+00 2.300000000000e-01 3.000000512469e+01 
2.000000000000e-02 0.000000000000e+00 2.300000000000e-01 2.999998187673e+01 
3.000000000000e-02 0.000000000000e+00 2.300000000000e-01 2.999998188595e+01 
4.000000000000e-02 0.000000000000e+00 2.300000000000e-01 2.999998188362e+01 
5.000000000000e-02 0.000000000000e+00 2.300000000000e-01 2.999998188378e+01 
6.000000000000e-02 0.000000000000e+00 2.300000000000e-01 2.999998188602e+01 
7.000000000000e-02 0.000000000000e+00 2.300000000000e-01 2.999998187924e+01 
8.000000000000e-02 0.000000000000e+00 2.300000000000e-01 2.999998190035e+01 
9.000000000000e-02 0.000000000000e+00 2.300000000000e-01 3.000000513371e+01 
1.000000000000e-01 0.000000000000e+00 2.300000000000e-01 2.999999746224e+01 
0.000000000000e+00 0.000000000000e+00 2.200000000000e-01 3.000000067369e+01 
1.000000000000e-02 0.000000000000e+00 2.200000000000e-01 2.999999864217e+01 
2.000000000000e-02 0.000000000000e+00 2.200000000000e-01 3.000000480373e+01 
3.000000000000e-02 0.000000000000e+00 2.200000000000e-01 3.000000480109e+01 
4.000000000000e-02 0.000000000000e+00 2.200000000000e-01 3.000000480165e+01 
5.000000000000e-02 0.000000000000e+00 2.200000000000e-01 3.000000480201e+01 
6.000000000000e-02 0.000000000000e+00 2.200000000000e-01 3.000000479803e+01 
7.000000000000e-02 0.000000000000e+00 2.200000000000e-01 3.000000480467e+01 
8.000000000000e-02 0.000000000000e+00 2.200000000000e-01 3.000000479702e+01 
9.000000000000e-02 0.000000000000e+00 2.200000000000e-01 2.999999864001e+01 
1.000000000000e-01 0.000000000000e+00 2.200000000000e-01 3.000000067327e+01 
0.000000000000e+00 0.000000000000e+00 2.100000000000e-01 2.999999982205e+01 
1.000000000000e-02 0.000000000000e+00 2.100000000000e-01 3.000000036051e+01 
2.000000000000e-02 0.000000000000e+00 2.100000000000e-01 2.999999872753e+01 
3.000000000000e-02 0.000000000000e+00 2.100000000000e-01 2.999999872818e+01 
4.000000000000e-02 0.000000000000e+00 2.100000000000e-01 2.999999872842e+01 
5.000000000000e-02 0.000000000000e+00 2.100000000000e-01 2.999999872677e+01 
6.000000000000e-02 0.000000000000e+00 2.100000000000e-01 2.999999874062e+01 
7.000000000000e-02 0.000000000000e+00 2.100000000000e-01 2.999999872046e+01 
8.000000000000e-02 0.000000000000e+00 2.100000000000e-01 2.999999873078e+01 
9.000000000000e-02 0.000000000000e+00 2.100000000000e-01 3.000000036033e+01 
1.000000000000e-01 0.000000000000e+00 2.100000000000e-01 2.999999982214e+01 
0.000000000000e+00 0.000000000000e+00 2.000000000000e-01 3.000000004754e+01 
1.000000000000e-02 0.000000000000e+00 2.000000000000e-01 2.999999990482e+01 
2.000000000000e-02 0.000000000000e+00 2.000000000000e-01 3.000000033753e+01 
3.000000000000e-02 0.000000000000e+00 2.000000000000e-01 3.000000033775e+01 
4.000000000000e-02 0.000000000000e+00 2.000000000000e-01 3.000000033613e+01 
5.000000000000e-02 0.000000000000e+00 2.000000000000e-01 3.000000034249e+01 
6.000000000000e-02 0.000000000000e+00 2.000000000000e-01 3.000000029050e+01 
7.000000000000e-02 0.000000000000e+00 2.000000000000e-01 3.000000036533e+01 
8.000000000000e-02 0.000000000000e+00 2.000000000000e-01 3.000000033110e+01 
9.000000000000e-02 0.000000000000e+00 2.000000000000e-01 2.999999990772e+01 
1.000000000000e-01 0.000000000000e+00 2.000000000000e-01 3.000000004759e+01 
0.000000000000e+00 0.000000000000e+00 1.900000000000e-01 2.999999998878e+01 
1.000000000000e-02 0.000000000000e+00 1.900000000000e-01 3.000000002644e+01 
2.000000000000e-02 0.000000000000e+00 1.900000000000e-01 2.999999991219e+01 
3.000000000000e-02 0.000000000000e+00 1.900000000000e-01 2.999999991058e+01 
4.000000000000e-02 0.000000000000e+00 1.900000000000e-01 2.999999991690e+01 
5.000000000000e-02 0.000000000000e+00 1.900000000000e-01 2.999999989289e+01 
6.000000000000e-02 0.000000000000e+00 1.900000000000e-01 3.000000008898e+01 
7.000000000000e-02 0.000000000000e+00 1.900000000000e-01 2.999999980692e+01 
8.000000000000e-02 0.000000000000e+00 1.900000000000e-01 2.999999993495e+01 
9.000000000000e-02 0.000000000000e+00 1.900000000000e-01 3.000000001490e+01 
1.000000000000e-01 0.000000000000e+00 1.900000000000e-01 2.999999998855e+01 
0.000000000000e+00 0.000000000000e+00 1.800000000000e-01 3.000000000054e+01 
1.000000000000e-02 0.000000000000e+00 1.800000000000e-01 2.999999999106e+01 
2.000000000000e-02 0.000000000000e+00 1.800000000000e-01 3.000000001982e+01 
3.000000000000e-02 0.000000000000e+00 1.800000000000e-01 3.000000002609e+01 
4.000000000000e-02 0.000000000000e+00 1.800000000000e-01 3.000000000221e+01 
5.000000000000e-02 0.000000000000e+00 1.800000000000e-01 3.000000009279e+01 
6.000000000000e-02 0.000000000000e+00 1.800000000000e-01 2.999999935296e+01 
7.000000000000e-02 0.000000000000e+00 1.800000000000e-01 3.000000041710e+01 
8.000000000000e-02 0.000000000000e+00 1.800000000000e-01 2.999999993425e+01 
9.000000000000e-02 0.000000000000e+00 1.800000000000e-01 3.000000003473e+01 
1.000000000000e-01 0.000000000000e+00 1.800000000000e-01 3.000000000132e+01 
0.000000000000e+00 0.000000000000e+00 1.700000000000e-01 3.000000001181e+01 
1.000000000000e-02 0.000000000000e+00 1.700000000000e-01 3.000000001232e+01 
2.000000000000e-02 0.000000000000e+00 1.700000000000e-01 3.000000001046e+01 
3.000000000000e-02 0.000000000000e+00 1.700000000000e-01 2.999999998675e+01 
4.000000000000e-02 0.000000000000e+00 1.700000000000e-01 3.000000007684e+01 
5.000000000000e-02 0.000000000000e+00 1.700000000000e-01 2.999999973520e+01 
6.000000000000e-02 0.000000000000e+00 1.700000000000e-01 3.000000038861e+01 
7.000000000000e-02 0.000000000000e+00 1.700000000000e-01 2.999999969919e+01 
8.000000000000e-02 0.000000000000e+00 1.700000000000e-01 3.000000008767e+01 
9.000000000000e-02 0.000000000000e+00 1.700000000000e-01 2.999999999078e+01 
1.000000000000e-01 0.000000000000e+00 1.700000000000e-01 3.000000002276e+01 
1.000000000000e-02 0.000000000000e+00 2.600000000000e-01 2.999972489804e+01 
0.000000000000e+00 0.000000000000e+00 2.600000000000e-01 3.000013638591e+01 
2.000000000000e-02 0.000000000000e+00 2.600000000000e-01 3.000097363864e+01 
3.000000000000e-02 0.000000000000e+00 2.600000000000e-01 3.000097327588e+01 
4.000000000000e-02 0.000000000000e+00 2.600000000000e-01 3.000097337621e+01 
5.000000000000e-02 0.000000000000e+00 2.600000000000e-01 3.000097333402e+01 
6.000000000000e-02 0.000000000000e+00 2.600000000000e-01 3.000097340412e+01 
7.000000000000e-02 0.000000000000e+00 2.600000000000e-01 3.000097316447e+01 
8.000000000000e-02 0.000000000000e+00 2.600000000000e-01 3.000097406307e+01 
9.000000000000e-02 0.000000000000e+00 2.600000000000e-01 2.999972440738e+01 
1.000000000000e-01 0.000000000000e+00 2.600000000000e-01 3.000013621159e+01 
0.000000000000e+00 0.000000000000e+00 1.600000000000e-01 3.000000001013e+01 
1.000000000000e-02 0.000000000000e+00 1.600000000000e-01 3.000000001517e+01 
2.000000000000e-02 0.000000000000e+00 1.600000000000e-01 2.999999999992e+01 
3.000000000000e-02 0.000000000000e+00 1.600000000000e-01 3.000000006423e+01 
4.000000000000e-02 0.000000000000e+00 1.600000000000e-01 2.999999982198e+01 
5.000000000000e-02 0.000000000000e+00 1.600000000000e-01 3.000000073591e+01 
6.000000000000e-02 0.000000000000e+00 1.600000000000e-01 2.999999991659e+01 
7.000000000000e-02 0.000000000000e+00 1.600000000000e-01 3.000000006833e+01 
8.000000000000e-02 0.000000000000e+00 1.600000000000e-01 2.999999998041e+01 
9.000000000000e-02 0.000000000000e+00 1.600000000000e-01 3.000000000220e+01 
1.000000000000e-01 0.000000000000e+00 1.600000000000e-01 2.999999999495e+01 
12  13  2  1  
13  14  3  2  
14  15  4  3  
15  16  5  4  
16  17  6  5  
17  18  7  6  
18  19  8  7  
19  20  9  8  
20  21  10  9  
21  22  11  10  
23  24  13  12  
24  25  14  13  
25  26  15  14  
26  27  16  15  
27  28  17  16  
28  29  18  17  
29  30  19  18  
30  31  20  19  
31  32  21  20  
32  33  22  21  
34  35  24  23  
35  36  25  24  
36  37  26  25  
37  38  27  26  
38  39  28  27  
39  40  29  28  
40  41  30  29  
41  42  31  30  
42  43  32  31  
43  44  33  32  
45  46  35  34  
46  47  36  35  
47  48  37  36  
48  49  38  37  
49  50  39  38  
50  51  40  39  
51  52  41  40  
52  53  42  41  
53  54  43  42  
54  55  44  43  
56  57  46  45  
57  58  47  46  
58  59  48  47  
59  60  49  48  
60  61  50  49  
61  62  51  50  
62  63  52  51  
63  64  53  52  
64  65  54  53  
65  66  55  54  
67  68  57  56  
68  69  58  57  
69  70  59  58  
70  71  60  59  
71  72  61  60  
72  73  62  61  
73  74  63  62  
74  75  64  63  
75  76  65  64  
76  77  66  65  
78  79  68  67  
79  80  69  68  
80  81  70  69  
81  82  71  70  
82  83  72  71  
83  84  73  72  
84  85  74  73  
85  86  75  74  
86  87  76  75  
87  88  77  76  
89  90  79  78  
90  91  80  79  
91  92  81  80  
92  93  82  81  
93  94  83  82  
94  95  84  83  
95  96  85  84  
96  97  86  85  
97  98  87  86  
98  99  88  87  
1  2  100  101  
2  3  102  100  
3  4  103  102  
4  5  104  103  
5  6  105  104  
6  7  106  105  
7  8  107  106  
8  9  108  107  
9  10  109  108  
10  11  110  109  
111  112  90  89  
112  113  91  90  
113  114  92  91  
114  115  93  92  
115  116  94  93  
116  117  95  94  
117  118  96  95  
118  119  97  96  
119  120  98  97  
120  121  99  98  
VARIABLES  = "X","Y","Z", "TEMPERATURE1"
ZONE T="7.000000000000e-02s", N=121, E=100, F=FEPOINT, ET=QUADRILATERAL
STRANDID=1, SOLUTIONTIME=7.000000000000e-02
0.000000000000e+00 0.000000000000e+00 2.500000000000e-01 2.999998133323e+01 
1.000000000000e-02 0.000000000000e+00 2.500000000000e-01 3.000003843349e+01 
2.000000000000e-02 0.000000000000e+00 2.500000000000e-01 2.999986086892e+01 
3.000000000000e-02 0.000000000000e+00 2.500000000000e-01 2.999986352930e+01 
4.000000000000e-02 0.000000000000e+00 2.500000000000e-01 2.999986284041e+01 
5.000000000000e-02 0.000000000000e+00 2.500000000000e-01 2.999986305045e+01 
6.000000000000e-02 0.000000000000e+00 2.500000000000e-01 2.999986286583e+01 
7.000000000000e-02 0.000000000000e+00 2.500000000000e-01 2.999986342263e+01 
8.000000000000e-02 0.000000000000e+00 2.500000000000e-01 2.999986129563e+01 
9.000000000000e-02 0.000000000000e+00 2.500000000000e-01 3.000003862570e+01 
1.000000000000e-01 0.000000000000e+00 2.500000000000e-01 2.999998134948e+01 
0.000000000000e+00 0.000000000000e+00 2.400000000000e-01 3.000000464152e+01 
1.000000000000e-02 0.000000000000e+00 2.400000000000e-01 2.999999048923e+01 
2.000000000000e-02 0.000000000000e+00 2.400000000000e-01 3.000003422627e+01 
3.000000000000e-02 0.000000000000e+00 2.400000000000e-01 3.000003348333e+01 
4.000000000000e-02 0.000000000000e+00 2.400000000000e-01 3.000003367609e+01 
5.000000000000e-02 0.000000000000e+00 2.400000000000e-01 3.000003361731e+01 
6.000000000000e-02 0.000000000000e+00 2.400000000000e-01 3.000003366840e+01 
7.000000000000e-02 0.000000000000e+00 2.400000000000e-01 3.000003351489e+01 
8.000000000000e-02 0.000000000000e+00 2.400000000000e-01 3.000003410209e+01 
9.000000000000e-02 0.000000000000e+00 2.400000000000e-01 2.999999044847e+01 
1.000000000000e-01 0.000000000000e+00 2.400000000000e-01 3.000000462659e+01 
0.000000000000e+00 0.000000000000e+00 2.300000000000e-01 2.999999884886e+01 
1.000000000000e-02 0.000000000000e+00 2.300000000000e-01 3.000000235118e+01 
2.000000000000e-02 0.000000000000e+00 2.300000000000e-01 2.999999159534e+01 
3.000000000000e-02 0.000000000000e+00 2.300000000000e-01 2.999999180065e+01 
4.000000000000e-02 0.000000000000e+00 2.300000000000e-01 2.999999174724e+01 
5.000000000000e-02 0.000000000000e+00 2.300000000000e-01 2.999999176356e+01 
6.000000000000e-02 0.000000000000e+00 2.300000000000e-01 2.999999174992e+01 
7.000000000000e-02 0.000000000000e+00 2.300000000000e-01 2.999999179239e+01 
8.000000000000e-02 0.000000000000e+00 2.300000000000e-01 2.999999162531e+01 
9.000000000000e-02 0.000000000000e+00 2.300000000000e-01 3.000000236157e+01 
1.000000000000e-01 0.000000000000e+00 2.300000000000e-01 2.999999885183e+01 
0.000000000000e+00 0.000000000000e+00 2.200000000000e-01 3.000000028658e+01 
1.000000000000e-02 0.000000000000e+00 2.200000000000e-01 2.999999942059e+01 
2.000000000000e-02 0.000000000000e+00 2.200000000000e-01 3.000000206157e+01 
3.000000000000e-02 0.000000000000e+00 2.200000000000e-01 3.000000200523e+01 
4.000000000000e-02 0.000000000000e+00 2.200000000000e-01 3.000000201984e+01 
5.000000000000e-02 0.000000000000e+00 2.200000000000e-01 3.000000201566e+01 
6.000000000000e-02 0.000000000000e+00 2.200000000000e-01 3.000000201593e+01 
7.000000000000e-02 0.000000000000e+00 2.200000000000e-01 3.000000200937e+01 
8.000000000000e-02 0.000000000000e+00 2.200000000000e-01 3.000000205366e+01 
9.000000000000e-02 0.000000000000e+00 2.200000000000e-01 2.999999941824e+01 
1.000000000000e-01 0.000000000000e+00 2.200000000000e-01 3.000000028588e+01 
0.000000000000e+00 0.000000000000e+00 2.100000000000e-01 2.999999993033e+01 
1.000000000000e-02 0.000000000000e+00 2.100000000000e-01 3.000000014354e+01 
2.000000000000e-02 0.000000000000e+00 2.100000000000e-01 2.999999949681e+01 
3.000000000000e-02 0.000000000000e+00 2.100000000000e-01 2.999999951200e+01 
4.000000000000e-02 0.000000000000e+00 2.100000000000e-01 2.999999950832e+01 
5.000000000000e-02 0.000000000000e+00 2.100000000000e-01 2.999999950812e+01 
6.000000000000e-02 0.000000000000e+00 2.100000000000e-01 2.999999952227e+01 
7.000000000000e-02 0.000000000000e+00 2.100000000000e-01 2.999999950270e+01 
8.000000000000e-02 0.000000000000e+00 2.100000000000e-01 2.999999950042e+01 
9.000000000000e-02 0.000000000000e+00 2.100000000000e-01 3.000000014323e+01 
1.000000000000e-01 0.000000000000e+00 2.100000000000e-01 2.999999993038e+01 
0.000000000000e+00 0.000000000000e+00 2.000000000000e-01 3.000000001816e+01 
1.000000000000e-02 0.000000000000e+00 2.000000000000e-01 2.999999996524e+01 
2.000000000000e-02 0.000000000000e+00 2.000000000000e-01 3.000000012365e+01 
3.000000000000e-02 0.000000000000e+00 2.000000000000e-01 3.000000011974e+01 
4.000000000000e-02 0.000000000000e+00 2.000000000000e-01 3.000000011955e+01 
5.000000000000e-02 0.000000000000e+00 2.000000000000e-01 3.000000012490e+01 
6.000000000000e-02 0.000000000000e+00 2.000000000000e-01 3.000000006402e+01 
7.000000000000e-02 0.000000000000e+00 2.000000000000e-01 3.000000015510e+01 
8.000000000000e-02 0.000000000000e+00 2.000000000000e-01 3.000000011615e+01 
9.000000000000e-02 0.000000000000e+00 2.000000000000e-01 2.999999996875e+01 
1.000000000000e-01 0.000000000000e+00 2.000000000000e-01 3.000000001859e+01 
0.000000000000e+00 0.000000000000e+00 1.900000000000e-01 2.999999999778e+01 
1.000000000000e-02 0.000000000000e+00 1.900000000000e-01 3.000000001022e+01 
2.000000000000e-02 0.000000000000e+00 1.900000000000e-01 2.999999997228e+01 
3.000000000000e-02 0.000000000000e+00 1.900000000000e-01 2.999999997222e+01 
4.000000000000e-02 0.000000000000e+00 1.900000000000e-01 2.999999997692e+01 
5.000000000000e-02 0.000000000000e+00 1.900000000000e-01 2.999999995455e+01 
6.000000000000e-02 0.000000000000e+00 1.900000000000e-01 3.000000019961e+01 
7.000000000000e-02 0.000000000000e+00 1.900000000000e-01 2.999999983093e+01 
8.000000000000e-02 0.000000000000e+00 1.900000000000e-01 3.000000000095e+01 
9.000000000000e-02 0.000000000000e+00 1.900000000000e-01 2.999999999557e+01 
1.000000000000e-01 0.000000000000e+00 1.900000000000e-01 2.999999999640e+01 
0.000000000000e+00 0.000000000000e+00 1.800000000000e-01 2.999999999755e+01 
1.000000000000e-02 0.000000000000e+00 1.800000000000e-01 2.999999999446e+01 
2.000000000000e-02 0.000000000000e+00 1.800000000000e-01 3.000000000308e+01 
3.000000000000e-02 0.000000000000e+00 1.800000000000e-01 3.000000000701e+01 
4.000000000000e-02 0.000000000000e+00 1.800000000000e-01 2.999999998750e+01 
5.000000000000e-02 0.000000000000e+00 1.800000000000e-01 3.000000007609e+01 
6.000000000000e-02 0.000000000000e+00 1.800000000000e-01 2.999999909458e+01 
7.000000000000e-02 0.000000000000e+00 1.800000000000e-01 3.000000057258e+01 
8.000000000000e-02 0.000000000000e+00 1.800000000000e-01 2.999999988754e+01 
9.000000000000e-02 0.000000000000e+00 1.800000000000e-01 3.000000005277e+01 
1.000000000000e-01 0.000000000000e+00 1.800000000000e-01 3.000000000133e+01 
0.000000000000e+00 0.000000000000e+00 1.700000000000e-01 3.000000001864e+01 
1.000000000000e-02 0.000000000000e+00 1.700000000000e-01 3.000000001746e+01 
2.000000000000e-02 0.000000000000e+00 1.700000000000e-01 3.000000001930e+01 
3.000000000000e-02 0.000000000000e+00 1.700000000000e-01 2.999999999945e+01 
4.000000000000e-02 0.000000000000e+00 1.700000000000e-01 3.000000008982e+01 
5.000000000000e-02 0.000000000000e+00 1.700000000000e-01 2.999999968580e+01 
6.000000000000e-02 0.000000000000e+00 1.700000000000e-01 3.000000049281e+01 
7.000000000000e-02 0.000000000000e+00 1.700000000000e-01 2.999999956459e+01 
8.000000000000e-02 0.000000000000e+00 1.700000000000e-01 3.000000013228e+01 