VARIABLES  = "X","Y","Z", "TEMPERATURE1"
ZONE T="0.000000000000e+00s", N=121, E=99, F=FEPOINT, ET=QUADRILATERAL
STRANDID=1, SOLUTIONTIME=0.000000000000e+00
9.000000000000e-02 0.000000000000e+00 1.700000000000e-01 3.000000000000e+01 
1.000000000000e-01 0.000000000000e+00 1.700000000000e-01 3.000000000000e+01 
0.000000000000e+00 0.000000000000e+00 1.600000000000e-01 3.000000000000e+01 
1.000000000000e-02 0.000000000000e+00 1.600000000000e-01 3.000000000000e+01 
2.000000000000e-02 0.000000000000e+00 1.600000000000e-01 3.000000000000e+01 
3.000000000000e-02 0.000000000000e+00 1.600000000000e-01 3.000000000000e+01 
4.000000000000e-02 0.000000000000e+00 1.600000000000e-01 3.000000000000e+01 
5.000000000000e-02 0.000000000000e+00 1.600000000000e-01 3.000000000000e+01 
6.000000000000e-02 0.000000000000e+00 1.600000000000e-01 3.000000000000e+01 
7.000000000000e-02 0.000000000000e+00 1.600000000000e-01 3.000000000000e+01 
8.000000000000e-02 0.000000000000e+00 1.600000000000e-01 3.000000000000e+01 
9.000000000000e-02 0.000000000000e+00 1.600000000000e-01 3.000000000000e+01 
1.000000000000e-01 0.000000000000e+00 1.600000000000e-01 3.000000000000e+01 
0.000000000000e+00 0.000000000000e+00 1.500000000000e-01 3.000000000000e+01 
1.000000000000e-02 0.000000000000e+00 1.500000000000e-01 3.000000000000e+01 
2.000000000000e-02 0.000000000000e+00 1.500000000000e-01 3.000000000000e+01 
3.000000000000e-02 0.000000000000e+00 1.500000000000e-01 3.000000000000e+01 
4.000000000000e-02 0.000000000000e+00 1.500000000000e-01 3.000000000000e+01 
5.000000000000e-02 0.000000000000e+00 1.500000000000e-01 3.000000000000e+01 
6.000000000000e-02 0.000000000000e+00 1.500000000000e-01 3.000000000000e+01 
7.000000000000e-02 0.000000000000e+00 1.500000000000e-01 3.000000000000e+01 
8.000000000000e-02 0.000000000000e+00 1.500000000000e-01 3.000000000000e+01 
9.000000000000e-02 0.000000000000e+00 1.500000000000e-01 3.000000000000e+01 
1.000000000000e-01 0.000000000000e+00 1.500000000000e-01 3.000000000000e+01 
0.000000000000e+00 0.000000000000e+00 1.400000000000e-01 3.000000000000e+01 
1.000000000000e-02 0.000000000000e+00 1.400000000000e-01 3.000000000000e+01 
2.000000000000e-02 0.000000000000e+00 1.400000000000e-01 3.000000000000e+01 
3.000000000000e-02 0.000000000000e+00 1.400000000000e-01 3.000000000000e+01 
4.000000000000e-02 0.000000000000e+00 1.400000000000e-01 3.000000000000e+01 
5.000000000000e-02 0.000000000000e+00 1.400000000000e-01 3.000000000000e+01 
6.000000000000e-02 0.000000000000e+00 1.400000000000e-01 3.000000000000e+01 
7.000000000000e-02 0.000000000000e+00 1.400000000000e-01 3.000000000000e+01 
8.000000000000e-02 0.000000000000e+00 1.400000000000e-01 3.000000000000e+01 
9.000000000000e-02 0.000000000000e+00 1.400000000000e-01 3.000000000000e+01 
1.000000000000e-01 0.000000000000e+00 1.400000000000e-01 3.000000000000e+01 
0.000000000000e+00 0.000000000000e+00 1.300000000000e-01 3.000000000000e+01 
1.000000000000e-02 0.000000000000e+00 1.300000000000e-01 3.000000000000e+01 
2.000000000000e-02 0.000000000000e+00 1.300000000000e-01 3.000000000000e+01 
3.000000000000e-02 0.000000000000e+00 1.300000000000e-01 3.000000000000e+01 
4.000000000000e-02 0.000000000000e+00 1.300000000000e-01 3.000000000000e+01 
5.000000000000e-02 0.000000000000e+00 1.300000000000e-01 3.000000000000e+01 
6.000000000000e-02 0.000000000000e+00 1.300000000000e-01 3.000000000000e+01 
7.000000000000e-02 0.000000000000e+00 1.300000000000e-01 3.000000000000e+01 
8.000000000000e-02 0.000000000000e+00 1.300000000000e-01 3.000000000000e+01 
9.000000000000e-02 0.000000000000e+00 1.300000000000e-01 3.000000000000e+01 
1.000000000000e-01 0.000000000000e+00 1.300000000000e-01 3.000000000000e+01 
0.000000000000e+00 0.000000000000e+00 1.200000000000e-01 3.000000000000e+01 
1.000000000000e-02 0.000000000000e+00 1.200000000000e-01 3.000000000000e+01 
2.000000000000e-02 0.000000000000e+00 1.200000000000e-01 3.000000000000e+01 
3.000000000000e-02 0.000000000000e+00 1.200000000000e-01 3.000000000000e+01 
4.000000000000e-02 0.000000000000e+00 1.200000000000e-01 3.000000000000e+01 
5.000000000000e-02 0.000000000000e+00 1.200000000000e-01 3.000000000000e+01 
6.000000000000e-02 0.000000000000e+00 1.200000000000e-01 3.000000000000e+01 
7.000000000000e-02 0.000000000000e+00 1.200000000000e-01 3.000000000000e+01 
8.000000000000e-02 0.000000000000e+00 1.200000000000e-01 3.000000000000e+01 
9.000000000000e-02 0.000000000000e+00 1.200000000000e-01 3.000000000000e+01 
1.000000000000e-01 0.000000000000e+00 1.200000000000e-01 3.000000000000e+01 
0.000000000000e+00 0.000000000000e+00 1.100000000000e-01 3.000000000000e+01 
1.000000000000e-02 0.000000000000e+00 1.100000000000e-01 3.000000000000e+01 
2.000000000000e-02 0.000000000000e+00 1.100000000000e-01 3.000000000000e+01 
3.000000000000e-02 0.000000000000e+00 1.100000000000e-01 3.000000000000e+01 
4.000000000000e-02 0.000000000000e+00 1.100000000000e-01 3.000000000000e+01 
5.000000000000e-02 0.000000000000e+00 1.100000000000e-01 3.000000000000e+01 
6.000000000000e-02 0.000000000000e+00 1.100000000000e-01 3.000000000000e+01 
7.000000000000e-02 0.000000000000e+00 1.100000000000e-01 3.000000000000e+01 
8.000000000000e-02 0.000000000000e+00 1.100000000000e-01 3.000000000000e+01 
9.000000000000e-02 0.000000000000e+00 1.100000000000e-01 3.000000000000e+01 
1.000000000000e-01 0.000000000000e+00 1.100000000000e-01 3.000000000000e+01 
0.000000000000e+00 0.000000000000e+00 1.000000000000e-01 3.000000000000e+01 
1.000000000000e-02 0.000000000000e+00 1.000000000000e-01 3.000000000000e+01 
2.000000000000e-02 0.000000000000e+00 1.000000000000e-01 3.000000000000e+01 
3.000000000000e-02 0.000000000000e+00 1.000000000000e-01 3.000000000000e+01 
4.000000000000e-02 0.000000000000e+00 1.000000000000e-01 3.000000000000e+01 
5.000000000000e-02 0.000000000000e+00 1.000000000000e-01 3.000000000000e+01 
6.000000000000e-02 0.000000000000e+00 1.000000000000e-01 3.000000000000e+01 
7.000000000000e-02 0.000000000000e+00 1.000000000000e-01 3.000000000000e+01 
8.000000000000e-02 0.000000000000e+00 1.000000000000e-01 3.000000000000e+01 
9.000000000000e-02 0.000000000000e+00 1.000000000000e-01 3.000000000000e+01 
1.000000000000e-01 0.000000000000e+00 1.000000000000e-01 3.000000000000e+01 
0.000000000000e+00 0.000000000000e+00 9.000000000000e-02 3.000000000000e+01 
1.000000000000e-02 0.000000000000e+00 9.000000000000e-02 3.000000000000e+01 
2.000000000000e-02 0.000000000000e+00 9.000000000000e-02 3.000000000000e+01 
3.000000000000e-02 0.000000000000e+00 9.000000000000e-02 3.000000000000e+01 
4.000000000000e-02 0.000000000000e+00 9.000000000000e-02 3.000000000000e+01 
5.000000000000e-02 0.000000000000e+00 9.000000000000e-02 3.000000000000e+01 
6.000000000000e-02 0.000000000000e+00 9.000000000000e-02 3.000000000000e+01 
7.000000000000e-02 0.000000000000e+00 9.000000000000e-02 3.000000000000e+01 
8.000000000000e-02 0.000000000000e+00 9.000000000000e-02 3.000000000000e+01 
9.000000000000e-02 0.000000000000e+00 9.000000000000e-02 3.000000000000e+01 
1.000000000000e-01 0.000000000000e+00 9.000000000000e-02 3.000000000000e+01 
0.000000000000e+00 0.000000000000e+00 8.000000000000e-02 3.000000000000e+01 
1.000000000000e-02 0.000000000000e+00 8.000000000000e-02 3.000000000000e+01 
2.000000000000e-02 0.000000000000e+00 8.000000000000e-02 3.000000000000e+01 
3.000000000000e-02 0.000000000000e+00 8.000000000000e-02 3.000000000000e+01 
4.000000000000e-02 0.000000000000e+00 8.000000000000e-02 3.000000000000e+01 
5.000000000000e-02 0.000000000000e+00 8.000000000000e-02 3.000000000000e+01 
6.000000000000e-02 0.000000000000e+00 8.000000000000e-02 3.000000000000e+01 
8.000000000000e-02 0.000000000000e+00 1.700000000000e-01 3.000000000000e+01 
9.000000000000e-02 0.000000000000e+00 1.800000000000e-01 3.000000000000e+01 
8.000000000000e-02 0.000000000000e+00 1.800000000000e-01 3.000000000000e+01 
1.000000000000e-01 0.000000000000e+00 1.800000000000e-01 3.000000000000e+01 
1.000000000000e-02 0.000000000000e+00 1.700000000000e-01 3.000000000000e+01 
0.000000000000e+00 0.000000000000e+00 1.700000000000e-01 3.000000000000e+01 
2.000000000000e-02 0.000000000000e+00 1.700000000000e-01 3.000000000000e+01 
3.000000000000e-02 0.000000000000e+00 1.700000000000e-01 3.000000000000e+01 
4.000000000000e-02 0.000000000000e+00 1.700000000000e-01 3.000000000000e+01 
5.000000000000e-02 0.000000000000e+00 1.700000000000e-01 3.000000000000e+01 
6.000000000000e-02 0.000000000000e+00 1.700000000000e-01 3.000000000000e+01 
7.000000000000e-02 0.000000000000e+00 1.700000000000e-01 3.000000000000e+01 
7.000000000000e-02 0.000000000000e+00 8.000000000000e-02 3.000000000000e+01 
8.000000000000e-02 0.000000000000e+00 8.000000000000e-02 3.000000000000e+01 
9.000000000000e-02 0.000000000000e+00 8.000000000000e-02 3.000000000000e+01 
1.000000000000e-01 0.000000000000e+00 8.000000000000e-02 3.000000000000e+01 
0.000000000000e+00 0.000000000000e+00 7.000000000000e-02 3.000000000000e+01 
1.000000000000e-02 0.000000000000e+00 7.000000000000e-02 3.000000000000e+01 
2.000000000000e-02 0.000000000000e+00 7.000000000000e-02 3.000000000000e+01 
3.000000000000e-02 0.000000000000e+00 7.000000000000e-02 3.000000000000e+01 
4.000000000000e-02 0.000000000000e+00 7.000000000000e-02 3.000000000000e+01 
5.000000000000e-02 0.000000000000e+00 7.000000000000e-02 3.000000000000e+01 
6.000000000000e-02 0.000000000000e+00 7.000000000000e-02 3.000000000000e+01 
7.000000000000e-02 0.000000000000e+00 7.000000000000e-02 3.000000000000e+01 
12  13  2  1  
14  15  4  3  
15  16  5  4  
16  17  6  5  
17  18  7  6  
18  19  8  7  
19  20  9  8  
20  21  10  9  
21  22  11  10  
22  23  12  11  
23  24  13  12  
25  26  15  14  
26  27  16  15  
27  28  17  16  
28  29  18  17  
29  30  19  18  
30  31  20  19  
31  32  21  20  
32  33  22  21  
33  34  23  22  
34  35  24  23  
36  37  26  25  
37  38  27  26  
38  39  28  27  
39  40  29  28  
40  41  30  29  
41  42  31  30  
42  43  32  31  
43  44  33  32  
44  45  34  33  
45  46  35  34  
47  48  37  36  
48  49  38  37  
49  50  39  38  
50  51  40  39  
51  52  41  40  
52  53  42  41  
53  54  43  42  
54  55  44  43  
55  56  45  44  
56  57  46  45  
58  59  48  47  
59  60  49  48  
60  61  50  49  
61  62  51  50  
62  63  52  51  
63  64  53  52  
64  65  54  53  
65  66  55  54  
66  67  56  55  
67  68  57  56  
69  70  59  58  
70  71  60  59  
71  72  61  60  
72  73  62  61  
73  74  63  62  
74  75  64  63  
75  76  65  64  
76  77  66  65  
77  78  67  66  
78  79  68  67  
80  81  70  69  
81  82  71  70  
82  83  72  71  
83  84  73  72  
84  85  74  73  
85  86  75  74  
86  87  76  75  
87  88  77  76  
88  89  78  77  
89  90  79  78  
91  92  81  80  
92  93  82  81  
93  94  83  82  
94  95  84  83  
95  96  85  84  
96  97  86  85  
98  1  99  100  
1  2  101  99  
11  12  1  98  
3  4  102  103  
4  5  104  102  
5  6  105  104  
6  7  106  105  
7  8  107  106  
8  9  108  107  
9  10  109  108  
10  11  98  109  
97  110  87  86  
110  111  88  87  
111  112  89  88  
112  113  90  89  
114  115  92  91  
115  116  93  92  
116  117  94  93  
117  118  95  94  
118  119  96  95  
119  120  97  96  
120  121  110  97  
VARIABLES  = "X","Y","Z", "TEMPERATURE1"
ZONE T="1.000000000000e-02s", N=121, E=99, F=FEPOINT, ET=QUADRILATERAL
STRANDID=1, SOLUTIONTIME=1.000000000000e-02
9.000000000000e-02 0.000000000000e+00 1.700000000000e-01 3.000001125609e+01 
1.000000000000e-01 0.000000000000e+00 1.700000000000e-01 2.999995840892e+01 
0.000000000000e+00 0.000000000000e+00 1.600000000000e-01 3.000000082995e+01 
1.000000000000e-02 0.000000000000e+00 1.600000000000e-01 3.000000068828e+01 
2.000000000000e-02 0.000000000000e+00 1.600000000000e-01 3.000000111859e+01 
3.000000000000e-02 0.000000000000e+00 1.600000000000e-01 2.999999953110e+01 
4.000000000000e-02 0.000000000000e+00 1.600000000000e-01 3.000000551217e+01 
5.000000000000e-02 0.000000000000e+00 1.600000000000e-01 2.999998295126e+01 
6.000000000000e-02 0.000000000000e+00 1.600000000000e-01 3.000001616253e+01 
7.000000000000e-02 0.000000000000e+00 1.600000000000e-01 2.999998430115e+01 
8.000000000000e-02 0.000000000000e+00 1.600000000000e-01 2.999999492532e+01 
9.000000000000e-02 0.000000000000e+00 1.600000000000e-01 2.999998390408e+01 
1.000000000000e-01 0.000000000000e+00 1.600000000000e-01 3.000001102403e+01 
0.000000000000e+00 0.000000000000e+00 1.500000000000e-01 2.999999978018e+01 
1.000000000000e-02 0.000000000000e+00 1.500000000000e-01 2.999999981777e+01 
2.000000000000e-02 0.000000000000e+00 1.500000000000e-01 2.999999970359e+01 
3.000000000000e-02 0.000000000000e+00 1.500000000000e-01 3.000000012450e+01 
4.000000000000e-02 0.000000000000e+00 1.500000000000e-01 2.999999853893e+01 
5.000000000000e-02 0.000000000000e+00 1.500000000000e-01 3.000000451886e+01 
6.000000000000e-02 0.000000000000e+00 1.500000000000e-01 2.999999571608e+01 
7.000000000000e-02 0.000000000000e+00 1.500000000000e-01 3.000000416134e+01 
8.000000000000e-02 0.000000000000e+00 1.500000000000e-01 3.000000134500e+01 
9.000000000000e-02 0.000000000000e+00 1.500000000000e-01 3.000000426649e+01 
1.000000000000e-01 0.000000000000e+00 1.500000000000e-01 2.999999707834e+01 
0.000000000000e+00 0.000000000000e+00 1.400000000000e-01 3.000000005855e+01 
1.000000000000e-02 0.000000000000e+00 1.400000000000e-01 3.000000004872e+01 
2.000000000000e-02 0.000000000000e+00 1.400000000000e-01 3.000000007890e+01 
3.000000000000e-02 0.000000000000e+00 1.400000000000e-01 2.999999996730e+01 
4.000000000000e-02 0.000000000000e+00 1.400000000000e-01 3.000000038768e+01 
5.000000000000e-02 0.000000000000e+00 1.400000000000e-01 2.999999880250e+01 
6.000000000000e-02 0.000000000000e+00 1.400000000000e-01 3.000000113630e+01 
7.000000000000e-02 0.000000000000e+00 1.400000000000e-01 2.999999889615e+01 
8.000000000000e-02 0.000000000000e+00 1.400000000000e-01 2.999999964251e+01 
9.000000000000e-02 0.000000000000e+00 1.400000000000e-01 2.999999886852e+01 
1.000000000000e-01 0.000000000000e+00 1.400000000000e-01 3.000000077348e+01 
0.000000000000e+00 0.000000000000e+00 1.300000000000e-01 2.999999998361e+01 
1.000000000000e-02 0.000000000000e+00 1.300000000000e-01 2.999999998633e+01 
2.000000000000e-02 0.000000000000e+00 1.300000000000e-01 2.999999997822e+01 
3.000000000000e-02 0.000000000000e+00 1.300000000000e-01 3.000000000787e+01 
4.000000000000e-02 0.000000000000e+00 1.300000000000e-01 2.999999989626e+01 
5.000000000000e-02 0.000000000000e+00 1.300000000000e-01 3.000000031705e+01 
6.000000000000e-02 0.000000000000e+00 1.300000000000e-01 2.999999969611e+01 
7.000000000000e-02 0.000000000000e+00 1.300000000000e-01 3.000000029647e+01 
8.000000000000e-02 0.000000000000e+00 1.300000000000e-01 3.000000009939e+01 
9.000000000000e-02 0.000000000000e+00 1.300000000000e-01 3.000000030339e+01 
1.000000000000e-01 0.000000000000e+00 1.300000000000e-01 2.999999979877e+01 
0.000000000000e+00 0.000000000000e+00 1.200000000000e-01 3.000000000801e+01 
1.000000000000e-02 0.000000000000e+00 1.200000000000e-01 3.000000000739e+01 
2.000000000000e-02 0.000000000000e+00 1.200000000000e-01 3.000000000948e+01 
3.000000000000e-02 0.000000000000e+00 1.200000000000e-01 3.000000000147e+01 
4.000000000000e-02 0.000000000000e+00 1.200000000000e-01 3.000000003169e+01 
5.000000000000e-02 0.000000000000e+00 1.200000000000e-01 2.999999991778e+01 
6.000000000000e-02 0.000000000000e+00 1.200000000000e-01 3.000000009131e+01 
7.000000000000e-02 0.000000000000e+00 1.200000000000e-01 2.999999990726e+01 
8.000000000000e-02 0.000000000000e+00 1.200000000000e-01 2.999999995645e+01 
9.000000000000e-02 0.000000000000e+00 1.200000000000e-01 2.999999990727e+01 
1.000000000000e-01 0.000000000000e+00 1.200000000000e-01 3.000000003934e+01 
0.000000000000e+00 0.000000000000e+00 1.100000000000e-01 2.999999998437e+01 
1.000000000000e-02 0.000000000000e+00 1.100000000000e-01 2.999999998471e+01 
2.000000000000e-02 0.000000000000e+00 1.100000000000e-01 2.999999998390e+01 
3.000000000000e-02 0.000000000000e+00 1.100000000000e-01 2.999999998667e+01 
4.000000000000e-02 0.000000000000e+00 1.100000000000e-01 2.999999997627e+01 
5.000000000000e-02 0.000000000000e+00 1.100000000000e-01 3.000000001544e+01 
6.000000000000e-02 0.000000000000e+00 1.100000000000e-01 2.999999993568e+01 
7.000000000000e-02 0.000000000000e+00 1.100000000000e-01 3.000000007857e+01 
8.000000000000e-02 0.000000000000e+00 1.100000000000e-01 3.000000007690e+01 
9.000000000000e-02 0.000000000000e+00 1.100000000000e-01 3.000000007198e+01 
1.000000000000e-01 0.000000000000e+00 1.100000000000e-01 3.000000004273e+01 
0.000000000000e+00 0.000000000000e+00 1.000000000000e-01 3.000000005544e+01 
1.000000000000e-02 0.000000000000e+00 1.000000000000e-01 3.000000005526e+01 
2.000000000000e-02 0.000000000000e+00 1.000000000000e-01 3.000000005599e+01 
3.000000000000e-02 0.000000000000e+00 1.000000000000e-01 3.000000005288e+01 
4.000000000000e-02 0.000000000000e+00 1.000000000000e-01 3.000000006464e+01 
5.000000000000e-02 0.000000000000e+00 1.000000000000e-01 3.000000002039e+01 
6.000000000000e-02 0.000000000000e+00 1.000000000000e-01 3.000000016893e+01 
7.000000000000e-02 0.000000000000e+00 1.000000000000e-01 2.999999977603e+01 
8.000000000000e-02 0.000000000000e+00 1.000000000000e-01 2.999999973346e+01 
9.000000000000e-02 0.000000000000e+00 1.000000000000e-01 2.999999980288e+01 
1.000000000000e-01 0.000000000000e+00 1.000000000000e-01 2.999999978833e+01 
0.000000000000e+00 0.000000000000e+00 9.000000000000e-02 2.999999979207e+01 
1.000000000000e-02 0.000000000000e+00 9.000000000000e-02 2.999999979306e+01 
2.000000000000e-02 0.000000000000e+00 9.000000000000e-02 2.999999979037e+01 
3.000000000000e-02 0.000000000000e+00 9.000000000000e-02 2.999999980024e+01 
4.000000000000e-02 0.000000000000e+00 9.000000000000e-02 2.999999976317e+01 
5.000000000000e-02 0.000000000000e+00 9.000000000000e-02 2.999999990266e+01 
6.000000000000e-02 0.000000000000e+00 9.000000000000e-02 2.999999938261e+01 
7.000000000000e-02 0.000000000000e+00 9.000000000000e-02 3.000000082639e+01 
8.000000000000e-02 0.000000000000e+00 9.000000000000e-02 3.000000099975e+01 
9.000000000000e-02 0.000000000000e+00 9.000000000000e-02 3.000000072524e+01 
1.000000000000e-01 0.000000000000e+00 9.000000000000e-02 3.000000081274e+01 
0.000000000000e+00 0.000000000000e+00 8.000000000000e-02 3.000000078462e+01 
1.000000000000e-02 0.000000000000e+00 8.000000000000e-02 3.000000078126e+01 
2.000000000000e-02 0.000000000000e+00 8.000000000000e-02 3.000000079121e+01 
3.000000000000e-02 0.000000000000e+00 8.000000000000e-02 3.000000075451e+01 
4.000000000000e-02 0.000000000000e+00 8.000000000000e-02 3.000000089241e+01 
5.000000000000e-02 0.000000000000e+00 8.000000000000e-02 3.000000037348e+01 
6.000000000000e-02 0.000000000000e+00 8.000000000000e-02 3.000000232480e+01 
8.000000000000e-02 0.000000000000e+00 1.700000000000e-01 3.000000682421e+01 
9.000000000000e-02 0.000000000000e+00 1.800000000000e-01 2.999998389805e+01 
8.000000000000e-02 0.000000000000e+00 1.800000000000e-01 2.999999494718e+01 
1.000000000000e-01 0.000000000000e+00 1.800000000000e-01 3.000000438103e+01 
1.000000000000e-02 0.000000000000e+00 1.700000000000e-01 3.000000088709e+01 
0.000000000000e+00 0.000000000000e+00 1.700000000000e-01 3.000000073165e+01 
2.000000000000e-02 0.000000000000e+00 1.700000000000e-01 3.000000041484e+01 
3.000000000000e-02 0.000000000000e+00 1.700000000000e-01 3.000000213585e+01 
4.000000000000e-02 0.000000000000e+00 1.700000000000e-01 2.999999565299e+01 
5.000000000000e-02 0.000000000000e+00 1.700000000000e-01 3.000002010018e+01 
6.000000000000e-02 0.000000000000e+00 1.700000000000e-01 2.999996342705e+01 
7.000000000000e-02 0.000000000000e+00 1.700000000000e-01 3.000002257271e+01 
7.000000000000e-02 0.000000000000e+00 8.000000000000e-02 3.000000169293e+01 
8.000000000000e-02 0.000000000000e+00 8.000000000000e-02 3.000000007926e+01 
9.000000000000e-02 0.000000000000e+00 8.000000000000e-02 3.000000098237e+01 
1.000000000000e-01 0.000000000000e+00 8.000000000000e-02 3.000000068483e+01 
0.000000000000e+00 0.000000000000e+00 7.000000000000e-02 3.000000078390e+01 
1.000000000000e-02 0.000000000000e+00 7.000000000000e-02 3.000000078204e+01 
2.000000000000e-02 0.000000000000e+00 7.000000000000e-02 3.000000078769e+01 
3.000000000000e-02 0.000000000000e+00 7.000000000000e-02 3.000000076699e+01 
4.000000000000e-02 0.000000000000e+00 7.000000000000e-02 3.000000084477e+01 
5.000000000000e-02 0.000000000000e+00 7.000000000000e-02 3.000000055200e+01 
6.000000000000e-02 0.000000000000e+00 7.000000000000e-02 3.000000165626e+01 
7.000000000000e-02 0.000000000000e+00 7.000000000000e-02 2.999999952749e+01 
12  13  2  1  
14  15  4  3  
15  16  5  4  
16  17  6  5  
17  18  7  6  
18  19  8  7  
19  20  9  8  
20  21  10  9  
21  22  11  10  
22  23  12  11  
23  24  13  12  
25  26  15  14  
26  27  16  15  
27  28  17  16  
28  29  18  17  
29  30  19  18  
30  31  20  19  
31  32  21  20  
32  33  22  21  
33  34  23  22  
34  35  24  23  
36  37  26  25  
37  38  27  26  
38  39  28  27  
39  40  29  28  
40  41  30  29  
41  42  31  30  
42  43  32  31  
43  44  33  32  
44  45  34  33  
45  46  35  34  
47  48  37  36  
48  49  38  37  
49  50  39  38  
50  51  40  39  
51  52  41  40  
52  53  42  41  
53  54  43  42  
54  55  44  43  
55  56  45  44  
56  57  46  45  
58  59  48  47  
59  60  49  48  
60  61  50  49  
61  62  51  50  
62  63  52  51  
63  64  53  52  
64  65  54  53  
65  66  55  54  
66  67  56  55  
67  68  57  56  
69  70  59  58  
70  71  60  59  
71  72  61  60  
72  73  62  61  
73  74  63  62  
74  75  64  63  
75  76  65  64  
76  77  66  65  
77  78  67  66  
78  79  68  67  
80  81  70  69  
81  82  71  70  
82  83  72  71  
83  84  73  72  
84  85  74  73  
85  86  75  74  
86  87  76  75  
87  88  77  76  
88  89  78  77  
89  90  79  78  
91  92  81  80  
92  93  82  81  
93  94  83  82  
94  95  84  83  
95  96  85  84  
96  97  86  85  
98  1  99  100  
1  2  101  99  
11  12  1  98  
3  4  102  103  
4  5  104  102  
5  6  105  104  
6  7  106  105  
7  8  107  106  
8  9  108  107  
9  10  109  108  
10  11  98  109  
97  110  87  86  
110  111  88  87  
111  112  89  88  
112  113  90  89  
114  115  92  91  
115  116  93  92  
116  117  94  93  
117  118  95  94  
118  119  96  95  
119  120  97  96  
120  121  110  97  
VARIABLES  = "X","Y","Z", "TEMPERATURE1"
ZONE T="7.000000000000e-02s", N=121, E=99, F=FEPOINT, ET=QUADRILATERAL
STRANDID=1, SOLUTIONTIME=7.000000000000e-02
9.000000000000e-02 0.000000000000e+00 1.700000000000e-01 3.000001693021e+01 
1.000000000000e-01 0.000000000000e+00 1.700000000000e-01 2.999993946229e+01 
0.000000000000e+00 0.000000000000e+00 1.600000000000e-01 3.000000122252e+01 
1.000000000000e-02 0.000000000000e+00 1.600000000000e-01 3.000000106836e+01 
2.000000000000e-02 0.000000000000e+00 1.600000000000e-01 3.000000156931e+01 
3.000000000000e-02 0.000000000000e+00 1.600000000000e-01 2.999999960227e+01 
4.000000000000e-02 0.000000000000e+00 1.600000000000e-01 3.000000745244e+01 
5.000000000000e-02 0.000000000000e+00 1.600000000000e-01 2.999997609042e+01 
6.000000000000e-02 0.000000000000e+00 1.600000000000e-01 3.000002095518e+01 
7.000000000000e-02 0.000000000000e+00 1.600000000000e-01 2.999997690108e+01 
8.000000000000e-02 0.000000000000e+00 1.600000000000e-01 2.999999054678e+01 
9.000000000000e-02 0.000000000000e+00 1.600000000000e-01 2.999997695606e+01 
1.000000000000e-01 0.000000000000e+00 1.600000000000e-01 3.000001470990e+01 
0.000000000000e+00 0.000000000000e+00 1.500000000000e-01 2.999999969616e+01 
1.000000000000e-02 0.000000000000e+00 1.500000000000e-01 2.999999973553e+01 
2.000000000000e-02 0.000000000000e+00 1.500000000000e-01 2.999999960773e+01 
3.000000000000e-02 0.000000000000e+00 1.500000000000e-01 3.000000010455e+01 
4.000000000000e-02 0.000000000000e+00 1.500000000000e-01 2.999999813172e+01 
5.000000000000e-02 0.000000000000e+00 1.500000000000e-01 3.000000597296e+01 
6.000000000000e-02 0.000000000000e+00 1.500000000000e-01 2.999999476419e+01 
7.000000000000e-02 0.000000000000e+00 1.500000000000e-01 3.000000576987e+01 
8.000000000000e-02 0.000000000000e+00 1.500000000000e-01 3.000000234290e+01 
9.000000000000e-02 0.000000000000e+00 1.500000000000e-01 3.000000575265e+01 
1.000000000000e-01 0.000000000000e+00 1.500000000000e-01 2.999999631982e+01 
0.000000000000e+00 0.000000000000e+00 1.400000000000e-01 3.000000007504e+01 
1.000000000000e-02 0.000000000000e+00 1.400000000000e-01 3.000000006635e+01 
2.000000000000e-02 0.000000000000e+00 1.400000000000e-01 3.000000009779e+01 
3.000000000000e-02 0.000000000000e+00 1.400000000000e-01 2.999999997255e+01 
4.000000000000e-02 0.000000000000e+00 1.400000000000e-01 3.000000046822e+01 
5.000000000000e-02 0.000000000000e+00 1.400000000000e-01 2.999999850839e+01 
6.000000000000e-02 0.000000000000e+00 1.400000000000e-01 3.000000130805e+01 
7.000000000000e-02 0.000000000000e+00 1.400000000000e-01 2.999999855822e+01 
8.000000000000e-02 0.000000000000e+00 1.400000000000e-01 2.999999941792e+01 
9.000000000000e-02 0.000000000000e+00 1.400000000000e-01 2.999999856443e+01 
1.000000000000e-01 0.000000000000e+00 1.400000000000e-01 3.000000091857e+01 
0.000000000000e+00 0.000000000000e+00 1.300000000000e-01 2.999999997979e+01 
1.000000000000e-02 0.000000000000e+00 1.300000000000e-01 2.999999998306e+01 
2.000000000000e-02 0.000000000000e+00 1.300000000000e-01 2.999999997416e+01 
3.000000000000e-02 0.000000000000e+00 1.300000000000e-01 3.000000000598e+01 
4.000000000000e-02 0.000000000000e+00 1.300000000000e-01 2.999999988132e+01 
5.000000000000e-02 0.000000000000e+00 1.300000000000e-01 3.000000037162e+01 
6.000000000000e-02 0.000000000000e+00 1.300000000000e-01 2.999999967008e+01 
7.000000000000e-02 0.000000000000e+00 1.300000000000e-01 3.000000036375e+01 
8.000000000000e-02 0.000000000000e+00 1.300000000000e-01 3.000000014906e+01 
9.000000000000e-02 0.000000000000e+00 1.300000000000e-01 3.000000036245e+01 
1.000000000000e-01 0.000000000000e+00 1.300000000000e-01 2.999999977412e+01 
0.000000000000e+00 0.000000000000e+00 1.200000000000e-01 3.000000000866e+01 
1.000000000000e-02 0.000000000000e+00 1.200000000000e-01 3.000000000895e+01 
2.000000000000e-02 0.000000000000e+00 1.200000000000e-01 3.000000001027e+01 
3.000000000000e-02 0.000000000000e+00 1.200000000000e-01 3.000000000223e+01 
4.000000000000e-02 0.000000000000e+00 1.200000000000e-01 3.000000003428e+01 
5.000000000000e-02 0.000000000000e+00 1.200000000000e-01 2.999999990897e+01 
6.000000000000e-02 0.000000000000e+00 1.200000000000e-01 3.000000009499e+01 
7.000000000000e-02 0.000000000000e+00 1.200000000000e-01 2.999999989258e+01 
8.000000000000e-02 0.000000000000e+00 1.200000000000e-01 2.999999994109e+01 
9.000000000000e-02 0.000000000000e+00 1.200000000000e-01 2.999999989463e+01 
1.000000000000e-01 0.000000000000e+00 1.200000000000e-01 3.000000003847e+01 
0.000000000000e+00 0.000000000000e+00 1.100000000000e-01 2.999999998027e+01 
1.000000000000e-02 0.000000000000e+00 1.100000000000e-01 2.999999998137e+01 
2.000000000000e-02 0.000000000000e+00 1.100000000000e-01 2.999999998002e+01 
3.000000000000e-02 0.000000000000e+00 1.100000000000e-01 2.999999998299e+01 
4.000000000000e-02 0.000000000000e+00 1.100000000000e-01 2.999999997193e+01 
5.000000000000e-02 0.000000000000e+00 1.100000000000e-01 3.000000001477e+01 
6.000000000000e-02 0.000000000000e+00 1.100000000000e-01 2.999999992423e+01 
7.000000000000e-02 0.000000000000e+00 1.100000000000e-01 3.000000009295e+01 
8.000000000000e-02 0.000000000000e+00 1.100000000000e-01 3.000000010093e+01 
9.000000000000e-02 0.000000000000e+00 1.100000000000e-01 3.000000008996e+01 
1.000000000000e-01 0.000000000000e+00 1.100000000000e-01 3.000000005980e+01 
0.000000000000e+00 0.000000000000e+00 1.000000000000e-01 3.000000007275e+01 
1.000000000000e-02 0.000000000000e+00 1.000000000000e-01 3.000000007331e+01 
2.000000000000e-02 0.000000000000e+00 1.000000000000e-01 3.000000007318e+01 
3.000000000000e-02 0.000000000000e+00 1.000000000000e-01 3.000000006957e+01 
4.000000000000e-02 0.000000000000e+00 1.000000000000e-01 3.000000008429e+01 
5.000000000000e-02 0.000000000000e+00 1.000000000000e-01 3.000000002760e+01 
6.000000000000e-02 0.000000000000e+00 1.000000000000e-01 3.000000022664e+01 
7.000000000000e-02 0.000000000000e+00 1.000000000000e-01 2.999999971034e+01 
8.000000000000e-02 0.000000000000e+00 1.000000000000e-01 2.999999962629e+01 
9.000000000000e-02 0.000000000000e+00 1.000000000000e-01 2.999999972364e+01 
1.000000000000e-01 0.000000000000e+00 1.000000000000e-01 2.999999970218e+01 
0.000000000000e+00 0.000000000000e+00 9.000000000000e-02 2.999999970633e+01 
1.000000000000e-02 0.000000000000e+00 9.000000000000e-02 2.999999970867e+01 
2.000000000000e-02 0.000000000000e+00 9.000000000000e-02 2.999999970505e+01 
3.000000000000e-02 0.000000000000e+00 9.000000000000e-02 2.999999971829e+01 
4.000000000000e-02 0.000000000000e+00 9.000000000000e-02 2.999999966728e+01 
5.000000000000e-02 0.000000000000e+00 9.000000000000e-02 2.999999986447e+01 
6.000000000000e-02 0.000000000000e+00 9.000000000000e-02 2.999999910954e+01 
7.000000000000e-02 0.000000000000e+00 9.000000000000e-02 3.000000114058e+01 
8.000000000000e-02 0.000000000000e+00 9.000000000000e-02 3.000000148946e+01 
9.000000000000e-02 0.000000000000e+00 9.000000000000e-02 3.000000109546e+01 
1.000000000000e-01 0.000000000000e+00 9.000000000000e-02 3.000000121134e+01 
0.000000000000e+00 0.000000000000e+00 8.000000000000e-02 3.000000117743e+01 
1.000000000000e-02 0.000000000000e+00 8.000000000000e-02 3.000000117144e+01 
2.000000000000e-02 0.000000000000e+00 8.000000000000e-02 3.000000118577e+01 
3.000000000000e-02 0.000000000000e+00 8.000000000000e-02 3.000000113272e+01 
4.000000000000e-02 0.000000000000e+00 8.000000000000e-02 3.000000133842e+01 
5.000000000000e-02 0.000000000000e+00 8.000000000000e-02 3.000000053885e+01 
6.000000000000e-02 0.000000000000e+00 8.000000000000e-02 3.000000363410e+01 