VARIABLES  = "X","Y","Z", "TEMPERATURE1"
ZONE T="0.000000000000e+00s", N=122, E=100, F=FEPOINT, ET=QUADRILATERAL
STRANDID=1, SOLUTIONTIME=0.000000000000e+00
1.000000000000e-01 0.000000000000e+00 2.600000000000e-01 3.000000000000e+01 
0.000000000000e+00 0.000000000000e+00 2.500000000000e-01 3.000000000000e+01 
1.000000000000e-02 0.000000000000e+00 2.500000000000e-01 3.000000000000e+01 
2.000000000000e-02 0.000000000000e+00 2.500000000000e-01 3.000000000000e+01 
3.000000000000e-02 0.000000000000e+00 2.500000000000e-01 3.000000000000e+01 
4.000000000000e-02 0.000000000000e+00 2.500000000000e-01 3.000000000000e+01 
5.000000000000e-02 0.000000000000e+00 2.500000000000e-01 3.000000000000e+01 
6.000000000000e-02 0.000000000000e+00 2.500000000000e-01 3.000000000000e+01 
7.000000000000e-02 0.000000000000e+00 2.500000000000e-01 3.000000000000e+01 
8.000000000000e-02 0.000000000000e+00 2.500000000000e-01 3.000000000000e+01 
9.000000000000e-02 0.000000000000e+00 2.500000000000e-01 3.000000000000e+01 
1.000000000000e-01 0.000000000000e+00 2.500000000000e-01 3.000000000000e+01 
0.000000000000e+00 0.000000000000e+00 2.400000000000e-01 3.000000000000e+01 
1.000000000000e-02 0.000000000000e+00 2.400000000000e-01 3.000000000000e+01 
2.000000000000e-02 0.000000000000e+00 2.400000000000e-01 3.000000000000e+01 
3.000000000000e-02 0.000000000000e+00 2.400000000000e-01 3.000000000000e+01 
4.000000000000e-02 0.000000000000e+00 2.400000000000e-01 3.000000000000e+01 
5.000000000000e-02 0.000000000000e+00 2.400000000000e-01 3.000000000000e+01 
6.000000000000e-02 0.000000000000e+00 2.400000000000e-01 3.000000000000e+01 
7.000000000000e-02 0.000000000000e+00 2.400000000000e-01 3.000000000000e+01 
8.000000000000e-02 0.000000000000e+00 2.400000000000e-01 3.000000000000e+01 
9.000000000000e-02 0.000000000000e+00 2.400000000000e-01 3.000000000000e+01 
1.000000000000e-01 0.000000000000e+00 2.400000000000e-01 3.000000000000e+01 
0.000000000000e+00 0.000000000000e+00 2.300000000000e-01 3.000000000000e+01 
1.000000000000e-02 0.000000000000e+00 2.300000000000e-01 3.000000000000e+01 
2.000000000000e-02 0.000000000000e+00 2.300000000000e-01 3.000000000000e+01 
3.000000000000e-02 0.000000000000e+00 2.300000000000e-01 3.000000000000e+01 
4.000000000000e-02 0.000000000000e+00 2.300000000000e-01 3.000000000000e+01 
5.000000000000e-02 0.000000000000e+00 2.300000000000e-01 3.000000000000e+01 
6.000000000000e-02 0.000000000000e+00 2.300000000000e-01 3.000000000000e+01 
7.000000000000e-02 0.000000000000e+00 2.300000000000e-01 3.000000000000e+01 
8.000000000000e-02 0.000000000000e+00 2.300000000000e-01 3.000000000000e+01 
9.000000000000e-02 0.000000000000e+00 2.300000000000e-01 3.000000000000e+01 
1.000000000000e-01 0.000000000000e+00 2.300000000000e-01 3.000000000000e+01 
0.000000000000e+00 0.000000000000e+00 2.200000000000e-01 3.000000000000e+01 
1.000000000000e-02 0.000000000000e+00 2.200000000000e-01 3.000000000000e+01 
2.000000000000e-02 0.000000000000e+00 2.200000000000e-01 3.000000000000e+01 
3.000000000000e-02 0.000000000000e+00 2.200000000000e-01 3.000000000000e+01 
4.000000000000e-02 0.000000000000e+00 2.200000000000e-01 3.000000000000e+01 
5.000000000000e-02 0.000000000000e+00 2.200000000000e-01 3.000000000000e+01 
6.000000000000e-02 0.000000000000e+00 2.200000000000e-01 3.000000000000e+01 
7.000000000000e-02 0.000000000000e+00 2.200000000000e-01 3.000000000000e+01 
8.000000000000e-02 0.000000000000e+00 2.200000000000e-01 3.000000000000e+01 
9.000000000000e-02 0.000000000000e+00 2.200000000000e-01 3.000000000000e+01 
1.000000000000e-01 0.000000000000e+00 2.200000000000e-01 3.000000000000e+01 
0.000000000000e+00 0.000000000000e+00 2.100000000000e-01 3.000000000000e+01 
1.000000000000e-02 0.000000000000e+00 2.100000000000e-01 3.000000000000e+01 
2.000000000000e-02 0.000000000000e+00 2.100000000000e-01 3.000000000000e+01 
3.000000000000e-02 0.000000000000e+00 2.100000000000e-01 3.000000000000e+01 
4.000000000000e-02 0.000000000000e+00 2.100000000000e-01 3.000000000000e+01 
5.000000000000e-02 0.000000000000e+00 2.100000000000e-01 3.000000000000e+01 
6.000000000000e-02 0.000000000000e+00 2.100000000000e-01 3.000000000000e+01 
7.000000000000e-02 0.000000000000e+00 2.100000000000e-01 3.000000000000e+01 
8.000000000000e-02 0.000000000000e+00 2.100000000000e-01 3.000000000000e+01 
9.000000000000e-02 0.000000000000e+00 2.100000000000e-01 3.000000000000e+01 
1.000000000000e-01 0.000000000000e+00 2.100000000000e-01 3.000000000000e+01 
0.000000000000e+00 0.000000000000e+00 2.000000000000e-01 3.000000000000e+01 
1.000000000000e-02 0.000000000000e+00 2.000000000000e-01 3.000000000000e+01 
2.000000000000e-02 0.000000000000e+00 2.000000000000e-01 3.000000000000e+01 
3.000000000000e-02 0.000000000000e+00 2.000000000000e-01 3.000000000000e+01 
4.000000000000e-02 0.000000000000e+00 2.000000000000e-01 3.000000000000e+01 
5.000000000000e-02 0.000000000000e+00 2.000000000000e-01 3.000000000000e+01 
6.000000000000e-02 0.000000000000e+00 2.000000000000e-01 3.000000000000e+01 
7.000000000000e-02 0.000000000000e+00 2.000000000000e-01 3.000000000000e+01 
8.000000000000e-02 0.000000000000e+00 2.000000000000e-01 3.000000000000e+01 
9.000000000000e-02 0.000000000000e+00 2.000000000000e-01 3.000000000000e+01 
1.000000000000e-01 0.000000000000e+00 2.000000000000e-01 3.000000000000e+01 
0.000000000000e+00 0.000000000000e+00 1.900000000000e-01 3.000000000000e+01 
1.000000000000e-02 0.000000000000e+00 1.900000000000e-01 3.000000000000e+01 
2.000000000000e-02 0.000000000000e+00 1.900000000000e-01 3.000000000000e+01 
3.000000000000e-02 0.000000000000e+00 1.900000000000e-01 3.000000000000e+01 
4.000000000000e-02 0.000000000000e+00 1.900000000000e-01 3.000000000000e+01 
5.000000000000e-02 0.000000000000e+00 1.900000000000e-01 3.000000000000e+01 
6.000000000000e-02 0.000000000000e+00 1.900000000000e-01 3.000000000000e+01 
7.000000000000e-02 0.000000000000e+00 1.900000000000e-01 3.000000000000e+01 
8.000000000000e-02 0.000000000000e+00 1.900000000000e-01 3.000000000000e+01 
9.000000000000e-02 0.000000000000e+00 1.900000000000e-01 3.000000000000e+01 
1.000000000000e-01 0.000000000000e+00 1.900000000000e-01 3.000000000000e+01 
0.000000000000e+00 0.000000000000e+00 1.800000000000e-01 3.000000000000e+01 
1.000000000000e-02 0.000000000000e+00 1.800000000000e-01 3.000000000000e+01 
2.000000000000e-02 0.000000000000e+00 1.800000000000e-01 3.000000000000e+01 
3.000000000000e-02 0.000000000000e+00 1.800000000000e-01 3.000000000000e+01 
4.000000000000e-02 0.000000000000e+00 1.800000000000e-01 3.000000000000e+01 
5.000000000000e-02 0.000000000000e+00 1.800000000000e-01 3.000000000000e+01 
6.000000000000e-02 0.000000000000e+00 1.800000000000e-01 3.000000000000e+01 
7.000000000000e-02 0.000000000000e+00 1.800000000000e-01 3.000000000000e+01 
8.000000000000e-02 0.000000000000e+00 1.800000000000e-01 3.000000000000e+01 
9.000000000000e-02 0.000000000000e+00 1.800000000000e-01 3.000000000000e+01 
1.000000000000e-01 0.000000000000e+00 1.800000000000e-01 3.000000000000e+01 
0.000000000000e+00 0.000000000000e+00 1.700000000000e-01 3.000000000000e+01 
1.000000000000e-02 0.000000000000e+00 1.700000000000e-01 3.000000000000e+01 
2.000000000000e-02 0.000000000000e+00 1.700000000000e-01 3.000000000000e+01 
3.000000000000e-02 0.000000000000e+00 1.700000000000e-01 3.000000000000e+01 
4.000000000000e-02 0.000000000000e+00 1.700000000000e-01 3.000000000000e+01 
5.000000000000e-02 0.000000000000e+00 1.700000000000e-01 3.000000000000e+01 
6.000000000000e-02 0.000000000000e+00 1.700000000000e-01 3.000000000000e+01 
7.000000000000e-02 0.000000000000e+00 1.700000000000e-01 3.000000000000e+01 
8.000000000000e-02 0.000000000000e+00 1.700000000000e-01 3.000000000000e+01 
9.000000000000e-02 0.000000000000e+00 2.600000000000e-01 3.000000000000e+01 
1.000000000000e-01 0.000000000000e+00 2.700000000000e-01 3.000000000000e+01 
9.000000000000e-02 0.000000000000e+00 2.700000000000e-01 3.000000000000e+01 
1.000000000000e-02 0.000000000000e+00 2.600000000000e-01 3.000000000000e+01 
0.000000000000e+00 0.000000000000e+00 2.600000000000e-01 3.000000000000e+01 
2.000000000000e-02 0.000000000000e+00 2.600000000000e-01 3.000000000000e+01 
3.000000000000e-02 0.000000000000e+00 2.600000000000e-01 3.000000000000e+01 
4.000000000000e-02 0.000000000000e+00 2.600000000000e-01 3.000000000000e+01 
5.000000000000e-02 0.000000000000e+00 2.600000000000e-01 3.000000000000e+01 
6.000000000000e-02 0.000000000000e+00 2.600000000000e-01 3.000000000000e+01 
7.000000000000e-02 0.000000000000e+00 2.600000000000e-01 3.000000000000e+01 
8.000000000000e-02 0.000000000000e+00 2.600000000000e-01 3.000000000000e+01 
9.000000000000e-02 0.000000000000e+00 1.700000000000e-01 3.000000000000e+01 
1.000000000000e-01 0.000000000000e+00 1.700000000000e-01 3.000000000000e+01 
0.000000000000e+00 0.000000000000e+00 1.600000000000e-01 3.000000000000e+01 
1.000000000000e-02 0.000000000000e+00 1.600000000000e-01 3.000000000000e+01 
2.000000000000e-02 0.000000000000e+00 1.600000000000e-01 3.000000000000e+01 
3.000000000000e-02 0.000000000000e+00 1.600000000000e-01 3.000000000000e+01 
4.000000000000e-02 0.000000000000e+00 1.600000000000e-01 3.000000000000e+01 
5.000000000000e-02 0.000000000000e+00 1.600000000000e-01 3.000000000000e+01 
6.000000000000e-02 0.000000000000e+00 1.600000000000e-01 3.000000000000e+01 
7.000000000000e-02 0.000000000000e+00 1.600000000000e-01 3.000000000000e+01 
8.000000000000e-02 0.000000000000e+00 1.600000000000e-01 3.000000000000e+01 
9.000000000000e-02 0.000000000000e+00 1.600000000000e-01 3.000000000000e+01 
13  14  3  2  
14  15  4  3  
15  16  5  4  
16  17  6  5  
17  18  7  6  
18  19  8  7  
19  20  9  8  
20  21  10  9  
21  22  11  10  
22  23  12  11  
24  25  14  13  
25  26  15  14  
26  27  16  15  
27  28  17  16  
28  29  18  17  
29  30  19  18  
30  31  20  19  
31  32  21  20  
32  33  22  21  
33  34  23  22  
35  36  25  24  
36  37  26  25  
37  38  27  26  
38  39  28  27  
39  40  29  28  
40  41  30  29  
41  42  31  30  
42  43  32  31  
43  44  33  32  
44  45  34  33  
46  47  36  35  
47  48  37  36  
48  49  38  37  
49  50  39  38  
50  51  40  39  
51  52  41  40  
52  53  42  41  
53  54  43  42  
54  55  44  43  
55  56  45  44  
57  58  47  46  
58  59  48  47  
59  60  49  48  
60  61  50  49  
61  62  51  50  
62  63  52  51  
63  64  53  52  
64  65  54  53  
65  66  55  54  
66  67  56  55  
68  69  58  57  
69  70  59  58  
70  71  60  59  
71  72  61  60  
72  73  62  61  
73  74  63  62  
74  75  64  63  
75  76  65  64  
76  77  66  65  
77  78  67  66  
79  80  69  68  
80  81  70  69  
81  82  71  70  
82  83  72  71  
83  84  73  72  
84  85  74  73  
85  86  75  74  
86  87  76  75  
87  88  77  76  
88  89  78  77  
90  91  80  79  
91  92  81  80  
92  93  82  81  
93  94  83  82  
94  95  84  83  
95  96  85  84  
96  97  86  85  
97  98  87  86  
99  1  100  101  
11  12  1  99  
2  3  102  103  
3  4  104  102  
4  5  105  104  
5  6  106  105  
6  7  107  106  
7  8  108  107  
8  9  109  108  
9  10  110  109  
10  11  99  110  
98  111  88  87  
111  112  89  88  
113  114  91  90  
114  115  92  91  
115  116  93  92  
116  117  94  93  
117  118  95  94  
118  119  96  95  
119  120  97  96  
120  121  98  97  
121  122  111  98  
VARIABLES  = "X","Y","Z", "TEMPERATURE1"
ZONE T="1.000000000000e-02s", N=122, E=100, F=FEPOINT, ET=QUADRILATERAL
STRANDID=1, SOLUTIONTIME=1.000000000000e-02
1.000000000000e-01 0.000000000000e+00 2.600000000000e-01 3.000013614047e+01 
0.000000000000e+00 0.000000000000e+00 2.500000000000e-01 2.999996463188e+01 
1.000000000000e-02 0.000000000000e+00 2.500000000000e-01 3.000007370591e+01 
2.000000000000e-02 0.000000000000e+00 2.500000000000e-01 2.999974274552e+01 
3.000000000000e-02 0.000000000000e+00 2.500000000000e-01 2.999974285252e+01 
4.000000000000e-02 0.000000000000e+00 2.500000000000e-01 2.999974282691e+01 
5.000000000000e-02 0.000000000000e+00 2.500000000000e-01 2.999974282330e+01 
6.000000000000e-02 0.000000000000e+00 2.500000000000e-01 2.999974286629e+01 
7.000000000000e-02 0.000000000000e+00 2.500000000000e-01 2.999974269082e+01 
8.000000000000e-02 0.000000000000e+00 2.500000000000e-01 2.999974336644e+01 
9.000000000000e-02 0.000000000000e+00 2.500000000000e-01 3.000007260762e+01 
1.000000000000e-01 0.000000000000e+00 2.500000000000e-01 2.999996385676e+01 
0.000000000000e+00 0.000000000000e+00 2.400000000000e-01 3.000000937599e+01 
1.000000000000e-02 0.000000000000e+00 2.400000000000e-01 2.999998046343e+01 
2.000000000000e-02 0.000000000000e+00 2.400000000000e-01 3.000006817977e+01 
3.000000000000e-02 0.000000000000e+00 2.400000000000e-01 3.000006814799e+01 
4.000000000000e-02 0.000000000000e+00 2.400000000000e-01 3.000006815661e+01 
5.000000000000e-02 0.000000000000e+00 2.400000000000e-01 3.000006815361e+01 
6.000000000000e-02 0.000000000000e+00 2.400000000000e-01 3.000006815535e+01 
7.000000000000e-02 0.000000000000e+00 2.400000000000e-01 3.000006816854e+01 
8.000000000000e-02 0.000000000000e+00 2.400000000000e-01 3.000006807936e+01 
9.000000000000e-02 0.000000000000e+00 2.400000000000e-01 2.999998072224e+01 
1.000000000000e-01 0.000000000000e+00 2.400000000000e-01 3.000000962649e+01 
0.000000000000e+00 0.000000000000e+00 2.300000000000e-01 2.999999751476e+01 
1.000000000000e-02 0.000000000000e+00 2.300000000000e-01 3.000000517889e+01 
2.000000000000e-02 0.000000000000e+00 2.300000000000e-01 2.999998193066e+01 
3.000000000000e-02 0.000000000000e+00 2.300000000000e-01 2.999998194050e+01 
4.000000000000e-02 0.000000000000e+00 2.300000000000e-01 2.999998193592e+01 
5.000000000000e-02 0.000000000000e+00 2.300000000000e-01 2.999998194460e+01 
6.000000000000e-02 0.000000000000e+00 2.300000000000e-01 2.999998191821e+01 
7.000000000000e-02 0.000000000000e+00 2.300000000000e-01 2.999998195258e+01 
8.000000000000e-02 0.000000000000e+00 2.300000000000e-01 2.999998196676e+01 
9.000000000000e-02 0.000000000000e+00 2.300000000000e-01 3.000000512821e+01 
1.000000000000e-01 0.000000000000e+00 2.300000000000e-01 2.999999744502e+01 
0.000000000000e+00 0.000000000000e+00 2.200000000000e-01 3.000000065801e+01 
1.000000000000e-02 0.000000000000e+00 2.200000000000e-01 2.999999862638e+01 
2.000000000000e-02 0.000000000000e+00 2.200000000000e-01 3.000000478846e+01 
3.000000000000e-02 0.000000000000e+00 2.200000000000e-01 3.000000478355e+01 
4.000000000000e-02 0.000000000000e+00 2.200000000000e-01 3.000000479272e+01 
5.000000000000e-02 0.000000000000e+00 2.200000000000e-01 3.000000476065e+01 
6.000000000000e-02 0.000000000000e+00 2.200000000000e-01 3.000000486630e+01 
7.000000000000e-02 0.000000000000e+00 2.200000000000e-01 3.000000471085e+01 
8.000000000000e-02 0.000000000000e+00 2.200000000000e-01 3.000000475639e+01 
9.000000000000e-02 0.000000000000e+00 2.200000000000e-01 2.999999856694e+01 
1.000000000000e-01 0.000000000000e+00 2.200000000000e-01 3.000000069763e+01 
0.000000000000e+00 0.000000000000e+00 2.100000000000e-01 2.999999982899e+01 
1.000000000000e-02 0.000000000000e+00 2.100000000000e-01 3.000000036834e+01 
2.000000000000e-02 0.000000000000e+00 2.100000000000e-01 2.999999873293e+01 
3.000000000000e-02 0.000000000000e+00 2.100000000000e-01 2.999999874222e+01 
4.000000000000e-02 0.000000000000e+00 2.100000000000e-01 2.999999871000e+01 
5.000000000000e-02 0.000000000000e+00 2.100000000000e-01 2.999999883073e+01 
6.000000000000e-02 0.000000000000e+00 2.100000000000e-01 2.999999843068e+01 
7.000000000000e-02 0.000000000000e+00 2.100000000000e-01 2.999999902346e+01 
8.000000000000e-02 0.000000000000e+00 2.100000000000e-01 2.999999882733e+01 
9.000000000000e-02 0.000000000000e+00 2.100000000000e-01 3.000000065866e+01 
1.000000000000e-01 0.000000000000e+00 2.100000000000e-01 2.999999973934e+01 
0.000000000000e+00 0.000000000000e+00 2.000000000000e-01 3.000000003273e+01 
1.000000000000e-02 0.000000000000e+00 2.000000000000e-01 2.999999988723e+01 
2.000000000000e-02 0.000000000000e+00 2.000000000000e-01 3.000000032863e+01 
3.000000000000e-02 0.000000000000e+00 2.000000000000e-01 3.000000029635e+01 
4.000000000000e-02 0.000000000000e+00 2.000000000000e-01 3.000000041720e+01 
5.000000000000e-02 0.000000000000e+00 2.000000000000e-01 2.999999996183e+01 
6.000000000000e-02 0.000000000000e+00 2.000000000000e-01 3.000000147154e+01 
7.000000000000e-02 0.000000000000e+00 2.000000000000e-01 2.999999923344e+01 
8.000000000000e-02 0.000000000000e+00 2.000000000000e-01 2.999999997949e+01 
9.000000000000e-02 0.000000000000e+00 2.000000000000e-01 2.999999877437e+01 
1.000000000000e-01 0.000000000000e+00 2.000000000000e-01 3.000000035512e+01 
0.000000000000e+00 0.000000000000e+00 1.900000000000e-01 3.000000003921e+01 
1.000000000000e-02 0.000000000000e+00 1.900000000000e-01 3.000000008790e+01 
2.000000000000e-02 0.000000000000e+00 1.900000000000e-01 2.999999994043e+01 
3.000000000000e-02 0.000000000000e+00 1.900000000000e-01 3.000000006150e+01 
4.000000000000e-02 0.000000000000e+00 1.900000000000e-01 2.999999960585e+01 
5.000000000000e-02 0.000000000000e+00 1.900000000000e-01 3.000000132367e+01 
6.000000000000e-02 0.000000000000e+00 1.900000000000e-01 2.999999562769e+01 
7.000000000000e-02 0.000000000000e+00 1.900000000000e-01 3.000000407233e+01 
8.000000000000e-02 0.000000000000e+00 1.900000000000e-01 3.000000125617e+01 
9.000000000000e-02 0.000000000000e+00 1.900000000000e-01 3.000000429135e+01 
1.000000000000e-01 0.000000000000e+00 1.900000000000e-01 2.999999882710e+01 
0.000000000000e+00 0.000000000000e+00 1.800000000000e-01 2.999999980921e+01 
1.000000000000e-02 0.000000000000e+00 1.800000000000e-01 2.999999975875e+01 
2.000000000000e-02 0.000000000000e+00 1.800000000000e-01 2.999999991223e+01 
3.000000000000e-02 0.000000000000e+00 1.800000000000e-01 2.999999945591e+01 
4.000000000000e-02 0.000000000000e+00 1.800000000000e-01 3.000000117459e+01 
5.000000000000e-02 0.000000000000e+00 1.800000000000e-01 2.999999469417e+01 
6.000000000000e-02 0.000000000000e+00 1.800000000000e-01 3.000001618422e+01 
7.000000000000e-02 0.000000000000e+00 1.800000000000e-01 2.999998432306e+01 
8.000000000000e-02 0.000000000000e+00 1.800000000000e-01 2.999999494718e+01 
9.000000000000e-02 0.000000000000e+00 1.800000000000e-01 2.999998389805e+01 
1.000000000000e-01 0.000000000000e+00 1.800000000000e-01 3.000000438103e+01 
0.000000000000e+00 0.000000000000e+00 1.700000000000e-01 3.000000073165e+01 
1.000000000000e-02 0.000000000000e+00 1.700000000000e-01 3.000000088709e+01 
2.000000000000e-02 0.000000000000e+00 1.700000000000e-01 3.000000041484e+01 
3.000000000000e-02 0.000000000000e+00 1.700000000000e-01 3.000000213585e+01 
4.000000000000e-02 0.000000000000e+00 1.700000000000e-01 2.999999565299e+01 
5.000000000000e-02 0.000000000000e+00 1.700000000000e-01 3.000002010018e+01 
6.000000000000e-02 0.000000000000e+00 1.700000000000e-01 2.999996342705e+01 
7.000000000000e-02 0.000000000000e+00 1.700000000000e-01 3.000002257271e+01 
8.000000000000e-02 0.000000000000e+00 1.700000000000e-01 3.000000682421e+01 
9.000000000000e-02 0.000000000000e+00 2.600000000000e-01 2.999972603878e+01 
1.000000000000e-01 0.000000000000e+00 2.700000000000e-01 2.999948703063e+01 
9.000000000000e-02 0.000000000000e+00 2.700000000000e-01 3.000103823148e+01 
1.000000000000e-02 0.000000000000e+00 2.600000000000e-01 2.999972566945e+01 
0.000000000000e+00 0.000000000000e+00 2.600000000000e-01 3.000013715745e+01 
2.000000000000e-02 0.000000000000e+00 2.600000000000e-01 3.000097441031e+01 
3.000000000000e-02 0.000000000000e+00 2.600000000000e-01 3.000097404649e+01 
4.000000000000e-02 0.000000000000e+00 2.600000000000e-01 3.000097415080e+01 
5.000000000000e-02 0.000000000000e+00 2.600000000000e-01 3.000097409363e+01 
6.000000000000e-02 0.000000000000e+00 2.600000000000e-01 3.000097421987e+01 
7.000000000000e-02 0.000000000000e+00 2.600000000000e-01 3.000097377513e+01 
8.000000000000e-02 0.000000000000e+00 2.600000000000e-01 3.000097543165e+01 
9.000000000000e-02 0.000000000000e+00 1.700000000000e-01 3.000001125609e+01 
1.000000000000e-01 0.000000000000e+00 1.700000000000e-01 2.999995840892e+01 
0.000000000000e+00 0.000000000000e+00 1.600000000000e-01 3.000000082995e+01 
1.000000000000e-02 0.000000000000e+00 1.600000000000e-01 3.000000068828e+01 
2.000000000000e-02 0.000000000000e+00 1.600000000000e-01 3.000000111859e+01 
3.000000000000e-02 0.000000000000e+00 1.600000000000e-01 2.999999953110e+01 
4.000000000000e-02 0.000000000000e+00 1.600000000000e-01 3.000000551217e+01 
5.000000000000e-02 0.000000000000e+00 1.600000000000e-01 2.999998295126e+01 
6.000000000000e-02 0.000000000000e+00 1.600000000000e-01 3.000001616253e+01 
7.000000000000e-02 0.000000000000e+00 1.600000000000e-01 2.999998430115e+01 
8.000000000000e-02 0.000000000000e+00 1.600000000000e-01 2.999999492532e+01 
9.000000000000e-02 0.000000000000e+00 1.600000000000e-01 2.999998390408e+01 
13  14  3  2  
14  15  4  3  
15  16  5  4  
16  17  6  5  
17  18  7  6  
18  19  8  7  
19  20  9  8  
20  21  10  9  
21  22  11  10  
22  23  12  11  
24  25  14  13  
25  26  15  14  
26  27  16  15  
27  28  17  16  
28  29  18  17  
29  30  19  18  
30  31  20  19  
31  32  21  20  
32  33  22  21  
33  34  23  22  
35  36  25  24  
36  37  26  25  
37  38  27  26  
38  39  28  27  
39  40  29  28  
40  41  30  29  
41  42  31  30  
42  43  32  31  
43  44  33  32  
44  45  34  33  
46  47  36  35  
47  48  37  36  
48  49  38  37  
49  50  39  38  
50  51  40  39  
51  52  41  40  
52  53  42  41  
53  54  43  42  
54  55  44  43  
55  56  45  44  
57  58  47  46  
58  59  48  47  
59  60  49  48  
60  61  50  49  
61  62  51  50  
62  63  52  51  
63  64  53  52  
64  65  54  53  
65  66  55  54  
66  67  56  55  
68  69  58  57  
69  70  59  58  
70  71  60  59  
71  72  61  60  
72  73  62  61  
73  74  63  62  
74  75  64  63  
75  76  65  64  
76  77  66  65  
77  78  67  66  
79  80  69  68  
80  81  70  69  
81  82  71  70  
82  83  72  71  
83  84  73  72  
84  85  74  73  
85  86  75  74  
86  87  76  75  
87  88  77  76  
88  89  78  77  
90  91  80  79  
91  92  81  80  
92  93  82  81  
93  94  83  82  
94  95  84  83  
95  96  85  84  
96  97  86  85  
97  98  87  86  
99  1  100  101  
11  12  1  99  
2  3  102  103  
3  4  104  102  
4  5  105  104  
5  6  106  105  
6  7  107  106  
7  8  108  107  
8  9  109  108  
9  10  110  109  
10  11  99  110  
98  111  88  87  
111  112  89  88  
113  114  91  90  
114  115  92  91  
115  116  93  92  
116  117  94  93  
117  118  95  94  
118  119  96  95  
119  120  97  96  
120  121  98  97  
121  122  111  98  
VARIABLES  = "X","Y","Z", "TEMPERATURE1"
ZONE T="7.000000000000e-02s", N=122, E=100, F=FEPOINT, ET=QUADRILATERAL
STRANDID=1, SOLUTIONTIME=7.000000000000e-02
1.000000000000e-01 0.000000000000e+00 2.600000000000e-01 3.000007470450e+01 
0.000000000000e+00 0.000000000000e+00 2.500000000000e-01 2.999998249031e+01 
1.000000000000e-02 0.000000000000e+00 2.500000000000e-01 3.000003958996e+01 
2.000000000000e-02 0.000000000000e+00 2.500000000000e-01 2.999986202621e+01 
3.000000000000e-02 0.000000000000e+00 2.500000000000e-01 2.999986468593e+01 
4.000000000000e-02 0.000000000000e+00 2.500000000000e-01 2.999986399907e+01 
5.000000000000e-02 0.000000000000e+00 2.500000000000e-01 2.999986420168e+01 
6.000000000000e-02 0.000000000000e+00 2.500000000000e-01 2.999986404672e+01 
7.000000000000e-02 0.000000000000e+00 2.500000000000e-01 2.999986448934e+01 
8.000000000000e-02 0.000000000000e+00 2.500000000000e-01 2.999986277848e+01 
9.000000000000e-02 0.000000000000e+00 2.500000000000e-01 3.000003797881e+01 
1.000000000000e-01 0.000000000000e+00 2.500000000000e-01 2.999998130782e+01 
0.000000000000e+00 0.000000000000e+00 2.400000000000e-01 3.000000435362e+01 
1.000000000000e-02 0.000000000000e+00 2.400000000000e-01 2.999999020156e+01 
2.000000000000e-02 0.000000000000e+00 2.400000000000e-01 3.000003393751e+01 
3.000000000000e-02 0.000000000000e+00 2.400000000000e-01 3.000003319464e+01 
4.000000000000e-02 0.000000000000e+00 2.400000000000e-01 3.000003338792e+01 
5.000000000000e-02 0.000000000000e+00 2.400000000000e-01 3.000003332709e+01 
6.000000000000e-02 0.000000000000e+00 2.400000000000e-01 3.000003338527e+01 
7.000000000000e-02 0.000000000000e+00 2.400000000000e-01 3.000003321933e+01 
8.000000000000e-02 0.000000000000e+00 2.400000000000e-01 3.000003382289e+01 
9.000000000000e-02 0.000000000000e+00 2.400000000000e-01 2.999999056865e+01 
1.000000000000e-01 0.000000000000e+00 2.400000000000e-01 3.000000469673e+01 
0.000000000000e+00 0.000000000000e+00 2.300000000000e-01 2.999999891851e+01 
1.000000000000e-02 0.000000000000e+00 2.300000000000e-01 3.000000242270e+01 
2.000000000000e-02 0.000000000000e+00 2.300000000000e-01 2.999999166562e+01 
3.000000000000e-02 0.000000000000e+00 2.300000000000e-01 2.999999187166e+01 
4.000000000000e-02 0.000000000000e+00 2.300000000000e-01 2.999999181625e+01 
5.000000000000e-02 0.000000000000e+00 2.300000000000e-01 2.999999184029e+01 
6.000000000000e-02 0.000000000000e+00 2.300000000000e-01 2.999999179907e+01 
7.000000000000e-02 0.000000000000e+00 2.300000000000e-01 2.999999188514e+01 
8.000000000000e-02 0.000000000000e+00 2.300000000000e-01 2.999999170635e+01 
9.000000000000e-02 0.000000000000e+00 2.300000000000e-01 3.000000235051e+01 
1.000000000000e-01 0.000000000000e+00 2.300000000000e-01 2.999999882995e+01 
0.000000000000e+00 0.000000000000e+00 2.200000000000e-01 3.000000026663e+01 
1.000000000000e-02 0.000000000000e+00 2.200000000000e-01 2.999999940147e+01 
2.000000000000e-02 0.000000000000e+00 2.200000000000e-01 3.000000204198e+01 
3.000000000000e-02 0.000000000000e+00 2.200000000000e-01 3.000000198381e+01 
4.000000000000e-02 0.000000000000e+00 2.200000000000e-01 3.000000200629e+01 
5.000000000000e-02 0.000000000000e+00 2.200000000000e-01 3.000000197144e+01 
6.000000000000e-02 0.000000000000e+00 2.200000000000e-01 3.000000208264e+01 
7.000000000000e-02 0.000000000000e+00 2.200000000000e-01 3.000000189869e+01 
8.000000000000e-02 0.000000000000e+00 2.200000000000e-01 3.000000199944e+01 
9.000000000000e-02 0.000000000000e+00 2.200000000000e-01 2.999999933655e+01 
1.000000000000e-01 0.000000000000e+00 2.200000000000e-01 3.000000031255e+01 
0.000000000000e+00 0.000000000000e+00 2.100000000000e-01 2.999999993744e+01 
1.000000000000e-02 0.000000000000e+00 2.100000000000e-01 3.000000015265e+01 
2.000000000000e-02 0.000000000000e+00 2.100000000000e-01 2.999999950271e+01 
3.000000000000e-02 0.000000000000e+00 2.100000000000e-01 2.999999952611e+01 
4.000000000000e-02 0.000000000000e+00 2.100000000000e-01 2.999999949115e+01 
5.000000000000e-02 0.000000000000e+00 2.100000000000e-01 2.999999961339e+01 
6.000000000000e-02 0.000000000000e+00 2.100000000000e-01 2.999999918288e+01 
7.000000000000e-02 0.000000000000e+00 2.100000000000e-01 2.999999987501e+01 
8.000000000000e-02 0.000000000000e+00 2.100000000000e-01 2.999999964502e+01 
9.000000000000e-02 0.000000000000e+00 2.100000000000e-01 3.000000050125e+01 
1.000000000000e-01 0.000000000000e+00 2.100000000000e-01 2.999999983089e+01 
0.000000000000e+00 0.000000000000e+00 2.000000000000e-01 2.999999999867e+01 
1.000000000000e-02 0.000000000000e+00 2.000000000000e-01 2.999999994438e+01 
2.000000000000e-02 0.000000000000e+00 2.000000000000e-01 3.000000011010e+01 
3.000000000000e-02 0.000000000000e+00 2.000000000000e-01 3.000000007474e+01 
4.000000000000e-02 0.000000000000e+00 2.000000000000e-01 3.000000019883e+01 
5.000000000000e-02 0.000000000000e+00 2.000000000000e-01 2.999999971546e+01 
6.000000000000e-02 0.000000000000e+00 2.000000000000e-01 3.000000143622e+01 
7.000000000000e-02 0.000000000000e+00 2.000000000000e-01 2.999999867446e+01 
8.000000000000e-02 0.000000000000e+00 2.000000000000e-01 2.999999954288e+01 
9.000000000000e-02 0.000000000000e+00 2.000000000000e-01 2.999999852458e+01 
1.000000000000e-01 0.000000000000e+00 2.000000000000e-01 3.000000040417e+01 
0.000000000000e+00 0.000000000000e+00 1.900000000000e-01 3.000000006510e+01 
1.000000000000e-02 0.000000000000e+00 1.900000000000e-01 3.000000008884e+01 
2.000000000000e-02 0.000000000000e+00 1.900000000000e-01 3.000000001728e+01 
3.000000000000e-02 0.000000000000e+00 1.900000000000e-01 3.000000014248e+01 
4.000000000000e-02 0.000000000000e+00 1.900000000000e-01 2.999999965356e+01 
5.000000000000e-02 0.000000000000e+00 1.900000000000e-01 3.000000158128e+01 
6.000000000000e-02 0.000000000000e+00 1.900000000000e-01 2.999999469061e+01 
7.000000000000e-02 0.000000000000e+00 1.900000000000e-01 3.000000575390e+01 
8.000000000000e-02 0.000000000000e+00 1.900000000000e-01 3.000000230417e+01 
9.000000000000e-02 0.000000000000e+00 1.900000000000e-01 3.000000578628e+01 
1.000000000000e-01 0.000000000000e+00 1.900000000000e-01 2.999999845484e+01 
0.000000000000e+00 0.000000000000e+00 1.800000000000e-01 2.999999972036e+01 
1.000000000000e-02 0.000000000000e+00 1.800000000000e-01 2.999999967956e+01 
2.000000000000e-02 0.000000000000e+00 1.800000000000e-01 2.999999981401e+01 
3.000000000000e-02 0.000000000000e+00 1.800000000000e-01 2.999999932418e+01 
4.000000000000e-02 0.000000000000e+00 1.800000000000e-01 3.000000126428e+01 
5.000000000000e-02 0.000000000000e+00 1.800000000000e-01 2.999999357561e+01 
6.000000000000e-02 0.000000000000e+00 1.800000000000e-01 3.000002115916e+01 
7.000000000000e-02 0.000000000000e+00 1.800000000000e-01 2.999997684980e+01 
8.000000000000e-02 0.000000000000e+00 1.800000000000e-01 2.999999059092e+01 
9.000000000000e-02 0.000000000000e+00 1.800000000000e-01 2.999997684888e+01 
1.000000000000e-01 0.000000000000e+00 1.800000000000e-01 3.000000612889e+01 
0.000000000000e+00 0.000000000000e+00 1.700000000000e-01 3.000000112538e+01 
1.000000000000e-02 0.000000000000e+00 1.700000000000e-01 3.000000128022e+01 
2.000000000000e-02 0.000000000000e+00 1.700000000000e-01 3.000000077421e+01 
3.000000000000e-02 0.000000000000e+00 1.700000000000e-01 3.000000275515e+01 
4.000000000000e-02 0.000000000000e+00 1.700000000000e-01 2.999999486839e+01 
5.000000000000e-02 0.000000000000e+00 1.700000000000e-01 3.000002627111e+01 