 TITLE = "Time curves in points"
 VARIABLES = "TIME"  "Tracer" 
 ZONE T="POINT=POINT8"
0.000000000000e+00 0.000000000000e+00 
2.160000000000e+04 0.000000000000e+00 
4.320000000000e+04 7.955064661326e-25 
6.480000000000e+04 4.469726605557e-23 
8.640000000000e+04 9.274112883050e-22 
1.080000000000e+05 1.172476673374e-20 
1.296000000000e+05 1.082792251115e-19 
1.512000000000e+05 7.972296114017e-19 
1.728000000000e+05 4.935461246351e-18 
1.944000000000e+05 2.657722660124e-17 
2.160000000000e+05 1.271843305909e-16 
2.376000000000e+05 5.501469403585e-16 
2.592000000000e+05 2.176751703043e-15 
2.808000000000e+05 7.952387988580e-15 
3.024000000000e+05 2.703211519015e-14 
3.240000000000e+05 8.604891380254e-14 
3.456000000000e+05 2.579132671905e-13 
3.672000000000e+05 7.313625676967e-13 
3.888000000000e+05 1.970275368107e-12 
4.104000000000e+05 5.061271254564e-12 
4.320000000000e+05 1.243827089457e-11 
4.536000000000e+05 2.933019801316e-11 
4.752000000000e+05 6.654031828283e-11 
4.968000000000e+05 1.455871864696e-10 
5.184000000000e+05 3.078862700076e-10 
5.400000000000e+05 6.306164225094e-10 
5.616000000000e+05 1.253299562709e-09 
5.832000000000e+05 2.421040976336e-09 
6.048000000000e+05 4.552949543264e-09 
6.264000000000e+05 8.347602809317e-09 
6.480000000000e+05 1.494161765753e-08 
6.696000000000e+05 2.614252242306e-08 
6.912000000000e+05 4.476316072664e-08 
7.128000000000e+05 7.509178212728e-08 
7.344000000000e+05 1.235395995091e-07 
7.560000000000e+05 1.995157171369e-07 
7.776000000000e+05 3.165876214078e-07 
7.992000000000e+05 4.939934758641e-07 
8.208000000000e+05 7.585797975490e-07 
8.424000000000e+05 1.147244179162e-06 
8.640000000000e+05 1.709967020332e-06 
8.856000000000e+05 2.513518188833e-06 
9.072000000000e+05 3.645923655310e-06 
9.288000000000e+05 5.221773008933e-06 
9.504000000000e+05 7.388441050679e-06 
9.720000000000e+05 1.033328519250e-05 
9.936000000000e+05 1.429186515027e-05 
1.015200000000e+06 1.955721252020e-05 
1.036800000000e+06 2.649015560977e-05 
1.058400000000e+06 3.553067979767e-05 
1.080000000000e+06 4.721027634557e-05 
1.101600000000e+06 6.216520370918e-05 
1.123200000000e+06 8.115055582336e-05 
1.144800000000e+06 1.050550024482e-04 
1.166400000000e+06 1.349160383684e-04 
1.188000000000e+06 1.719355519305e-04 
1.209600000000e+06 2.174954999275e-04 
1.231200000000e+06 2.731734559584e-04 
1.252800000000e+06 3.407577837664e-04 
1.274400000000e+06 4.222621762146e-04 
1.296000000000e+06 5.199392948813e-04 
1.317600000000e+06 6.362932449768e-04 
1.339200000000e+06 7.740906254738e-04 
1.360800000000e+06 9.363699049195e-04 
1.382400000000e+06 1.126448889140e-03 
1.404000000000e+06 1.347930067595e-03 
1.425600000000e+06 1.604703650005e-03 
1.447200000000e+06 1.900948133532e-03 
1.468800000000e+06 2.241128272488e-03 
1.490400000000e+06 2.629990356777e-03 
1.512000000000e+06 3.072554741026e-03 
1.533600000000e+06 3.574105603212e-03 
1.555200000000e+06 4.140177948521e-03 
1.576800000000e+06 4.776541910705e-03 
1.598400000000e+06 5.489184438484e-03 
1.620000000000e+06 6.284288488175e-03 
1.641600000000e+06 7.168209874951e-03 
1.663200000000e+06 8.147451963676e-03 
1.684800000000e+06 9.228638405651e-03 
1.706400000000e+06 1.041848414952e-02 
1.728000000000e+06 1.172376497292e-02 
1.749600000000e+06 1.315128579583e-02 
1.771200000000e+06 1.470784804744e-02 
1.792800000000e+06 1.640021636495e-02 
1.814400000000e+06 1.823508490583e-02 
1.836000000000e+06 2.021904355467e-02 
1.857600000000e+06 2.235854430147e-02 
1.879200000000e+06 2.465986806134e-02 
1.900800000000e+06 2.712909219533e-02 
1.922400000000e+06 2.977205897947e-02 
1.944000000000e+06 3.259434525395e-02 
1.965600000000e+06 3.560123346776e-02 
1.987200000000e+06 3.879768431490e-02 
2.008800000000e+06 4.218831113897e-02 
2.030400000000e+06 4.577735626166e-02 
2.052000000000e+06 4.956866936914e-02 
2.073600000000e+06 5.356568806867e-02 
2.095200000000e+06 5.777142070550e-02 
2.116800000000e+06 6.218843150845e-02 
2.138400000000e+06 6.681882811134e-02 
2.160000000000e+06 7.166425147641e-02 
2.181600000000e+06 7.672586822621e-02 
2.203200000000e+06 8.200436537162e-02 
2.224800000000e+06 8.749994740548e-02 
2.246400000000e+06 9.321233571541e-02 
2.268000000000e+06 9.914077025362e-02 
2.289600000000e+06 1.052840133881e-01 
2.311200000000e+06 1.116403558469e-01 
2.332800000000e+06 1.182076246570e-01 
2.354400000000e+06 1.249831929682e-01 
2.376000000000e+06 1.319639916474e-01 
2.397600000000e+06 1.391465225179e-01 
2.419200000000e+06 1.465268731182e-01 
2.440800000000e+06 1.541007328450e-01 
2.462400000000e+06 1.618634103497e-01 
2.484000000000e+06 1.698098520478e-01 
2.505600000000e+06 1.779346616090e-01 
2.527200000000e+06 1.862321202893e-01 
2.548800000000e+06 1.946962079727e-01 
2.570400000000e+06 2.033206247911e-01 
2.592000000000e+06 2.120988131932e-01 
2.613600000000e+06 2.210239803400e-01 
2.635200000000e+06 2.300891207063e-01 
2.656800000000e+06 2.392870387745e-01 
2.678400000000e+06 2.486103717121e-01 
2.700000000000e+06 2.580516119307e-01 
2.721600000000e+06 2.676031294289e-01 
2.743200000000e+06 2.772571938304e-01 
2.764800000000e+06 2.870059960338e-01 
2.786400000000e+06 2.968416693971e-01 
2.808000000000e+06 3.067563103877e-01 
2.829600000000e+06 3.167419986338e-01 
2.851200000000e+06 3.267908163224e-01 
2.872800000000e+06 3.368948668926e-01 
2.894400000000e+06 3.470462929810e-01 
2.916000000000e+06 3.572372935830e-01 
2.937600000000e+06 3.674601403972e-01 
2.959200000000e+06 3.777071933290e-01 
2.980800000000e+06 3.879709151320e-01 
3.002400000000e+06 3.982438851744e-01 
3.024000000000e+06 4.085188123186e-01 
3.045600000000e+06 4.187885469112e-01 
3.067200000000e+06 4.290460918807e-01 
3.088800000000e+06 4.392846129489e-01 
3.110400000000e+06 4.494974479602e-01 
3.132000000000e+06 4.596781153429e-01 
3.153600000000e+06 4.698203217136e-01 
3.175200000000e+06 4.799179686431e-01 
3.196800000000e+06 4.899651586033e-01 
3.218400000000e+06 4.999562001152e-01 
3.240000000000e+06 5.098856121242e-01 
3.261600000000e+06 5.197481276259e-01 
3.283200000000e+06 5.295386965708e-01 
3.304800000000e+06 5.392524880760e-01 
3.326400000000e+06 5.488848919724e-01 
3.348000000000e+06 5.584315197193e-01 
3.369600000000e+06 5.678882047156e-01 
3.391200000000e+06 5.772510020394e-01 
3.412800000000e+06 5.865161876481e-01 
3.434400000000e+06 5.956802570698e-01 
3.456000000000e+06 6.047399236181e-01 
3.477600000000e+06 6.136921161619e-01 
3.499200000000e+06 6.225339764800e-01 
3.520800000000e+06 6.312628562335e-01 
3.542400000000e+06 6.398763135837e-01 
3.564000000000e+06 6.483721094860e-01 
3.585600000000e+06 6.567482036897e-01 
3.607200000000e+06 6.650027504692e-01 
3.628800000000e+06 6.731340941163e-01 
3.650400000000e+06 6.811407642186e-01 
3.672000000000e+06 6.890214707485e-01 
3.693600000000e+06 6.967750989900e-01 
3.715200000000e+06 7.044007043232e-01 
3.736800000000e+06 7.118975068911e-01 
3.758400000000e+06 7.192648861697e-01 
3.780000000000e+06 7.265023754609e-01 
3.801600000000e+06 7.336096563275e-01 
3.823200000000e+06 7.405865529896e-01 
3.844800000000e+06 7.474330266983e-01 
3.866400000000e+06 7.541491701024e-01 
3.888000000000e+06 7.607352016250e-01 
3.909600000000e+06 7.671914598623e-01 
3.931200000000e+06 7.735183980182e-01 
3.952800000000e+06 7.797165783869e-01 
3.974400000000e+06 7.857866668952e-01 
3.996000000000e+06 7.917294277133e-01 
4.017600000000e+06 7.975457179448e-01 
4.039200000000e+06 8.032364824043e-01 
4.060800000000e+06 8.088027484895e-01 
4.082400000000e+06 8.142456211555e-01 
4.104000000000e+06 8.195662779972e-01 
4.125600000000e+06 8.247659644454e-01 
4.147200000000e+06 8.298459890811e-01 
4.168800000000e+06 8.348077190725e-01 
4.190400000000e+06 8.396525757376e-01 
4.212000000000e+06 8.443820302363e-01 
4.233600000000e+06 8.489975993936e-01 
4.255200000000e+06 8.535008416554e-01 
4.276800000000e+06 8.578933531799e-01 
4.298400000000e+06 8.621767640630e-01 
4.320000000000e+06 8.663527347011e-01 
4.341600000000e+06 8.704229522886e-01 
4.363200000000e+06 8.743891274519e-01 
4.384800000000e+06 8.782529910178e-01 
4.406400000000e+06 8.820162909164e-01 
4.428000000000e+06 8.856807892170e-01 
4.449600000000e+06 8.892482592945e-01 
4.471200000000e+06 8.927204831263e-01 
4.492800000000e+06 8.960992487165e-01 
4.514400000000e+06 8.993863476454e-01 
4.536000000000e+06 9.025835727424e-01 
4.557600000000e+06 9.056927158794e-01 
4.579200000000e+06 9.087155658820e-01 
4.600800000000e+06 9.116539065567e-01 
4.622400000000e+06 9.145095148295e-01 
4.644000000000e+06 9.172841589951e-01 
4.665600000000e+06 9.199795970713e-01 
4.687200000000e+06 9.225975752582e-01 
4.708800000000e+06 9.251398264963e-01 
4.730400000000e+06 9.276080691229e-01 
4.752000000000e+06 9.300040056219e-01 
4.773600000000e+06 9.323293214641e-01 
4.795200000000e+06 9.345856840357e-01 
4.816800000000e+06 9.367747416512e-01 
4.838400000000e+06 9.388981226467e-01 
4.860000000000e+06 9.409574345523e-01 
4.881600000000e+06 9.429542633393e-01 
4.903200000000e+06 9.448901727384e-01 
4.924800000000e+06 9.467667036282e-01 
4.946400000000e+06 9.485853734885e-01 
4.968000000000e+06 9.503476759169e-01 
4.989600000000e+06 9.520550802055e-01 
5.011200000000e+06 9.537090309749e-01 
5.032800000000e+06 9.553109478623e-01 
5.054400000000e+06 9.568622252618e-01 
5.076000000000e+06 9.583642321135e-01 
5.097600000000e+06 9.598183117392e-01 
5.119200000000e+06 9.612257817224e-01 
5.140800000000e+06 9.625879338294e-01 
5.162400000000e+06 9.639060339705e-01 
5.184000000000e+06 9.651813221971e-01 
5.205600000000e+06 9.664150127347e-01 
5.227200000000e+06 9.676082940474e-01 
5.248800000000e+06 9.687623289341e-01 
5.270400000000e+06 9.698782546524e-01 
5.292000000000e+06 9.709571830698e-01 
5.313600000000e+06 9.720002008389e-01 
5.335200000000e+06 9.730083695968e-01 
5.356800000000e+06 9.739827261847e-01 
5.378400000000e+06 9.749242828880e-01 
5.400000000000e+06 9.758340276940e-01 
5.421600000000e+06 9.767129245668e-01 
5.443200000000e+06 9.775619137367e-01 
5.464800000000e+06 9.783819120040e-01 
5.486400000000e+06 9.791738130551e-01 
5.508000000000e+06 9.799384877899e-01 
5.529600000000e+06 9.806767846593e-01 
5.551200000000e+06 9.813895300115e-01 
5.572800000000e+06 9.820775284467e-01 
5.594400000000e+06 9.827415631780e-01 
5.616000000000e+06 9.833823963985e-01 
5.637600000000e+06 9.840007696538e-01 
5.659200000000e+06 9.845974042181e-01 
5.680800000000e+06 9.851730014735e-01 
5.702400000000e+06 9.857282432927e-01 
5.724000000000e+06 9.862637924227e-01 
5.745600000000e+06 9.867802928703e-01 
5.767200000000e+06 9.872783702872e-01 
5.788800000000e+06 9.877586323565e-01 
5.810400000000e+06 9.882216691770e-01 
5.832000000000e+06 9.886680536477e-01 
5.853600000000e+06 9.890983418495e-01 
5.875200000000e+06 9.895130734262e-01 
5.896800000000e+06 9.899127719613e-01 
5.918400000000e+06 9.902979453538e-01 
5.940000000000e+06 9.906690861891e-01 
5.961600000000e+06 9.910266721075e-01 
5.983200000000e+06 9.913711661683e-01 
6.004800000000e+06 9.917030172100e-01 
6.026400000000e+06 9.920226602058e-01 
6.048000000000e+06 9.923305166153e-01 
6.069600000000e+06 9.926269947299e-01 
6.091200000000e+06 9.929124900152e-01 
6.112800000000e+06 9.931873854464e-01 
6.134400000000e+06 9.934520518396e-01 
6.156000000000e+06 9.937068481771e-01 
6.177600000000e+06 9.939521219274e-01 
6.199200000000e+06 9.941882093598e-01 
6.220800000000e+06 9.944154358524e-01 
6.242400000000e+06 9.946341161957e-01 
6.264000000000e+06 9.948445548892e-01 
6.285600000000e+06 9.950470464327e-01 
6.307200000000e+06 9.952418756117e-01 
6.328800000000e+06 9.954293177768e-01 
6.350400000000e+06 9.956096391171e-01 
6.372000000000e+06 9.957830969281e-01 
6.393600000000e+06 9.959499398732e-01 
6.415200000000e+06 9.961104082398e-01 
6.436800000000e+06 9.962647341891e-01 
6.458400000000e+06 9.964131420006e-01 
6.480000000000e+06 9.965558483105e-01 
6.501600000000e+06 9.966930623444e-01 
6.523200000000e+06 9.968249861447e-01 
6.544800000000e+06 9.969518147918e-01 
6.566400000000e+06 9.970737366204e-01 
6.588000000000e+06 9.971909334298e-01 
6.609600000000e+06 9.973035806892e-01 
6.631200000000e+06 9.974118477375e-01 
6.652800000000e+06 9.975158979780e-01 
6.674400000000e+06 9.976158890673e-01 
6.696000000000e+06 9.977119731005e-01 
6.717600000000e+06 9.978042967896e-01 
6.739200000000e+06 9.978930016386e-01 
6.760800000000e+06 9.979782241129e-01 
6.782400000000e+06 9.980600958041e-01 
6.804000000000e+06 9.981387435903e-01 
6.825600000000e+06 9.982142897915e-01 
6.847200000000e+06 9.982868523214e-01 
6.868800000000e+06 9.983565448337e-01 
6.890400000000e+06 9.984234768648e-01 
6.912000000000e+06 9.984877539722e-01 
6.933600000000e+06 9.985494778689e-01 
6.955200000000e+06 9.986087465535e-01 
6.976800000000e+06 9.986656544365e-01 
6.998400000000e+06 9.987202924630e-01 
7.020000000000e+06 9.987727482316e-01 
7.041600000000e+06 9.988231061092e-01 
7.063200000000e+06 9.988714473430e-01 
7.084800000000e+06 9.989178501684e-01 
7.106400000000e+06 9.989623899139e-01 
7.128000000000e+06 9.990051391024e-01 
7.149600000000e+06 9.990461675499e-01 
7.171200000000e+06 9.990855424600e-01 
7.192800000000e+06 9.991233285166e-01 
7.214400000000e+06 9.991595879728e-01 
7.236000000000e+06 9.991943807372e-01 
7.257600000000e+06 9.992277644572e-01 
7.279200000000e+06 9.992597946001e-01 
7.300800000000e+06 9.992905245309e-01 
7.322400000000e+06 9.993200055879e-01 
7.344000000000e+06 9.993482871559e-01 
7.365600000000e+06 9.993754167365e-01 
7.387200000000e+06 9.994014400166e-01 
7.408800000000e+06 9.994264009341e-01 
7.430400000000e+06 9.994503417419e-01 
7.452000000000e+06 9.994733030693e-01 
7.473600000000e+06 9.994953239814e-01 
7.495200000000e+06 9.995164420368e-01 
7.516800000000e+06 9.995366933428e-01 
7.538400000000e+06 9.995561126093e-01 
7.560000000000e+06 9.995747332002e-01 
7.581600000000e+06 9.995925871833e-01 
7.603200000000e+06 9.996097053791e-01 
7.624800000000e+06 9.996261174064e-01 
7.646400000000e+06 9.996418517279e-01 
7.668000000000e+06 9.996569356931e-01 
7.689600000000e+06 9.996713955805e-01 
7.711200000000e+06 9.996852566374e-01 
7.732800000000e+06 9.996985431190e-01 
7.754400000000e+06 9.997112783260e-01 
7.776000000000e+06 9.997234846406e-01 
7.797600000000e+06 9.997351835613e-01 
7.819200000000e+06 9.997463957366e-01 
7.840800000000e+06 9.997571409976e-01 
7.862400000000e+06 9.997674383885e-01 
7.884000000000e+06 9.997773061978e-01 
7.905600000000e+06 9.997867619860e-01 
7.927200000000e+06 9.997958226146e-01 
7.948800000000e+06 9.998045042725e-01 
7.970400000000e+06 9.998128225021e-01 
7.992000000000e+06 9.998207922239e-01 
8.013600000000e+06 9.998284277611e-01 
8.035200000000e+06 9.998357428625e-01 
8.056800000000e+06 9.998427507247e-01 
8.078400000000e+06 9.998494640138e-01 
8.100000000000e+06 9.998558948857e-01 
8.121600000000e+06 9.998620550066e-01 
8.143200000000e+06 9.998679555716e-01 
8.164800000000e+06 9.998736073234e-01 
8.186400000000e+06 9.998790205701e-01 
8.208000000000e+06 9.998842052020e-01 
8.229600000000e+06 9.998891707084e-01 
8.251200000000e+06 9.998939261932e-01 
8.272800000000e+06 9.998984803900e-01 
8.294400000000e+06 9.999028416770e-01 
8.316000000000e+06 9.999070180911e-01 
8.337600000000e+06 9.999110173410e-01 
8.359200000000e+06 9.999148468207e-01 
8.380800000000e+06 9.999185136219e-01 
8.402400000000e+06 9.999220245458e-01 
8.424000000000e+06 9.999253861151e-01 
8.445600000000e+06 9.999286045847e-01 
8.467200000000e+06 9.999316859526e-01 
8.488800000000e+06 9.999346359705e-01 
8.510400000000e+06 9.999374601530e-01 
8.532000000000e+06 9.999401637878e-01 
8.553600000000e+06 9.999427519443e-01 
8.575200000000e+06 9.999452294828e-01 
8.596800000000e+06 9.999476010626e-01 
8.618400000000e+06 9.999498711504e-01 
8.640000000000e+06 9.999520440279e-01 
8.661600000000e+06 9.999541237993e-01 
8.683200000000e+06 9.999561143986e-01 
8.704800000000e+06 9.999580195963e-01 
8.726400000000e+06 9.999598430064e-01 
8.748000000000e+06 9.999615880924e-01 
8.769600000000e+06 9.999632581736e-01 
8.791200000000e+06 9.999648564309e-01 
8.812800000000e+06 9.999663859127e-01 
8.834400000000e+06 9.999678495398e-01 
8.856000000000e+06 9.999692501112e-01 
8.877600000000e+06 9.999705903088e-01 
8.899200000000e+06 9.999718727020e-01 
8.920800000000e+06 9.999730997528e-01 
8.942400000000e+06 9.999742738199e-01 
8.964000000000e+06 9.999753971629e-01 
8.985600000000e+06 9.999764719465e-01 
9.007200000000e+06 9.999775002446e-01 
9.028800000000e+06 9.999784840435e-01 
9.050400000000e+06 9.999794252461e-01 
9.072000000000e+06 9.999803256751e-01 
9.093600000000e+06 9.999811870762e-01 
9.115200000000e+06 9.999820111215e-01 
9.136800000000e+06 9.999827994125e-01 
9.158400000000e+06 9.999835534830e-01 
9.180000000000e+06 9.999842748018e-01 
9.201600000000e+06 9.999849647755e-01 
9.223200000000e+06 9.999856247514e-01 
9.244800000000e+06 9.999862560193e-01 
9.266400000000e+06 9.999868598145e-01 
9.288000000000e+06 9.999874373197e-01 
9.309600000000e+06 9.999879896676e-01 
9.331200000000e+06 9.999885179423e-01 
9.352800000000e+06 9.999890231823e-01 
9.374400000000e+06 9.999895063814e-01 
9.396000000000e+06 9.999899684913e-01 
9.417600000000e+06 9.999904104231e-01 
9.439200000000e+06 9.999908330490e-01 
9.460800000000e+06 9.999912372039e-01 
9.482400000000e+06 9.999916236872e-01 
9.504000000000e+06 9.999919932639e-01 
9.525600000000e+06 9.999923466664e-01 
9.547200000000e+06 9.999926845957e-01 
9.568800000000e+06 9.999930077229e-01 
9.590400000000e+06 9.999933166901e-01 
9.612000000000e+06 9.999936121120e-01 
9.633600000000e+06 9.999938945769e-01 
9.655200000000e+06 9.999941646479e-01 
9.676800000000e+06 9.999944228637e-01 
9.698400000000e+06 9.999946697402e-01 
9.720000000000e+06 9.999949057706e-01 
9.741600000000e+06 9.999951314274e-01 
9.763200000000e+06 9.999953471623e-01 
9.784800000000e+06 9.999955534078e-01 
9.806400000000e+06 9.999957505777e-01 
9.828000000000e+06 9.999959390679e-01 
9.849600000000e+06 9.999961192572e-01 
9.871200000000e+06 9.999962915081e-01 
9.892800000000e+06 9.999964561673e-01 
9.914400000000e+06 9.999966135668e-01 
9.936000000000e+06 9.999967640238e-01 
9.957600000000e+06 9.999969078421e-01 
9.979200000000e+06 9.999970453123e-01 
1.000080000000e+07 9.999971767123e-01 
1.002240000000e+07 9.999973023079e-01 
1.004400000000e+07 9.999974223537e-01 
1.006560000000e+07 9.999975370927e-01 
1.008720000000e+07 9.999976467579e-01 
1.010880000000e+07 9.999977515719e-01 
1.013040000000e+07 9.999978517475e-01 
1.015200000000e+07 9.999979474886e-01 
1.017360000000e+07 9.999980389899e-01 
1.019520000000e+07 9.999981264378e-01 
1.021680000000e+07 9.999982100105e-01 
1.023840000000e+07 9.999982898785e-01 
1.026000000000e+07 9.999983662047e-01 
1.028160000000e+07 9.999984391452e-01 
1.030320000000e+07 9.999985088491e-01 
1.032480000000e+07 9.999985754588e-01 
1.034640000000e+07 9.999986391109e-01 
1.036800000000e+07 9.999986999357e-01 
1.038960000000e+07 9.999987580579e-01 
1.041120000000e+07 9.999988135968e-01 
1.043280000000e+07 9.999988666664e-01 
1.045440000000e+07 9.999989173757e-01 
1.047600000000e+07 9.999989658291e-01 
1.049760000000e+07 9.999990121261e-01 
1.051920000000e+07 9.999990563622e-01 
1.054080000000e+07 9.999990986285e-01 
1.056240000000e+07 9.999991390121e-01 
1.058400000000e+07 9.999991775964e-01 
1.060560000000e+07 9.999992144609e-01 
1.062720000000e+07 9.999992496819e-01 
1.064880000000e+07 9.999992833322e-01 
1.067040000000e+07 9.999993154813e-01 
1.069200000000e+07 9.999993461959e-01 
1.071360000000e+07 9.999993755395e-01 
1.073520000000e+07 9.999994035730e-01 
1.075680000000e+07 9.999994303545e-01 
1.077840000000e+07 9.999994559395e-01 
1.080000000000e+07 9.999994803813e-01 
