 TITLE = "Time curves in points"
 VARIABLES = "TIME"  "TEMPERATURE1"  p_(1st_Invariant)  q_(2nd_Invariant)   Effective_Strain
 ZONE T="POINT=POINT6"
0.000000000000e+00 3.000000000000e+01 -0.000000000000e+00 0.000000000000e+00  0.000000000000e+00
1.000000000000e-02 3.000000000000e+01 -4.350209358075e+03 5.267149188367e+03  2.458002955153e-04
7.000000000000e-02 3.000000000000e+01 -4.227212011034e+02 1.268392011397e+04  5.919162719857e-04
4.300000000000e-01 3.000000000000e+01 2.314129744363e+04 5.789232808795e+04  2.701641977452e-03
1.430000000000e+00 3.000000000000e+01 8.859090172111e+04 1.836422038718e+05  8.569969514018e-03
2.430000000000e+00 3.000000000000e+01 1.540341338920e+05 3.093928131547e+05  1.443833128056e-02
3.430000000000e+00 3.000000000000e+01 2.194730490602e+05 4.351388151538e+05  2.030647804051e-02
4.430000000000e+00 3.000000000000e+01 2.849087548810e+05 5.608812036298e+05  2.617445616939e-02
5.430000000000e+00 3.000000000000e+01 3.503419934641e+05 6.866208290059e+05  3.204230535361e-02
6.430000000000e+00 3.000000000000e+01 4.157733079349e+05 8.123582877508e+05  3.791005342837e-02
7.430000000000e+00 3.000000000000e+01 4.812030925527e+05 9.380940020128e+05  4.377772009393e-02
8.430000000000e+00 3.000000000000e+01 5.466316554998e+05 1.063828264175e+06  4.964531899481e-02
9.430000000000e+00 3.000000000000e+01 6.120295068166e+05 1.189571518928e+06  5.551333754998e-02
