 TITLE = "Time curves in points"
 VARIABLES = "TIME"  "TEMPERATURE1"  p_(1st_Invariant)  q_(2nd_Invariant)   Effective_Strain
 ZONE T="POINT=POINT6"
0.000000000000e+00 3.000000000000e+01 -0.000000000000e+00 0.000000000000e+00  0.000000000000e+00
1.000000000000e-02 3.000000000000e+01 -4.264137499530e+03 5.432035802310e+03  2.534950041585e-04
7.000000000000e-02 3.000000000000e+01 -3.366496954030e+02 1.285443410127e+04  5.998735913953e-04
4.300000000000e-01 3.000000000000e+01 2.322736980961e+04 5.806391953635e+04  2.709649578365e-03
1.430000000000e+00 3.000000000000e+01 8.867697504820e+04 1.838138298238e+05  8.577978725113e-03
2.430000000000e+00 3.000000000000e+01 1.541202073923e+05 3.095644397259e+05  1.444634052054e-02
3.430000000000e+00 3.000000000000e+01 2.195591229250e+05 4.353104414808e+05  2.031448726910e-02
4.430000000000e+00 3.000000000000e+01 2.849948291231e+05 5.610528275373e+05  2.618246528508e-02
5.430000000000e+00 3.000000000000e+01 3.504280693369e+05 6.867924533311e+05  3.205031448878e-02
6.430000000000e+00 3.000000000000e+01 4.158593815876e+05 8.125299137298e+05  3.791806264073e-02
7.430000000000e+00 3.000000000000e+01 4.812891681350e+05 9.382656253968e+05  4.378572918518e-02
8.430000000000e+00 3.000000000000e+01 5.467177320097e+05 1.063999890959e+06  4.965332824476e-02
9.430000000000e+00 3.000000000000e+01 6.121155084242e+05 1.189743167202e+06  5.552134780276e-02
