 TITLE = "Time curves in points"
 VARIABLES = "TIME"  "PRESSURE1"  "PRESSURE2"  "PRESSURE_W"  "SATURATION1" SATURATION2  "VELOCITY_X1"  "VELOCITY_Y1"  "VELOCITY_X2"  "VELOCITY_Y2"  p_(1st_Invariant)  q_(2nd_Invariant)   Effective_Strain
 ZONE T="POINT=POINT6"
0.000000000000e+00 1.000000000000e+05 1.000000000000e+05 0.000000000000e+00 9.251121356155e-01 7.488786438454e-02 0.000000000000e+00 0.000000000000e+00 0.000000000000e+00 0.000000000000e+00 -0.000000000000e+00 0.000000000000e+00  0.000000000000e+00
1.000000000000e-02 9.999999997033e+04 1.000000000000e+05 2.967120963149e-05 9.251121356792e-01 7.488786432075e-02 -6.851803171437e-20 -9.238128874775e-07 -1.491916473681e-21 -2.354495670734e-11 -4.264137499530e+03 5.432035802310e+03  2.534950041585e-04
7.000000000000e-02 1.000000000059e+05 1.000000000000e+05 -5.933645297773e-06 9.251121356027e-01 7.488786439730e-02 -6.851803157804e-20 -9.238121441196e-07 3.277446447829e-21 -2.354495673610e-11 -3.366496954030e+02 1.285443410127e+04  5.998735913953e-04
4.300000000000e-01 9.999999505604e+04 1.000000000000e+05 4.943956009811e-03 9.251121462450e-01 7.488785375504e-02 -1.370361272287e-19 -9.237390074505e-07 1.018858917624e-20 -2.354495369036e-11 2.322736980961e+04 5.806391953635e+04  2.709649578365e-03
1.430000000000e+00 9.999922361495e+04 1.000000000000e+05 7.763850521878e-01 9.251138048427e-01 7.488619515735e-02 -3.426147191256e-19 -9.182193373104e-07 9.068348012719e-21 -2.354447970155e-11 8.867697504820e+04 1.838138298238e+05  8.577978725113e-03
2.430000000000e+00 9.999699299433e+04 1.000000000000e+05 3.007005670792e+00 9.251186006751e-01 7.488139932493e-02 1.370711067234e-19 -9.055005095110e-07 1.967938028611e-20 -2.354310914818e-11 1.541202073923e+05 3.095644397259e+05  1.444634052054e-02
3.430000000000e+00 9.999299217060e+04 1.000000000000e+05 7.007829395763e+00 9.251272024426e-01 7.487279755736e-02 2.056771017877e-19 -8.867782570654e-07 1.732831872961e-20 -2.354065092093e-11 2.195591229250e+05 4.353104414808e+05  2.031448726910e-02
4.430000000000e+00 9.998725735711e+04 1.000000000000e+05 1.274264288973e+01 9.251395322867e-01 7.486046771328e-02 2.057767863608e-19 -8.642973409201e-07 1.916810730834e-20 -2.353712728861e-11 2.849948291231e+05 5.610528275373e+05  2.618246528508e-02
5.430000000000e+00 9.998000585427e+04 1.000000000000e+05 1.999414573288e+01 9.251551230116e-01 7.484487698839e-02 -1.372816074794e-19 -8.400616639155e-07 3.703619110210e-21 -2.353267175661e-11 3.504280693369e+05 6.867924533311e+05  3.205031448878e-02
6.430000000000e+00 9.997150879364e+04 1.000000000000e+05 2.849120635526e+01 9.251733916846e-01 7.482660831535e-02 -1.373482495060e-19 -8.154693544616e-07 -3.454572205563e-21 -2.352745092068e-11 4.158593815876e+05 8.125299137298e+05  3.791806264073e-02
7.430000000000e+00 9.996202563105e+04 1.000000000000e+05 3.797436895466e+01 9.251937804761e-01 7.480621952391e-02 -6.875070087890e-20 -7.913715980340e-07 -8.697937943441e-21 -2.352162419583e-11 4.812891681350e+05 9.382656253968e+05  4.378572918518e-02
8.430000000000e+00 9.995177959445e+04 1.000000000000e+05 4.822040555117e+01 9.252158094460e-01 7.478419055403e-02 6.879594247657e-20 -7.682320242521e-07 -5.081398585427e-21 -2.351532873041e-11 5.467177320097e+05 1.063999890959e+06  4.965332824476e-02
9.430000000000e+00 9.994095346541e+04 1.000000000000e+05 5.904653459428e+01 9.252390856141e-01 7.476091438588e-02 -2.066288587401e-19 -7.462678319171e-07 -1.435736557898e-20 -2.350867684403e-11 6.121155084242e+05 1.189743167202e+06  5.552134780276e-02
