 TITLE = "Time curves in points"
 VARIABLES = "TIME"  "PRESSURE1"  "PRESSURE2"  "PRESSURE_W"  "SATURATION1" SATURATION2  "VELOCITY_X1"  "VELOCITY_Y1"  "VELOCITY_X2"  "VELOCITY_Y2"  p_(1st_Invariant)  q_(2nd_Invariant)   Effective_Strain
 ZONE T="POINT=POINT6"
0.000000000000e+00 1.000000000000e+05 1.000000000000e+05 0.000000000000e+00 9.251121356155e-01 7.488786438454e-02 0.000000000000e+00 0.000000000000e+00 0.000000000000e+00 0.000000000000e+00 -0.000000000000e+00 0.000000000000e+00  0.000000000000e+00
1.000000000000e-02 9.999999997033e+04 1.000000000000e+05 2.967134059872e-05 9.251121356793e-01 7.488786432075e-02 1.370360633738e-19 -9.238128874767e-07 1.995646597328e-21 -2.354495669793e-11 -4.264134706341e+03 5.432038021862e+03  2.534951076994e-04
7.000000000000e-02 1.000000000059e+05 1.000000000000e+05 -5.933543434367e-06 9.251121356027e-01 7.488786439730e-02 2.055540949219e-19 -9.238121441192e-07 6.190028146396e-21 -2.354495672155e-11 -3.366484919092e+02 1.285443385005e+04  5.998735797051e-04
4.300000000000e-01 9.999999505604e+04 1.000000000000e+05 4.943955951603e-03 9.251121462450e-01 7.488785375504e-02 6.851806249904e-20 -9.237390074509e-07 2.237310011040e-20 -2.354495368676e-11 2.322737443578e+04 5.806390949958e+04  2.709649109985e-03
1.430000000000e+00 9.999922361495e+04 1.000000000000e+05 7.763850521442e-01 9.251138048427e-01 7.488619515735e-02 -4.912868215166e-25 -9.182193373108e-07 1.245136240231e-20 -2.354447969563e-11 8.867697255746e+04 1.838138303687e+05  8.577978750542e-03
2.430000000000e+00 9.999699299433e+04 1.000000000000e+05 3.007005670777e+00 9.251186006751e-01 7.488139932493e-02 -1.370718191417e-19 -9.055005095109e-07 1.905899893136e-20 -2.354310913099e-11 1.541202081808e+05 3.095644433037e+05  1.444634068751e-02
3.430000000000e+00 9.999299217060e+04 1.000000000000e+05 7.007829395778e+00 9.251272024426e-01 7.487279755736e-02 1.371185955896e-19 -8.867782570652e-07 2.654445854659e-20 -2.354065091159e-11 2.195591250681e+05 4.353104395599e+05  2.031448717946e-02
4.430000000000e+00 9.998725735711e+04 1.000000000000e+05 1.274264288980e+01 9.251395322867e-01 7.486046771327e-02 9.680850184322e-25 -8.642973409204e-07 1.786224947715e-20 -2.353712727336e-11 2.849948294750e+05 5.610528287082e+05  2.618246533971e-02
5.430000000000e+00 9.998000585427e+04 1.000000000000e+05 1.999414573282e+01 9.251551230116e-01 7.484487698839e-02 1.372873461256e-19 -8.400616639155e-07 2.163211508109e-20 -2.353267176029e-11 3.504280703594e+05 6.867924538355e+05  3.205031451232e-02
6.430000000000e+00 9.997150879364e+04 1.000000000000e+05 2.849120635532e+01 9.251733916846e-01 7.482660831535e-02 1.012466856813e-24 -8.154693544620e-07 2.376509137114e-20 -2.352745091797e-11 4.158593850236e+05 8.125299157895e+05  3.791806273684e-02
7.430000000000e+00 9.996202563105e+04 1.000000000000e+05 3.797436895466e+01 9.251937804761e-01 7.480621952391e-02 1.374868542408e-19 -7.913715980338e-07 2.825637408578e-20 -2.352162418517e-11 4.812891717322e+05 9.382656268047e+05  4.378572925089e-02
8.430000000000e+00 9.995177959445e+04 1.000000000000e+05 4.822040555110e+01 9.252158094460e-01 7.478419055403e-02 2.064290492357e-19 -7.682320242518e-07 2.800523181056e-20 -2.351532871805e-11 5.467177277023e+05 1.063999892866e+06  4.965332833375e-02
9.430000000000e+00 9.994095346541e+04 1.000000000000e+05 5.904653459422e+01 9.252390856141e-01 7.476091438588e-02 5.611757331807e-23 -7.462678319168e-07 2.291022860922e-20 -2.350867684181e-11 6.121155096487e+05 1.189743170595e+06  5.552134796110e-02
