 TITLE = "Time curves in points"
 VARIABLES = "TIME"  "TEMPERATURE1"  p_(1st_Invariant)  q_(2nd_Invariant)   Effective_Strain
 ZONE T="POINT=POINT6"
0.000000000000e+00 3.000000000000e+01 -0.000000000000e+00 0.000000000000e+00  0.000000000000e+00
1.000000000000e-02 3.000000000000e+01 -4.264135465951e+03 5.432037142078e+03  2.534950666366e-04
7.000000000000e-02 3.000000000000e+01 -3.366491083929e+02 1.285443455752e+04  5.998736127509e-04
4.300000000000e-01 3.000000000000e+01 2.322737101171e+04 5.806391423003e+04  2.709649330749e-03
1.430000000000e+00 3.000000000000e+01 8.867697156586e+04 1.838138307827e+05  8.577978769861e-03
2.430000000000e+00 3.000000000000e+01 1.541202097341e+05 3.095644404548e+05  1.444634055456e-02
3.430000000000e+00 3.000000000000e+01 2.195591248638e+05 4.353104449135e+05  2.031448742930e-02
4.430000000000e+00 3.000000000000e+01 2.849948293948e+05 5.610528291414e+05  2.618246535993e-02
5.430000000000e+00 3.000000000000e+01 3.504280715410e+05 6.867924554299e+05  3.205031458673e-02
6.430000000000e+00 3.000000000000e+01 4.158593827192e+05 8.125299144368e+05  3.791806267372e-02
7.430000000000e+00 3.000000000000e+01 4.812891670197e+05 9.382656277096e+05  4.378572929312e-02
8.430000000000e+00 3.000000000000e+01 5.467177299717e+05 1.063999890138e+06  4.965332820644e-02
9.430000000000e+00 3.000000000000e+01 6.121155103157e+05 1.189743171129e+06  5.552134798601e-02
