 TITLE = "Time curves in points"
 VARIABLES = "TIME"  "DISPLACEMENT_X1"  "DISPLACEMENT_Y1"  "STRESS_XX"  "STRESS_XY"  "STRESS_YY"  "STRESS_ZZ"  "STRAIN_XX"  "STRAIN_XY"  "STRAIN_YY"  "STRAIN_PLS"  p_(1st_Invariant)  q_(2nd_Invariant)   Effective_Strain
 ZONE T="POINT=POINT6"
0.000000000000e+00 0.000000000000e+00 0.000000000000e+00 0.000000000000e+00 0.000000000000e+00 0.000000000000e+00 0.000000000000e+00 0.000000000000e+00 0.000000000000e+00 0.000000000000e+00 0.000000000000e+00 -0.000000000000e+00 0.000000000000e+00  0.000000000000e+00
1.000000000000e-02 -3.792319021432e-10 -7.023565739945e-06 7.660215421107e+03 -1.795735330500e-02 1.477216092481e+03 3.654972605435e+03 1.869113313980e-04 -1.676019641800e-09 -1.016286372712e-04 0.000000000000e+00 -4.264134706341e+03 5.432038021862e+03  2.534951076994e-04
7.000000000000e-02 7.064409410862e-10 -2.417686871348e-05 7.782088787136e+03 4.700859252074e-02 -7.060699161617e+03 2.885558502078e+02 3.496982037233e-04 4.387468635269e-09 -3.429652338851e-04 0.000000000000e+00 -3.366484919092e+02 1.285443385005e+04  5.998735797051e-04
4.300000000000e-01 5.469490260097e-10 -1.270937862069e-04 8.513348375847e+03 3.771324923264e-02 -5.828629359537e+04 -1.990917808781e+04 1.326384568304e-03 3.519903261713e-09 -1.790932057020e-03 0.000000000000e+00 2.322737443578e+04 5.806390949958e+04  2.709649109985e-03
1.430000000000e+00 -5.055571119039e-10 -4.129525162708e-04 1.054532571281e+04 -4.454547456037e-02 -2.005674097645e+05 -7.600883362068e+04 4.039194102229e-03 -4.157577625635e-09 -5.812733553379e-03 0.000000000000e+00 8.867697255746e+04 1.838138303687e+05  8.577978750542e-03
2.430000000000e+00 9.173821461940e-10 -6.987887264371e-04 1.257830893066e+04 7.046550254390e-02 -3.428358978896e+05 -1.321030355836e+05 6.751796077332e-03 6.576780237432e-09 -9.834200240948e-03 0.000000000000e+00 1.541202081808e+05 3.095644433037e+05  1.444634068751e-02
3.430000000000e+00 4.299537406736e-10 -9.846116968891e-04 1.461245677728e+04 3.120408855052e-02 -4.850962962088e+05 -1.881935357726e+05 9.464279652329e-03 2.912381598048e-09 -1.385546215369e-02 0.000000000000e+00 2.195591250681e+05 4.353104395599e+05  2.031448717946e-02
4.430000000000e+00 -9.828414738389e-11 -1.270425955202e-03 1.664772025283e+04 -7.541189021023e-03 -6.273509262706e+05 -2.442812824071e+05 1.217668679080e-02 -7.038443086316e-10 -1.787658338030e-02 0.000000000000e+00 2.849948294750e+05 5.610528287082e+05  2.618246533971e-02
5.430000000000e+00 -3.797954048988e-10 -1.556234045385e-03 1.868392757062e+04 -3.007541870975e-02 -7.696012211979e+05 -3.003669174509e+05 1.488903943434e-02 -2.807039079574e-09 -2.189760084153e-02 0.000000000000e+00 3.504280703594e+05 6.867924538355e+05  3.205031451232e-02
6.430000000000e+00 2.996879502389e-10 -1.842037525009e-03 2.072090228804e+04 2.210538666621e-02 -9.118481559101e+05 -3.564509014488e+05 1.760135084105e-02 2.063169422185e-09 -2.591853854153e-02 0.000000000000e+00 4.158593850236e+05 8.125299157895e+05  3.791806273684e-02
7.430000000000e+00 4.265543165045e-10 -2.127837406354e-03 2.275847839066e+04 3.079009570649e-02 -1.054092417817e+06 -4.125335757704e+05 2.031362919419e-02 2.873742265947e-09 -2.993941262883e-02 0.000000000000e+00 4.812891717322e+05 9.382656268047e+05  4.378572925089e-02
8.430000000000e+00 4.565316876999e-10 -2.413634387006e-03 2.479652516208e+04 3.560864538093e-02 -1.196334513096e+06 -4.686151951734e+05 2.302588028232e-02 3.323473568897e-09 -3.396023483637e-02 0.000000000000e+00 5.467177277023e+05 1.063999892866e+06  4.965332833375e-02
9.430000000000e+00 2.587288827374e-10 -2.699677768869e-03 2.687318384214e+04 2.338820081477e-02 -1.338549275947e+06 -5.246704368418e+05 2.573870229858e-02 2.182898742708e-09 -3.798101249156e-02 0.000000000000e+00 6.121155096487e+05 1.189743170595e+06  5.552134796110e-02
