 TITLE = "Time curves in points"
 VARIABLES = "TIME"  "DISPLACEMENT_X1"  "DISPLACEMENT_Y1"  "STRESS_XX"  "STRESS_XY"  "STRESS_YY"  "STRESS_ZZ"  "STRAIN_XX"  "STRAIN_XY"  "STRAIN_YY"  "STRAIN_PLS"  p_(1st_Invariant)  q_(2nd_Invariant)   Effective_Strain
 ZONE T="POINT=POINT6"
0.000000000000e+00 0.000000000000e+00 0.000000000000e+00 0.000000000000e+00 0.000000000000e+00 0.000000000000e+00 0.000000000000e+00 0.000000000000e+00 0.000000000000e+00 0.000000000000e+00 0.000000000000e+00 -0.000000000000e+00 0.000000000000e+00  0.000000000000e+00
1.000000000000e-02 2.139519366900e-10 -7.024447151066e-06 7.660221597376e+03 1.132962766022e-02 1.476821222119e+03 3.654817127798e+03 1.869188752470e-04 1.057431914954e-09 -1.016398089317e-04 0.000000000000e+00 -4.263953315765e+03 5.432373851806e+03  2.535107797559e-04
7.000000000000e-02 2.862896193421e-10 -2.417766509144e-05 7.782087592029e+03 2.145487850052e-02 -7.060885444713e+03 2.884808589260e+02 3.497016475448e-04 2.002455326716e-09 -3.429704275032e-04 0.000000000000e+00 -3.365610020804e+02 1.285459403302e+04  5.998810548819e-04
4.300000000000e-01 -5.588782885654e-10 -1.270947577680e-04 8.513335607974e+03 -4.104832112917e-02 -5.828619171903e+04 -1.990914244442e+04 1.326382309112e-03 -3.831176638723e-09 -1.790928966148e-03 0.000000000000e+00 2.322733285183e+04 5.806380981638e+04  2.709644458104e-03
1.430000000000e+00 7.062254808113e-10 -4.129539619776e-04 1.054516994508e+04 6.413878490919e-02 -2.005671827912e+05 -7.600880513846e+04 4.039185503898e-03 5.986286591524e-09 -5.812724290462e-03 0.000000000000e+00 8.867693932820e+04 1.838134999451e+05  8.577963330776e-03
2.430000000000e+00 7.341699335776e-10 -6.987905041247e-04 1.257793646184e+04 5.950920702899e-02 -3.428357166709e+05 -1.321031120836e+05 6.751782265455e-03 5.554192656039e-09 -9.834188214073e-03 0.000000000000e+00 1.541202974309e+05 3.095639685732e+05  1.444631853342e-02
3.430000000000e+00 5.066426018043e-10 -9.846137226449e-04 1.461180823808e+04 4.274457711448e-02 -4.850962663256e+05 -1.881937832350e+05 9.464260935411e-03 3.989493864021e-09 -1.385544921090e-02 0.000000000000e+00 2.195594137742e+05 4.353098621570e+05  2.031446023399e-02
4.430000000000e+00 2.584809634942e-10 -1.270428169392e-03 1.664675104200e+04 7.814730846309e-03 -6.273511063568e+05 -2.442817421259e+05 1.217666301450e-02 7.293748789828e-10 -1.787657033077e-02 0.000000000000e+00 2.849953658136e+05 5.610521618768e+05  2.618243422092e-02
5.430000000000e+00 7.897851826649e-10 -1.556236403629e-03 1.868263967689e+04 5.884583357363e-02 -7.696016299179e+05 -3.003675960964e+05 1.488901100275e-02 5.492277800200e-09 -2.189758824500e-02 0.000000000000e+00 3.504288621125e+05 6.867917155637e+05  3.205028005964e-02
6.430000000000e+00 2.047884249237e-10 -1.842039999225e-03 2.071930268162e+04 2.163187728564e-02 -9.118487949287e+05 -3.564517968989e+05 1.760131798042e-02 2.018975213320e-09 -2.591852657473e-02 0.000000000000e+00 4.158604297153e+05 8.125291134661e+05  3.791802529508e-02
7.430000000000e+00 1.506491944121e-10 -2.127839971807e-03 2.275658036456e+04 1.498456438141e-02 -1.054093284947e+06 -4.125346818331e+05 2.031359223589e-02 1.398559342258e-09 -2.993940147867e-02 0.000000000000e+00 4.812904621387e+05 9.382647698272e+05  4.378568925860e-02
8.430000000000e+00 -9.035113295294e-10 -2.413637021531e-03 2.479433462314e+04 -5.647864968108e-02 -1.196335605423e+06 -4.686165083198e+05 2.302583933733e-02 -5.271340636912e-09 -3.396022453146e-02 0.000000000000e+00 5.467192597064e+05 1.063998983716e+06  4.965328590675e-02
9.430000000000e+00 8.176746456494e-10 -2.699680434202e-03 2.687072746521e+04 6.463944737509e-02 -1.338550570543e+06 -5.246719372310e+05 2.573865768582e-02 6.033015088333e-09 -3.798100288788e-02 0.000000000000e+00 6.121172601028e+05 1.189742211951e+06  5.552130322437e-02
