 TITLE = "Time curves in points"
 VARIABLES = "TIME"  "DISPLACEMENT_X1"  "DISPLACEMENT_Y1"  "STRESS_XX"  "STRESS_XY"  "STRESS_YY"  "STRESS_ZZ"  "STRAIN_XX"  "STRAIN_XY"  "STRAIN_YY"  "STRAIN_PLS"  p_(1st_Invariant)  q_(2nd_Invariant)   Effective_Strain
 ZONE T="POINT=POINT6"
0.000000000000e+00 0.000000000000e+00 0.000000000000e+00 0.000000000000e+00 0.000000000000e+00 0.000000000000e+00 0.000000000000e+00 0.000000000000e+00 0.000000000000e+00 0.000000000000e+00 0.000000000000e+00 -0.000000000000e+00 0.000000000000e+00  0.000000000000e+00
1.000000000000e-02 1.845982065440e-10 -7.024444027473e-06 7.660220779572e+03 3.459944501132e-03 1.476821874873e+03 3.654817061778e+03 1.869188401637e-04 3.229281534389e-10 -1.016397753889e-04 0.000000000000e+00 -4.263953238741e+03 5.432372593601e+03  2.535107210352e-04
7.000000000000e-02 -4.681725533728e-10 -2.417766743698e-05 7.782090035532e+03 -3.536778358403e-02 -7.060884057076e+03 2.884823913826e+02 3.497016900603e-04 -3.300993134510e-09 -3.429704342614e-04 0.000000000000e+00 -3.365627899463e+02 1.285459494966e+04  5.998810976711e-04
4.300000000000e-01 1.377220489688e-10 -1.270947583906e-04 8.513335938577e+03 1.665161961435e-02 -5.828619137085e+04 -1.990914217291e+04 1.326382311869e-03 1.554151164006e-09 -1.790928962571e-03 0.000000000000e+00 2.322733253506e+04 5.806380979536e+04  2.709644457118e-03
1.430000000000e+00 5.635808262808e-10 -4.129539618800e-04 1.054516866592e+04 4.996837173679e-02 -2.005671798436e+05 -7.600880447107e+04 4.039185413059e-03 4.663714695432e-09 -5.812724184051e-03 0.000000000000e+00 8.867693854958e+04 1.838134962869e+05  8.577963160060e-03
2.430000000000e+00 6.300516179799e-10 -6.987905006570e-04 1.257793418664e+04 4.726600069076e-02 -3.428357168611e+05 -1.321031130698e+05 6.751782205299e-03 4.411493397803e-09 -9.834188176927e-03 0.000000000000e+00 1.541202985814e+05 3.095639668041e+05  1.444631845086e-02
3.430000000000e+00 8.468819386992e-10 -9.846137218685e-04 1.461180506256e+04 8.064281737571e-02 -4.850962672520e+05 -1.881937848758e+05 9.464260863790e-03 7.526662955066e-09 -1.385544917756e-02 0.000000000000e+00 2.195594156884e+05 4.353098602650e+05  2.031446014570e-02
4.430000000000e+00 6.405761053076e-10 -1.270428167113e-03 1.664674996152e+04 4.554307974723e-02 -6.273511040233e+05 -2.442817416247e+05 1.217666294069e-02 4.250687443080e-09 -1.787657024527e-02 0.000000000000e+00 2.849953652288e+05 5.610521589242e+05  2.618243408313e-02
5.430000000000e+00 2.679509636798e-10 -1.556236405991e-03 1.868264200654e+04 1.967505880475e-02 -7.696016282717e+05 -3.003675945061e+05 1.488901103725e-02 1.836338821783e-09 -2.189758824240e-02 0.000000000000e+00 3.504288602571e+05 6.867917161086e+05  3.205028008507e-02
6.430000000000e+00 3.165181195867e-10 -1.842039998751e-03 2.071930171592e+04 2.547939950924e-02 -9.118487965293e+05 -3.564517979254e+05 1.760131798326e-02 2.378077287532e-09 -2.591852660152e-02 0.000000000000e+00 4.158604309129e+05 8.125291140407e+05  3.791802532190e-02
7.430000000000e+00 4.416117232455e-10 -2.127839970595e-03 2.275657934729e+04 3.405570279821e-02 -1.054093285412e+06 -4.125346824258e+05 2.031359221608e-02 3.178532261176e-09 -2.993940147268e-02 0.000000000000e+00 4.812904628301e+05 9.382647693676e+05  4.378568923716e-02
8.430000000000e+00 -2.370994679963e-10 -2.413637022556e-03 2.479433582770e+04 -1.652141789829e-02 -1.196335603521e+06 -4.686165070774e+05 2.302583933557e-02 -1.541999003821e-09 -3.396022450071e-02 0.000000000000e+00 5.467192582570e+05 1.063998983082e+06  4.965328587717e-02
9.430000000000e+00 6.744633217642e-10 -2.699680433986e-03 2.687072728426e+04 5.529201984764e-02 -1.338550568746e+06 -5.246719365849e+05 2.573865764723e-02 5.160588519135e-09 -3.798100283421e-02 0.000000000000e+00 6.121172593490e+05 1.189742210231e+06  5.552130314412e-02
