 TITLE = "Time curves in points"
 VARIABLES = "TIME"  "DISPLACEMENT_X1"  "DISPLACEMENT_Y1"  "STRESS_XX"  "STRESS_XY"  "STRESS_YY"  "STRESS_ZZ"  "STRAIN_XX"  "STRAIN_XY"  "STRAIN_YY"  "STRAIN_PLS"  p_(1st_Invariant)  q_(2nd_Invariant)   Effective_Strain
 ZONE T="POINT=POINT6"
0.000000000000e+00 0.000000000000e+00 0.000000000000e+00 0.000000000000e+00 0.000000000000e+00 0.000000000000e+00 0.000000000000e+00 0.000000000000e+00 0.000000000000e+00 0.000000000000e+00 0.000000000000e+00 -0.000000000000e+00 0.000000000000e+00  0.000000000000e+00
1.000000000000e-02 -4.654163039558e-10 -7.023558800071e-06 7.660215533873e+03 -5.030520655103e-02 1.477218486706e+03 3.654973608232e+03 1.869112898633e-04 -4.695152611429e-09 -1.016285723379e-04 0.000000000000e+00 -4.264135876270e+03 5.432036116997e+03  2.534950188910e-04
7.000000000000e-02 5.056158225626e-10 -2.417687058643e-05 7.782089354788e+03 4.279652179375e-02 -7.060698359486e+03 2.885563981210e+02 3.496982046445e-04 3.994342034083e-09 -3.429652220216e-04 0.000000000000e+00 -3.366491311412e+02 1.285443364771e+04  5.998735702565e-04
4.300000000000e-01 1.020255517085e-09 -1.270937929737e-04 8.513354352541e+03 8.084599588404e-02 -5.828629499104e+04 -1.990917625540e+04 1.326384761704e-03 7.545626282510e-09 -1.790932207663e-03 0.000000000000e+00 2.322737229797e+04 5.806391582159e+04  2.709649405031e-03
1.430000000000e+00 -1.594334398556e-10 -4.129525182777e-04 1.054532413790e+04 -1.373519716870e-02 -2.005674103379e+05 -7.600883448001e+04 4.039194068836e-03 -1.281951735746e-09 -5.812733540036e-03 0.000000000000e+00 8.867697356001e+04 1.838138295282e+05  8.577978711318e-03
2.430000000000e+00 5.684149506936e-10 -6.987887258793e-04 1.257831481133e+04 4.443216152674e-02 -3.428358948695e+05 -1.321030320233e+05 6.751796185615e-03 4.147001742494e-09 -9.834200266159e-03 0.000000000000e+00 1.541202040272e+05 3.095644456719e+05  1.444634079802e-02
3.430000000000e+00 -1.540222979191e-10 -9.846116980279e-04 1.461246109420e+04 -1.230438324399e-02 -4.850962954221e+05 -1.881935337312e+05 9.464279758517e-03 -1.148409102773e-09 -1.385546221224e-02 0.000000000000e+00 2.195591226864e+05 4.353104425441e+05  2.031448731873e-02
4.430000000000e+00 7.999716387718e-10 -1.270425952148e-03 1.664772048854e+04 5.922175109579e-02 -6.273509250248e+05 -2.442812818145e+05 1.217668677414e-02 5.527363435604e-09 -1.787658334982e-02 0.000000000000e+00 2.849948287836e+05 5.610528278225e+05  2.618246529838e-02
5.430000000000e+00 -4.304757577410e-10 -1.556234045263e-03 1.868392655359e+04 -3.186220024678e-02 -7.696012215564e+05 -3.003669180011e+05 1.488903941255e-02 -2.973805356368e-09 -2.189760083258e-02 0.000000000000e+00 3.504280710013e+05 6.867924532837e+05  3.205031448657e-02
6.430000000000e+00 9.652512544425e-11 -1.842037523779e-03 2.072090358992e+04 7.175442786718e-03 -9.118481509937e+05 -3.564508989615e+05 1.760135078573e-02 6.697079934138e-10 -2.591853842817e-02 0.000000000000e+00 4.158593821218e+05 8.125299126099e+05  3.791806258846e-02
7.430000000000e+00 3.527191297970e-10 -2.127837406605e-03 2.275848331484e+04 2.895398681233e-02 -1.054092412892e+06 -4.125335718308e+05 2.031362924013e-02 2.702372102487e-09 -2.993941258285e-02 0.000000000000e+00 4.812891671360e+05 9.382656266958e+05  4.378572924581e-02
8.430000000000e+00 6.744966848811e-10 -2.413634383230e-03 2.479652277698e+04 4.413161241683e-02 -1.196334511380e+06 -4.686151954413e+05 2.302588018352e-02 4.118950492225e-09 -3.396023474382e-02 0.000000000000e+00 5.467177280149e+05 1.063999889344e+06  4.965332816939e-02
9.430000000000e+00 4.981088460691e-10 -2.699677767061e-03 2.687318308506e+04 3.758378775082e-02 -1.338549274085e+06 -5.246704364001e+05 2.573870224264e-02 3.507820190069e-09 -3.798101242531e-02 0.000000000000e+00 6.121155091334e+05 1.189743168329e+06  5.552134785536e-02
