 TITLE = "Time curves in points"
 VARIABLES = "TIME"  "TEMPERATURE1"  p_(1st_Invariant)  q_(2nd_Invariant)   Effective_Strain
 ZONE T="POINT=POINT6"
0.000000000000e+00 3.000000000000e+01 -0.000000000000e+00 0.000000000000e+00  0.000000000000e+00
1.000000000000e-02 3.000000000000e+01 -4.263953315765e+03 5.432373851806e+03  2.535107797559e-04
7.000000000000e-02 3.000000000000e+01 -3.365610020804e+02 1.285459403302e+04  5.998810548819e-04
4.300000000000e-01 3.000000000000e+01 2.322733285183e+04 5.806380981638e+04  2.709644458104e-03
1.430000000000e+00 3.000000000000e+01 8.867693932820e+04 1.838134999451e+05  8.577963330776e-03
2.430000000000e+00 3.000000000000e+01 1.541202974309e+05 3.095639685732e+05  1.444631853342e-02
3.430000000000e+00 3.000000000000e+01 2.195594137742e+05 4.353098621570e+05  2.031446023399e-02
4.430000000000e+00 3.000000000000e+01 2.849953658136e+05 5.610521618768e+05  2.618243422092e-02
5.430000000000e+00 3.000000000000e+01 3.504288621125e+05 6.867917155637e+05  3.205028005964e-02
6.430000000000e+00 3.000000000000e+01 4.158604297153e+05 8.125291134661e+05  3.791802529508e-02
7.430000000000e+00 3.000000000000e+01 4.812904621387e+05 9.382647698272e+05  4.378568925860e-02
8.430000000000e+00 3.000000000000e+01 5.467192597064e+05 1.063998983716e+06  4.965328590675e-02
9.430000000000e+00 3.000000000000e+01 6.121172601028e+05 1.189742211951e+06  5.552130322437e-02
