 TITLE = "Time curves in points"
 VARIABLES = "TIME"  "TEMPERATURE1"  p_(1st_Invariant)  q_(2nd_Invariant)   Effective_Strain
 ZONE T="POINT=POINT6"
0.000000000000e+00 3.000000000000e+01 -0.000000000000e+00 0.000000000000e+00  0.000000000000e+00
1.000000000000e-02 3.000000000000e+01 -4.263953238741e+03 5.432372593601e+03  2.535107210352e-04
7.000000000000e-02 3.000000000000e+01 -3.365627899463e+02 1.285459494966e+04  5.998810976711e-04
4.300000000000e-01 3.000000000000e+01 2.322733253506e+04 5.806380979536e+04  2.709644457118e-03
1.430000000000e+00 3.000000000000e+01 8.867693854958e+04 1.838134962869e+05  8.577963160060e-03
2.430000000000e+00 3.000000000000e+01 1.541202985814e+05 3.095639668041e+05  1.444631845086e-02
3.430000000000e+00 3.000000000000e+01 2.195594156884e+05 4.353098602650e+05  2.031446014570e-02
4.430000000000e+00 3.000000000000e+01 2.849953652288e+05 5.610521589242e+05  2.618243408313e-02
5.430000000000e+00 3.000000000000e+01 3.504288602571e+05 6.867917161086e+05  3.205028008507e-02
6.430000000000e+00 3.000000000000e+01 4.158604309129e+05 8.125291140407e+05  3.791802532190e-02
7.430000000000e+00 3.000000000000e+01 4.812904628301e+05 9.382647693676e+05  4.378568923716e-02
8.430000000000e+00 3.000000000000e+01 5.467192582570e+05 1.063998983082e+06  4.965328587717e-02
9.430000000000e+00 3.000000000000e+01 6.121172593490e+05 1.189742210231e+06  5.552130314412e-02
