 TITLE = "Time curves in points"
 VARIABLES = "TIME"  "TEMPERATURE1"  p_(1st_Invariant)  q_(2nd_Invariant)   Effective_Strain
 ZONE T="POINT=POINT6"
0.000000000000e+00 3.000000000000e+01 -0.000000000000e+00 0.000000000000e+00  0.000000000000e+00
1.000000000000e-02 3.000000000000e+01 -4.264134706341e+03 5.432038021862e+03  2.534951076994e-04
7.000000000000e-02 3.000000000000e+01 -3.366484919092e+02 1.285443385005e+04  5.998735797051e-04
4.300000000000e-01 3.000000000000e+01 2.322737443578e+04 5.806390949958e+04  2.709649109985e-03
1.430000000000e+00 3.000000000000e+01 8.867697255746e+04 1.838138303687e+05  8.577978750542e-03
2.430000000000e+00 3.000000000000e+01 1.541202081808e+05 3.095644433037e+05  1.444634068751e-02
3.430000000000e+00 3.000000000000e+01 2.195591250681e+05 4.353104395599e+05  2.031448717946e-02
4.430000000000e+00 3.000000000000e+01 2.849948294750e+05 5.610528287082e+05  2.618246533971e-02
5.430000000000e+00 3.000000000000e+01 3.504280703594e+05 6.867924538355e+05  3.205031451232e-02
6.430000000000e+00 3.000000000000e+01 4.158593850236e+05 8.125299157895e+05  3.791806273684e-02
7.430000000000e+00 3.000000000000e+01 4.812891717322e+05 9.382656268047e+05  4.378572925089e-02
8.430000000000e+00 3.000000000000e+01 5.467177277023e+05 1.063999892866e+06  4.965332833375e-02
9.430000000000e+00 3.000000000000e+01 6.121155096487e+05 1.189743170595e+06  5.552134796110e-02
