 TITLE = "Time curves in points"
 VARIABLES = "TIME"  "DISPLACEMENT_X1"  "DISPLACEMENT_Y1"  "STRESS_XX"  "STRESS_XY"  "STRESS_YY"  "STRESS_ZZ"  "STRAIN_XX"  "STRAIN_XY"  "STRAIN_YY"  "STRAIN_PLS"  p_(1st_Invariant)  q_(2nd_Invariant)   Effective_Strain
 ZONE T="POINT=POINT6"
0.000000000000e+00 0.000000000000e+00 0.000000000000e+00 0.000000000000e+00 0.000000000000e+00 0.000000000000e+00 0.000000000000e+00 0.000000000000e+00 0.000000000000e+00 0.000000000000e+00 0.000000000000e+00 -0.000000000000e+00 0.000000000000e+00  0.000000000000e+00
1.000000000000e-02 5.299346217491e-10 -7.023558281296e-06 7.660217054696e+03 3.620381487946e-02 1.477220444296e+03 3.654974999597e+03 1.869112959046e-04 3.379022722083e-09 -1.016285459140e-04 0.000000000000e+00 -4.264137499530e+03 5.432035802310e+03  2.534950041585e-04
7.000000000000e-02 -1.827344519969e-10 -2.417687069883e-05 7.782090220943e+03 -1.263251728030e-02 -7.060698016508e+03 2.885568817740e+02 3.496982224945e-04 -1.179034946162e-09 -3.429652285865e-04 0.000000000000e+00 -3.366496954030e+02 1.285443410127e+04  5.998735913953e-04
4.300000000000e-01 2.548539389502e-10 -1.270937878139e-04 8.513359197862e+03 2.077288114984e-02 -5.828629450416e+04 -1.990917412252e+04 1.326384888285e-03 1.938802240650e-09 -1.790932284477e-03 0.000000000000e+00 2.322736980961e+04 5.806391953635e+04  2.709649578365e-03
1.430000000000e+00 3.103849502526e-10 -4.129525178931e-04 1.054532269587e+04 1.480128372491e-02 -2.005674120849e+05 -7.600883575560e+04 4.039194061068e-03 1.381453147657e-09 -5.812733562032e-03 0.000000000000e+00 8.867697504820e+04 1.838138298238e+05  8.577978725113e-03
2.430000000000e+00 5.114190830081e-10 -6.987887237792e-04 1.257830770853e+04 3.589874715670e-02 -3.428358949778e+05 -1.321030349077e+05 6.751795988757e-03 3.350549734626e-09 -9.834200136603e-03 0.000000000000e+00 1.541202073923e+05 3.095644397259e+05  1.444634052054e-02
3.430000000000e+00 2.421152380512e-10 -9.846116977313e-04 1.461246021775e+04 1.590408878270e-02 -4.850962950571e+05 -1.881935339357e+05 9.464279727163e-03 1.484381619725e-09 -1.385546218566e-02 0.000000000000e+00 2.195591229250e+05 4.353104414808e+05  2.031448726910e-02
4.430000000000e+00 -4.378825644385e-10 -1.270425955345e-03 1.664771995454e+04 -3.412668463167e-02 -6.273509252184e+05 -2.442812821056e+05 1.217668676280e-02 -3.185157232294e-09 -1.787658334527e-02 0.000000000000e+00 2.849948291231e+05 5.610528275373e+05  2.618246528508e-02
5.430000000000e+00 9.521962614294e-10 -1.556234042769e-03 1.868392838704e+04 6.938264253636e-02 -7.696012198233e+05 -3.003669165745e+05 1.488903943154e-02 6.475713303396e-09 -2.189760081828e-02 0.000000000000e+00 3.504280693369e+05 6.867924533311e+05  3.205031448878e-02
6.430000000000e+00 -3.064079798472e-10 -1.842037523941e-03 2.072090482002e+04 -2.459225007419e-02 -9.118481510792e+05 -3.564508985037e+05 1.760135082177e-02 -2.295276673581e-09 -2.591853845352e-02 0.000000000000e+00 4.158593815876e+05 8.125299137298e+05  3.791806264073e-02
7.430000000000e+00 3.608498281730e-10 -2.127837406578e-03 2.275848147618e+04 2.650319787800e-02 -1.054092413194e+06 -4.125335726872e+05 2.031362919429e-02 2.473631801951e-09 -2.993941255699e-02 0.000000000000e+00 4.812891681350e+05 9.382656253968e+05  4.378572918518e-02
8.430000000000e+00 -3.903134692591e-10 -2.413634387254e-03 2.479651938028e+04 -3.143891257367e-02 -1.196334516544e+06 -4.686151988655e+05 2.302588018480e-02 -2.934298506882e-09 -3.396023482500e-02 0.000000000000e+00 5.467177320097e+05 1.063999890959e+06  4.965332824476e-02
9.430000000000e+00 6.254965511095e-10 -2.699677767491e-03 2.687318319993e+04 4.847797854548e-02 -1.338549272680e+06 -5.246704357922e+05 2.573870221963e-02 4.524611330908e-09 -3.798101238812e-02 0.000000000000e+00 6.121155084242e+05 1.189743167202e+06  5.552134780276e-02
