 TITLE = "Time curves in points"
 VARIABLES = "TIME"  "DISPLACEMENT_X1"  "DISPLACEMENT_Y1"  "STRESS_XX"  "STRESS_XY"  "STRESS_YY"  "STRESS_ZZ"  "STRAIN_XX"  "STRAIN_XY"  "STRAIN_YY"  "STRAIN_PLS"  p_(1st_Invariant)  q_(2nd_Invariant)   Effective_Strain
 ZONE T="POINT=POINT6"
0.000000000000e+00 0.000000000000e+00 0.000000000000e+00 0.000000000000e+00 0.000000000000e+00 0.000000000000e+00 0.000000000000e+00 0.000000000000e+00 0.000000000000e+00 0.000000000000e+00 0.000000000000e+00 -0.000000000000e+00 0.000000000000e+00  0.000000000000e+00
1.000000000000e-02 -5.075100165449e-10 -6.484670463474e-06 7.653924098715e+03 -3.820566567644e-02 1.667953097160e+03 3.728750878350e+03 1.831747502837e-04 -3.565862129801e-09 -9.617056312219e-05 0.000000000000e+00 -4.350209358075e+03 5.267149188367e+03  2.458002955153e-04
7.000000000000e-02 6.372902947570e-11 -2.363797995783e-05 7.775793516809e+03 5.325708810700e-03 -6.869962371587e+03 3.623324580886e+02 3.459615160736e-04 4.970661556651e-10 -3.375070920515e-04 0.000000000000e+00 -4.227212011034e+02 1.268392011397e+04  5.919162719857e-04
4.300000000000e-01 7.867109488903e-10 -1.265548955781e-04 8.507061339583e+03 6.270835984616e-02 -5.809555586166e+04 -1.983539780883e+04 1.322648093593e-03 5.852780252308e-09 -1.785474042465e-03 0.000000000000e+00 2.314129744363e+04 5.789232808795e+04  2.701641977452e-03
1.430000000000e+00 5.259133750637e-10 -4.124136269146e-04 1.053902884917e+04 4.091599905698e-02 -2.003766753944e+05 -7.593505861809e+04 4.035457415139e-03 3.818826578654e-09 -5.807275449561e-03 0.000000000000e+00 8.859090172111e+04 1.836422038718e+05  8.569969514018e-03
2.430000000000e+00 -8.905774833295e-10 -6.982498332311e-04 1.257201450283e+04 -6.244265134407e-02 -3.426451585571e+05 -1.320292576217e+05 6.748059365812e-03 -5.827980792112e-09 -9.828742043652e-03 0.000000000000e+00 1.540341338920e+05 3.093928131547e+05  1.443833128056e-02
3.430000000000e+00 -5.504142512131e-11 -9.840728061888e-04 1.460616756142e+04 -4.393664922603e-03 -4.849055584046e+05 -1.881197563373e+05 9.460543115272e-03 -4.100753927701e-10 -1.385000409648e-02 0.000000000000e+00 2.194730490602e+05 4.351388151538e+05  2.030647804051e-02
4.430000000000e+00 9.601205089725e-10 -1.269887066155e-03 1.664142903544e+04 8.299400156480e-02 -6.271601894946e+05 -2.442075041837e+05 1.217295021689e-02 7.746106812723e-09 -1.787112531451e-02 0.000000000000e+00 2.849087548810e+05 5.608812036298e+05  2.617445616939e-02
5.430000000000e+00 4.177947808244e-10 -1.555695152376e-03 1.867763891489e+04 3.342192687526e-02 -7.694104820522e+05 -3.002931372549e+05 1.488530288792e-02 3.119379841699e-09 -2.189214275721e-02 0.000000000000e+00 3.503419934641e+05 6.866208290059e+05  3.204230535361e-02
6.430000000000e+00 2.138541924668e-10 -1.841498633780e-03 2.071461190916e+04 1.991790525000e-02 -9.116574146269e+05 -3.563771210871e+05 1.759761420649e-02 1.859004490013e-09 -2.591308036519e-02 0.000000000000e+00 4.157733079349e+05 8.123582877508e+05  3.791005342837e-02
7.430000000000e+00 6.253351000481e-10 -2.127298514974e-03 2.275219210875e+04 4.548662623647e-02 -1.053901676150e+06 -4.124597936166e+05 2.030989266718e-02 4.245418448750e-09 -2.993395451824e-02 0.000000000000e+00 4.812030925527e+05 9.380940020128e+05  4.377772009393e-02
8.430000000000e+00 3.428227999567e-10 -2.413095494480e-03 2.479022899594e+04 2.017531045581e-02 -1.196143776496e+06 -4.685414189999e+05 2.302214357314e-02 1.883028975886e-09 -3.395477668313e-02 0.000000000000e+00 5.466316554998e+05 1.063828264175e+06  4.964531899481e-02
9.430000000000e+00 -5.523833030587e-10 -2.699138302730e-03 2.686679901366e+04 -4.022429727042e-02 -1.338358599335e+06 -5.245967201285e+05 2.573496422663e-02 -3.754267745246e-09 -3.797555436297e-02 0.000000000000e+00 6.120295068166e+05 1.189571518928e+06  5.551333754998e-02
