 TITLE = "Time curves in points"
 VARIABLES = "TIME"  "DISPLACEMENT_X1"  "DISPLACEMENT_Y1"  "STRESS_XX"  "STRESS_XY"  "STRESS_YY"  "STRESS_ZZ"  "STRAIN_XX"  "STRAIN_XY"  "STRAIN_YY"  "STRAIN_PLS"  p_(1st_Invariant)  q_(2nd_Invariant)   Effective_Strain
 ZONE T="POINT=POINT6"
0.000000000000e+00 0.000000000000e+00 0.000000000000e+00 0.000000000000e+00 0.000000000000e+00 0.000000000000e+00 0.000000000000e+00 0.000000000000e+00 0.000000000000e+00 0.000000000000e+00 0.000000000000e+00 -0.000000000000e+00 0.000000000000e+00  0.000000000000e+00
1.000000000000e-02 1.455113184608e-10 -7.023560916259e-06 7.660215703678e+03 1.279019897719e-02 1.477217437647e+03 3.654973256530e+03 1.869113142002e-04 1.193751904538e-09 -1.016286048812e-04 0.000000000000e+00 -4.264135465951e+03 5.432037142078e+03  2.534950666366e-04
7.000000000000e-02 -7.896512433905e-10 -2.417687096538e-05 7.782089855562e+03 -6.398166763745e-02 -7.060698909006e+03 2.885563786225e+02 3.496982289239e-04 -5.971622312829e-09 -3.429652467560e-04 0.000000000000e+00 -3.366491083929e+02 1.285443455752e+04  5.998736127509e-04
4.300000000000e-01 -8.531501593186e-10 -1.270937870252e-04 8.513354822119e+03 -6.329831669903e-02 -5.828629270435e+04 -1.990917515289e+04 1.326384732167e-03 -5.907842891909e-09 -1.790932152401e-03 0.000000000000e+00 2.322737101171e+04 5.806391423003e+04  2.709649330749e-03
1.430000000000e+00 4.314016254011e-10 -4.129525154295e-04 1.054532702830e+04 3.088374334955e-02 -2.005674089551e+05 -7.600883277074e+04 4.039194123955e-03 2.882482712621e-09 -5.812733555272e-03 0.000000000000e+00 8.867697156586e+04 1.838138307827e+05  8.577978769861e-03
2.430000000000e+00 -3.976753088556e-10 -6.987887269257e-04 1.257830559158e+04 -2.866121953437e-02 -3.428358978789e+05 -1.321030369149e+05 6.751795983638e-03 -2.675047156544e-09 -9.834200178320e-03 0.000000000000e+00 1.541202097341e+05 3.095644404548e+05  1.444634055456e-02
3.430000000000e+00 3.341052926680e-10 -9.846116996770e-04 1.461246010793e+04 2.610824325265e-02 -4.850962991018e+05 -1.881935355976e+05 9.464279799590e-03 2.436769370250e-09 -1.385546229687e-02 0.000000000000e+00 2.195591248638e+05 4.353104449135e+05  2.031448742930e-02
4.430000000000e+00 9.630794426676e-10 -1.270425953555e-03 1.664772059145e+04 7.202129523155e-02 -6.273509264374e+05 -2.442812823384e+05 1.217668680339e-02 6.721987554936e-09 -1.787658339129e-02 0.000000000000e+00 2.849948293948e+05 5.610528291414e+05  2.618246535993e-02
5.430000000000e+00 2.661972612520e-10 -1.556234043988e-03 1.868392721457e+04 1.317490603615e-02 -7.696012233740e+05 -3.003669184638e+05 1.488903946499e-02 1.229657896700e-09 -2.189760089581e-02 0.000000000000e+00 3.504280715410e+05 6.867924554299e+05  3.205031458673e-02
6.430000000000e+00 3.260927353078e-10 -1.842037523291e-03 2.072090400276e+04 3.247603145064e-02 -9.118481526868e+05 -3.564508994736e+05 1.760135082890e-02 3.031096268721e-09 -2.591853848328e-02 0.000000000000e+00 4.158593827192e+05 8.125299144368e+05  3.791806267372e-02
7.430000000000e+00 -2.189518855015e-10 -2.127837406990e-03 2.275848402994e+04 -1.651135158773e-02 -1.054092413358e+06 -4.125335717311e+05 2.031362926885e-02 -1.541059481535e-09 -2.993941260924e-02 0.000000000000e+00 4.812891670197e+05 9.382656277096e+05  4.378572929312e-02
8.430000000000e+00 4.717168276952e-10 -2.413634388028e-03 2.479652111491e+04 2.728099859814e-02 -1.196334513911e+06 -4.686151971186e+05 2.302588018423e-02 2.546226535817e-09 -3.396023478366e-02 0.000000000000e+00 5.467177299717e+05 1.063999890138e+06  4.965332820644e-02
9.430000000000e+00 3.303036674339e-10 -2.699677767536e-03 2.687318342836e+04 2.514055965451e-02 -1.338549276962e+06 -5.246704374135e+05 2.573870230595e-02 2.346452234403e-09 -3.798101251227e-02 0.000000000000e+00 6.121155103157e+05 1.189743171129e+06  5.552134798601e-02
