 TITLE = "Time curves in points"
 VARIABLES = "TIME"  "TEMPERATURE1"  p_(1st_Invariant)  q_(2nd_Invariant)   Effective_Strain
 ZONE T="POINT=POINT6"
0.000000000000e+00 3.000000000000e+01 -0.000000000000e+00 0.000000000000e+00  0.000000000000e+00
1.000000000000e-02 3.000000000000e+01 -4.264135876270e+03 5.432036116997e+03  2.534950188910e-04
7.000000000000e-02 3.000000000000e+01 -3.366491311412e+02 1.285443364771e+04  5.998735702565e-04
4.300000000000e-01 3.000000000000e+01 2.322737229797e+04 5.806391582159e+04  2.709649405031e-03
1.430000000000e+00 3.000000000000e+01 8.867697356001e+04 1.838138295282e+05  8.577978711318e-03
2.430000000000e+00 3.000000000000e+01 1.541202040272e+05 3.095644456719e+05  1.444634079802e-02
3.430000000000e+00 3.000000000000e+01 2.195591226864e+05 4.353104425441e+05  2.031448731873e-02
4.430000000000e+00 3.000000000000e+01 2.849948287836e+05 5.610528278225e+05  2.618246529838e-02
5.430000000000e+00 3.000000000000e+01 3.504280710013e+05 6.867924532837e+05  3.205031448657e-02
6.430000000000e+00 3.000000000000e+01 4.158593821218e+05 8.125299126099e+05  3.791806258846e-02
7.430000000000e+00 3.000000000000e+01 4.812891671360e+05 9.382656266958e+05  4.378572924581e-02
8.430000000000e+00 3.000000000000e+01 5.467177280149e+05 1.063999889344e+06  4.965332816939e-02
9.430000000000e+00 3.000000000000e+01 6.121155091334e+05 1.189743168329e+06  5.552134785536e-02
