 TITLE = "Time curves in points"
 VARIABLES = "TIME"  "PRESSURE1"  "PRESSURE2"  "PRESSURE_W"  "SATURATION1" SATURATION2  "VELOCITY_X1"  "VELOCITY_Y1"  "VELOCITY_X2"  "VELOCITY_Y2"  p_(1st_Invariant)  q_(2nd_Invariant)   Effective_Strain
 ZONE T="POINT=POINT6"
0.000000000000e+00 1.000000000000e+05 1.000000000000e+05 0.000000000000e+00 9.251121356155e-01 7.488786438454e-02 0.000000000000e+00 0.000000000000e+00 0.000000000000e+00 0.000000000000e+00 -0.000000000000e+00 0.000000000000e+00  0.000000000000e+00
1.000000000000e-02 9.999999997033e+04 1.000000000000e+05 2.967132604681e-05 9.251121356793e-01 7.488786432075e-02 3.425901583654e-19 -9.238128874767e-07 9.974536262423e-21 -2.354495669209e-11 -4.263953238741e+03 5.432372593601e+03  2.535107210352e-04
7.000000000000e-02 1.000000000059e+05 1.000000000000e+05 -5.933528882451e-06 9.251121356027e-01 7.488786439730e-02 6.851803166479e-20 -9.238121441189e-07 8.734010782660e-21 -2.354495670983e-11 -3.365627899463e+02 1.285459494966e+04  5.998810976711e-04
4.300000000000e-01 9.999999505604e+04 1.000000000000e+05 4.943956009811e-03 9.251121462450e-01 7.488785375504e-02 6.851808915850e-20 -9.237390074507e-07 8.255635909570e-21 -2.354495365575e-11 2.322733253506e+04 5.806380979536e+04  2.709644457118e-03
1.430000000000e+00 9.999922361495e+04 1.000000000000e+05 7.763850521296e-01 9.251138048427e-01 7.488619515735e-02 7.913600135836e-25 -9.182193373107e-07 1.776359412099e-20 -2.354447966151e-11 8.867693854958e+04 1.838134962869e+05  8.577963160060e-03
2.430000000000e+00 9.999699299433e+04 1.000000000000e+05 3.007005670763e+00 9.251186006751e-01 7.488139932493e-02 7.024651392196e-24 -9.055005095110e-07 1.128343558741e-20 -2.354310910706e-11 1.541202985814e+05 3.095639668041e+05  1.444631845086e-02
3.430000000000e+00 9.999299217060e+04 1.000000000000e+05 7.007829395749e+00 9.251272024426e-01 7.487279755736e-02 -6.855382030899e-20 -8.867782570655e-07 6.942723422372e-21 -2.354065086909e-11 2.195594156884e+05 4.353098602650e+05  2.031446014570e-02
4.430000000000e+00 9.998725735711e+04 1.000000000000e+05 1.274264288976e+01 9.251395322867e-01 7.486046771328e-02 1.371947795139e-19 -8.642973409204e-07 7.151010529623e-21 -2.353712724224e-11 2.849953652288e+05 5.610521589242e+05  2.618243408313e-02
5.430000000000e+00 9.998000585427e+04 1.000000000000e+05 1.999414573285e+01 9.251551230116e-01 7.484487698839e-02 2.530337447714e-23 -8.400616639152e-07 6.045745115114e-21 -2.353267171019e-11 3.504288602571e+05 6.867917161086e+05  3.205028008507e-02
6.430000000000e+00 9.997150879364e+04 1.000000000000e+05 2.849120635528e+01 9.251733916846e-01 7.482660831535e-02 1.373834307524e-19 -8.154693544617e-07 2.533908834638e-20 -2.352745087090e-11 4.158604309129e+05 8.125291140407e+05  3.791802532190e-02
7.430000000000e+00 9.996202563105e+04 1.000000000000e+05 3.797436895464e+01 9.251937804761e-01 7.480621952391e-02 -2.062158332882e-19 -7.913715980339e-07 2.117871404771e-20 -2.352162414692e-11 4.812904628301e+05 9.382647693676e+05  4.378568923716e-02
8.430000000000e+00 9.995177959445e+04 1.000000000000e+05 4.822040555115e+01 9.252158094460e-01 7.478419055403e-02 1.376611265999e-19 -7.682320242519e-07 2.032703818952e-20 -2.351532869782e-11 5.467192582570e+05 1.063998983082e+06  4.965328587717e-02
9.430000000000e+00 9.994095346541e+04 1.000000000000e+05 5.904653459431e+01 9.252390856141e-01 7.476091438588e-02 1.377712563690e-19 -7.462678319167e-07 1.796043452217e-20 -2.350867681661e-11 6.121172593490e+05 1.189742210231e+06  5.552130314412e-02
