<!--Time step: 20 -->
<VTKFile type="PolyData" version="1.0" byte_order="LittleEndian" header_type="UInt64">
 <PolyData>
  <Piece NumberOfPoints="500" NumberOfVerts="500" NumberOfLines="0" NumberOfStrips="0" NumberOfPolys="0">
   <PointData Scalars ="identity" Vectors ="velocity">
    <DataArray type = "Int32" Name = "identity" format = "ascii " RangeMin = "0" RangeMax = "0"> 
0 0 0 0 0 0 
0 0 0 0 0 0 
0 0 0 0 0 0 
0 0 0 0 0 0 
0 0 0 0 0 0 
0 0 0 0 0 0 
0 0 0 0 0 0 
0 0 0 0 0 0 
0 0 0 0 0 0 
0 0 0 0 0 0 
0 0 0 0 0 0 
0 0 0 0 0 0 
0 0 0 0 0 0 
0 0 0 0 0 0 
0 0 0 0 0 0 
0 0 0 0 0 0 
0 0 0 0 0 0 
0 0 0 0 0 0 
0 0 0 0 0 0 
0 0 0 0 0 0 
0 0 0 0 0 0 
0 0 0 0 0 0 
0 0 0 0 0 0 
0 0 0 0 0 0 
0 0 0 0 0 0 
0 0 0 0 0 0 
0 0 0 0 0 0 
0 0 0 0 0 0 
0 0 0 0 0 0 
0 0 0 0 0 0 
0 0 0 0 0 0 
0 0 0 0 0 0 
0 0 0 0 0 0 
0 0 0 0 0 0 
0 0 0 0 0 0 
0 0 0 0 0 0 
0 0 0 0 0 0 
0 0 0 0 0 0 
0 0 0 0 0 0 
0 0 0 0 0 0 
0 0 0 0 0 0 
0 0 0 0 0 0 
0 0 0 0 0 0 
0 0 0 0 0 0 
0 0 0 0 0 0 
0 0 0 0 0 0 
0 0 0 0 0 0 
0 0 0 0 0 0 
0 0 0 0 0 0 
0 0 0 0 0 0 
0 0 0 0 0 0 
0 0 0 0 0 0 
0 0 0 0 0 0 
0 0 0 0 0 0 
0 0 0 0 0 0 
0 0 0 0 0 0 
0 0 0 0 0 0 
0 0 0 0 0 0 
0 0 0 0 0 0 
0 0 0 0 0 0 
0 0 0 0 0 0 
0 0 0 0 0 0 
0 0 0 0 0 0 
0 0 0 0 0 0 
0 0 0 0 0 0 
0 0 0 0 0 0 
0 0 0 0 0 0 
0 0 0 0 0 0 
0 0 0 0 0 0 
0 0 0 0 0 0 
0 0 0 0 0 0 
0 0 0 0 0 0 
0 0 0 0 0 0 
0 0 0 0 0 0 
0 0 0 0 0 0 
0 0 0 0 0 0 
0 0 0 0 0 0 
0 0 0 0 0 0 
0 0 0 0 0 0 
0 0 0 0 0 0 
0 0 0 0 0 0 
0 0 0 0 0 0 
0 0 0 0 0 0 
0 0 
    </DataArray>
    <DataArray type = "Int32" Name = "on_boundary" format = "ascii " RangeMin = "-4.849257757581e-20" RangeMax = "1.000000000000e+00"> 
1 1 1 1 1 1 
1 1 1 1 1 1 
1 1 1 1 1 1 
1 1 1 1 1 1 
1 1 1 1 1 1 
1 1 1 1 1 1 
1 1 1 1 1 1 
1 1 1 1 1 1 
1 1 1 1 1 1 
1 1 1 1 1 1 
1 1 1 1 1 1 
1 1 1 1 1 1 
1 1 1 1 1 1 
1 1 1 1 1 1 
1 1 1 1 1 1 
1 1 1 1 1 1 
1 1 1 1 1 1 
1 1 1 1 1 1 
1 1 1 1 1 1 
1 1 1 1 1 1 
1 1 1 1 1 1 
1 1 1 1 1 1 
1 1 1 1 1 1 
1 1 1 1 1 1 
1 1 1 1 1 1 
1 1 1 1 1 1 
1 1 1 1 1 1 
1 1 1 1 1 1 
1 1 1 1 1 1 
1 1 1 1 1 1 
1 1 1 1 1 1 
1 1 1 1 1 1 
1 1 1 1 1 1 
1 1 1 1 1 1 
1 1 1 1 1 1 
1 1 1 1 1 1 
1 1 1 1 1 1 
1 1 1 1 1 1 
1 1 1 1 1 1 
1 1 1 1 1 1 
1 1 1 1 1 1 
1 1 1 1 1 1 
1 1 1 1 1 1 
1 1 1 1 1 1 
1 1 1 1 1 1 
1 1 1 1 1 1 
1 1 1 1 1 1 
1 1 1 1 1 1 
1 1 1 1 1 1 
1 1 1 1 1 1 
1 1 1 1 1 1 
1 1 1 1 1 1 
1 1 1 1 1 1 
1 1 1 1 1 1 
1 1 1 1 1 1 
1 1 1 1 1 1 
1 1 1 1 1 1 
1 1 1 1 1 1 
1 1 1 1 1 1 
1 1 1 1 1 1 
1 1 1 1 1 1 
1 1 1 1 1 1 
1 1 1 1 1 1 
1 1 1 1 1 1 
1 1 1 1 1 1 
1 1 1 1 1 1 
1 1 1 1 1 1 
1 1 1 1 1 1 
1 1 1 1 1 1 
1 1 1 1 1 1 
1 1 1 1 1 1 
1 1 1 1 1 1 
1 1 1 1 1 1 
1 1 1 1 1 1 
1 1 1 1 1 1 
1 1 1 1 1 1 
1 1 1 1 1 1 
1 1 1 1 1 1 
1 1 1 1 1 1 
1 1 1 1 1 1 
1 1 1 1 1 1 
1 1 1 1 1 1 
1 1 1 1 1 1 
1 1 
    </DataArray>
    <DataArray type = "Float64" Name = "velocity" NumberOfComponents="3" format = "ascii " RangeMin = "-4.857284195869e-07" RangeMax = "1.465215800705e-06"> 
6.680891974573e-07 -7.890742601815e-09 -2.687064898580e-08 7.977627138002e-07 3.645221347043e-09 -1.023234823724e-08 
7.837078469295e-07 -1.056276080801e-08 1.360787466609e-10 5.497774284508e-07 3.633749493306e-08 3.654682320478e-09 
6.005272977986e-07 -2.593400000809e-08 -1.901060468345e-08 7.286741926568e-07 2.534098806177e-09 -1.151828127006e-08 
8.047818204607e-07 -9.308191799860e-09 2.666418270001e-09 8.000818446530e-07 5.579655413951e-09 -1.144424043920e-08 
1.030482465792e-06 4.052549083218e-08 2.739140243991e-08 5.576714926893e-07 2.468730047427e-08 -9.586178687723e-09 
5.828603088815e-07 -2.716633655712e-08 1.495371920092e-08 7.014444148811e-07 -1.661727574988e-07 4.263915774074e-07 
8.619410596828e-07 -2.485157410588e-09 -2.071853483956e-09 4.973298994886e-07 2.589134369564e-07 -3.100344836636e-07 
7.390453441684e-07 4.775494807360e-09 1.454006648916e-08 6.235766652671e-07 1.709234896678e-08 9.801270876500e-09 
1.114145740789e-06 -4.322973291038e-07 1.083450285065e-07 5.875636573755e-07 -2.280838271220e-08 -3.501724937818e-09 
4.149409156950e-07 -1.081756600234e-07 -3.265109032134e-07 1.157533965214e-06 -3.134656435342e-08 9.404885546310e-08 
7.130780937373e-07 1.003486129667e-09 -3.998160035335e-09 1.248570078024e-06 -1.218950367367e-07 2.784721587643e-07 
4.592427468790e-07 -3.530892044472e-07 -1.141509757267e-07 5.598067368990e-07 3.234966882011e-07 2.963434862112e-07 
7.349410762524e-07 -7.713899375071e-09 -5.332898481428e-09 4.656578338690e-07 5.928229010001e-09 -3.749469660884e-08 
6.858912457613e-07 -8.038731452565e-09 -5.997161157923e-09 6.779967909508e-07 -1.984474932051e-08 -1.151094019917e-08 
8.047445770421e-07 1.118194502801e-08 -3.340417376885e-09 5.208401802281e-07 -1.179947220000e-08 1.360970157342e-08 
1.210982381453e-06 -3.202038489068e-07 -8.242453592455e-09 7.956699073190e-07 -4.765391902887e-09 1.695811837145e-09 
6.872552237934e-07 8.313508368922e-09 1.540011826808e-08 7.441527198439e-07 -2.434693269894e-09 -9.693129675226e-09 
9.485865554512e-07 5.808814837862e-08 3.601120721979e-08 4.921366543764e-07 -3.045411419048e-09 -2.392950561805e-08 
4.917051125982e-07 2.164313611036e-09 4.035321494070e-09 7.577562546149e-07 -8.288389567619e-09 7.830918851791e-09 
6.909006795840e-07 6.018384833755e-09 -1.715832883581e-08 7.143494987336e-07 1.305260169958e-08 -1.507218994183e-08 
8.023113960783e-07 -1.150925020089e-08 1.035386517779e-08 7.807336255892e-07 -1.262943848984e-08 6.440141182865e-09 
7.157082874415e-07 5.142204710201e-09 4.050272897005e-09 7.740272687844e-07 -1.178838460893e-08 3.895503402061e-09 
8.415402668510e-07 1.155542535193e-09 -6.838674688494e-09 7.147053050026e-07 3.098939463549e-09 -2.080110938385e-09 
7.610127547539e-07 -2.392307799731e-09 -1.189552446049e-09 7.084151294562e-07 -1.154879845127e-08 -5.619244351352e-09 
6.717607053544e-07 1.070073371151e-08 1.902510329281e-08 5.480128897851e-07 1.716119951912e-08 -1.583579331062e-08 
6.406288180100e-07 5.662213166606e-09 2.254649021411e-08 7.598644397049e-07 7.976033965366e-09 1.395154470503e-08 
7.398441237940e-07 -5.784272418700e-09 -7.037016128577e-09 7.595636314702e-07 -2.628905932908e-07 -4.020171119828e-07 
7.059031331038e-07 -1.165855183128e-08 2.577093549279e-08 1.062186827457e-06 1.031833035412e-07 -3.886422878016e-07 
7.140607943555e-07 -3.340094389054e-09 2.176581365758e-09 8.391035511886e-07 -2.209313361255e-10 -7.472821420859e-09 
6.916824300178e-07 2.381877765542e-08 1.803703477223e-08 6.604275755925e-07 -7.830696404891e-09 -2.984211407683e-08 
2.050363642998e-07 6.744915957399e-08 1.652879412539e-07 6.501208653017e-07 6.915967225773e-09 -9.509199571730e-09 
8.649823745678e-07 -1.358907853788e-09 -1.205213667754e-09 1.045258714267e-06 2.379615022780e-08 -2.038121885479e-08 
6.487365834483e-07 2.017276312476e-08 1.011649115349e-08 7.001646758625e-07 -1.662480376058e-08 -5.321868234090e-09 
2.974262827400e-07 -1.189614418700e-07 2.601072210540e-07 7.633853845393e-07 8.000351612429e-09 -1.404044937387e-08 
7.278702600039e-07 1.699258182740e-08 1.090906515981e-08 5.550105487775e-07 -1.905665537846e-09 1.354633393755e-08 
6.363201379722e-07 1.741494840361e-08 5.496921120095e-09 8.426878102448e-07 -2.329132017137e-09 5.701191805120e-09 
8.038940013367e-07 4.161294891817e-09 2.328235115006e-09 6.699963093846e-07 2.351883937791e-08 -1.437670784581e-08 
4.728654245035e-07 2.072915648404e-08 6.081422412687e-09 7.159574902290e-07 -9.318422236159e-09 5.156395650997e-09 
2.820793629882e-07 2.025946006701e-07 -1.377389081827e-07 7.891751429088e-07 -8.200476809893e-09 -4.374825143144e-09 
7.039310201946e-07 -4.201756385982e-09 -4.267308422901e-09 9.230017125062e-07 1.894361239618e-07 -4.030974436230e-07 
7.001407611698e-07 -5.850969173284e-09 -1.728283417631e-08 9.380544845825e-07 6.485821164655e-08 -7.823927459965e-08 
4.575503872335e-07 2.774366526808e-07 2.914789589217e-07 6.949226386042e-07 6.787648507534e-09 -1.238915422165e-08 
8.649472831221e-07 -1.834338968816e-09 -1.478638975055e-09 8.184886194990e-07 -7.698774541666e-09 -9.346599908267e-09 
6.666019077550e-07 -4.633246142937e-07 2.949274337735e-09 8.411042529316e-07 3.679453723177e-08 -5.074757407085e-08 
8.027722782473e-07 -1.002718009585e-08 6.659039631931e-09 7.829978412061e-07 -8.168490971515e-09 9.939789720662e-09 
7.423067899408e-07 -3.834687777961e-09 8.938864608324e-09 1.018053360426e-06 -8.710770092777e-08 -6.101858436117e-08 
6.872539589420e-07 -5.392985563166e-10 6.876118786147e-09 7.299353040807e-07 1.224535320066e-08 -8.268503228990e-09 
8.437674205532e-07 3.510694759135e-09 -7.367580520450e-09 4.676478315967e-07 -8.588235614962e-09 2.340421327662e-08 
1.465215800705e-06 3.831709886453e-08 1.153810909528e-07 5.258013789499e-07 1.918756307287e-08 -1.619352936567e-08 
7.243058405600e-07 1.633508686646e-08 1.317644227855e-08 6.683957159724e-07 4.704158887863e-09 2.171180583865e-08 
1.277313785569e-06 1.551693925471e-08 1.680411001787e-08 7.199658413991e-07 -1.196877958546e-08 -6.204196922268e-09 
9.321172967623e-07 4.309353947617e-07 -1.643903792863e-07 1.120535137113e-06 -3.720371364141e-07 1.910623684170e-07 
6.553604183448e-07 -1.323275974098e-08 2.792670772146e-09 3.493896271310e-07 3.058098326387e-07 -1.286368732546e-07 
7.163657909761e-07 -1.054147968152e-09 1.613644657243e-08 8.002947124535e-07 2.305609980066e-09 1.089734878923e-08 
7.572850205904e-07 1.513664019405e-09 -4.068494212190e-09 5.386278659342e-07 2.013947653294e-08 -1.484266811225e-08 
1.019037378610e-06 -2.441046597021e-07 -3.643519834317e-07 8.224425419206e-07 5.182690140310e-09 9.431172246940e-09 
3.014469307526e-07 5.972030328539e-08 -2.919973014296e-07 1.064431055339e-06 -1.058294270790e-07 -3.047458389684e-08 
7.113770180853e-07 -7.140201309697e-09 1.850868582969e-09 8.792883519782e-07 -5.841982892120e-08 7.048801387245e-08 
6.822357039550e-07 2.023714447411e-09 5.547251117525e-09 5.509823515962e-07 1.840591774672e-08 1.723043772090e-08 
8.726294773139e-07 -6.476111994182e-10 1.787799370247e-09 8.102963946664e-07 -5.204843068790e-09 -9.132433725592e-09 
7.078770968437e-07 2.433647467179e-08 1.498112721082e-08 6.504545859832e-07 7.853960767348e-09 1.944811525616e-08 
7.174501889604e-07 -3.774797061427e-09 9.504331383116e-10 7.538528512631e-07 5.512357840466e-09 -1.086630481776e-08 
6.737129177315e-07 -7.488998839072e-09 6.114047706847e-09 8.667739190487e-07 -4.939129833459e-10 -4.972821553929e-11 
7.792189151241e-07 1.319260654004e-08 -8.647630837233e-09 8.423486468550e-07 1.521171996291e-07 -4.721024824096e-07 
5.710588897383e-07 2.254832086952e-08 -1.048738887349e-08 2.573926909816e-07 -2.074324034572e-07 -1.593937056533e-07 
4.084426847983e-07 9.014734873295e-09 -2.754964518733e-08 7.665118761699e-07 1.227278701611e-08 1.570131477271e-08 
9.911629783525e-08 8.380837486324e-08 -5.934834688564e-08 5.982711808814e-07 4.395462419081e-10 2.632127837392e-08 
7.073899751294e-07 -1.780529047109e-09 1.492819527073e-08 5.802701200479e-07 -2.425305227941e-08 -2.910471257823e-09 
7.311175287017e-07 4.868426313548e-09 -8.780683326914e-09 7.170658000309e-07 -1.350386338391e-08 -1.792504170623e-08 
1.163715631682e-06 2.848599746411e-07 2.571058126060e-07 7.984833078829e-07 1.025247140134e-08 -1.215199887224e-08 
3.647984673645e-07 -5.698795212412e-08 -3.365634905874e-07 6.757375275085e-07 -7.497952388513e-09 -2.373251930305e-08 
6.568532035347e-07 -1.707904982952e-08 -1.814173529650e-08 7.538350995096e-07 1.185634918678e-08 9.035283022481e-09 
6.675068783964e-07 -1.212741035037e-08 -9.642230800190e-09 9.808923509104e-07 -7.295250895392e-08 -7.130688108194e-08 
8.566006832788e-07 1.419459721775e-10 1.929784899719e-09 6.825465693755e-07 -9.898453141137e-09 -2.736004878126e-08 
8.991813554171e-07 -2.103312225696e-08 -2.023314833807e-08 7.883133279597e-07 -5.301198370839e-09 2.441761229707e-09 
6.813163598759e-07 -1.152083852173e-08 -2.065009197374e-08 5.808812366402e-07 -1.489056195489e-08 -3.965520188983e-07 
5.754983464302e-07 9.117364558013e-09 -2.466056752197e-08 5.902867946798e-07 2.090416598101e-08 -3.068579733873e-09 
4.477032468827e-07 -3.759392640919e-07 8.570765546127e-08 1.059854453983e-07 -9.488667111950e-08 6.055462930491e-08 
1.776013139052e-07 -1.162624147661e-07 -1.257622000003e-07 2.874357200493e-07 -2.662023051748e-07 -1.280288782064e-07 
7.093515069411e-07 -1.069903110404e-08 -5.512568222352e-09 6.499844446649e-07 -2.364360169138e-08 5.183100931640e-09 
7.128660420394e-07 1.576862565086e-10 -1.757071323852e-09 7.599102479116e-07 1.707421805303e-08 -7.400222042937e-09 
8.479582016618e-07 -3.515316742912e-09 3.162309390116e-09 6.641739391134e-07 1.930135008869e-08 -1.272861463543e-08 
1.009904392275e-06 2.437501156858e-07 -3.620984691171e-07 6.864055450643e-07 -5.404225213810e-09 1.561931051940e-08 
1.143416699037e-06 -3.628590453627e-07 1.485577354289e-07 7.881955497397e-07 -7.844299123797e-09 -6.511291903989e-09 
1.333024867269e-06 2.324320534031e-07 -1.154579642224e-07 5.496021714962e-07 2.368573294003e-08 2.022492531595e-08 
3.355493380945e-07 -2.668052990132e-07 -1.722463067978e-07 6.856019675362e-07 -1.297412289206e-08 2.904515302045e-08 
8.064846971187e-07 -8.317232603544e-09 -1.151875320272e-08 8.064119259967e-07 9.694268073797e-09 -1.247417691590e-08 
6.063475365667e-07 1.796901105147e-07 -4.125518892068e-07 6.766412399769e-07 5.633216140697e-09 -1.876077592636e-08 
7.847089725303e-07 -3.542270272200e-08 -3.205022061230e-08 8.341135761239e-07 -1.803749791488e-10 4.835954226551e-09 
5.244162713996e-07 2.001679331269e-08 -1.269326473571e-08 6.263906249266e-07 -2.397964318185e-08 -7.281895709735e-09 
6.836095177691e-07 9.659156268859e-10 5.882668957614e-09 8.011524267488e-07 -1.723185953388e-09 1.206228799842e-09 
7.993026952147e-07 -2.049695232166e-09 -5.475579467021e-10 7.258653086932e-07 -1.496010913988e-08 -1.507668200063e-08 
6.990148994047e-07 -1.299330715597e-08 3.012598035262e-09 1.103080582010e-06 -6.172584262732e-08 -4.724599203698e-08 
6.780120507325e-07 7.466473890118e-09 2.001515537097e-08 6.635841318362e-07 1.287421384874e-08 2.083071544775e-08 
5.702075114251e-07 -8.524683080612e-11 1.922725549065e-08 6.272634536908e-07 -1.608465345381e-08 2.603023586516e-09 
9.182630968631e-07 4.174727594956e-07 -1.501341710518e-07 7.778302082631e-07 1.172621140926e-08 -6.720176340454e-09 
7.341720524802e-07 -7.732793141109e-09 -4.815282295716e-09 8.395825551853e-07 -4.571426962960e-10 -7.347779922069e-09 
5.931757664209e-07 3.655861590587e-09 -2.319221475213e-08 4.602230828261e-07 3.216940126492e-08 -2.706391634647e-08 
6.955945129144e-07 -5.023270067475e-09 -3.583133345246e-09 7.692196764469e-07 5.303439292150e-09 -1.068284732567e-08 
1.050663663606e-06 2.927199660545e-08 4.307297054213e-08 7.202198006153e-07 6.098213733091e-09 2.491779053306e-09 
5.071425643702e-07 -2.922437823366e-08 1.114967124952e-08 7.534737102218e-07 -1.939783808038e-09 6.816278000877e-09 
7.458111001504e-07 7.750776202561e-09 -6.790727755186e-09 1.870012334801e-07 -1.148944439693e-07 1.467654385606e-07 
1.037968268339e-06 -2.576252726916e-07 3.245725906248e-07 8.349014339335e-07 7.626559070860e-09 1.973941849313e-10 
7.733991631719e-07 -1.045232327055e-08 4.223154959259e-08 8.573932037070e-07 -1.948130130786e-09 -3.737308279171e-09 
5.057039350637e-07 1.157576690098e-07 -3.880788830940e-07 6.955437072956e-07 -7.689008222037e-09 1.508252364521e-08 
7.075850212899e-07 -9.977276960926e-09 -5.279154417540e-09 6.183422281535e-07 -1.229883722763e-08 1.245772758422e-08 
6.228214177827e-07 -1.690029592454e-08 1.625635933376e-08 8.100356810373e-07 -9.383376786121e-10 1.450098876672e-09 
7.153668983799e-07 -8.543480893738e-10 1.140665858939e-09 7.169081876676e-07 1.389425956242e-08 -1.521797517312e-08 
7.945655282482e-07 -1.437625843100e-09 6.847913120663e-08 7.657130799925e-07 -1.989334022137e-09 -2.751252892758e-09 
6.191444651017e-07 -6.459166936658e-09 1.725725723858e-08 7.883108179803e-07 2.646008552556e-09 8.633433881411e-09 
6.636353688225e-07 -2.280253240807e-08 5.766504977273e-09 8.063773085932e-07 4.205981572765e-09 4.510125478327e-09 
5.340353003801e-07 -1.515162314328e-08 1.797443927584e-08 1.173474088640e-06 5.363218188597e-08 -6.316978580399e-08 
8.719504724392e-07 -1.809587762461e-10 -2.850272589001e-09 6.278143400273e-07 -1.463960013144e-09 1.169463100546e-08 
7.553141943155e-07 -1.311485094336e-09 -4.591243936907e-09 8.148830774415e-07 7.036746666994e-09 7.954886300802e-09 
7.359401586902e-07 9.864387183619e-09 -2.111179948436e-09 7.891709373460e-07 4.349376580930e-07 -1.329506137673e-07 
8.005043346024e-07 4.239523489940e-09 3.813155222591e-09 7.569582210869e-07 3.210003309523e-09 -6.338689083999e-09 
9.705219295271e-07 3.901010674138e-08 9.035637357675e-08 4.331245479151e-07 3.226367183563e-07 -1.884562376141e-07 
7.195776558885e-07 5.525129991956e-11 8.455099265199e-09 7.705836180168e-07 6.647194761148e-09 -1.235024747284e-08 
6.997686606549e-07 -1.217227864747e-08 -1.070498663416e-09 7.478997361742e-07 -8.266834078858e-09 1.119518842338e-08 
7.173440306201e-07 -1.681868006458e-08 -1.200997453056e-08 4.585870951776e-07 1.208343050441e-08 -1.509063234083e-08 
6.647132261993e-07 1.484313214993e-08 4.532967895062e-09 8.753858554203e-07 6.043168802616e-10 -1.350396811993e-09 
1.066073580529e-06 -8.617696421936e-08 3.852463909132e-07 7.924146097787e-07 1.183757238236e-08 7.005691213065e-09 
4.696802123459e-07 -2.534701316128e-08 2.080698107425e-08 7.216390208464e-07 5.017065477193e-09 -2.140144512877e-08 
7.059038106160e-07 -9.402054605802e-09 -5.062983911534e-09 8.441795421983e-07 -3.516784345366e-09 3.055683067907e-09 
7.537441455788e-07 4.765564135076e-09 -4.910860584890e-09 7.586830527767e-07 1.724647446146e-08 -7.166212491450e-09 
1.269919414341e-06 2.949648335417e-08 2.845433145549e-08 8.704749170480e-07 -8.514611964934e-10 -3.861407262945e-09 
6.989976930082e-07 -7.791936946631e-09 1.526191814555e-08 6.580012781622e-07 -1.623834022170e-09 -1.514682646983e-08 
7.608160084524e-07 -2.742247474194e-09 -5.048425384236e-09 8.499988527621e-07 -2.354245795458e-09 -3.095019917668e-09 
7.348587989524e-07 -6.907351228477e-09 -6.786484231583e-09 8.508474948049e-07 3.685577205857e-10 3.964895816379e-10 
8.162610787875e-07 -9.019352255912e-09 1.116214471012e-08 6.341397440957e-07 1.778815068517e-08 8.514032542821e-09 
7.029900931340e-07 -8.123943479752e-09 4.577386702119e-09 7.158590565953e-07 -1.764541652139e-08 4.709038066907e-09 
5.055922992853e-07 2.121671327641e-08 1.513419471517e-08 6.212221558471e-07 -1.552564382089e-08 -9.556828305253e-09 
1.053110561524e-06 1.240544462042e-07 -3.753450599310e-07 7.182653883721e-07 2.359720073384e-09 -3.090349758051e-09 
5.162170502709e-07 -1.547258587759e-07 3.673022176187e-07 6.126663586392e-07 -1.883789196868e-08 -7.452879902450e-09 
6.958566125582e-07 -9.481020676355e-09 -5.582132209232e-09 6.635917662741e-07 -3.906239695885e-07 -2.445951719387e-07 
9.419960879089e-07 -4.857284195869e-07 -1.347898776233e-07 7.075845100021e-07 -1.775225465948e-08 -1.135891924100e-08 
7.676693535763e-07 -1.399850219226e-08 -1.134750810753e-08 5.947482868791e-07 -2.491537026697e-08 -1.920462281953e-08 
7.620090171289e-07 1.252898781711e-08 1.939387323763e-08 8.151876914790e-07 -4.724817772299e-09 -1.036846858534e-08 
4.809251191857e-07 -2.280834835632e-08 -3.342298684112e-08 7.195763235778e-07 1.146871562452e-09 -3.823824137771e-09 
7.968351784325e-07 1.072288036690e-08 -1.777721673146e-09 1.175843935693e-06 -2.519788220082e-07 -2.711882954508e-07 
1.132436909704e-06 -3.124881777509e-07 -2.233268360894e-07 1.031590715279e-06 -7.053857454196e-08 -8.054307118557e-08 
9.263270985932e-07 -4.128054757863e-07 -3.155593275810e-07 1.077521545763e-06 7.674791296617e-08 -5.289000419220e-08 
8.054512013306e-07 9.787119979809e-09 -1.285871142884e-08 8.208116812751e-07 -6.909971282578e-09 -9.455459283041e-09 
1.219423277674e-07 -5.322209151419e-08 -1.088117989598e-07 7.641928404817e-07 3.115701465111e-09 -4.604289962083e-09 
7.622894130240e-07 1.398088517921e-09 -3.788059128431e-09 7.994864094108e-07 1.136106953544e-08 -2.353967710691e-09 
7.790355678682e-07 8.043081108733e-10 -6.170074087050e-09 8.122164272979e-07 4.458328378280e-09 -9.385795867223e-09 
9.685812323072e-07 3.640098825990e-07 3.223520697924e-07 6.844734800744e-07 2.204705445835e-08 -1.193046758783e-08 
8.090855487819e-07 -1.557971831444e-10 2.650094066936e-09 7.292218543079e-07 -1.025811603814e-09 4.009255206958e-09 
8.476152345225e-07 1.341260379901e-09 4.570051424859e-09 7.869351861157e-07 3.011824244545e-09 8.078194207931e-09 
4.694911248575e-07 -3.137998242106e-08 1.608880248921e-08 6.799224988495e-07 -1.435317051796e-08 -4.799372918992e-09 
8.040337802481e-07 3.742356382624e-09 2.521127123733e-09 6.464459017594e-07 -1.308412982910e-08 2.864385197050e-09 
9.072902677068e-07 4.727202673429e-08 6.325358372650e-08 8.794309927830e-07 -3.633173969307e-07 -3.328139221146e-07 
7.128756333858e-07 2.338867157543e-08 1.543292743016e-08 1.292772193253e-06 -1.598912396984e-08 -2.481143150136e-08 
6.288945140325e-07 -9.065931730186e-09 1.872488797691e-08 7.354430929810e-07 1.266825295556e-08 -5.064395933690e-09 
7.099668940658e-07 -2.528738194945e-09 -1.606486649740e-08 6.758963790272e-07 -1.621097547530e-08 -1.029910159447e-08 
7.127703208089e-07 -6.459924137952e-09 -1.238087838557e-08 7.905255495296e-07 6.495498194446e-09 6.176698817627e-09 
8.537269098829e-07 4.938515624865e-09 -3.526901758236e-09 7.908122047051e-07 9.894370551079e-10 1.386131131275e-08 
7.223818255576e-07 1.282197801503e-08 -8.636931593162e-09 8.567786997129e-07 9.167867384618e-10 2.547160593390e-10 
1.045317913429e-06 -3.934087173784e-07 -1.505453579557e-07 7.918589198388e-07 6.332818074909e-09 8.291327184928e-09 
6.509725475944e-07 -1.354751378446e-09 9.849651442984e-09 7.450000049294e-07 8.041159996215e-09 -6.489074482106e-09 
6.046008942223e-07 -1.812509491913e-08 -6.553791904403e-09 4.877259670843e-07 2.044474967060e-08 8.916174588506e-09 
6.926877693246e-07 -5.956539651399e-09 -3.582463476274e-09 9.554824018732e-07 -1.254446584630e-07 4.036937545304e-07 
8.256565338744e-07 -4.876097162214e-09 -6.949459323113e-09 6.945618984282e-07 2.755321808462e-10 -7.131443396683e-10 
8.484901617260e-07 -6.838592214393e-09 1.835402305069e-09 6.623007829100e-07 -1.127275906257e-08 2.782874018128e-09 
7.619336254936e-07 -2.338428506819e-09 -4.666025320448e-10 6.385854214224e-07 -1.183293452661e-08 -2.306099322200e-08 
5.538118788028e-07 3.718819741459e-08 5.170801733715e-09 8.469303175684e-07 1.383195175067e-09 5.624707834844e-09 
4.649620114587e-07 2.500778601708e-07 3.131632513151e-07 7.157789509429e-07 -1.115193453812e-09 1.605623356257e-08 
8.349260184989e-07 6.926758288900e-09 -2.464987085992e-10 7.411211089259e-07 -6.244452802021e-09 -6.188363843625e-09 
6.511912951892e-07 1.894068218791e-08 1.349551781100e-08 6.480944186813e-07 1.392901727817e-08 2.292566150877e-08 
6.867503535935e-07 -5.013867361420e-09 1.340757445258e-08 1.017551083053e-06 -2.798383599409e-07 -3.350808342326e-07 
5.662301107844e-07 -2.289882887441e-08 -8.758183870902e-09 2.126067661887e-07 2.440080662850e-07 1.921087628434e-08 
5.212352248740e-07 8.377928819374e-09 2.570540694836e-08 4.941614722035e-07 1.698519606964e-08 1.421391741508e-08 
7.014730063859e-07 -2.734833057015e-08 7.747682417691e-09 7.272060039475e-07 -9.977292132858e-09 -5.902413465003e-09 
8.578654844817e-07 -1.079657643081e-09 4.605336898200e-10 5.784514492485e-07 -2.224586183299e-08 -3.079444818815e-09 
8.556894739641e-07 -4.406484357271e-09 4.684587764324e-09 7.385648101463e-07 -5.622314598622e-10 -1.247737137951e-08 
6.267897545402e-07 -1.534345803634e-08 1.379612621665e-08 1.008459266457e-06 3.163132799597e-08 5.600529300616e-08 
5.052337738001e-07 1.871753056266e-08 1.809002364613e-08 6.596321150933e-07 -1.671524974700e-08 -1.793723756857e-08 
6.370951187940e-07 -8.199276742641e-09 1.543931554454e-08 7.598001999696e-07 -7.373516201430e-09 3.554036961975e-09 
6.817577471333e-07 1.328620757065e-08 -4.277339992677e-09 7.571466078478e-07 2.801082414062e-09 -6.360072373865e-09 
7.704722998328e-07 1.366342939098e-08 -7.017433965468e-09 4.284882019275e-07 -2.693158680136e-08 -2.998010669413e-08 
1.687980390143e-07 -8.463580785647e-08 -1.618753500058e-07 8.500194762782e-07 -6.043559766134e-09 1.996536267944e-09 
6.391495763680e-07 -1.200164528356e-09 -1.899270668494e-08 8.100542275164e-07 3.050635147764e-09 -8.232242185825e-09 
4.857078976356e-07 -6.639541304004e-09 -2.327005205430e-08 6.723862736791e-07 -8.946199523757e-09 2.046718128887e-09 
7.853236950190e-07 6.203465606654e-09 -5.339445020117e-09 8.172133845153e-07 4.427590328143e-09 6.762251378332e-10 
4.651077208885e-07 1.838457080336e-08 -3.447981939869e-09 8.578189542113e-07 -4.010176010571e-08 5.862873769662e-08 
1.376714432548e-06 8.720738878914e-08 1.880595221469e-07 7.652954923183e-07 1.658027754823e-08 -8.705016502655e-09 
6.669653018532e-07 1.295565996619e-08 2.051389776425e-08 9.385911582589e-07 2.027313564718e-07 -3.931397031435e-07 
5.048416210091e-07 -3.237298856415e-07 -1.893279145285e-07 7.398785653512e-07 -5.793246974026e-09 2.536730689457e-09 
4.523927224143e-07 -3.465759418084e-07 -1.172059218500e-07 6.487505678967e-07 6.398900162119e-09 2.972456386149e-08 
7.159326478328e-07 -4.658461263454e-09 1.208283544015e-08 6.499999693947e-07 9.862942423694e-09 -1.015712664292e-08 
7.072626348748e-07 -1.025428094285e-08 -5.387916451625e-09 8.083187051460e-07 4.356476405799e-09 -3.568285502839e-09 
6.135858498126e-07 -4.312851089298e-09 1.411619091605e-08 8.187202100944e-07 1.149941310044e-08 4.732034093895e-09 
7.873734702975e-07 7.112698528082e-09 -7.221450887516e-09 6.446767991665e-07 -1.973473780428e-08 -1.767386202872e-08 
4.767135854928e-07 -1.374326576321e-08 1.488298477871e-08 5.195686865198e-07 1.879930895189e-08 -1.601953688860e-08 
4.438085294799e-07 -1.299818138588e-07 3.474425021265e-07 1.047721735267e-06 1.073503676593e-07 -3.843319280277e-07 
9.349620197498e-07 2.362374753852e-07 -3.688425183768e-07 7.518257988019e-07 -6.113348854530e-09 5.378991910099e-09 
8.154824554087e-07 1.435857377172e-08 5.117950243742e-07 7.608175754744e-07 1.800833337149e-08 -9.995734522656e-09 
1.222905054052e-06 -1.691011182863e-07 -2.880197790237e-07 7.225516901017e-07 -1.820813324290e-08 -6.391236176404e-09 
1.395464478802e-06 -1.887698840227e-07 5.113808584064e-08 7.843407930870e-07 1.610546232570e-08 7.715553029358e-09 
1.279946791469e-06 -1.539450534526e-07 2.459201260998e-07 7.037999975520e-07 6.895969496033e-10 1.735891026596e-08 
8.447754916598e-07 -5.302719888433e-09 -2.133701836904e-09 6.954420419697e-07 -1.968235672410e-09 1.255621845621e-08 
5.234135043543e-07 -7.698413914790e-09 3.080528542150e-09 5.164083989530e-07 2.044460836191e-08 2.007437952518e-08 
7.862039240010e-07 -1.408925471135e-08 -1.157854599562e-08 7.095930405177e-07 -1.378973390003e-09 1.603039730461e-08 
7.449823426450e-07 -5.016400492283e-09 -5.590101548077e-09 1.127843359814e-06 3.669818071747e-07 1.747717406095e-07 
6.577929914159e-07 -4.460600883662e-07 1.735882294617e-07 6.659513673293e-07 1.844972113907e-08 -1.270002529279e-08 
8.548712137121e-07 1.287435928861e-09 6.833909249143e-10 7.739248038524e-07 1.569556808283e-08 -1.036912813637e-08 
1.196365207437e-06 5.166608350626e-08 -4.866499610629e-08 1.185842527307e-06 -2.940072642094e-07 1.698926960792e-07 
7.060501416267e-07 7.043255292782e-09 1.326683869077e-08 1.016795805800e-06 -7.595183719163e-08 -7.750263966163e-08 
5.091045742777e-07 3.153836475645e-07 -3.120173554917e-07 6.611217129205e-07 -1.239532131181e-09 -1.534157863781e-08 
4.280424685759e-07 -3.603988772388e-07 -6.905332650825e-09 8.042347081777e-07 -1.218903026910e-08 1.941952888274e-08 
8.716971787153e-07 -1.150046603519e-09 -5.328122089248e-09 4.532045491836e-07 2.367431076798e-08 7.278095711703e-09 
1.111775023421e-06 3.928567783167e-07 9.188194753443e-09 7.190950491326e-07 -1.273912149776e-08 -2.435679273776e-09 
7.700219062862e-07 -3.661597231186e-09 -2.218700751757e-09 5.451592098401e-07 -2.154004969313e-07 3.245723959053e-07 
5.969746513232e-07 -2.733495909240e-08 -1.965208675665e-08 7.210344206043e-07 -1.406235792684e-08 -1.672203099232e-08 
8.213086510625e-07 4.002262359783e-07 -1.749618014154e-08 7.164221695440e-07 1.901289154127e-08 1.030483297592e-08 
6.956275866677e-07 2.424944810988e-08 -1.163713269217e-08 7.050741703795e-07 1.756943871424e-09 3.099918380884e-09 
7.199136663196e-07 -8.061352603073e-09 -7.747984539369e-10 7.075271269143e-07 2.048198275762e-08 9.485038554101e-09 
7.782696525619e-07 4.007158380367e-09 6.837821784168e-09 6.884713224766e-07 1.047709138872e-08 -2.169488643356e-09 
7.001535752550e-07 2.419672582522e-08 1.701960517831e-08 9.313091578848e-07 -5.599871634654e-08 2.303500980234e-08 
7.173231842131e-07 1.067718428279e-09 -1.292038479603e-08 1.089272514748e-06 5.471617683009e-08 8.531437296110e-08 
7.144190696482e-07 -1.011312612766e-08 -5.387261220668e-09 7.445306380967e-07 -1.893990810916e-09 4.977909778262e-09 
5.866690463019e-07 4.136650193357e-07 -1.763111411686e-07 6.337469331883e-07 6.253701472389e-09 2.064802442311e-08 
7.067282966147e-07 1.573434840146e-08 -3.964212476260e-09 8.607798889559e-07 -4.741735217986e-09 -1.796743998123e-09 
5.062053279038e-07 -2.596266098697e-08 7.313748504480e-09 1.059758093548e-06 -3.976808706170e-07 2.559649533327e-08 
6.312728688264e-07 -2.241468811175e-09 -3.275276880101e-08 2.252235314643e-07 1.428490098802e-07 1.747552649864e-07 
5.012977231830e-07 -1.186448168036e-08 -3.071180222434e-08 5.638820018131e-07 3.668084951775e-08 5.804309542835e-09 
7.876619280600e-07 -7.322231109025e-09 9.862420142070e-09 7.006073848964e-07 1.507089205068e-09 1.710564944782e-08 
7.840374424528e-07 4.516759521954e-09 3.792770611311e-09 6.512145005223e-07 -1.385961655591e-08 7.466896282706e-09 
7.213683724905e-07 4.150886233451e-09 -4.333709810072e-09 8.278485197341e-07 -1.385705900199e-09 6.207990989976e-09 
8.675996184034e-07 -3.540351877122e-09 4.037013401671e-09 9.754216549665e-07 -6.054923516838e-08 9.034951388255e-08 
4.943216886016e-07 3.181383230573e-08 -2.740551050318e-08 4.854681445296e-07 -2.674606236884e-07 2.734563253048e-07 