<?xml version="1.0"?>
<!-- Time step: 20 | Time: 2.000000000000e+06 -->
<VTKFile type="UnstructuredGrid" version="0.1" byte_order="LittleEndian">
  <UnstructuredGrid>
    <Piece NumberOfPoints="2499" NumberOfCells="11162">
      <Points>
        <DataArray type="Float64" NumberOfComponents="3" format="ascii">
          0.000000000000e+00 0.000000000000e+00 0.000000000000e+00
          5.000000000000e-01 0.000000000000e+00 0.000000000000e+00
          5.000000000000e-01 1.000000000000e+00 0.000000000000e+00
          0.000000000000e+00 1.000000000000e+00 0.000000000000e+00
          0.000000000000e+00 0.000000000000e+00 1.000000000000e+00
          5.000000000000e-01 0.000000000000e+00 1.000000000000e+00
          5.000000000000e-01 1.000000000000e+00 1.000000000000e+00
          0.000000000000e+00 1.000000000000e+00 1.000000000000e+00
          1.000000000000e+00 0.000000000000e+00 0.000000000000e+00
          1.000000000000e+00 1.000000000000e+00 0.000000000000e+00
          1.000000000000e+00 0.000000000000e+00 1.000000000000e+00
          1.000000000000e+00 1.000000000000e+00 1.000000000000e+00
          5.000000000000e-01 5.000000000000e-01 9.000000000000e-01
          5.000000000000e-01 5.000000000000e-01 1.000000000000e-01
          5.000000000000e-01 9.000000000000e-01 5.000000000000e-01
          1.000000000000e-01 5.000000000000e-01 5.000000000000e-01
          5.000000000000e-01 1.000000000000e-01 5.000000000000e-01
          9.000000000000e-01 5.000000000000e-01 5.000000000000e-01
          5.000000000000e-01 5.522104768874e-01 8.965779445496e-01
          5.000000000000e-01 6.035276180398e-01 8.863703305160e-01
          5.000000000000e-01 6.530733729443e-01 8.695518130053e-01
          5.000000000000e-01 6.999999999987e-01 8.464101615145e-01
          5.000000000000e-01 7.435045716026e-01 8.173413361171e-01
          5.000000000000e-01 7.828427124742e-01 7.828427124751e-01
          5.000000000000e-01 8.173413361165e-01 7.435045716035e-01
          5.000000000000e-01 8.464101615141e-01 6.999999999994e-01
          5.000000000000e-01 8.695518130050e-01 6.530733729448e-01
          5.000000000000e-01 8.863703305159e-01 6.035276180402e-01
          5.000000000000e-01 8.965779445496e-01 5.522104768876e-01
          5.000000000000e-01 5.522104768875e-01 1.034220554504e-01
          5.000000000000e-01 6.035276180399e-01 1.136296694841e-01
          5.000000000000e-01 6.530733729445e-01 1.304481869949e-01
          5.000000000000e-01 6.999999999990e-01 1.535898384856e-01
          5.000000000000e-01 7.435045716029e-01 1.826586638830e-01
          5.000000000000e-01 7.828427124744e-01 2.171572875252e-01
          5.000000000000e-01 8.173413361166e-01 2.564954283967e-01
          5.000000000000e-01 8.464101615142e-01 3.000000000007e-01
          5.000000000000e-01 8.695518130050e-01 3.469266270552e-01
          5.000000000000e-01 8.863703305159e-01 3.964723819598e-01
          5.000000000000e-01 8.965779445496e-01 4.477895231124e-01
          5.000000000000e-01 0.000000000000e+00 1.111111111108e-01
          5.000000000000e-01 0.000000000000e+00 2.222222222217e-01
          5.000000000000e-01 0.000000000000e+00 3.333333333326e-01
          5.000000000000e-01 0.000000000000e+00 4.444444444436e-01
          5.000000000000e-01 0.000000000000e+00 5.555555555546e-01
          5.000000000000e-01 0.000000000000e+00 6.666666666659e-01
          5.000000000000e-01 0.000000000000e+00 7.777777777772e-01
          5.000000000000e-01 0.000000000000e+00 8.888888888886e-01
          5.000000000000e-01 1.111111111108e-01 1.000000000000e+00
          5.000000000000e-01 2.222222222217e-01 1.000000000000e+00
          5.000000000000e-01 3.333333333326e-01 1.000000000000e+00
          5.000000000000e-01 4.444444444436e-01 1.000000000000e+00
          5.000000000000e-01 5.555555555546e-01 1.000000000000e+00
          5.000000000000e-01 6.666666666659e-01 1.000000000000e+00
          5.000000000000e-01 7.777777777772e-01 1.000000000000e+00
          5.000000000000e-01 8.888888888886e-01 1.000000000000e+00
          5.000000000000e-01 1.000000000000e+00 8.888888888890e-01
          5.000000000000e-01 1.000000000000e+00 7.777777777781e-01
          5.000000000000e-01 1.000000000000e+00 6.666666666674e-01
          5.000000000000e-01 1.000000000000e+00 5.555555555567e-01
          5.000000000000e-01 1.000000000000e+00 4.444444444458e-01
          5.000000000000e-01 1.000000000000e+00 3.333333333345e-01
          5.000000000000e-01 1.000000000000e+00 2.222222222231e-01
          5.000000000000e-01 1.000000000000e+00 1.111111111116e-01
          5.000000000000e-01 8.888888888890e-01 0.000000000000e+00
          5.000000000000e-01 7.777777777781e-01 0.000000000000e+00
          5.000000000000e-01 6.666666666674e-01 0.000000000000e+00
          5.000000000000e-01 5.555555555567e-01 0.000000000000e+00
          5.000000000000e-01 4.444444444458e-01 0.000000000000e+00
          5.000000000000e-01 3.333333333345e-01 0.000000000000e+00
          5.000000000000e-01 2.222222222231e-01 0.000000000000e+00
          5.000000000000e-01 1.111111111116e-01 0.000000000000e+00
          3.750000000002e-01 1.000000000000e+00 1.000000000000e+00
          2.500000000007e-01 1.000000000000e+00 1.000000000000e+00
          1.250000000005e-01 1.000000000000e+00 1.000000000000e+00
          0.000000000000e+00 1.000000000000e+00 8.888888888890e-01
          0.000000000000e+00 1.000000000000e+00 7.777777777781e-01
          0.000000000000e+00 1.000000000000e+00 6.666666666674e-01
          0.000000000000e+00 1.000000000000e+00 5.555555555567e-01
          0.000000000000e+00 1.000000000000e+00 4.444444444458e-01
          0.000000000000e+00 1.000000000000e+00 3.333333333345e-01
          0.000000000000e+00 1.000000000000e+00 2.222222222231e-01
          0.000000000000e+00 1.000000000000e+00 1.111111111116e-01
          1.249999999997e-01 1.000000000000e+00 0.000000000000e+00
          2.499999999995e-01 1.000000000000e+00 0.000000000000e+00
          3.749999999997e-01 1.000000000000e+00 0.000000000000e+00
          0.000000000000e+00 8.888888888890e-01 1.000000000000e+00
          0.000000000000e+00 7.777777777781e-01 1.000000000000e+00
          0.000000000000e+00 6.666666666674e-01 1.000000000000e+00
          0.000000000000e+00 5.555555555567e-01 1.000000000000e+00
          0.000000000000e+00 4.444444444458e-01 1.000000000000e+00
          0.000000000000e+00 3.333333333345e-01 1.000000000000e+00
          0.000000000000e+00 2.222222222231e-01 1.000000000000e+00
          0.000000000000e+00 1.111111111116e-01 1.000000000000e+00
          1.249999999997e-01 0.000000000000e+00 1.000000000000e+00
          2.499999999995e-01 0.000000000000e+00 1.000000000000e+00
          3.749999999997e-01 0.000000000000e+00 1.000000000000e+00
          0.000000000000e+00 0.000000000000e+00 1.111111111108e-01
          0.000000000000e+00 0.000000000000e+00 2.222222222217e-01
          0.000000000000e+00 0.000000000000e+00 3.333333333326e-01
          0.000000000000e+00 0.000000000000e+00 4.444444444436e-01
          0.000000000000e+00 0.000000000000e+00 5.555555555546e-01
          0.000000000000e+00 0.000000000000e+00 6.666666666659e-01
          0.000000000000e+00 0.000000000000e+00 7.777777777772e-01
          0.000000000000e+00 0.000000000000e+00 8.888888888886e-01
          1.249999999997e-01 0.000000000000e+00 0.000000000000e+00
          2.499999999995e-01 0.000000000000e+00 0.000000000000e+00
          3.749999999997e-01 0.000000000000e+00 0.000000000000e+00
          0.000000000000e+00 1.111111111108e-01 0.000000000000e+00
          0.000000000000e+00 2.222222222217e-01 0.000000000000e+00
          0.000000000000e+00 3.333333333326e-01 0.000000000000e+00
          0.000000000000e+00 4.444444444436e-01 0.000000000000e+00
          0.000000000000e+00 5.555555555546e-01 0.000000000000e+00
          0.000000000000e+00 6.666666666659e-01 0.000000000000e+00
          0.000000000000e+00 7.777777777772e-01 0.000000000000e+00
          0.000000000000e+00 8.888888888886e-01 0.000000000000e+00
          4.477895231125e-01 5.000000000000e-01 1.034220554504e-01
          3.964723819600e-01 5.000000000000e-01 1.136296694841e-01
          3.469266270554e-01 5.000000000000e-01 1.304481869949e-01
          3.000000000010e-01 5.000000000000e-01 1.535898384857e-01
          2.564954283971e-01 5.000000000000e-01 1.826586638831e-01
          2.171572875256e-01 5.000000000000e-01 2.171572875252e-01
          1.826586638834e-01 5.000000000000e-01 2.564954283967e-01
          1.535898384859e-01 5.000000000000e-01 3.000000000006e-01
          1.304481869950e-01 5.000000000000e-01 3.469266270551e-01
          1.136296694842e-01 5.000000000000e-01 3.964723819598e-01
          1.034220554504e-01 5.000000000000e-01 4.477895231124e-01
          4.477895231126e-01 5.000000000000e-01 8.965779445496e-01
          3.964723819602e-01 5.000000000000e-01 8.863703305159e-01
          3.469266270556e-01 5.000000000000e-01 8.695518130052e-01
          3.000000000012e-01 5.000000000000e-01 8.464101615145e-01
          2.564954283973e-01 5.000000000000e-01 8.173413361171e-01
          2.171572875258e-01 5.000000000000e-01 7.828427124751e-01
          1.826586638835e-01 5.000000000000e-01 7.435045716035e-01
          1.535898384859e-01 5.000000000000e-01 6.999999999995e-01
          1.304481869950e-01 5.000000000000e-01 6.530733729450e-01
          1.136296694842e-01 5.000000000000e-01 6.035276180403e-01
          1.034220554504e-01 5.000000000000e-01 5.522104768876e-01
          5.000000000000e-01 4.477895231125e-01 1.034220554504e-01
          5.000000000000e-01 3.964723819600e-01 1.136296694841e-01
          5.000000000000e-01 3.469266270554e-01 1.304481869949e-01
          5.000000000000e-01 3.000000000010e-01 1.535898384857e-01
          5.000000000000e-01 2.564954283971e-01 1.826586638831e-01
          5.000000000000e-01 2.171572875256e-01 2.171572875252e-01
[...]
      <PointData Scalars="HEAD">
        <DataArray type="Float64" Name="HEAD" format="ascii">
          1.000000000005e-02 5.001922699535e-03 5.002924820108e-03 1.000000000005e-02 1.000000000005e-02 5.001051082790e-03 5.003120714181e-03 1.000000000005e-02 0.000000000000e+00 0.000000000000e+00 0.000000000000e+00 0.000000000000e+00 5.006423829209e-03 4.992403094304e-03 5.010426216048e-03 9.881703787441e-03 4.996318207582e-03 1.158071106534e-04 5.003535818517e-03 4.998742888240e-03 4.999120777071e-03 5.000642270470e-03 5.001308500908e-03 5.003872097313e-03 5.004786451688e-03 4.998222253715e-03 5.001859062223e-03 4.998319344536e-03 5.000255276314e-03 4.992362474371e-03 4.980050357454e-03 4.999007594349e-03 4.995176522679e-03 5.001271721848e-03 4.994855653222e-03 5.005251835720e-03 4.999517454689e-03 4.995547651763e-03 4.997977040035e-03 5.003701223421e-03 5.003916794866e-03 4.992756337303e-03 5.005128175164e-03 5.002044610744e-03 5.004527898864e-03 5.001120487483e-03 4.994792260348e-03 5.000073312380e-03 5.000774305415e-03 4.994450745817e-03 5.003624643592e-03 5.002757240585e-03 4.997949063764e-03 5.004019995562e-03 5.000324018986e-03 4.996008227812e-03 4.999682269805e-03 4.996793567364e-03 4.988679873899e-03 4.992388009368e-03 4.995468871108e-03 4.990159623066e-03 5.000836909847e-03 5.003185584431e-03 4.999784499100e-03 4.998697472714e-03 5.001624729894e-03 5.008123388131e-03 5.005411930800e-03 5.000265580689e-03 4.998735230404e-03 4.997724982378e-03 6.396234188557e-03 7.710285366798e-03 8.892129052985e-03 1.000000000005e-02 1.000000000005e-02 1.000000000005e-02 1.000000000005e-02 1.000000000005e-02 1.000000000005e-02 1.000000000005e-02 1.000000000005e-02 8.894999644978e-03 7.701996322930e-03 6.401769511160e-03 1.000000000005e-02 1.000000000005e-02 1.000000000005e-02 1.000000000005e-02 1.000000000005e-02 1.000000000005e-02 1.000000000005e-02 1.000000000005e-02 8.897239765034e-03 7.702636558769e-03 6.401555530822e-03 1.000000000005e-02 1.000000000005e-02 1.000000000005e-02 1.000000000005e-02 1.000000000005e-02 1.000000000005e-02 1.000000000005e-02 1.000000000005e-02 8.895691073160e-03 7.704491138741e-03 6.402713924126e-03 1.000000000005e-02 1.000000000005e-02 1.000000000005e-02 1.000000000005e-02 1.000000000005e-02 1.000000000005e-02 1.000000000005e-02 1.000000000005e-02 5.788467513961e-03 6.558108761837e-03 7.186493413740e-03 7.804327375253e-03 8.327550600312e-03 8.791168781135e-03 9.161144457077e-03 9.461863084407e-03 9.671735115710e-03 9.795424876084e-03 9.861284011769e-03 5.785494689151e-03 6.509567068982e-03 7.211646425647e-03 7.811469659784e-03 8.333167487595e-03 8.786526600111e-03 9.155096762631e-03 9.452850074538e-03 9.655608289845e-03 9.784730406338e-03 9.853926471437e-03 5.007861771345e-03 4.994925653284e-03 5.007421024481e-03 4.985815945085e-03 5.002306956896e-03 4.998148295752e-03 4.994120945896e-03 5.020063288649e-03 5.011425326916e-03 4.990138974717e-03 4.999066571802e-03 4.994565125358e-03 5.002541646231e-03 5.015654732252e-03 5.013847119026e-03 4.996302810704e-03 4.994748004197e-03 5.013999336308e-03 5.004460943131e-03 4.993444793790e-03 5.002724466168e-03 4.993435670428e-03 3.874221901300e-03 2.801069375546e-03 1.809840210701e-03 8.808076680973e-04 0.000000000000e+00 0.000000000000e+00 0.000000000000e+00 0.000000000000e+00 0.000000000000e+00 0.000000000000e+00 0.000000000000e+00 0.000000000000e+00 0.000000000000e+00 0.000000000000e+00 0.000000000000e+00 0.000000000000e+00 0.000000000000e+00 0.000000000000e+00 0.000000000000e+00 0.000000000000e+00 8.854288380687e-04 1.798712739004e-03 2.796247983497e-03 3.875013534765e-03 0.000000000000e+00 0.000000000000e+00 0.000000000000e+00 0.000000000000e+00 0.000000000000e+00 0.000000000000e+00 0.000000000000e+00 0.000000000000e+00 8.802640102122e-04 1.798718621384e-03 2.796051747039e-03 3.875096291101e-03 0.000000000000e+00 0.000000000000e+00 0.000000000000e+00 0.000000000000e+00 0.000000000000e+00 0.000000000000e+00 0.000000000000e+00 0.000000000000e+00 8.775364865437e-04 1.806408709898e-03 2.796563102972e-03 3.870388733845e-03 4.214567083155e-03 3.478911448102e-03 2.805598276093e-03 2.197008983024e-03 1.640408275483e-03 1.187994578282e-03 8.310381137103e-04 5.519722915074e-04 3.459024450158e-04 2.165116935704e-04 1.404028476980e-04 1.501276969117e-04 2.220832963553e-04 3.323121640595e-04 5.434983477564e-04 8.401107625853e-04 1.204852605182e-03 1.643669793575e-03 2.185743519576e-03 2.810927042505e-03 3.467585778618e-03 4.234791021277e-03 5.005413576791e-03 4.997574714493e-03 5.002037873537e-03 4.999741062964e-03 4.995681629096e-03 5.007174474020e-03 5.007654800338e-03 5.002969802236e-03 5.007209793082e-03 5.003985699476e-03 4.997615178343e-03 4.994388855101e-03 4.993864973221e-03 4.995254977881e-03 5.002367997545e-03 4.998531622215e-03 4.998270150366e-03 4.999339571687e-03 5.000151371024e-03 5.000392421814e-03 5.001829083310e-03 4.997160437979e-03 4.994402448728e-03 4.999976606565e-03 4.995686077300e-03 4.999322705383e-03 4.991855356068e-03 4.998224375372e-03 5.004070869948e-03 4.999168758169e-03 5.004977627654e-03 4.999941008553e-03 4.998319516116e-03 4.999654802900e-03 4.995985442340e-03 4.997400430104e-03 4.997566827918e-03 4.997607634576e-03 4.998942620367e-03 7.896500611047e-03 7.978529157537e-03 7.948238147825e-03 6.663185689674e-03 8.707122221936e-03 6.916440222659e-03 8.764592749135e-03 7.036090904709e-03 8.756152937874e-03 8.767635561869e-03 7.005462668500e-03 9.249623682548e-03 6.146627604907e-03 6.800591752225e-03 8.686544514757e-03 7.737115631954e-03 7.756902699786e-03 9.119907810755e-03 6.221722711991e-03 5.832463270756e-03 9.398833014597e-03 7.849972548335e-03 8.331263733220e-03 7.302064733211e-03 5.927286622433e-03 9.391527826278e-03 5.784397082168e-03 9.402628405162e-03 9.397698564253e-03 6.038966283775e-03 6.894193330450e-03 8.759359001501e-03 6.047511690160e-03 9.414593427730e-03 6.024520428074e-03 9.403858820145e-03 8.932758232890e-03 6.372346862996e-03 1.000000000005e-02 1.000000000005e-02 1.000000000005e-02 1.000000000005e-02 1.000000000005e-02 1.000000000005e-02 1.000000000005e-02 1.000000000005e-02 1.000000000005e-02 1.000000000005e-02 1.000000000005e-02 1.000000000005e-02 1.000000000005e-02 1.000000000005e-02 1.000000000005e-02 1.000000000005e-02 1.000000000005e-02 1.000000000005e-02 1.000000000005e-02 1.000000000005e-02 1.000000000005e-02 1.000000000005e-02 1.000000000005e-02 1.000000000005e-02 1.000000000005e-02 1.000000000005e-02 1.000000000005e-02 1.000000000005e-02 1.000000000005e-02 1.000000000005e-02 1.000000000005e-02 1.000000000005e-02 1.000000000005e-02 1.000000000005e-02 1.000000000005e-02 1.000000000005e-02 1.000000000005e-02 1.000000000005e-02 1.000000000005e-02 1.000000000005e-02 1.000000000005e-02 1.000000000005e-02 1.000000000005e-02 1.000000000005e-02 1.000000000005e-02 1.000000000005e-02 1.000000000005e-02 1.000000000005e-02 1.000000000005e-02 1.000000000005e-02 1.000000000005e-02 1.000000000005e-02 1.000000000005e-02 1.000000000005e-02 1.000000000005e-02 1.000000000005e-02 1.000000000005e-02 1.000000000005e-02 1.000000000005e-02 1.000000000005e-02 1.000000000005e-02 1.000000000005e-02 1.000000000005e-02 1.000000000005e-02 1.000000000005e-02 1.000000000005e-02 1.000000000005e-02 1.000000000005e-02 1.000000000005e-02 1.000000000005e-02 1.000000000005e-02 1.000000000005e-02 1.000000000005e-02 1.000000000005e-02 1.000000000005e-02 1.000000000005e-02 1.000000000005e-02 1.000000000005e-02 1.000000000005e-02 7.700241623728e-03 6.599608499159e-03 8.534510845462e-03 8.548398951192e-03 6.377149106133e-03 6.361095233608e-03 8.822185116047e-03 7.705822438574e-03 7.756545647545e-03 9.364258570042e-03 9.101410776414e-03 6.444028547412e-03 7.063706908945e-03 8.669721941808e-03 7.293608644725e-03 9.341381973767e-03 8.307618595415e-03 9.436487915961e-03 7.783466237288e-03 8.771426674518e-03 7.104386522254e-03 9.467675670923e-03 6.126664371078e-03 6.065436547701e-03 8.368792244371e-03 9.242330469793e-03 9.273032568072e-03 5.933912726085e-03 9.377866905854e-03 5.729501851521e-03 5.736817289848e-03 8.026269839690e-03 8.761326473064e-03 6.854257633641e-03 6.853908464544e-03 9.205516015352e-03 9.068155941960e-03 6.635173436009e-03 7.897162435027e-03 7.762571311925e-03 5.882655444690e-03 6.591218703726e-03 9.117619130421e-03 8.579276938197e-03 6.846962680869e-03 8.519453895753e-03 5.864454946229e-03 7.463468090176e-03 5.891571104908e-03 8.159759528890e-03 6.926307705360e-03 8.320328286177e-03 5.907636939936e-03 9.224923658708e-03 9.341610277929e-03 7.530690792806e-03 6.310211412350e-03 6.108282462577e-03 9.294053910781e-03 5.829514528976e-03 9.444204511262e-03 9.462161136110e-03 7.849017606431e-03 7.971621285572e-03 6.839683570447e-03 8.597291110309e-03 6.614335031150e-03 9.073782710781e-03 6.604890576030e-03 9.029986182831e-03 6.353119501290e-03 8.978988274631e-03 6.423414405584e-03 9.136611720245e-03 7.836579250813e-03 6.289510366994e-03 9.385675561544e-03 6.176185971090e-03 9.285871273568e-03 7.498341561945e-03 8.461001394899e-03 7.959888065747e-03 8.633977667716e-03 7.060875582269e-03 7.335608070251e-03 8.187226180312e-03 6.024216914382e-03 9.341581811824e-03 7.675231124958e-03 8.162883773039e-03 5.940505851191e-03 9.328457951063e-03 9.379426419043e-03 5.678028001093e-03 7.287613184235e-03 8.791222042318e-03 8.936539663688e-03 7.979284192717e-03 9.205271903808e-03 5.917766750873e-03 7.425962816441e-03 6.644547750321e-03 6.051481632651e-03 6.118591380378e-03 7.446949633559e-03 8.866754722547e-03 6.238892373130e-03 8.484426933384e-03 8.750413764955e-03 7.352824908739e-03 5.504142993546e-03 7.733955540561e-03 8.186470073680e-03 5.564381129461e-03 7.360634261736e-03 6.664683927755e-03 7.344755173868e-03 6.192755088166e-03 5.555747358556e-03 5.831463993344e-03 5.645972925673e-03 7.006739661876e-03 6.103574152672e-03 7.190961650010e-03 9.615978578511e-03 8.689505256734e-03 8.763359336224e-03 9.528083103268e-03 8.336243450290e-03 9.047556455238e-03 5.687285101654e-03 9.325611130862e-03 7.301010858612e-03 8.534922828981e-03 7.574678745582e-03 8.155221360805e-03 8.709120569518e-03 8.863652747844e-03 5.610842350220e-03 6.085251555450e-03 8.071280782680e-03 7.975031013669e-03 7.039991076248e-03 8.950295271102e-03 7.262066410079e-03 8.008106325003e-03 7.750829537602e-03 7.043317136932e-03 9.139474446264e-03 8.795545829983e-03 6.858497582948e-03 9.707586928986e-03 9.315943895070e-03 8.940254047615e-03 9.396226771447e-03 7.863123779201e-03 8.496531732689e-03 7.413261815363e-03 8.967391505979e-03 7.597773189446e-03 7.382031132909e-03 5.700738561204e-03 6.704738287420e-03 7.977585991085e-03 9.345216873115e-03 8.448448554301e-03 9.039591667040e-03 6.894787932902e-03 8.877932920871e-03 8.683078380995e-03 7.034245650106e-03 6.649911889138e-03 8.769697641302e-03 9.207882649452e-03 7.621213858677e-03 9.066586480665e-03 8.352329335465e-03 8.493258770854e-03 9.135003946700e-03 8.382342539468e-03 8.313332422259e-03 5.373707294027e-03 7.968296987834e-03 6.290638805903e-03 7.210788687633e-03 9.758524538200e-03 7.407392398978e-03 9.595296205877e-03 8.718517203002e-03 8.523894601048e-03 6.844682974523e-03 8.585588448689e-03 9.469160729974e-03 7.419420178683e-03 8.402467935657e-03 7.922393171615e-03 9.368998470880e-03 7.708537082972e-03 9.354195411597e-03 6.591796874761e-03 6.875746192633e-03 5.487516797225e-03 7.617864926146e-03 6.231037952974e-03 6.221141227672e-03 5.534015650427e-03 6.187419354775e-03 8.318345051641e-03 9.357261185211e-03 8.257136808129e-03 6.866241642539e-03 5.524300531636e-03 9.593001938948e-03 9.180443118731e-03 7.976409508176e-03 5.584020849979e-03 7.972857489081e-03 5.703070122355e-03 9.226597348384e-03 7.900811872178e-03 5.556906163359e-03 8.756570737421e-03 6.554178786833e-03 7.096584469820e-03 8.588477516098e-03 7.896145332116e-03 9.555363028944e-03 7.329669766529e-03 6.511219669149e-03 9.551606960341e-03 7.973206438496e-03 8.162524830725e-03 7.099462245335e-03 5.595489149623e-03 8.428395378072e-03 7.651506867002e-03 9.326927035342e-03 9.400664047779e-03 8.100109637763e-03 5.462949555657e-03 5.674880230050e-03 7.088934914458e-03 7.919813810245e-03 9.591447012006e-03 6.949439720590e-03 8.069045405737e-03 5.512918154646e-03 9.711483718758e-03 9.764728087182e-03 9.547220270907e-03 9.293676629878e-03 9.703272992454e-03 6.559656489904e-03 8.427429718202e-03 9.817247212561e-03 5.502343171251e-03 5.899606421931e-03 9.873766231591e-03 6.375218575091e-03 9.102105123839e-03 5.939989860815e-03 5.261159014331e-03 5.702302776190e-03 6.309903707761e-03 9.754674412631e-03 6.405568233182e-03 9.829292563201e-03 6.324336229684e-03 9.868500452082e-03 6.266088382258e-03 6.450757373755e-03 5.224990328282e-03 5.457947046865e-03 9.593574478921e-03 9.721790077746e-03 9.830619464353e-03 9.853870500628e-03 6.100783354271e-03 6.527698125416e-03 9.783956574791e-03 5.955125682329e-03 9.568139800298e-03 9.489453447612e-03 9.086463998146e-03 9.018820171889e-03 9.872761310466e-03 9.743372534335e-03 7.631867456454e-03 9.046135535998e-03 6.032848871504e-03 7.903173440946e-03 8.052952776552e-03 7.727380789893e-03 6.339042262442e-03 6.823470981508e-03 8.584855720365e-03 9.335509646931e-03 9.285158508020e-03 8.317845617595e-03 8.778457698681e-03 9.499511038188e-03 6.617073015671e-03 6.016056983002e-03 6.222091198526e-03 8.392099790933e-03 7.371011630063e-03 6.902948565673e-03 6.318428271881e-03 5.480068252140e-03 7.062896715110e-03 6.703436887781e-03 6.350652759282e-03 6.141458979868e-03 5.609332903030e-03 6.315271576331e-03 6.274121216614e-03 8.413351509862e-03 7.482922238791e-03 5.637466458399e-03 8.795824677938e-03 9.041531794258e-03 8.863300041830e-03 8.456864976517e-03 7.947857295431e-03 7.563442210368e-03 8.702098654047e-03 7.179193580417e-03 7.095188539361e-03 9.071420861743e-03 8.706562100368e-03 8.613455620750e-03 9.777828417436e-03 9.368003099425e-03 9.708062177556e-03 9.000732750983e-03 5.558906488408e-03 5.897608278846e-03 8.926016655213e-03 9.328597591994e-03 8.837005057602e-03 7.113091666266e-03 8.791102539385e-03 7.811012684662e-03 8.085392295565e-03 8.087233863591e-03 8.146223351035e-03 6.935045534429e-03 7.116473107188e-03 7.610731074369e-03 5.784820132136e-03 7.564913538101e-03 7.491296431989e-03 5.634935355626e-03 6.177504679189e-03 8.742537308108e-03 6.931196631466e-03 7.823677982695e-03 5.528590503096e-03 6.441249116779e-03 5.701451189835e-03 6.807212154597e-03 7.840673117909e-03 6.896275823666e-03 7.318683575231e-03 6.732923915685e-03 8.906886512934e-03 5.635825428631e-03 7.491023296881e-03 8.272715133623e-03 9.077165169711e-03 8.411918897044e-03 8.310700677132e-03 9.458957599294e-03 7.985226916936e-03 8.596030952448e-03 8.734264071125e-03 9.135547260774e-03 9.150514557270e-03 8.450245322941e-03 8.329029272907e-03 7.808525000578e-03 7.734908004682e-03 8.730078802984e-03 9.026748411245e-03 7.740649831172e-03 8.262669894563e-03 7.489042133778e-03 8.609951943246e-03 6.121279665023e-03 8.125912926302e-03 8.155410446634e-03 8.667727777581e-03 7.338976731928e-03 6.400378772925e-03 7.018760715704e-03 5.663818645877e-03 9.588549228930e-03 7.880191215997e-03 7.935419566116e-03 6.444341532774e-03 7.702488603743e-03 9.447573192279e-03 7.934100010136e-03 6.977152091244e-03 9.093204649852e-03 8.607813581389e-03 8.057020549816e-03 6.195486727184e-03 9.314727929186e-03 8.164114616485e-03 6.831978898327e-03 9.733889754026e-03 6.624563131035e-03 9.124930681348e-03 9.294168897790e-03 8.805774276130e-03 6.393805694908e-03 5.904406989319e-03 8.313597889477e-03 8.947206145784e-03 7.442404328157e-03 7.335478321901e-03 9.047595918832e-03 9.366370088441e-03 6.009782359002e-03 9.684079033985e-03 9.651087129327e-03 5.470417384140e-03 6.284996718644e-03 6.792455367719e-03 7.362088248081e-03 8.115808308454e-03 7.022002109914e-03 8.353056549970e-03 6.805908153727e-03 5.579543727814e-03 9.396239468726e-03 9.470915316223e-03 7.336793491810e-03 6.380901757817e-03 5.683717660752e-03 5.614053390467e-03 5.223512054596e-03 9.612124465682e-03 6.569223319850e-03 7.460081903264e-03 5.715026989404e-03 5.427350753206e-03 5.728343383210e-03 5.421982912976e-03 6.916948078900e-03 5.977175416543e-03 9.739097402325e-03 5.468235227573e-03 6.654846325308e-03 6.423726385552e-03 9.871503949719e-03 9.776931235851e-03 9.549648693042e-03 9.539969227160e-03 5.302300722782e-03 9.778258898383e-03 9.878170610295e-03 7.170312304499e-03 5.337008698004e-03 5.671898400825e-03 9.836083158315e-03 9.505673989515e-03 9.709477475049e-03 7.617277313960e-03 9.849867772595e-03 5.395088563395e-03 9.216864064391e-03 5.731729012346e-03 9.672772527935e-03 9.526009673594e-03 7.554476929080e-03 6.674821352081e-03 9.613810426461e-03 9.808287878113e-03 9.283228893667e-03 9.522259565526e-03 6.375851931166e-03 7.399191096704e-03 9.827270197010e-03 9.845339581273e-03 2.261970493570e-03 4.086201830592e-03 1.418714891066e-03 3.526143536888e-03 3.422489958204e-03 1.334994888638e-03 3.772363362669e-03 7.800969655238e-04 3.900987350179e-03 3.372296151929e-03 8.127554710142e-04 3.131705615005e-03 1.367873512600e-03 2.061495505798e-03 9.876820547964e-04 1.619150208957e-03 2.389999660734e-03 1.636433339940e-03 1.165092304550e-03 4.248735393604e-03 1.957259487797e-03 2.083368043547e-03 5.982316597585e-04 4.189088327499e-03 2.884894507599e-03 7.802028458538e-04 3.084860820036e-03 2.308801303062e-03 2.351768211114e-03 6.040122183734e-04 2.235969679755e-03 7.554772185422e-04 2.854425308592e-03 7.249935619969e-04 3.035756998393e-03 4.039405484745e-03 5.124546269514e-04 1.909536105829e-03 6.912117167636e-04 2.743558460161e-03 8.793468123855e-04 1.001872455490e-03 2.914825374613e-03 6.969902238688e-04 3.625338455735e-03 7.906886686792e-04 1.147045430450e-03 3.815958683767e-03 1.469654639616e-03 3.260044437618e-03 2.175912400796e-03 3.496479484549e-03 2.671959258627e-03 1.761624103241e-03 2.467166805793e-03 3.491925390532e-03 5.713983121606e-04 2.492996252967e-03 2.365589317237e-03 3.987555634957e-03 5.318324956970e-04 1.657339718374e-03 3.929612432934e-03 1.527067317283e-03 2.249467838278e-03 1.714996301655e-03 4.209364489839e-03 2.324216260430e-03 3.736921605408e-03 1.499953344050e-03 3.736868722200e-03 1.467806115865e-03 6.229997726739e-04 4.341761966002e-03 2.247711328053e-03 4.090763224847e-03 1.414367150117e-03 3.534483841802e-03 3.420689648659e-03 1.338971883474e-03 3.780839941373e-03 7.907655711006e-04 3.896180959074e-03 3.365051096114e-03 8.164278205799e-04 3.138037035836e-03 1.369014290805e-03 2.066209056015e-03 9.957600856697e-04 1.619239677053e-03 2.381185977327e-03 1.658601247399e-03 1.158786352823e-03 4.251868786330e-03 1.947440142480e-03 2.084471000464e-03 5.861471493152e-04 4.183366663309e-03 2.876497305818e-03 7.819465415018e-04 3.084471318517e-03 2.304479088200e-03 2.346129578191e-03 6.012720794286e-04 2.228720848788e-03 7.704815574580e-04 2.860228399610e-03 7.318593403284e-04 3.034525437700e-03 4.041109631841e-03 5.085003159937e-04 1.906791036656e-03 6.860801972368e-04 2.750586118132e-03 8.695765253315e-04 1.003011291097e-03 2.910129774027e-03 6.936605617902e-04 3.621522185256e-03 7.902076464593e-04 1.146429715693e-03 3.815212566838e-03 1.464074817866e-03 3.260269027842e-03 2.172943929861e-03 3.504543722896e-03 2.672864210722e-03 1.733045495057e-03 2.471661677124e-03 3.493616710894e-03 5.750209494519e-04 2.478424714077e-03 2.364487160845e-03 3.999253943896e-03 5.338176791661e-04 1.650966688133e-03 3.930180169177e-03 1.523106196993e-03 2.246292213555e-03 1.723072521941e-03 4.209074550360e-03 2.318537409619e-03 3.744549637268e-03 1.507577967997e-03 3.744022839676e-03 1.474522986480e-03 6.193229761515e-04 4.342241459904e-03 0.000000000000e+00 0.000000000000e+00 0.000000000000e+00 0.000000000000e+00 0.000000000000e+00 0.000000000000e+00 0.000000000000e+00 0.000000000000e+00 0.000000000000e+00 0.000000000000e+00 0.000000000000e+00 0.000000000000e+00 0.000000000000e+00 0.000000000000e+00 0.000000000000e+00 0.000000000000e+00 0.000000000000e+00 0.000000000000e+00 0.000000000000e+00 0.000000000000e+00 0.000000000000e+00 0.000000000000e+00 0.000000000000e+00 0.000000000000e+00 0.000000000000e+00 0.000000000000e+00 0.000000000000e+00 0.