<?xml version="1.0"?>
<!-- Time step: 140 | Time: 5.000000000000e+02 -->
<VTKFile type="UnstructuredGrid" version="0.1" byte_order="LittleEndian">
  <UnstructuredGrid>
    <Piece NumberOfPoints="529" NumberOfCells="484">
      <Points>
        <DataArray type="Float64" NumberOfComponents="3" format="ascii">
          0.000000000000e+00 0.000000000000e+00 0.000000000000e+00
          1.650000000000e-03 0.000000000000e+00 0.000000000000e+00
          1.650000000000e-03 1.650000000000e-03 0.000000000000e+00
          0.000000000000e+00 1.650000000000e-03 0.000000000000e+00
          1.650000000000e-03 5.000000000000e-03 0.000000000000e+00
          0.000000000000e+00 5.000000000000e-03 0.000000000000e+00
          5.000000000000e-03 0.000000000000e+00 0.000000000000e+00
          5.000000000000e-03 1.650000000000e-03 0.000000000000e+00
          5.000000000000e-03 5.000000000000e-03 0.000000000000e+00
          1.650000000000e-03 1.000000000000e-02 0.000000000000e+00
          0.000000000000e+00 1.000000000000e-02 0.000000000000e+00
          5.000000000000e-03 1.000000000000e-02 0.000000000000e+00
          1.650000000000e-03 1.500000000000e-02 0.000000000000e+00
          0.000000000000e+00 1.500000000000e-02 0.000000000000e+00
          5.000000000000e-03 1.500000000000e-02 0.000000000000e+00
          1.650000000000e-03 2.000000000000e-02 0.000000000000e+00
          0.000000000000e+00 2.000000000000e-02 0.000000000000e+00
          5.000000000000e-03 2.000000000000e-02 0.000000000000e+00
          1.650000000000e-03 2.500000000000e-02 0.000000000000e+00
          0.000000000000e+00 2.500000000000e-02 0.000000000000e+00
          5.000000000000e-03 2.500000000000e-02 0.000000000000e+00
          1.650000000000e-03 3.000000000000e-02 0.000000000000e+00
          0.000000000000e+00 3.000000000000e-02 0.000000000000e+00
          5.000000000000e-03 3.000000000000e-02 0.000000000000e+00
          1.650000000000e-03 3.500000000000e-02 0.000000000000e+00
          0.000000000000e+00 3.500000000000e-02 0.000000000000e+00
          5.000000000000e-03 3.500000000000e-02 0.000000000000e+00
          1.650000000000e-03 4.000000000000e-02 0.000000000000e+00
          0.000000000000e+00 4.000000000000e-02 0.000000000000e+00
          5.000000000000e-03 4.000000000000e-02 0.000000000000e+00
          1.650000000000e-03 4.500000000000e-02 0.000000000000e+00
          0.000000000000e+00 4.500000000000e-02 0.000000000000e+00
          5.000000000000e-03 4.500000000000e-02 0.000000000000e+00
          1.650000000000e-03 5.000000000000e-02 0.000000000000e+00
          0.000000000000e+00 5.000000000000e-02 0.000000000000e+00
          5.000000000000e-03 5.000000000000e-02 0.000000000000e+00
          1.650000000000e-03 5.500000000000e-02 0.000000000000e+00
          0.000000000000e+00 5.500000000000e-02 0.000000000000e+00
          5.000000000000e-03 5.500000000000e-02 0.000000000000e+00
          1.650000000000e-03 6.000000000000e-02 0.000000000000e+00
          0.000000000000e+00 6.000000000000e-02 0.000000000000e+00
          5.000000000000e-03 6.000000000000e-02 0.000000000000e+00
          1.650000000000e-03 6.500000000000e-02 0.000000000000e+00
          0.000000000000e+00 6.500000000000e-02 0.000000000000e+00
          5.000000000000e-03 6.500000000000e-02 0.000000000000e+00
          1.650000000000e-03 7.000000000000e-02 0.000000000000e+00
          0.000000000000e+00 7.000000000000e-02 0.000000000000e+00
          5.000000000000e-03 7.000000000000e-02 0.000000000000e+00
          1.650000000000e-03 7.500000000000e-02 0.000000000000e+00
          0.000000000000e+00 7.500000000000e-02 0.000000000000e+00
          5.000000000000e-03 7.500000000000e-02 0.000000000000e+00
          1.650000000000e-03 8.000000000000e-02 0.000000000000e+00
          0.000000000000e+00 8.000000000000e-02 0.000000000000e+00
          5.000000000000e-03 8.000000000000e-02 0.000000000000e+00
          1.650000000000e-03 8.500000000000e-02 0.000000000000e+00
          0.000000000000e+00 8.500000000000e-02 0.000000000000e+00
          5.000000000000e-03 8.500000000000e-02 0.000000000000e+00
          1.650000000000e-03 9.000000000000e-02 0.000000000000e+00
          0.000000000000e+00 9.000000000000e-02 0.000000000000e+00
          5.000000000000e-03 9.000000000000e-02 0.000000000000e+00
          1.650000000000e-03 9.500000000000e-02 0.000000000000e+00
          0.000000000000e+00 9.500000000000e-02 0.000000000000e+00
          5.000000000000e-03 9.500000000000e-02 0.000000000000e+00
          0.000000000000e+00 1.000000000000e-01 0.000000000000e+00
          1.650000000000e-03 1.000000000000e-01 0.000000000000e+00
          1.650000000000e-03 9.835000000000e-02 0.000000000000e+00
          0.000000000000e+00 9.835000000000e-02 0.000000000000e+00
          5.000000000000e-03 1.000000000000e-01 0.000000000000e+00
          5.000000000000e-03 9.835000000000e-02 0.000000000000e+00
          1.000000000000e-02 0.000000000000e+00 0.000000000000e+00
          1.000000000000e-02 1.650000000000e-03 0.000000000000e+00
          1.000000000000e-02 5.000000000000e-03 0.000000000000e+00
          1.000000000000e-02 1.000000000000e-02 0.000000000000e+00
          1.000000000000e-02 1.500000000000e-02 0.000000000000e+00
          1.000000000000e-02 2.000000000000e-02 0.000000000000e+00
          1.000000000000e-02 2.500000000000e-02 0.000000000000e+00
          1.000000000000e-02 3.000000000000e-02 0.000000000000e+00
          1.000000000000e-02 3.500000000000e-02 0.000000000000e+00
          1.000000000000e-02 4.000000000000e-02 0.000000000000e+00
          1.000000000000e-02 4.500000000000e-02 0.000000000000e+00
          1.000000000000e-02 5.000000000000e-02 0.000000000000e+00
          1.000000000000e-02 5.500000000000e-02 0.000000000000e+00
          1.000000000000e-02 6.000000000000e-02 0.000000000000e+00
          1.000000000000e-02 6.500000000000e-02 0.000000000000e+00
          1.000000000000e-02 7.000000000000e-02 0.000000000000e+00
          1.000000000000e-02 7.500000000000e-02 0.000000000000e+00
          1.000000000000e-02 8.000000000000e-02 0.000000000000e+00
          1.000000000000e-02 8.500000000000e-02 0.000000000000e+00
          1.000000000000e-02 9.000000000000e-02 0.000000000000e+00
          1.000000000000e-02 9.500000000000e-02 0.000000000000e+00
          1.000000000000e-02 1.000000000000e-01 0.000000000000e+00
          1.000000000000e-02 9.835000000000e-02 0.000000000000e+00
          1.500000000000e-02 0.000000000000e+00 0.000000000000e+00
          1.500000000000e-02 1.650000000000e-03 0.000000000000e+00
          1.500000000000e-02 5.000000000000e-03 0.000000000000e+00
          1.500000000000e-02 1.000000000000e-02 0.000000000000e+00
          1.500000000000e-02 1.500000000000e-02 0.000000000000e+00
          1.500000000000e-02 2.000000000000e-02 0.000000000000e+00
          1.500000000000e-02 2.500000000000e-02 0.000000000000e+00
          1.500000000000e-02 3.000000000000e-02 0.000000000000e+00
          1.500000000000e-02 3.500000000000e-02 0.000000000000e+00
          1.500000000000e-02 4.000000000000e-02 0.000000000000e+00
          1.500000000000e-02 4.500000000000e-02 0.000000000000e+00
          1.500000000000e-02 5.000000000000e-02 0.000000000000e+00
          1.500000000000e-02 5.500000000000e-02 0.000000000000e+00
          1.500000000000e-02 6.000000000000e-02 0.000000000000e+00
          1.500000000000e-02 6.500000000000e-02 0.000000000000e+00
          1.500000000000e-02 7.000000000000e-02 0.000000000000e+00
          1.500000000000e-02 7.500000000000e-02 0.000000000000e+00
          1.500000000000e-02 8.000000000000e-02 0.000000000000e+00
          1.500000000000e-02 8.500000000000e-02 0.000000000000e+00
          1.500000000000e-02 9.000000000000e-02 0.000000000000e+00
          1.500000000000e-02 9.500000000000e-02 0.000000000000e+00
          1.500000000000e-02 1.000000000000e-01 0.000000000000e+00
          1.500000000000e-02 9.835000000000e-02 0.000000000000e+00
          2.000000000000e-02 0.000000000000e+00 0.000000000000e+00
          2.000000000000e-02 1.650000000000e-03 0.000000000000e+00
          2.000000000000e-02 5.000000000000e-03 0.000000000000e+00
          2.000000000000e-02 1.000000000000e-02 0.000000000000e+00
          2.000000000000e-02 1.500000000000e-02 0.000000000000e+00
          2.000000000000e-02 2.000000000000e-02 0.000000000000e+00
          2.000000000000e-02 2.500000000000e-02 0.000000000000e+00
          2.000000000000e-02 3.000000000000e-02 0.000000000000e+00
          2.000000000000e-02 3.500000000000e-02 0.000000000000e+00
          2.000000000000e-02 4.000000000000e-02 0.000000000000e+00
          2.000000000000e-02 4.500000000000e-02 0.000000000000e+00
          2.000000000000e-02 5.000000000000e-02 0.000000000000e+00
          2.000000000000e-02 5.500000000000e-02 0.000000000000e+00
          2.000000000000e-02 6.000000000000e-02 0.000000000000e+00
          2.000000000000e-02 6.500000000000e-02 0.000000000000e+00
          2.000000000000e-02 7.000000000000e-02 0.000000000000e+00
          2.000000000000e-02 7.500000000000e-02 0.000000000000e+00
          2.000000000000e-02 8.000000000000e-02 0.000000000000e+00
          2.000000000000e-02 8.500000000000e-02 0.000000000000e+00
          2.000000000000e-02 9.000000000000e-02 0.000000000000e+00
          2.000000000000e-02 9.500000000000e-02 0.000000000000e+00
          2.000000000000e-02 1.000000000000e-01 0.000000000000e+00
          2.000000000000e-02 9.835000000000e-02 0.000000000000e+00
          2.500000000000e-02 0.000000000000e+00 0.000000000000e+00
          2.500000000000e-02 1.650000000000e-03 0.000000000000e+00
          2.500000000000e-02 5.000000000000e-03 0.000000000000e+00
          2.500000000000e-02 1.000000000000e-02 0.000000000000e+00
          2.500000000000e-02 1.500000000000e-02 0.000000000000e+00
          2.500000000000e-02 2.000000000000e-02 0.000000000000e+00
[...]
      <PointData Scalars="PRESSURE1">
        <DataArray type="Float64" Name="PRESSURE1" format="ascii">
          2.000000000000e+05 1.991750000000e+05 1.983673165064e+05 1.991750000000e+05 1.967174329763e+05 1.975000000000e+05 1.975000000000e+05 1.967174329763e+05 1.951132015571e+05 1.942446688812e+05 1.950000000000e+05 1.926939909691e+05 1.917655535909e+05 1.925000000000e+05 1.902566703960e+05 1.892823212746e+05 1.900000000000e+05 1.878071786320e+05 1.867959888243e+05 1.875000000000e+05 1.853483893506e+05 1.843071212164e+05 1.850000000000e+05 1.828819501580e+05 1.818160575674e+05 1.825000000000e+05 1.804088608924e+05 1.793229990023e+05 1.800000000000e+05 1.779297181238e+05 1.768280492650e+05 1.775000000000e+05 1.754448292993e+05 1.743312334699e+05 1.750000000000e+05 1.729542662888e+05 1.718325049497e+05 1.725000000000e+05 1.704578847232e+05 1.693317437676e+05 1.700000000000e+05 1.679553190340e+05 1.668287473549e+05 1.675000000000e+05 1.654459543569e+05 1.643232110775e+05 1.650000000000e+05 1.629288689860e+05 1.618146926190e+05 1.625000000000e+05 1.604027300083e+05 1.593025452352e+05 1.600000000000e+05 1.578656016328e+05 1.567857829920e+05 1.575000000000e+05 1.553145637158e+05 1.542627497078e+05 1.550000000000e+05 1.527448465445e+05 1.517300317344e+05 1.525000000000e+05 1.501471692928e+05 1.500000000000e+05 1.491750000000e+05 1.500229049347e+05 1.508250000000e+05 1.475000000000e+05 1.483812751960e+05 1.950000000000e+05 1.942446688812e+05 1.926939909691e+05 1.903453354477e+05 1.879664111264e+05 1.855650622558e+05 1.831459467773e+05 1.807119381720e+05 1.782648471041e+05 1.758057728479e+05 1.733352812983e+05 1.708534911365e+05 1.683601038774e+05 1.658543918247e+05 1.633351451131e+05 1.608005674367e+05 1.582480936446e+05 1.556740710208e+05 1.530731768611e+05 1.504372685664e+05 1.477531412263e+05 1.450000000000e+05 1.459177751261e+05 1.925000000000e+05 1.917655535909e+05 1.902566703960e+05 1.879664111264e+05 1.856388212885e+05 1.832812568847e+05 1.808988819750e+05 1.784951968163e+05 1.760725188694e+05 1.736322887572e+05 1.711752447288e+05 1.687015108704e+05 1.662106247489e+05 1.637015155516e+05 1.611724325750e+05 1.586208128784e+05 1.560430623383e+05 1.534342016353e+05 1.507872937090e+05 1.480925518694e+05 1.453362318434e+05 1.425000000000e+05 1.434461019899e+05 1.900000000000e+05 1.892823212746e+05 1.878071786320e+05 1.855650622558e+05 1.832812568847e+05 1.809621419498e+05 1.786126702504e+05 1.762364759925e+05 1.738360868808e+05 1.714131112028e+05 1.689683623693e+05 1.665019237109e+05 1.640131618992e+05 1.615006931884e+05 1.589623003984e+05 1.563947912878e+05 1.537937805022e+05 1.511533688472e+05 1.484656948630e+05 1.457203800513e+05 1.429040162537e+05 1.400000000000e+05 1.409691609804e+05 1.875000000000e+05 1.867959888243e+05 1.853483893506e+05 1.831459467773e+05 1.808988819750e+05 1.786126702504e+05 1.762918220837e+05 1.739398314188e+05 1.715592244447e+05 1.691516359236e+05 1.667178702768e+05 1.642579307429e+05 1.617710119055e+05 1.592554534142e+05 1.567086512445e+05 1.541269200166e+05 1.515052975592e+05 1.488372845187e+05 1.461145254947e+05 1.433264736334e+05 1.404601308200e+05 1.375000000000e+05 1.384882633517e+05 1.850000000000e+05 1.843071212164e+05 1.828819501580e+05 1.807119381720e+05 1.784951968163e+05 1.762364759925e+05 1.739398314188e+05 1.716085150014e+05 1.692449387192e+05 1.668506747867e+05 1.644264618126e+05 1.619721982268e+05 1.594869129118e+05 1.569687072588e+05 1.544146642831e+05 1.518207209024e+05 1.491815009574e+05 1.464901116728e+05 1.437379180103e+05 1.409143277827e+05 1.380066373045e+05 1.350000000000e+05 1.360041286812e+05 1.825000000000e+05 1.818160575674e+05 1.804088608924e+05 1.782648471041e+05 1.760725188694e+05 1.738360868808e+05 1.715592244447e+05 1.692449387192e+05 1.668954922460e+05 1.645123564675e+05 1.620961781844e+05 1.596467438117e+05 1.571629309949e+05 1.546426407890e+05 1.520827060888e+05 1.494787741441e+05 1.468251639602e+05 1.441147043470e+05 1.413385657753e+05 1.384861072644e+05 1.355447632021e+05 1.325000000000e+05 1.335171801239e+05 1.800000000000e+05 1.793229990023e+05 1.779297181238e+05 1.758057728479e+05 1.736322887572e+05 1.714131112028e+05 1.691516359236e+05 1.668506747867e+05 1.645123564675e+05 1.621380530366e+05 1.597283206339e+05 1.572828429410e+05 1.548003683528e+05 1.522786343600e+05 1.497142752320e+05 1.471027117509e+05 1.444380249045e+05 1.417128193062e+05 1.389180862464e+05 1.360430790780e+05 1.330752123805e+05 1.300000000000e+05 1.310276581527e+05 1.775000000000e+05 1.768280492650e+05 1.754448292993e+05 1.733352812983e+05 1.711752447288e+05 1.689683623693e+05 1.667178702768e+05 1.644264618126e+05 1.620961781844e+05 1.597283206339e+05 1.573233762382e+05 1.548809485250e+05 1.523996850404e+05 1.498771959131e+05 1.473099598404e+05 1.446932166076e+05 1.420208481946e+05 1.392852534829e+05 1.364772238916e+05 1.335858276737e+05 1.305983075230e+05 1.275000000000e+05 1.285356721789e+05 1.750000000000e+05 1.743312334699e+05 1.729542662888e+05 1.708534911365e+05 1.687015108704e+05 1.665019237109e+05 1.642579307429e+05 1.619721982268e+05 1.596467438117e+05 1.572828429410e+05 1.548809485250e+05 1.524406158353e+05 1.499604251386e+05 1.474378962418e+05 1.448693914057e+05 1.422500057341e+05 1.395734469567e+05 1.368319091504e+05 1.340159466347e+05 1.311143539033e+05 1.281140537437e+05 1.250000000000e+05 1.260412231953e+05 1.725000000000e+05 1.718325049497e+05 1.704578847232e+05 1.683601038774e+05 1.662106247489e+05 1.640131618992e+05 1.617710119055e+05 1.594869129118e+05 1.571629309949e+05 1.548003683528e+05 1.523996850404e+05 1.499604251386e+05 1.474811391532e+05 1.449592963384e+05 1.423911830309e+05 1.397717857731e+05 1.370946609421e+05 1.343517955249e+05 1.315334658802e+05 1.286281014518e+05 1.256221567918e+05 1.225000000000e+05 1.235442103024e+05 1.700000000000e+05 1.693317437676e+05 1.679553190340e+05 1.658543918247e+05 1.637015155516e+05 1.615006931884e+05 1.592554534142e+05 1.569687072588e+05 1.546426407890e+05 1.522786343600e+05 1.498771959131e+05 1.474378962418e+05 1.449592963384e+05 1.424388595777e+05 1.398728440831e+05 1.372561732973e+05 1.345822859281e+05 1.318429702867e+05 1.290281920629e+05 1.261259270083e+05 1.231220078074e+05 1.200000000000e+05 1.210444255067e+05 1.675000000000e+05 1.668287473549e+05 1.654459543569e+05 1.633351451131e+05 1.611724325750e+05 1.589623003984e+05 1.567086512445e+05 1.544146642831e+05 1.520827060888e+05 1.497142752320e+05 1.473099598404e+05 1.448693914057e+05 1.423911830309e+05 1.398728440831e+05 1.373106657166e+05 1.346995738028e+05 1.320329487216e+05 1.293024164941e+05 1.264976233170e+05 1.236060136480e+05 1.206126348697e+05 1.175000000000e+05 1.185415369354e+05 1.650000000000e+05 1.643232110775e+05 1.629288689860e+05 1.608005674367e+05 1.586208128784e+05 1.563947912878e+05 1.541269200166e+05 1.518207209024e+05 1.494787741441e+05 1.471027117509e+05 1.446932166076e+05 1.422500057341e+05 1.397717857731e+05 1.372561732973e+05 1.346995738028e+05 1.320970133508e+05 1.294419179270e+05 1.267258407169e+05 1.239381500840e+05 1.210657110483e+05 1.180926110456e+05 1.150000000000e+05 1.160350567802e+05 1.625000000000e+05 1.618146926190e+05 1.604027300083e+05 1.582480936446e+05 1.560430623383e+05 1.537937805022e+05 1.515052975592e+05 1.491815009574e+05 1.468251639602e+05 1.444380249045e+05 1.420208481946e+05 1.395734469567e+05 1.370946609421e+05 1.345822859281e+05 1.320329487216e+05 1.294419179270e+05 1.268028369679e+05 1.241073665191e+05 1.213447383019e+05 1.185012628995e+05 1.155598924732e+05 1.125000000000e+05 1.135242844156e+05 1.600000000000e+05 1.593025452352e+05 1.578656016328e+05 1.556740710208e+05 1.534342016353e+05 1.511533688472e+05 1.488372845187e+05 1.464901116728e+05 1.441147043470e+05 1.417128193062e+05 1.392852534829e+05 1.368319091504e+05 1.343517955249e+05 1.318429702867e+05 1.293024164941e+05 1.267258407169e+05 1.241073665191e+05 1.214390848872e+05 1.187104216931e+05 1.159073368546e+05 1.130115258418e+05 1.100000000000e+05 1.110082017822e+05 1.575000000000e+05 1.567857829920e+05 1.553145637158e+05 1.530731768611e+05 1.507872937090e+05 1.484656948630e+05 1.461145254947e+05 1.437379180103e+05 1.413385657753e+05 1.389180862464e+05 1.364772238916e+05 1.340159466347e+05 1.315334658802e+05 1.290281920629e+05 1.264976233170e+05 1.239381500840e+05 1.213447383019e+05 1.187104216931e+05 1.160254829722e+05 1.132761725871e+05 1.104430729800e+05 1.075000000000e+05 1.084852648013e+05 1.550000000000e+05 1.542627497078e+05 1.527448465445e+05 1.504372685664e+05 1.480925518694e+05 1.457203800513e+05 1.433264736334e+05 1.409143277827e+05 1.384861072644e+05 1.360430790780e+05 1.335858276737e+05 1.311143539033e+05 1.286281014518e+05 1.261259270083e+05 1.236060136480e+05 1.210657110483e+05 1.185012628995e+05 1.159073368546e+05 1.132761725871e+05 1.105959088348e+05 1.078473175506e+05 1.050000000000e+05 1.059528972462e+05 1.525000000000e+05 1.517300317344e+05 1.501471692928e+05 1.477531412263e+05 1.453362318434e+05 1.429040162537e+05 1.404601308200e+05 1.380066373045e+05 1.355447632021e+05 1.330752123805e+05 1.305983075230e+05 1.281140537437e+05 1.256221567918e+05 1.231220078074e+05 1.206126348697e+05 1.180926110456e+05 1.155598924732e+05 1.130115258418e+05 1.104430729800e+05 1.078473175506e+05 1.052103248887e+05 1.025000000000e+05 1.034058443837e+05 1.500000000000e+05 1.508250000000e+05 1.500229049347e+05 1.491750000000e+05 1.483812751960e+05 1.475000000000e+05 1.459177751261e+05 1.450000000000e+05 1.434461019899e+05 1.425000000000e+05 1.409691609804e+05 1.400000000000e+05 1.384882633517e+05 1.375000000000e+05 1.360041286812e+05 1.350000000000e+05 1.335171801239e+05 1.325000000000e+05 1.310276581527e+05 1.300000000000e+05 1.285356721789e+05 1.275000000000e+05 1.260412231953e+05 1.250000000000e+05 1.235442103024e+05 1.225000000000e+05 1.210444255067e+05 1.200000000000e+05 1.185415369354e+05 1.175000000000e+05 1.160350567802e+05 1.150000000000e+05 1.135242844156e+05 1.125000000000e+05 1.110082017822e+05 1.100000000000e+05 1.084852648013e+05 1.075000000000e+05 1.059528972462e+05 1.050000000000e+05 1.034058443837e+05 1.025000000000e+05 1.000000000000e+05 1.008250000000e+05 1.016838343680e+05 1.008250000000e+05 
        </DataArray>
        <DataArray type="Float64" Name="TEMPERATURE1" format="ascii">