 TITLE = "Time curves in points"
 VARIABLES = "TIME"  "PRESSURE1"  "PRESSURE2"  "PRESSURE_W"  "SATURATION1"  "VELOCITY_X1"  "VELOCITY_Y1"  "VELOCITY_X2"  "VELOCITY_Y2"  "DISPLACEMENT_X1"  "DISPLACEMENT_Y1"  "STRESS_XX"  "STRESS_XY"  "STRESS_YY"  "STRESS_ZZ"  "STRAIN_XX"  "STRAIN_XY"  "STRAIN_YY"  "STRAIN_PLS"  p_(1st_Invariant)  q_(2nd_Invariant)   Effective_Strain
 ZONE T="POINT=POINT6"
0.000000000000e+00 5.000000000000e+01 1.000000000000e+05 0.000000000000e+00 0.000000000000e+00 0.000000000000e+00 0.000000000000e+00 0.000000000000e+00 0.000000000000e+00 0.000000000000e+00 0.000000000000e+00 0.000000000000e+00 0.000000000000e+00 0.000000000000e+00 0.000000000000e+00 0.000000000000e+00 0.000000000000e+00 0.000000000000e+00 0.000000000000e+00 -0.000000000000e+00 0.000000000000e+00  0.000000000000e+00
1.000000000000e+00 8.410329342550e+01 8.173419306968e+04 8.165008977625e+04 9.999926791915e-01 -4.326448087334e-17 2.400594994723e-06 -5.052375661595e-22 3.456439053521e-11 3.128822990753e-15 -3.750945278984e-04 8.398013699233e+04 1.421491888642e-07 -7.833196151647e+04 2.259270190341e+03 3.813640450759e-03 1.326725736498e-14 -3.760924146318e-03 0.000000000000e+00 -2.635815222064e+03 1.405675354078e+05  6.559818319028e-03
2.000000000000e+00 5.347602358966e+01 1.630626772721e+05 1.630092012485e+05 9.999953451558e-01 1.278827753231e-09 5.192435922174e-06 4.519940437214e-14 1.700781992962e-10 -2.208782993615e-09 -7.504473320900e-04 1.677613318591e+05 -5.296124027171e-02 -1.568119763589e+05 4.379742200084e+03 7.624474184090e-03 -4.943049092027e-09 -7.522280199421e-03 0.000000000000e+00 -5.109699233431e+03 2.810908628710e+05  1.311757360065e-02
3.000000000000e+00 1.305168357000e+02 2.448585348516e+05 2.447280180159e+05 9.999886391041e-01 -4.352427435953e-11 8.010400648301e-06 6.576015369609e-14 4.769266749779e-10 -5.444484384900e-10 -1.125763840673e-03 2.517354636908e+05 1.698681733727e-02 -2.351700692408e+05 6.626157780001e+03 1.143843427584e-02 1.585436284804e-09 -1.128382392764e-02 0.000000000000e+00 -7.730517410001e+03 4.216758146047e+05  1.967820468155e-02
4.000000000000e+00 2.252902050043e+02 3.264793653695e+05 3.262540751645e+05 9.999803895141e-01 1.240093154769e-09 1.080342268603e-05 1.924904335172e-13 1.024908427632e-09 -3.929844681577e-09 -1.501105548935e-03 3.356033291953e+05 -4.396741001973e-02 -3.135953558937e+05 8.803189320639e+03 1.525067319415e-02 -4.103624935183e-09 -1.504526544334e-02 0.000000000000e+00 -1.027038754075e+04 5.622268608399e+05  2.623725350586e-02
5.000000000000e+00 3.436168180176e+02 4.081388045723e+05 4.077951877543e+05 9.999700897215e-01 1.329810865883e-09 1.360324931842e-05 4.032017136760e-13 1.887719590819e-09 -4.303022024155e-09 -1.876440390634e-03 4.194814484351e+05 -2.731942229114e-02 -3.920146712546e+05 1.098671087221e+04 1.906308775294e-02 -2.549812747178e-09 -1.880673116592e-02 0.000000000000e+00 -1.281782935091e+04 7.027816221573e+05  3.279647570068e-02
6.000000000000e+00 4.873202417222e+02 4.898239993046e+05 4.893366790629e+05 9.999575809932e-01 1.463249019307e-09 1.640111683535e-05 7.843429844010e-13 3.141921749376e-09 -4.888569200958e-09 -2.251773875363e-03 5.033584036230e+05 -4.087518378917e-02 -4.704355672774e+05 1.316913453826e+04 2.287549922396e-02 -3.815017153667e-09 -2.256821941806e-02 0.000000000000e+00 -1.536399029464e+04 8.433367432129e+05  3.935571468327e-02
7.000000000000e+00 6.579368385961e+02 5.715352915395e+05 5.708773547009e+05 9.999427295958e-01 1.486992738847e-09 1.919631791688e-05 1.407242591493e-12 4.867817512504e-09 -4.894325631448e-09 -2.627105948658e-03 5.872333596733e+05 -1.227424540623e-02 -5.488587629006e+05 1.534983870908e+04 2.668789764500e-02 -1.145596237924e-09 -2.632973474179e-02 0.000000000000e+00 -1.790814516059e+04 9.838921228101e+05  4.591496573114e-02
8.000000000000e+00 8.570010119741e+02 6.532739097942e+05 6.524169087822e+05 9.999254019665e-01 1.345809044774e-09 2.198867222903e-05 2.265495725830e-12 7.150201837843e-09 -5.058173199769e-09 -3.002436309929e-03 6.711061029436e+05 1.964790660496e-02 -6.272844980207e+05 1.752864196917e+04 3.050028151214e-02 1.833804616449e-09 -3.009127986620e-02 0.000000000000e+00 -2.045008229736e+04 1.124447783508e+06  5.247422989702e-02
9.000000000000e+00 1.085367402104e+03 7.350405513711e+05 7.339551839690e+05 9.999055237126e-01 1.577774264246e-09 2.477752381853e-05 3.563729526435e-12 1.007881625441e-08 -5.148120670075e-09 -3.377764714829e-03 7.549772224578e+05 -1.461981902932e-02 -7.057125786110e+05 1.970585753873e+04 3.431266369622e-02 -1.364516442745e-09 -3.385286035365e-02 0.000000000000e+00 -2.299016712852e+04 1.265004067686e+06  5.903352315866e-02
1.000000000000e+01 1.345403871436e+03 8.168382455631e+05 8.154928416916e+05 9.998828887227e-01 1.470934019170e-09 2.756281433375e-05 5.579956090945e-12 1.374916218505e-08 -4.738967575951e-09 -3.753090851572e-03 8.388459063015e+05 2.015930894996e-02 -7.841434811593e+05 2.188097005687e+04 3.812503035808e-02 1.881535501983e-09 -3.761447439009e-02 0.000000000000e+00 -2.552779839968e+04 1.405560684357e+06  6.559283193667e-02
1.100000000000e+01 1.636708017203e+03 8.986650064614e+05 8.970282984442e+05 9.998575320240e-01 1.009318209443e-09 3.034392841165e-05 8.301244034547e-12 1.826282591073e-08 -4.184894112226e-09 -4.128414679181e-03 9.227131923436e+05 6.817958429014e-02 -8.625763880596e+05 2.405472171360e+04 4.193739529607e-02 6.363427867056e-09 -4.137611845608e-02 0.000000000000e+00 -2.806384199919e+04 1.546117824997e+06  7.215216516654e-02
1.200000000000e+01 1.961123655912e+03 9.805241389409e+05 9.785630152850e+05 9.998292931208e-01 9.381109070231e-10 3.312066320205e-05 1.228130021242e-11 2.372834048794e-08 -3.469947837598e-09 -4.503735894032e-03 1.006578538151e+06 1.169214294847e-01 -9.410119265627e+05 2.622664463517e+04 4.574975503072e-02 1.091266675188e-08 -4.513779998923e-02 0.000000000000e+00 -3.059775207437e+04 1.686675562604e+06  7.871152625488e-02
1.300000000000e+01 2.318773335511e+03 1.062414903246e+06 1.060096129910e+06 9.997981613456e-01 6.445124610261e-10 3.589251373659e-05 1.797627193398e-11 3.026077927137e-08 -2.677574532744e-09 -4.879054501757e-03 1.090442654764e+06 9.900460990173e-02 -1.019449254653e+06 2.839736004432e+04 4.956211375359e-02 9.240430257478e-09 -4.889950868589e-02 0.000000000000e+00 -3.313025338504e+04 1.827233784357e+06  8.527090993668e-02
1.400000000000e+01 2.710729933515e+03 1.144339244213e+06 1.141628514280e+06 9.997640433095e-01 -1.772021078102e-10 3.865936336111e-05 2.571536373525e-11 3.798270171174e-08 -1.069543351519e-09 -5.254370401726e-03 1.174305544552e+06 8.080855746096e-02 -1.097888470438e+06 3.056682964585e+04 5.337447336230e-02 7.542132029676e-09 -5.266124733723e-02 0.000000000000e+00 -3.566130125349e+04 1.967792577232e+06  9.183032027082e-02
1.500000000000e+01 3.136316497570e+03 1.226295880912e+06 1.223159564414e+06 9.997269979381e-01 -9.047923131872e-10 4.142077738627e-05 3.488589677014e-11 4.702416619394e-08 1.107358364934e-09 -5.629683685106e-03 1.258167878039e+06 1.999583954195e-01 -1.176328287631e+06 3.273583616293e+04 5.718682862086e-02 1.866278357247e-08 -5.642299244373e-02 0.000000000000e+00 -3.819180885675e+04 2.108351408727e+06  9.838973240727e-02
1.600000000000e+01 3.595827572084e+03 1.308284294602e+06 1.304688467030e+06 9.996869995927e-01 -3.046392297311e-09 4.417569821057e-05 4.768644448844e-11 5.752289917093e-08 3.359988022689e-09 -6.004994575203e-03 1.342028316871e+06 2.081423943476e-01 -1.254770025196e+06 3.490331666988e+04 6.099916667605e-02 1.942662347241e-08 -6.018475595375e-02 0.000000000000e+00 -4.072053611486e+04 2.248910261019e+06  1.049491455142e-01
1.700000000000e+01 4.086891178706e+03 1.390305295151e+06 1.386218403972e+06 9.996442547430e-01 -2.464357902072e-09 4.692563586960e-05 6.457716738092e-11 6.962277143948e-08 4.092454617879e-09 -6.380301940548e-03 1.425892232320e+06 2.959830494560e-01 -1.333209496023e+06 3.707309451877e+04 6.481155976405e-02 2.762508461587e-08 -6.394652089195e-02 0.000000000000e+00 -4.325194360523e+04 2.389470163322e+06  1.115086076217e-01
1.800000000000e+01 4.610664380017e+03 1.472358264897e+06 1.467747600517e+06 9.995986626722e-01 -4.214125798092e-09 4.966993586925e-05 8.546210299129e-11 8.347681419734e-08 6.354114650218e-09 -6.755606497148e-03 1.509754916441e+06 2.713640972127e-01 -1.411650458705e+06 3.924178309436e+04 6.862394622285e-02 2.532731573986e-08 -6.770830461731e-02 0.000000000000e+00 -4.578208027676e+04 2.530030290194e+06  1.180680802090e-01
1.900000000000e+01 5.165244280772e+03 1.554440965345e+06 1.549275721064e+06 9.995503890185e-01 -5.088542355738e-09 5.240758413907e-05 1.116039180144e-10 9.923978692382e-08 8.339973720299e-09 -7.130907730700e-03 1.593618191750e+06 4.085665147656e-01 -1.490090230753e+06 4.141118439860e+04 7.243632700971e-02 3.813287471146e-08 -7.147006604041e-02 0.000000000000e+00 -4.831304846504e+04 2.670589898627e+06  1.246275286026e-01
2.000000000000e+01 5.741248165370e+03 1.636544777014e+06 1.630803528849e+06 9.995002505047e-01 -5.506138815467e-09 5.514118816735e-05 1.425362329638e-10 1.170719012604e-07 9.981498392097e-09 -7.506206773222e-03 1.677489657983e+06 4.512530290183e-01 -1.568522548353e+06 4.358684385186e+04 7.624879799279e-02 4.211694937506e-08 -7.523177163625e-02 0.000000000000e+00 -5.085131782717e+04 2.811150150930e+06  1.311870070434e-01
2.100000000000e+01 6.344433783493e+03 1.718675645874e+06 1.712331212091e+06 9.994477459448e-01 -6.315887505805e-09 5.786479029595e-05 1.836068274317e-10 1.371380183344e-07 9.837958953622e-09 -7.881503407749e-03 1.761355911954e+06 3.999072729005e-01 -1.646959030689e+06 4.575875250602e+04 8.006120077423e-02 3.732467880408e-08 -7.899349654909e-02 0.000000000000e+00 -5.338521125702e+04 2.951709492420e+06  1.377464429796e-01
2.200000000000e+01 6.967124202360e+03 1.800826295539e+06 1.793859171337e+06 9.993935435808e-01 -8.843888252377e-09 6.058345733466e-05 2.355365287902e-10 1.596035564078e-07 1.141715235959e-08 -8.256797376830e-03 1.845229059381e+06 1.748760778404e-01 -1.725388262034e+06 4.793631893874e+04 8.387366122065e-02 1.632176726512e-08 -8.275514711208e-02 0.000000000000e+00 -5.592570542853e+04 3.092268529763e+06  1.443058647223e-01
2.300000000000e+01 7.601821657668e+03 1.882990904031e+06 1.875389082374e+06 9.993382960591e-01 -9.628831672405e-09 6.329838555621e-05 3.009416225734e-10 1.846317735680e-07 1.168316701147e-08 -8.632088813172e-03 1.929110208233e+06 2.173668439448e-01 -1.803809021957e+06 5.012047451043e+04 8.768618757373e-02 2.028757210150e-08 -8.651670983516e-02 0.000000000000e+00 -5.847388692884e+04 3.232827166462e+06  1.508652677683e-01
2.400000000000e+01 8.255747191058e+03 1.965175487784e+06 1.956919740593e+06 9.992813748207e-01 -1.033630815687e-08 6.600787047385e-05 3.805722449435e-10 2.123955700277e-07 1.300605811084e-08 -9.007378152970e-03 2.012986760264e+06 -1.039062380329e-01 -1.882234574736e+06 5.230087421136e+04 9.149867468248e-02 -9.697915549762e-09 -9.027832095088e-02 0.000000000000e+00 -6.101768657992e+04 3.373385969293e+06  1.574246785670e-01
2.500000000000e+01 8.919634240760e+03 2.047371804832e+06 2.038452170591e+06 9.992235864777e-01 -1.026283751524e-08 6.871034958504e-05 4.763067784297e-10 2.430621275602e-07 1.260981921008e-08 -9.382665343262e-03 2.096872011286e+06 -9.103918875888e-02 -1.960649750204e+06 5.448890443297e+04 9.531121165316e-02 -8.496990950870e-09 -9.403980388306e-02 0.000000000000e+00 -6.357038850513e+04 3.513943326061e+06  1.639840218829e-01
2.600000000000e+01 9.589112249862e+03 2.129573422662e+06 2.119984310413e+06 9.991653114672e-01 -1.426524541935e-08 7.140858738151e-05 5.865423578823e-10 2.767943826214e-07 1.368443286437e-08 -9.757950859406e-03 2.180761727528e+06 2.824003215639e-01 -2.039061394688e+06 5.668013313594e+04 9.912380773828e-02 2.635736334595e-08 -9.780127129844e-02 0.000000000000e+00 -6.612682199193e+04 3.654501494996e+06  1.705434030998e-01
2.700000000000e+01 1.025643121963e+04 2.211776421825e+06 2.201519990605e+06 9.991072243913e-01 -1.178379742553e-08 7.410335542192e-05 7.181653928851e-10 3.137446375639e-07 1.421818752810e-08 -1.013323439577e-02 2.264660514121e+06 -8.328806384212e-02 -2.117462177167e+06 5.887933478172e+04 1.029364550358e-01 -7.773552625276e-09 -1.015626038909e-01 0.000000000000e+00 -6.869255724534e+04 3.795058120060e+06  1.771027122695e-01
2.800000000000e+01 1.091866088313e+04 2.293978638055e+06 2.283059977172e+06 9.990495803162e-01 -1.567827069547e-08 7.679588038577e-05 8.616918809723e-10 3.540620954843e-07 1.548456406586e-08 -1.050851718949e-02 2.348566037159e+06 -1.691328063390e-01 -2.195856382293e+06 6.108386194648e+04 1.067491681766e-01 -1.578572859165e-08 -1.053238780645e-01 0.000000000000e+00 -7.126450560422e+04 3.935614888070e+06  1.836620281100e-01
2.900000000000e+01 1.157429366896e+04 2.376176982516e+06 2.364602688847e+06 9.989925104693e-01 -1.583216695420e-08 7.948704240206e-05 1.027566396952e-09 3.978981065809e-07 1.532292554341e-08 -1.088379802402e-02 2.432475883920e+06 6.417536120759e-02 -2.274246775836e+06 6.329164323374e+04 1.105619312320e-01 5.989700379369e-09 -1.090851262232e-01 0.000000000000e+00 -7.384025043937e+04 4.076172102770e+06  1.902213647959e-01
3.000000000000e+01 1.222458431609e+04 2.458370420025e+06 2.446145835709e+06 9.989359056312e-01 -1.845132642246e-08 8.217194001413e-05 1.203581399235e-09 4.453989372711e-07 1.535161756511e-08 -1.125907810595e-02 2.516384712992e+06 -1.972163613906e-01 -2.352636442822e+06 6.549930806794e+04 1.143746522298e-01 -1.840686039647e-08 -1.128463350416e-01 0.000000000000e+00 -7.641585941260e+04 4.216727806818e+06  1.967806309848e-01
