 TITLE = "Time curves in points"
 VARIABLES = "TIME"  "PRESSURE1"  "PRESSURE2"  "PRESSURE_W"  "SATURATION1"  "VELOCITY_X1"  "VELOCITY_Y1"  "VELOCITY_X2"  "VELOCITY_Y2"  "DISPLACEMENT_X1"  "DISPLACEMENT_Y1"  "STRESS_XX"  "STRESS_XY"  "STRESS_YY"  "STRESS_ZZ"  "STRAIN_XX"  "STRAIN_XY"  "STRAIN_YY"  "STRAIN_PLS"  p_(1st_Invariant)  q_(2nd_Invariant)   Effective_Strain
 ZONE T="POINT=POINT6"
0.000000000000e+00 5.000000000000e+01 1.000000000000e+05 0.000000000000e+00 0.000000000000e+00 0.000000000000e+00 0.000000000000e+00 0.000000000000e+00 0.000000000000e+00 0.000000000000e+00 0.000000000000e+00 0.000000000000e+00 0.000000000000e+00 0.000000000000e+00 0.000000000000e+00 0.000000000000e+00 0.000000000000e+00 0.000000000000e+00 0.000000000000e+00 -0.000000000000e+00 0.000000000000e+00  0.000000000000e+00
1.000000000000e+00 8.410329342550e+01 8.173419306968e+04 8.165008977625e+04 9.999926791915e-01 -4.326448087334e-17 2.400594994723e-06 -5.052375661595e-22 3.456439053521e-11 3.128822990753e-15 -3.750945278984e-04 8.398013699233e+04 1.421491888642e-07 -7.833196151647e+04 2.259270190341e+03 3.813640450759e-03 1.326725736498e-14 -3.760924146318e-03 0.000000000000e+00 -2.635815222064e+03 1.405675354078e+05  6.559818319028e-03
2.000000000000e+00 8.997743714909e+01 1.643129307836e+05 1.642229533465e+05 9.999921678740e-01 -8.939423750365e-10 4.807402156150e-06 -3.579801554240e-14 1.619038994735e-10 3.583609398508e-09 -7.520736046713e-04 1.688347049251e+05 6.482452199644e-02 -1.556259917551e+05 5.283485267989e+03 7.632390250664e-03 6.050288719664e-09 -7.509108927745e-03 0.000000000000e+00 -6.164066145987e+03 2.809943103849e+05  1.311306781797e-02
3.000000000000e+00 1.411337264621e+02 2.458249961689e+05 2.456838624424e+05 9.999877149521e-01 -9.860019656096e-10 8.324110428453e-06 -8.012267247451e-14 4.803047917718e-10 5.375950727802e-09 -1.126411636544e-03 2.527319993036e+05 8.203714176413e-02 -2.341209182286e+05 7.444432430001e+03 1.144675312077e-02 7.656799897980e-09 -1.127304969740e-02 0.000000000000e+00 -8.685171168335e+03 4.216311020378e+05  1.967611809510e-02
4.000000000000e+00 2.191650415718e+02 3.271551759343e+05 3.269360108927e+05 9.999809226817e-01 -1.059751579516e-09 1.062169941745e-05 -1.289417554698e-13 1.018696311893e-09 6.547562076796e-09 -1.502446308409e-03 3.363394364840e+05 9.241574075305e-02 -3.127268604195e+05 9.445030425821e+03 1.525507228272e-02 8.625469136945e-09 -1.503468823945e-02 0.000000000000e+00 -1.101920216346e+04 5.621128613273e+05  2.623193352861e-02
5.000000000000e+00 3.245853795447e+02 4.091501607062e+05 4.088255753267e+05 9.999717463215e-01 -1.469592259315e-09 1.376813704080e-05 -1.833081003327e-13 1.889850777228e-09 8.933091070584e-09 -1.877297976962e-03 4.205980032192e+05 1.114879315877e-01 -3.908419259914e+05 1.190243089111e+04 1.907246004198e-02 1.040554028152e-08 -1.879473665452e-02 0.000000000000e+00 -1.388616937296e+04 7.027338922234e+05  3.279424830376e-02
6.000000000000e+00 4.609042902917e+02 4.904692306935e+05 4.900083264032e+05 9.999598803814e-01 -1.925474538547e-09 1.636299933785e-05 -2.484917100207e-13 3.137539450441e-09 9.821442601075e-09 -2.253009627417e-03 5.041371508313e+05 1.553962794418e-01 -4.695274987723e+05 1.384386082359e+04 2.288035353369e-02 1.450365274790e-08 -2.255733011447e-02 0.000000000000e+00 -1.615117096086e+04 8.432254240095e+05  3.935051978711e-02
7.000000000000e+00 6.233202319006e+02 5.724897598887e+05 5.718664396568e+05 9.999457428137e-01 -2.276423198049e-09 1.932325300924e-05 -3.009354909200e-13 4.869600365213e-09 1.164504585534e-08 -2.628068632676e-03 5.883599821660e+05 1.854089736937e-01 -5.476693675482e+05 1.627624584712e+04 2.669724102821e-02 1.730483754473e-08 -2.631746195845e-02 0.000000000000e+00 -1.898895348831e+04 9.838386909551e+05  4.591247224458e-02
8.000000000000e+00 8.194368581365e+02 6.539189548733e+05 6.530995180152e+05 9.999286717549e-01 -2.820922448587e-09 2.202557063205e-05 -3.583775325697e-13 7.148681328974e-09 1.249732992227e-08 -3.003628757865e-03 6.719503533382e+05 1.968402939299e-01 -6.263109711847e+05 1.825575286142e+04 3.050574802225e-02 1.837176076678e-08 -3.007978045548e-02 0.000000000000e+00 -2.129837833832e+04 1.124336550858e+06  5.246903904006e-02
9.000000000000e+00 1.044095537522e+03 7.359423691528e+05 7.348982736153e+05 9.999091162404e-01 -3.215467803167e-09 2.491049679709e-05 -3.503168236244e-13 1.008483243064e-08 1.415550279441e-08 -3.378790918004e-03 7.561126416554e+05 2.252654382114e-01 -7.045078580583e+05 2.064191343881e+04 3.432196731677e-02 2.102477423305e-08 -3.384032266987e-02 0.000000000000e+00 -2.408223234528e+04 1.264944984446e+06  5.903076594082e-02
1.000000000000e+01 1.305264360024e+03 8.174834398511e+05 8.161781754911e+05 9.998863826843e-01 -3.593302572720e-09 2.765498976861e-05 -3.100576454971e-13 1.375862419916e-08 1.473997493688e-08 -3.754264715364e-03 8.397514623706e+05 2.471128354999e-01 -7.831065406999e+05 2.265796866830e+04 3.813102970611e-02 2.306386464665e-08 -3.760234377051e-02 0.000000000000e+00 -2.643429677968e+04 1.405447672476e+06  6.558755804890e-02
1.100000000000e+01 1.597551227314e+03 8.995264270868e+05 8.979288758595e+05 9.998609404442e-01 -4.115665694455e-09 3.050104229311e-05 -2.374253461333e-13 1.828804400204e-08 1.587245306345e-08 -4.129484707377e-03 9.238658138943e+05 2.449300220064e-01 -8.613477070138e+05 2.500724275219e+04 4.194673331996e-02 2.286013538727e-08 -4.136323098908e-02 0.000000000000e+00 -2.917511654423e+04 1.546052900635e+06  7.214913536297e-02
1.200000000000e+01 1.929120424844e+03 9.811720820679e+05 9.792429616431e+05 9.998320788562e-01 -4.056557103575e-09 3.326369356487e-05 1.750262569929e-13 2.377220381859e-08 1.604781990106e-08 -4.504903791490e-03 1.007538756159e+06 3.112975630805e-01 -9.399167258581e+05 2.704881212034e+04 4.575619738847e-02 2.905443922084e-08 -4.512505843899e-02 0.000000000000e+00 -3.155694747373e+04 1.686559476632e+06  7.870610890952e-02
1.300000000000e+01 2.295155961019e+03 1.063253254349e+06 1.060958098388e+06 9.998002171305e-01 -4.591921901887e-09 3.608442161343e-05 5.781631715846e-13 3.034124105712e-08 1.724423338289e-08 -4.880157115911e-03 1.091618469273e+06 2.549016766860e-01 -1.018189590235e+06 2.937155161539e+04 4.957152282403e-02 2.379082315733e-08 -4.888618661967e-02 0.000000000000e+00 -3.426681021795e+04 1.827162131278e+06  8.526756612631e-02
1.400000000000e+01 2.703242642646e+03 1.144999811950e+06 1.142296569308e+06 9.997646950441e-01 -4.606724550590e-09 3.885375957944e-05 1.742054566923e-12 3.811476231679e-08 1.755094807638e-08 -5.255539118416e-03 1.175316534288e+06 3.193308234644e-01 -1.096737517622e+06 3.143160666651e+04 5.338129662235e-02 2.980421018998e-08 -5.264789246679e-02 0.000000000000e+00 -3.667020777760e+04 1.967672218059e+06  9.182470350942e-02
1.500000000000e+01 3.144090229204e+03 1.227129621939e+06 1.223985531710e+06 9.997263212702e-01 -5.466037312729e-09 4.165605765796e-05 3.282794404500e-12 4.723594433323e-08 1.779259815522e-08 -5.630812198647e-03 1.259371849713e+06 3.262550842738e-01 -1.175033048502e+06 3.373552048461e+04 5.719636203068e-02 3.045047453222e-08 -5.640919988604e-02 0.000000000000e+00 -3.935810723204e+04 2.108273354353e+06  9.838608986982e-02
1.600000000000e+01 3.626414216371e+03 1.308967973251e+06 1.305341559034e+06 9.996843371646e-01 -5.769101285344e-09 4.442562069027e-05 5.580108284450e-12 5.784374784397e-08 1.623133130375e-08 -6.006168390120e-03 1.343089049411e+06 2.515313484712e-01 -1.253565096222e+06 3.580958127573e+04 6.100637517964e-02 2.347625919060e-08 -6.017081828321e-02 0.000000000000e+00 -4.177784482168e+04 2.248786274728e+06  1.049433594873e-01
1.700000000000e+01 4.144890442034e+03 1.391158484042e+06 1.387013593600e+06 9.996392061714e-01 -5.159200997895e-09 4.721207865000e-05 8.734300516518e-12 7.009814657262e-08 1.506331159573e-08 -6.381451631379e-03 1.427125925889e+06 3.038777205243e-02 -1.331876883344e+06 3.809961701797e+04 6.482122774733e-02 2.836192058222e-09 -6.393223668358e-02 0.000000000000e+00 -4.444955318764e+04 2.389385506740e+06  1.115046569812e-01
1.800000000000e+01 4.701199434953e+03 1.473084478769e+06 1.468383279334e+06 9.995907820081e-01 -6.239165342661e-09 4.997794580440e-05 1.251250974672e-11 8.415546651774e-08 1.349129731840e-08 -6.756789641509e-03 1.510856238532e+06 3.140435384203e-01 -1.410399005600e+06 4.018289317258e+04 6.863142278343e-02 2.931073025254e-08 -6.769382194274e-02 0.000000000000e+00 -4.688004203468e+04 2.529901197198e+06  1.180620558693e-01
1.900000000000e+01 5.291248955363e+03 1.555334709815e+06 1.550043460860e+06 9.995394208857e-01 -6.599114945072e-09 5.275077110615e-05 1.962572844959e-11 1.001896909410e-07 1.224113665029e-08 -7.132077520500e-03 1.594880938781e+06 2.946206967824e-01 -1.488721875681e+06 4.246362524026e+04 7.244614129858e-02 2.749793169965e-08 -7.145532337631e-02 0.000000000000e+00 -4.954089611364e+04 2.670499473036e+06  1.246233087417e-01
2.000000000000e+01 5.914713430754e+03 1.637339358310e+06 1.631424644879e+06 9.994851511437e-01 -6.008470763121e-09 5.550901291069e-05 3.008880631342e-11 1.183711542324e-07 1.027126082468e-08 -7.507401336925e-03 1.678627750171e+06 2.865074851674e-01 -1.567230477270e+06 4.455890916032e+04 7.625654591381e-02 2.674069861557e-08 -7.521683803340e-02 0.000000000000e+00 -5.198539402037e+04 2.811017754836e+06  1.311808285590e-01
2.100000000000e+01 6.564749532560e+03 1.719639487246e+06 1.713074737714e+06 9.994285684626e-01 -5.785678368401e-09 5.826781033131e-05 4.255132035621e-11 1.388816514065e-07 9.352826085845e-09 -7.882691761126e-03 1.762639658057e+06 -1.327482437387e-01 -1.645563130770e+06 4.683061091509e+04 8.007108886665e-02 -1.238983608233e-08 -7.897837461196e-02 0.000000000000e+00 -5.463571273427e+04 2.951613415822e+06  1.377419594050e-01
2.200000000000e+01 7.242094009728e+03 1.801712668731e+06 1.794470574721e+06 9.993696087119e-01 -6.300391991733e-09 6.101683163219e-05 5.395243556083e-11 1.619012588956e-07 8.293384366775e-09 -8.258004257348e-03 1.846400987014e+06 7.617745829745e-02 -1.724059458280e+06 4.893661149356e+04 8.388167085762e-02 7.109896107709e-09 -8.273981658944e-02 0.000000000000e+00 -5.709271340915e+04 3.092133651389e+06  1.442995703982e-01
2.300000000000e+01 7.933866384871e+03 1.884047850328e+06 1.876113983943e+06 9.993093930784e-01 -7.926398768095e-09 6.376164817300e-05 6.669443976635e-11 1.876029980399e-07 8.432501192557e-09 -8.633294322229e-03 1.930414092106e+06 1.756157361167e-01 -1.802389608037e+06 5.120979362757e+04 8.769620059565e-02 1.639080203750e-08 -8.650130541101e-02 0.000000000000e+00 -5.974475923217e+04 3.232728182284e+06  1.508606485066e-01
2.400000000000e+01 8.646378069579e+03 1.966172020795e+06 1.957525642725e+06 9.992473721825e-01 -8.971668181863e-09 6.650217828184e-05 7.860460927619e-11 2.161748019368e-07 8.223613355161e-09 -9.008598207464e-03 2.014183869134e+06 2.789639923147e-01 -1.880880693621e+06 5.332127020499e+04 9.150692128335e-02 2.603663928259e-08 -9.026275831190e-02 0.000000000000e+00 -6.220814857249e+04 3.373251200013e+06  1.574183893340e-01
2.500000000000e+01 9.366556101445e+03 2.048534078413e+06 2.039167522311e+06 9.991846839660e-01 -7.421983037316e-09 6.923533325826e-05 9.682017766651e-11 2.477916496159e-07 8.368696770925e-09 -9.383887721102e-03 2.098193429382e+06 1.476704072079e-01 -1.959212373065e+06 5.559242252705e+04 9.532138031990e-02 1.378257133932e-08 -9.402422379427e-02 0.000000000000e+00 -6.485782628155e+04 3.513843983679e+06  1.639793859050e-01
2.600000000000e+01 1.009585788758e+04 2.130686805003e+06 2.120590947115e+06 9.991212015682e-01 -8.011988949837e-09 7.196477354303e-05 1.164733751089e-10 2.826277074256e-07 8.128846071041e-09 -9.759184761852e-03 2.181976371657e+06 7.307829072221e-02 -2.037692126068e+06 5.771369823552e+04 9.913225809300e-02 6.820640467335e-09 -9.778560513417e-02 0.000000000000e+00 -6.733264794144e+04 3.654368598329e+06  1.705372012554e-01
2.700000000000e+01 1.082749786961e+04 2.213062238416e+06 2.202234740546e+06 9.990575156412e-01 -8.335046649324e-09 7.468647987287e-05 1.416431463624e-10 3.208545300112e-07 7.773604890439e-09 -1.013447141412e-02 2.265982548424e+06 -2.272895169392e-01 -2.116025172240e+06 5.998295047356e+04 1.029466479043e-01 -2.121368824777e-08 -1.015470457266e-01 0.000000000000e+00 -6.998010888582e+04 3.794959633529e+06  1.770981162313e-01
2.800000000000e+01 1.155337361527e+04 2.295224944769e+06 2.283671571153e+06 9.989943314647e-01 -6.843505279407e-09 7.740537609452e-05 1.706125506848e-10 3.626230111988e-07 8.152173916783e-09 -1.050976457021e-02 2.349784825639e+06 3.271273085770e-01 -2.194487277695e+06 6.211901917737e+04 1.067577376349e-01 3.053188213378e-08 -1.053082938541e-01 0.000000000000e+00 -7.247218904027e+04 3.935485724169e+06  1.836560004612e-01
2.900000000000e+01 1.226591885806e+04 2.377584422497e+06 2.365318503639e+06 9.989323076477e-01 -8.711518042526e-09 8.012144795245e-05 1.978066460129e-10 4.080900506372e-07 8.024939038259e-09 -1.088504998617e-02 2.433799677083e+06 5.855490636222e-03 -2.272809713816e+06 6.439598530697e+04 1.105721722829e-01 5.465124593171e-10 -1.090695992924e-01 0.000000000000e+00 -7.512864952480e+04 4.076075090888e+06  1.902168375748e-01
3.000000000000e+01 1.298002554241e+04 2.459755774055e+06 2.446775748513e+06 9.988701479143e-01 -7.159333294289e-09 8.283150562585e-05 2.346069283521e-10 4.574089312059e-07 8.099515307701e-09 -1.126033819461e-02 2.517606472002e+06 -2.059782013680e-01 -2.351267571310e+06 6.653556027680e+04 1.143833092138e-01 -1.922463212775e-08 -1.128308128074e-01 0.000000000000e+00 -7.762482032294e+04 4.216601418622e+06  1.967747328690e-01
