 TITLE = "Time curves in points"
 VARIABLES = "TIME"  "PRESSURE1"  "PRESSURE2"  "PRESSURE_W"  "SATURATION1"  "VELOCITY_X1"  "VELOCITY_Y1"  "VELOCITY_X2"  "VELOCITY_Y2"  "DISPLACEMENT_X1"  "DISPLACEMENT_Y1"  "STRESS_XX"  "STRESS_XY"  "STRESS_YY"  "STRESS_ZZ"  "STRAIN_XX"  "STRAIN_XY"  "STRAIN_YY"  "STRAIN_PLS"  p_(1st_Invariant)  q_(2nd_Invariant)   Effective_Strain
 ZONE T="POINT=POINT6"
0.000000000000e+00 5.000000000000e+01 1.000000000000e+05 9.995000000000e+04 9.999956477278e-01 0.000000000000e+00 0.000000000000e+00 0.000000000000e+00 0.000000000000e+00 0.000000000000e+00 0.000000000000e+00 0.000000000000e+00 0.000000000000e+00 0.000000000000e+00 0.000000000000e+00 0.000000000000e+00 0.000000000000e+00 0.000000000000e+00 0.000000000000e+00 -0.000000000000e+00 0.000000000000e+00  0.000000000000e+00
5.000000000000e+00 6.491593364716e+01 4.034826035325e+05 4.034176875989e+05 9.999943493637e-01 -1.372613807288e-09 4.243228433502e-06 -1.360811232365e-13 2.751700522729e-10 -9.141969880082e-09 -1.895932113683e-03 4.146874492489e+05 -4.074842308060e-02 -3.934147513124e+05 8.509079174580e+03 1.895499060347e-02 -3.803186154187e-09 -1.875644542273e-02 0.000000000000e+00 -9.927259037010e+03 6.998402676259e+05  3.265921248921e-02
1.000000000000e+01 6.834402681867e+01 8.032201851567e+05 8.031518411298e+05 9.999940509638e-01 -8.729918446599e-10 5.113679445098e-06 -4.182890107508e-13 9.141553088620e-10 -3.350128037333e-09 -3.798410433603e-03 8.254188515089e+05 -7.522128454553e-04 -7.896788689240e+05 1.429599303399e+04 3.785240006216e-02 -7.020653223393e-11 -3.751882689137e-02 0.000000000000e+00 -1.667865853966e+04 1.398720221622e+06  6.527361034236e-02
1.500000000000e+01 6.584859637062e+01 1.202313384358e+06 1.202247535762e+06 9.999946623168e-01 3.929755506156e-09 6.172646320665e-06 3.402744846818e-14 2.027671830222e-09 -7.817054662133e-09 -5.701037984156e-03 1.235508594747e+06 -3.127894410977e-02 -1.186483516678e+06 1.961003122748e+04 5.674193296423e-02 -2.919368116891e-09 -5.628436556893e-02 0.000000000000e+00 -2.287836976540e+04 2.097512425574e+06  9.788391319344e-02
2.000000000000e+01 2.602867923298e+01 1.600195663090e+06 1.600169634411e+06 9.999988182970e-01 1.682710538768e-09 6.295765200930e-06 1.250687211297e-14 3.492887102353e-09 -6.687302290448e-09 -7.604966262354e-03 1.644482502160e+06 -2.962311133700e-02 -1.584198988312e+06 2.411340553928e+04 7.561722450896e-02 -2.764823724761e-09 -7.505457837971e-02 0.000000000000e+00 -2.813230646249e+04 2.796126689942e+06  1.304859121973e-01
2.500000000000e+01 -3.736714958723e+01 1.997304497216e+06 1.997341864366e+06 1.000000000000e+00 6.017226733497e-10 6.139377040429e-06 -4.146781416819e-13 5.221513908552e-09 -3.511589767288e-09 -9.509461941739e-03 2.052688567190e+06 1.357454605213e-02 -1.982545995373e+06 2.805702872687e+04 9.448280512828e-02 1.266957631589e-09 -9.382814112465e-02 0.000000000000e+00 -3.273320018135e+04 3.494622680774e+06  1.630823917694e-01
3.000000000000e+01 -1.199996497061e+02 2.392596422807e+06 2.392716422457e+06 1.000000000000e+00 -2.187680164459e-10 4.763836635552e-06 -1.155949413888e-12 6.766132675295e-09 -1.465684633260e-09 -1.141583912406e-02 2.459023240731e+06 6.055008771114e-03 -2.382422808357e+06 3.064017294970e+04 1.133245431631e-01 5.651341520155e-10 -1.126096057943e-01 0.000000000000e+00 -3.574686844132e+04 4.192822266795e+06  1.956650391171e-01
3.500000000000e+01 -2.022302252573e+02 2.787927392745e+06 2.788129622970e+06 1.000000000000e+00 -7.444607911020e-11 4.163364966798e-06 -1.897698720533e-12 8.274872399035e-09 -1.016079785356e-09 -1.332137077297e-02 2.865443816926e+06 -1.322635175001e-03 -2.782189177351e+06 3.330185582980e+04 1.321666248511e-01 -1.234459496138e-10 -1.313895815485e-01 0.000000000000e+00 -3.885216513476e+04 4.891000730105e+06  2.282467007382e-01
4.000000000000e+01 -2.829433307727e+02 3.183348219856e+06 3.183631163186e+06 1.000000000000e+00 -6.847457536037e-11 3.803558976798e-06 -2.611027491817e-12 9.782527072936e-09 -8.125360075563e-10 -1.522651128572e-02 3.271953046047e+06 -7.556533888504e-04 -3.181839406458e+06 3.604545583572e+04 1.510090208765e-01 -7.052764955964e-11 -1.501679602404e-01 0.000000000000e+00 -4.205303180834e+04 5.589155479113e+06  2.608272556919e-01
4.500000000000e+01 -3.621505871122e+02 3.578800975480e+06 3.579163126067e+06 1.000000000000e+00 -2.487953957196e-11 3.554827799613e-06 -3.278861926919e-12 1.129957931835e-08 -6.844768134788e-10 -1.713143722458e-02 3.678492842403e+06 -1.860756507483e-03 -3.581431182777e+06 3.882466385066e+04 1.698511816658e-01 -1.736706072716e-10 -1.689452728426e-01 0.000000000000e+00 -4.529544115910e+04 6.287286127432e+06  2.934066859468e-01
5.000000000000e+01 -4.400053507507e+02 3.974246729124e+06 3.974686734474e+06 1.000000000000e+00 -9.527728249652e-12 3.369229959858e-06 -3.901081753774e-12 1.282975144394e-08 -3.926239417063e-10 -1.903623623805e-02 4.085024433223e+06 7.418501508027e-05 -3.981004581209e+06 4.160794080526e+04 1.886927696461e-01 6.923934853767e-12 -1.877219176940e-01 0.000000000000e+00 -4.854259760614e+04 6.985393778989e+06  3.259850430195e-01
