 TITLE = "Time curves in points"
 VARIABLES = "TIME"  "PRESSURE1"  "PRESSURE2"  "PRESSURE_W"  "SATURATION1"  "VELOCITY_X1"  "VELOCITY_Y1"  "VELOCITY_X2"  "VELOCITY_Y2"  "DISPLACEMENT_X1"  "DISPLACEMENT_Y1"  "STRESS_XX"  "STRESS_XY"  "STRESS_YY"  "STRESS_ZZ"  "STRAIN_XX"  "STRAIN_XY"  "STRAIN_YY"  "STRAIN_PLS"  p_(1st_Invariant)  q_(2nd_Invariant)   Effective_Strain
 ZONE T="POINT=POINT7"
0.000000000000e+00 5.000000000000e+01 1.000000000000e+05 9.995000000000e+04 9.999956477278e-01 0.000000000000e+00 0.000000000000e+00 0.000000000000e+00 0.000000000000e+00 0.000000000000e+00 0.000000000000e+00 0.000000000000e+00 0.000000000000e+00 0.000000000000e+00 0.000000000000e+00 0.000000000000e+00 0.000000000000e+00 0.000000000000e+00 0.000000000000e+00 -0.000000000000e+00 0.000000000000e+00  0.000000000000e+00
5.000000000000e+00 1.265129753791e+02 3.943374721486e+05 3.942109591733e+05 9.999889876219e-01 1.215281319126e-09 3.304524341125e-08 1.215180567113e-13 1.922740849717e-11 -2.278729875002e-08 -6.500000000000e-03 -2.101035715859e+05 7.338361459551e-02 -1.300333994341e+06 -6.041750263709e+05 1.839000122330e-02 6.849137361431e-09 -3.248741850529e-02 0.000000000000e+00 7.048708640993e+05 9.561725772222e+05  4.462138693704e-02
1.000000000000e+01 1.866689740866e+02 7.900962739023e+05 7.899096049282e+05 9.999837513163e-01 1.859837745559e-10 1.252941338888e-07 1.956194327101e-13 5.969545722454e-11 -7.984866189272e-09 -1.300000000000e-02 -4.179696911833e+05 2.182481519412e-02 -2.597113965484e+06 -1.206033462667e+06 3.677630933591e-02 2.036982776898e-09 -6.491709013147e-02 0.000000000000e+00 1.407039039778e+06 1.911127839976e+06  8.918596586554e-02
1.500000000000e+01 2.503166131954e+02 1.186225822064e+06 1.185975505451e+06 9.999782110793e-01 -3.824786020728e-10 1.754914244699e-07 2.518853426910e-13 1.227279823187e-10 -2.079302964199e-08 -1.950000000000e-02 -6.254145479568e+05 9.151696716435e-02 -3.893371587943e+06 -1.807514454360e+06 5.516466229882e-02 8.541583648713e-09 -9.733999956722e-02 0.000000000000e+00 2.108766863420e+06 2.865981802597e+06  1.337458174545e-01
2.000000000000e+01 3.217585971699e+02 1.582893748368e+06 1.582571989771e+06 9.999719923801e-01 -2.708997121539e-10 2.093832997552e-07 5.151584036847e-13 2.097868728581e-10 -1.756389411705e-08 -2.600000000000e-02 -8.322243332785e+05 5.332572921179e-02 -5.188762594812e+06 -2.408394771236e+06 7.355462043803e-02 4.977068070178e-09 -1.297504984336e-01 0.000000000000e+00 2.809793899776e+06 3.820614093839e+06  1.782953243791e-01
2.500000000000e+01 3.945011851238e+02 1.979817127661e+06 1.979422626475e+06 9.999656604692e-01 -2.764425441651e-10 2.257122072037e-07 8.383020026784e-13 3.193648103275e-10 -9.888451574442e-09 -3.250000000000e-02 -1.038686452725e+06 3.284449363127e-02 -6.483648158384e+06 -3.008933844443e+06 9.194487828020e-02 3.065486121889e-09 -1.621533346505e-01 0.000000000000e+00 3.510422818517e+06 4.775098026437e+06  2.228379079004e-01
3.000000000000e+01 4.612727192156e+02 2.377393484891e+06 2.376932212172e+06 9.999598483114e-01 6.255281585403e-10 2.159272458559e-07 1.742627424198e-12 4.437843131605e-10 -3.395967044811e-09 -3.900000000000e-02 -1.244256194334e+06 5.189782474190e-02 -7.777237071321e+06 -3.608597306262e+06 1.103359185567e-01 4.843797002385e-09 -1.945365223694e-01 0.000000000000e+00 4.210030190639e+06 5.729201756068e+06  2.673627486165e-01
3.500000000000e+01 5.184000880010e+02 2.774514769617e+06 2.773996369529e+06 9.999548756342e-01 -2.751446437529e-10 1.920254618276e-07 1.496704290506e-12 5.753116315110e-10 -3.614693984819e-09 -4.550000000000e-02 -1.450255680231e+06 6.118121091276e-03 -9.071222670133e+06 -4.208591340145e+06 1.287223307960e-01 5.710246858692e-10 -2.269227953994e-01 0.000000000000e+00 4.910023230170e+06 6.683290242287e+06  3.118868779734e-01
4.000000000000e+01 5.680186049959e+02 3.171198988332e+06 3.170630969727e+06 9.999505565684e-01 1.717314559246e-10 1.715040665178e-07 1.767941671661e-12 7.123411558513e-10 -2.132135354014e-09 -5.200000000000e-02 -1.656660957835e+06 7.790918461978e-04 -1.036556741300e+07 -4.808891348334e+06 1.471040848899e-01 7.271529212094e-11 -2.593115496844e-01 0.000000000000e+00 5.610373239723e+06 7.637350881268e+06  3.564097077925e-01
4.500000000000e+01 6.104499207480e+02 3.567557437066e+06 3.566946987145e+06 9.999468631156e-01 8.696446340020e-11 1.567453321114e-07 2.377345441446e-12 8.563807894971e-10 -1.749052785618e-09 -5.850000000000e-02 -1.863359778503e+06 1.546007301658e-02 -1.166016146222e+07 -5.409408496288e+06 1.654822734967e-01 1.442940218699e-09 -2.917018050767e-01 0.000000000000e+00 6.310976579003e+06 8.591382233961e+06  4.009311709182e-01
5.000000000000e+01 6.502853907821e+02 3.963685026229e+06 3.963034740839e+06 9.999433956195e-01 -4.216931492814e-11 1.461676200936e-07 1.955914728698e-12 1.006994612034e-09 -1.342104245061e-09 -6.500000000000e-02 -2.070266260237e+06 -2.812920790166e-02 -1.295492308605e+07 -6.010075738516e+06 1.838577756530e-01 -2.625392646338e-09 -3.240928762183e-01 0.000000000000e+00 7.011755028268e+06 9.545385210180e+06  4.454513098084e-01
