 TITLE = "Time curves in points"
 VARIABLES = "TIME"  "PRESSURE1"  "PRESSURE2"  "PRESSURE_W"  "SATURATION1"  "VELOCITY_X1"  "VELOCITY_Y1"  "VELOCITY_X2"  "VELOCITY_Y2"  "DISPLACEMENT_X1"  "DISPLACEMENT_Y1"  "STRESS_XX"  "STRESS_XY"  "STRESS_YY"  "STRESS_ZZ"  "STRAIN_XX"  "STRAIN_XY"  "STRAIN_YY"  "STRAIN_PLS"  p_(1st_Invariant)  q_(2nd_Invariant)   Effective_Strain
 ZONE T="POINT=POINT7"
0.000000000000e+00 5.000000000000e+01 1.000000000000e+05 0.000000000000e+00 0.000000000000e+00 0.000000000000e+00 0.000000000000e+00 0.000000000000e+00 0.000000000000e+00 0.000000000000e+00 0.000000000000e+00 0.000000000000e+00 0.000000000000e+00 0.000000000000e+00 0.000000000000e+00 0.000000000000e+00 0.000000000000e+00 0.000000000000e+00 0.000000000000e+00 -0.000000000000e+00 0.000000000000e+00  0.000000000000e+00
5.000000000000e+00 1.529144865314e+02 3.950208798011e+05 3.948679653145e+05 9.999866894906e-01 1.820875193458e-09 1.028044234306e-07 1.715600779750e-13 2.267994843136e-11 -2.767119778429e-08 -6.500000000000e-03 -2.095829931332e+05 1.011756123044e-01 -1.300042722495e+06 -6.038502862515e+05 1.839914034552e-02 9.443057141789e-09 -3.248898035805e-02 0.000000000000e+00 7.044920006267e+05 9.563558511525e+05  4.462993972045e-02
1.000000000000e+01 1.918989208024e+02 7.901077767174e+05 7.899158777966e+05 9.999832960732e-01 1.320529938331e-09 9.247715569157e-08 5.295512164797e-13 5.910535867642e-11 -9.945294999649e-09 -1.300000000000e-02 -4.179676882551e+05 4.602651658934e-02 -2.597127124059e+06 -1.206037924926e+06 3.677661104463e-02 4.295808209154e-09 -6.491749595956e-02 0.000000000000e+00 1.407044245747e+06 1.911140981786e+06  8.918657915003e-02
1.500000000000e+01 2.298252090329e+02 1.184783574028e+06 1.184553748819e+06 9.999799947627e-01 6.568961165185e-10 1.256801272474e-07 9.211829903648e-13 1.158691483590e-10 -5.992373143644e-09 -1.950000000000e-02 -6.269402996084e+05 1.354151824489e-02 -3.895067761037e+06 -1.808803224258e+06 5.515360315032e-02 1.263875060165e-09 -9.735901171634e-02 0.000000000000e+00 2.110270428301e+06 2.866178361008e+06  1.337549901804e-01
2.000000000000e+01 2.718345405792e+02 1.579487903276e+06 1.579216068735e+06 9.999763380417e-01 3.791287942267e-10 1.502835391610e-07 1.224356996305e-12 1.967703333907e-10 -5.123776445907e-09 -2.600000000000e-02 -8.357655482140e+05 1.695796335116e-02 -5.192623844105e+06 -2.411355756928e+06 7.352754307330e-02 1.582743242023e-09 -1.297925107349e-01 0.000000000000e+00 2.813248383082e+06 3.821004507261e+06  1.783135436722e-01
2.500000000000e+01 3.192423037503e+02 1.973974392842e+06 1.973655150538e+06 9.999722114119e-01 1.959281841532e-10 1.703515395096e-07 1.852616428934e-12 3.056987997105e-10 -4.844854996210e-09 -3.250000000000e-02 -1.044684607139e+06 3.439238248393e-02 -6.490038564949e+06 -3.013889268835e+06 9.189621754581e-02 3.209955690142e-09 -1.622203004853e-01 0.000000000000e+00 3.516204146975e+06 4.775628788670e+06  2.228626768046e-01
3.000000000000e+01 3.726798672139e+02 2.368278022127e+06 2.367905342259e+06 9.999675599155e-01 -7.925295519974e-11 1.873302815934e-07 2.372645027020e-12 4.468196601207e-10 -5.701887743093e-09 -3.900000000000e-02 -1.253688211237e+06 3.910411056131e-02 -7.787351898712e+06 -3.616416043980e+06 1.102606321947e-01 3.649716973086e-09 -1.946436732208e-01 0.000000000000e+00 4.219152051310e+06 5.730093799273e+06  2.674043772994e-01
3.500000000000e+01 4.337409509892e+02 2.762443694544e+06 2.762009953593e+06 9.999622448264e-01 6.120488629284e-10 2.015378385779e-07 3.399181877875e-12 6.232764601110e-10 -2.630506741139e-09 -4.550000000000e-02 -1.462759447783e+06 2.480418933555e-02 -9.084589440884e+06 -4.218939555467e+06 1.286217383586e-01 2.315057590074e-09 -2.270636613195e-01 0.000000000000e+00 4.922096148045e+06 6.684436028462e+06  3.119403479949e-01
4.000000000000e+01 5.023708404536e+02 3.156501850519e+06 3.155999479678e+06 9.999562709072e-01 1.694583864798e-10 2.138733427394e-07 4.420160993741e-12 8.388515445511e-10 -3.224878764582e-09 -5.200000000000e-02 -1.671882943080e+06 -4.567713476717e-03 -1.038176602606e+07 -4.821459587656e+06 1.469802434135e-01 -4.263199723797e-10 -2.594809671255e-01 0.000000000000e+00 5.625036185599e+06 7.638681301383e+06  3.564717940645e-01
4.500000000000e+01 5.772535083999e+02 3.550471735880e+06 3.549894482372e+06 9.999497527121e-01 1.005040987696e-09 2.248124865028e-07 7.826989635022e-12 1.097554457946e-09 -3.239556184740e-09 -5.850000000000e-02 -1.881046240161e+06 5.720066372305e-02 -1.167888997540e+07 -5.423974486226e+06 1.653366514830e-01 5.338728528703e-09 -2.918960561616e-01 0.000000000000e+00 6.327970233930e+06 8.592847321864e+06  4.009995416870e-01
5.000000000000e+01 6.593803241767e+02 3.944373670070e+06 3.943714289746e+06 9.999426039470e-01 -1.708608420578e-10 2.342907187512e-07 9.578773763891e-12 1.403011192798e-09 -6.829835150305e-09 -6.500000000000e-02 -2.090244445216e+06 3.658970165998e-02 -1.297597233957e+07 -6.026486713913e+06 1.836913058725e-01 3.415038689336e-09 -3.243093291972e-01 0.000000000000e+00 7.030901166232e+06 9.546947822443e+06  4.455242317140e-01
