 TITLE = "Time curves in points"
 VARIABLES = "TIME"  "PRESSURE1"  "PRESSURE2"  "PRESSURE_W"  "SATURATION1"  "VELOCITY_X1"  "VELOCITY_Y1"  "VELOCITY_X2"  "VELOCITY_Y2"  "DISPLACEMENT_X1"  "DISPLACEMENT_Y1"  "STRESS_XX"  "STRESS_XY"  "STRESS_YY"  "STRESS_ZZ"  "STRAIN_XX"  "STRAIN_XY"  "STRAIN_YY"  "STRAIN_PLS"  p_(1st_Invariant)  q_(2nd_Invariant)   Effective_Strain
 ZONE T="POINT=POINT7"
0.000000000000e+00 5.000000000000e+01 1.000000000000e+05 9.995000000000e+04 9.999956477278e-01 0.000000000000e+00 0.000000000000e+00 0.000000000000e+00 0.000000000000e+00 0.000000000000e+00 0.000000000000e+00 0.000000000000e+00 0.000000000000e+00 0.000000000000e+00 0.000000000000e+00 0.000000000000e+00 0.000000000000e+00 0.000000000000e+00 0.000000000000e+00 -0.000000000000e+00 0.000000000000e+00  0.000000000000e+00
5.000000000000e+00 1.265523774995e+02 3.943376143865e+05 3.942110620090e+05 9.999889841921e-01 1.289823799475e-09 3.303204215871e-08 1.259312173562e-13 1.922685451035e-11 -2.240918509414e-08 -6.500000000000e-03 -2.101035095169e+05 7.575731351972e-02 -1.300333973940e+06 -6.041749933828e+05 1.839000258041e-02 7.070682594978e-09 -3.248741909267e-02 0.000000000000e+00 7.048708256133e+05 9.561726115517e+05  4.462138853908e-02
1.000000000000e+01 1.864519055144e+02 7.900959734792e+05 7.899095215736e+05 9.999837702111e-01 5.297927070120e-11 1.253276541058e-07 2.449981124160e-13 5.971639596393e-11 -8.534228587702e-09 -1.300000000000e-02 -4.179695709651e+05 3.788180055562e-02 -2.597113804831e+06 -1.206033350319e+06 3.677630970316e-02 3.535634729435e-09 -6.491708787726e-02 0.000000000000e+00 1.407038908705e+06 1.911127800966e+06  8.918596404507e-02
1.500000000000e+01 2.498711728663e+02 1.186225419053e+06 1.185975547880e+06 9.999782498528e-01 -3.534698451948e-10 1.754397087322e-07 3.012130541593e-13 1.228754182499e-10 -1.988647400556e-08 -1.950000000000e-02 -6.254142822922e+05 7.474939292297e-02 -3.893371340826e+06 -1.807514249247e+06 5.516466512456e-02 6.976610018861e-09 -9.733999760699e-02 0.000000000000e+00 2.108766624122e+06 2.865981810373e+06  1.337458178174e-01
2.000000000000e+01 3.215290849850e+02 1.582893828187e+06 1.582572299102e+06 9.999720123581e-01 -2.635747505868e-11 2.093224988976e-07 3.209018532064e-13 2.099411650970e-10 -1.773549565672e-08 -2.600000000000e-02 -8.322243650427e+05 5.014553782530e-02 -5.188762668543e+06 -2.408394813434e+06 7.355462092494e-02 4.680250229039e-09 -1.297504999051e-01 0.000000000000e+00 2.809793949007e+06 3.820614131391e+06  1.782953261316e-01
2.500000000000e+01 3.945493618811e+02 1.979817172426e+06 1.979422623064e+06 9.999656562756e-01 -2.978603004075e-10 2.256848237421e-07 3.144175276751e-13 3.195566262955e-10 -1.024485918793e-08 -3.250000000000e-02 -1.038686177093e+06 2.348839165643e-02 -6.483647924698e+06 -3.008933640717e+06 9.194488163577e-02 2.192249902444e-09 -1.621533332525e-01 0.000000000000e+00 3.510422580836e+06 4.775098054287e+06  2.228379092001e-01
3.000000000000e+01 4.605388179915e+02 2.377392500965e+06 2.376931962147e+06 9.999599121941e-01 2.271468392724e-10 2.159572038292e-07 5.244505230301e-13 4.443760631680e-10 -4.523058909366e-09 -3.900000000000e-02 -1.244255719326e+06 -9.086865931749e-03 -7.777236434774e+06 -3.608596861640e+06 1.103359199747e-01 -8.481074523226e-10 -1.945365134129e-01 0.000000000000e+00 4.210029671913e+06 5.729201600413e+06  2.673627413526e-01
3.500000000000e+01 5.182492178122e+02 2.774515135758e+06 2.773996886540e+06 9.999548887668e-01 -7.340386093664e-11 1.919184968829e-07 6.044093268829e-13 5.759070693632e-10 -3.256938622622e-09 -4.550000000000e-02 -1.450256279431e+06 1.605970691890e-02 -9.071223097757e+06 -4.208591750875e+06 1.287223220007e-01 1.498905999320e-09 -2.269227961878e-01 0.000000000000e+00 4.910023709355e+06 6.683290111716e+06  3.118868718801e-01
4.000000000000e+01 5.678264728988e+02 3.171199158813e+06 3.170631332341e+06 9.999505732926e-01 3.897878299942e-10 1.714145868239e-07 1.156585475171e-13 7.128120550085e-10 -1.766993964506e-09 -5.200000000000e-02 -1.656661518522e+06 -1.236733281985e-02 -1.036556779258e+07 -4.808891724442e+06 1.471040762762e-01 -1.154284348659e-09 -2.593115498465e-01 0.000000000000e+00 5.610373678515e+06 7.637350741183e+06  3.564097012552e-01
4.500000000000e+01 6.118543989095e+02 3.567558896088e+06 3.566947041689e+06 9.999467408622e-01 1.206284394898e-10 1.567366988909e-07 4.522620651668e-13 8.552422692500e-10 -9.550140521690e-10 -5.850000000000e-02 -1.863360360173e+06 -1.097551174462e-02 -1.166016208100e+07 -5.409408976470e+06 1.654822687606e-01 -1.024381066084e-09 -2.917018115449e-01 0.000000000000e+00 6.310977139215e+06 8.591382284599e+06  4.009311732813e-01
5.000000000000e+01 6.519052020110e+02 3.963687463394e+06 3.963035558192e+06 9.999432546223e-01 4.108342688341e-10 1.461032374627e-07 1.019529320618e-13 1.004725560637e-09 -3.705275125655e-10 -6.500000000000e-02 -2.070266692549e+06 -3.577345237136e-02 -1.295492344597e+07 -6.010076055406e+06 1.838577702666e-01 -3.338855580903e-09 -3.240928782261e-01 0.000000000000e+00 7.011755397974e+06 9.545385160734e+06  4.454513075009e-01
