 TITLE = "Time curves in points"
 VARIABLES = "TIME"  "PRESSURE1"  "PRESSURE2"  "PRESSURE_W"  "SATURATION1"  "VELOCITY_X1"  "VELOCITY_Y1"  "VELOCITY_X2"  "VELOCITY_Y2"  "DISPLACEMENT_X1"  "DISPLACEMENT_Y1"  "STRESS_XX"  "STRESS_XY"  "STRESS_YY"  "STRESS_ZZ"  "STRAIN_XX"  "STRAIN_XY"  "STRAIN_YY"  "STRAIN_PLS"  p_(1st_Invariant)  q_(2nd_Invariant)   Effective_Strain
 ZONE T="POINT=POINT6"
0.000000000000e+00 5.000000000000e+01 1.000000000000e+05 0.000000000000e+00 0.000000000000e+00 0.000000000000e+00 0.000000000000e+00 0.000000000000e+00 0.000000000000e+00 0.000000000000e+00 0.000000000000e+00 0.000000000000e+00 0.000000000000e+00 0.000000000000e+00 0.000000000000e+00 0.000000000000e+00 0.000000000000e+00 0.000000000000e+00 0.000000000000e+00 -0.000000000000e+00 0.000000000000e+00  0.000000000000e+00
5.000000000000e+00 -8.632400734555e+00 4.052049177781e+05 4.052135501788e+05 1.000000000000e+00 -9.441182225573e-10 2.842129399393e-06 -8.842615990557e-14 1.919436022954e-10 -1.094112014164e-08 -1.897761510828e-03 4.163609977735e+05 -1.460658888899e-02 -3.918856680303e+05 9.790131897296e+03 1.897330707422e-02 -1.363281629643e-09 -1.874487066329e-02 0.000000000000e+00 -1.142182054685e+04 6.999664241982e+05  3.266509979592e-02
1.000000000000e+01 3.107676732766e+01 8.030157258264e+05 8.029846490591e+05 9.999974699487e-01 -1.622039443003e-10 5.606519690928e-06 -2.494549762805e-13 8.860753938692e-10 -3.869600400019e-09 -3.797843698754e-03 8.252818121988e+05 -1.876650962710e-02 -7.898212959977e+05 1.418420648045e+04 3.785122160019e-02 -1.751540898537e-09 -3.752025678231e-02 0.000000000000e+00 -1.654824089385e+04 1.398724816417e+06  6.527382476614e-02
1.500000000000e+01 1.268378699585e+02 1.202419420701e+06 1.202292582831e+06 9.999889593413e-01 4.277958963669e-10 8.574379817286e-06 -3.790682564056e-13 2.428406115570e-09 -2.429352979270e-09 -5.697259038386e-03 1.235713081528e+06 -1.627795077025e-02 -1.186485540276e+06 1.969101650092e+04 5.674769636793e-02 -1.519275405235e-09 -5.628823931624e-02 0.000000000000e+00 -2.297285258441e+04 2.097691315735e+06  9.789226140095e-02
2.000000000000e+01 2.618027240642e+02 1.601145015557e+06 1.600883212833e+06 9.999772112657e-01 1.029776655880e-09 1.119570984244e-05 -7.878045140035e-13 5.067963978088e-09 -2.264996202088e-09 -7.597401008487e-03 1.645419275905e+06 -2.920074773006e-02 -1.583685164433e+06 2.469364458878e+04 7.563386279476e-02 -2.725403121470e-09 -7.505767775435e-02 0.000000000000e+00 -2.880925202025e+04 2.796493290885e+06  1.305030202413e-01
2.500000000000e+01 4.206116597488e+02 1.999291073933e+06 1.998870462273e+06 9.999633876714e-01 1.859032041496e-09 1.361142239523e-05 -1.887558865139e-12 9.028266870973e-09 -1.950756504936e-09 -9.497977762926e-03 2.054520849976e+06 -2.469967698086e-02 -1.981305926121e+06 2.928596954225e+04 9.451096108692e-02 -2.305303184868e-09 -9.382762179760e-02 0.000000000000e+00 -3.416696446596e+04 3.495136181788e+06  1.631063551501e-01
3.000000000000e+01 5.898733289509e+02 2.396974850986e+06 2.396384977657e+06 9.999486542142e-01 2.377431174626e-09 1.587036091540e-05 -3.510927796501e-12 1.450466444582e-08 -2.111892172498e-09 -1.139888380343e-02 2.463146352416e+06 1.961884911817e-02 -2.379258216227e+06 3.355525447548e+04 1.133809179039e-01 1.831092584436e-09 -1.125979619661e-01 0.000000000000e+00 -3.914779688806e+04 4.193653762175e+06  1.957038422348e-01
3.500000000000e+01 7.600540146202e+02 2.794298208215e+06 2.793538154200e+06 9.999338407609e-01 2.190361114924e-09 1.800773522506e-05 -6.919633235817e-12 2.166911413979e-08 -2.471636644360e-09 -1.330004227036e-02 2.871401067094e+06 2.517055155212e-02 -2.777469200565e+06 3.757274661153e+04 1.322453216225e-01 2.349251478314e-09 -1.313686242016e-01 0.000000000000e+00 -4.383487104679e+04 4.892074172331e+06  2.282967947088e-01
4.000000000000e+01 9.218464570825e+02 3.191327496371e+06 3.190405649914e+06 9.999197574659e-01 1.861562777584e-09 2.004988657490e-05 -1.246928186956e-11 3.067174395533e-08 -2.433236686476e-09 -1.520140123985e-02 3.279367561283e+06 2.538044760583e-02 -3.175880874705e+06 4.139467463102e+04 1.511054013771e-01 2.368841776589e-09 -1.501395256357e-01 0.000000000000e+00 -4.829378706952e+04 5.590418711750e+06  2.608862065483e-01
4.500000000000e+01 1.069101107188e+03 3.588109047175e+06 3.587039946068e+06 9.999072275081e-01 2.185431096282e-09 2.201188741120e-05 -2.236800383698e-11 4.164156878396e-08 -3.009498076170e-09 -1.710292604025e-02 3.687097044268e+06 2.098493794193e-02 -3.574457522983e+06 4.505580851408e+04 1.699619243352e-01 1.958594207900e-09 -1.689106221365e-01 0.000000000000e+00 -5.256510993310e+04 6.288700813880e+06  2.934727046477e-01
5.000000000000e+01 1.194376921433e+03 3.984675278289e+06 3.983480901368e+06 9.998971589559e-01 2.594681054602e-09 2.390914862151e-05 -3.304351585902e-11 5.468576711507e-08 -2.617117595793e-09 -1.900458792286e-02 4.094632735364e+06 -2.725555838452e-02 -3.973168956258e+06 4.858551164232e+04 1.888155371070e-01 -2.543852115924e-09 -1.876818751687e-01 0.000000000000e+00 -5.668309691604e+04 6.986931775537e+06  3.260568161917e-01
