 TITLE = "Time curves in points"
 VARIABLES = "TIME"  "PRESSURE1"  "PRESSURE2"  "PRESSURE_W"  "SATURATION1"  "VELOCITY_X1"  "VELOCITY_Y1"  "VELOCITY_X2"  "VELOCITY_Y2"  "DISPLACEMENT_X1"  "DISPLACEMENT_Y1"  "STRESS_XX"  "STRESS_XY"  "STRESS_YY"  "STRESS_ZZ"  "STRAIN_XX"  "STRAIN_XY"  "STRAIN_YY"  "STRAIN_PLS"  p_(1st_Invariant)  q_(2nd_Invariant)   Effective_Strain
 ZONE T="POINT=POINT6"
0.000000000000e+00 5.000000000000e+01 1.000000000000e+05 9.995000000000e+04 9.999956477278e-01 0.000000000000e+00 0.000000000000e+00 0.000000000000e+00 0.000000000000e+00 0.000000000000e+00 0.000000000000e+00 0.000000000000e+00 0.000000000000e+00 0.000000000000e+00 0.000000000000e+00 0.000000000000e+00 0.000000000000e+00 0.000000000000e+00 0.000000000000e+00 -0.000000000000e+00 0.000000000000e+00  0.000000000000e+00
5.000000000000e+00 6.490436739939e+01 4.034826648724e+05 4.034177605050e+05 9.999943503705e-01 -1.428823635800e-09 4.243187797171e-06 -1.635138526961e-13 2.751661035697e-10 -9.103220391567e-09 -1.895932097298e-03 4.146874987871e+05 -4.294307632630e-02 -3.934147314536e+05 8.509106933394e+03 1.895499161984e-02 -4.008020457123e-09 -1.875644579139e-02 0.000000000000e+00 -9.927291422293e+03 6.998402933501e+05  3.265921368967e-02
1.000000000000e+01 6.826033172436e+01 8.032200978158e+05 8.031518374841e+05 9.999940582491e-01 -9.400909062325e-10 5.113691280201e-06 -4.933805668035e-13 9.141628498072e-10 -3.403333302292e-09 -3.798410447493e-03 8.254189600999e+05 4.470692058273e-03 -7.896787699573e+05 1.429607605705e+04 3.785240125533e-02 4.172645921078e-10 -3.751882614734e-02 0.000000000000e+00 -1.667875539990e+04 1.398720230010e+06  6.527361073380e-02
1.500000000000e+01 6.576083851196e+01 1.202313142438e+06 1.202247381599e+06 9.999946701586e-01 3.683073539390e-09 6.172664528404e-06 -1.694399309347e-13 2.027706195975e-09 -7.714823872696e-09 -5.701038076911e-03 1.235508645383e+06 -1.757905495207e-02 -1.186483490196e+06 1.961006207458e+04 5.674193388770e-02 -1.640711795532e-09 -5.628436577263e-02 0.000000000000e+00 -2.287840575367e+04 2.097512446509e+06  9.788391417044e-02
2.000000000000e+01 2.593921961287e+01 1.600195215596e+06 1.600169276376e+06 9.999988264002e-01 1.579367971935e-09 6.295563265590e-06 -3.201695021359e-13 3.492844959437e-09 -6.612445115846e-09 -7.604966285624e-03 1.644482250275e+06 -2.293618179386e-02 -1.584199088191e+06 2.411326483352e+04 7.561721932061e-02 -2.140710300747e-09 -7.505457647449e-02 0.000000000000e+00 -2.813214230578e+04 2.796126558226e+06  1.304859060506e-01
2.500000000000e+01 -3.743261202421e+01 1.997304283568e+06 1.997341716180e+06 1.000000000000e+00 4.485728149914e-10 6.139346635030e-06 -9.541217885334e-13 5.221474792267e-09 -3.505793291912e-09 -9.509462037948e-03 2.052688377219e+06 3.904441794297e-02 -1.982546137017e+06 2.805689608087e+04 9.448280245310e-02 3.644145674685e-09 -9.382814154454e-02 0.000000000000e+00 -3.273304542768e+04 3.494622638855e+06  1.630823898132e-01
3.000000000000e+01 -1.200778681686e+02 2.392596162907e+06 2.392716240775e+06 1.000000000000e+00 -1.466621300165e-10 4.763876005480e-06 -1.786008958315e-12 6.766128095238e-09 -1.578607502496e-09 -1.141583921176e-02 2.459023115831e+06 8.895809136533e-03 -2.382422921668e+06 3.064007766534e+04 1.133245417811e-01 8.302755194430e-10 -1.126096066356e-01 0.000000000000e+00 -3.574675727623e+04 4.192822256716e+06  1.956650386467e-01
3.500000000000e+01 -2.023336808187e+02 2.787927042097e+06 2.788129375778e+06 1.000000000000e+00 -1.310790546754e-10 4.163338097638e-06 -2.653682607029e-12 8.274921946488e-09 -1.012505749292e-09 -1.332137091287e-02 2.865443647092e+06 8.218808057322e-03 -2.782189323421e+06 3.330172946822e+04 1.321666228224e-01 7.670887520120e-10 -1.313895824682e-01 0.000000000000e+00 -3.885201771292e+04 4.891000709471e+06  2.282466997753e-01
4.000000000000e+01 -2.830642738434e+02 3.183347828519e+06 3.183630892793e+06 1.000000000000e+00 -5.202690814654e-11 3.803526529800e-06 -3.456926462947e-12 9.782658720351e-09 -7.894919632753e-10 -1.522651143713e-02 3.271952810742e+06 -3.607831136435e-03 -3.181839580214e+06 3.604529221121e+04 1.510090175314e-01 -3.367309060369e-10 -1.501679607132e-01 0.000000000000e+00 -4.205284091308e+04 5.589155425743e+06  2.608272532014e-01
4.500000000000e+01 -3.622923467159e+02 3.578800567309e+06 3.579162859656e+06 1.000000000000e+00 -5.072032459200e-11 3.554801762149e-06 -4.218461954094e-12 1.129979843418e-08 -4.906492785075e-10 -1.713143734736e-02 3.678492601222e+06 7.088483184376e-03 -3.581431356936e+06 3.882449771445e+04 1.698511781637e-01 6.615917638865e-10 -1.689452732170e-01 0.000000000000e+00 -4.529524733353e+04 6.287286069325e+06  2.934066832352e-01
5.000000000000e+01 -4.401404947967e+02 3.974246443025e+06 3.974686583519e+06 1.000000000000e+00 -1.436300048902e-11 3.369044799735e-06 -4.910560269725e-12 1.282993408259e-08 -4.073720612227e-10 -1.903623633464e-02 4.085024251552e+06 3.561683385556e-05 -3.981004696182e+06 4.160782214791e+04 1.886927667055e-01 3.324237824605e-12 -1.877219175221e-01 0.000000000000e+00 -4.854245917256e+04 6.985393721183e+06  3.259850403219e-01
