 TITLE = "Time curves in points"
 VARIABLES = "TIME"  "PRESSURE1"  "PRESSURE2"  "PRESSURE_W"  "SATURATION1"  "VELOCITY_X1"  "VELOCITY_Y1"  "VELOCITY_X2"  "VELOCITY_Y2"  "DISPLACEMENT_X1"  "DISPLACEMENT_Y1"  "STRESS_XX"  "STRESS_XY"  "STRESS_YY"  "STRESS_ZZ"  "STRAIN_XX"  "STRAIN_XY"  "STRAIN_YY"  "STRAIN_PLS"  p_(1st_Invariant)  q_(2nd_Invariant)   Effective_Strain
 ZONE T="POINT=POINT7"
0.000000000000e+00 5.000000000000e+01 1.000000000000e+05 0.000000000000e+00 0.000000000000e+00 0.000000000000e+00 0.000000000000e+00 0.000000000000e+00 0.000000000000e+00 0.000000000000e+00 0.000000000000e+00 0.000000000000e+00 0.000000000000e+00 0.000000000000e+00 0.000000000000e+00 0.000000000000e+00 0.000000000000e+00 0.000000000000e+00 0.000000000000e+00 -0.000000000000e+00 0.000000000000e+00  0.000000000000e+00
5.000000000000e+00 1.529144865314e+02 3.950208798011e+05 3.948679653145e+05 9.999866894906e-01 1.820875193458e-09 1.028044234306e-07 1.715600779750e-13 2.267994843136e-11 -2.767119778429e-08 -6.500000000000e-03 -2.095829931332e+05 1.011756123044e-01 -1.300042722495e+06 -6.038502862515e+05 1.839914034552e-02 9.443057141789e-09 -3.248898035805e-02 0.000000000000e+00 7.044920006267e+05 9.563558511525e+05  4.462993972045e-02
1.000000000000e+01 1.917241114864e+02 7.901074895862e+05 7.899157654747e+05 9.999833112896e-01 1.316349925996e-09 9.247148393172e-08 4.744571744281e-13 5.913955916093e-11 -9.266010730343e-09 -1.300000000000e-02 -4.179678826333e+05 3.776195796672e-02 -2.597127221427e+06 -1.206038041624e+06 3.677660741958e-02 3.524449398995e-09 -6.491749505747e-02 0.000000000000e+00 1.407044381895e+06 1.911140903428e+06  8.918657549330e-02
1.500000000000e+01 2.301615489995e+02 1.184783790093e+06 1.184553628544e+06 9.999799654858e-01 5.186425686958e-10 1.256653965542e-07 8.235388862089e-13 1.158046769522e-10 -5.805312889139e-09 -1.950000000000e-02 -6.269410430132e+05 1.498356834054e-02 -3.895068344043e+06 -1.808803754823e+06 5.515359321778e-02 1.398466328850e-09 -9.735901416364e-02 0.000000000000e+00 2.110271047293e+06 2.866178244766e+06  1.337549847558e-01
2.000000000000e+01 2.725886537308e+02 1.579488928450e+06 1.579216339796e+06 9.999762723996e-01 3.595406696180e-10 1.501962781158e-07 1.248228121186e-12 1.964783028404e-10 -5.074404794071e-09 -2.600000000000e-02 -8.357659541493e+05 1.284503098577e-02 -5.192624213041e+06 -2.411356066876e+06 7.352753859391e-02 1.198869517549e-09 -1.297925134877e-01 0.000000000000e+00 2.813248744689e+06 3.821004487845e+06  1.783135427661e-01
2.500000000000e+01 3.199201717969e+02 1.973975275213e+06 1.973655355041e+06 9.999721524066e-01 4.725856604375e-10 1.702475302560e-07 2.080783987166e-12 3.054146155945e-10 -4.350550229798e-09 -3.250000000000e-02 -1.044684895044e+06 1.711112447083e-02 -6.490038883551e+06 -3.013889511438e+06 9.189621543173e-02 1.597038258583e-09 -1.622203040319e-01 0.000000000000e+00 3.516204430011e+06 4.775628824491e+06  2.228626784763e-01
3.000000000000e+01 3.736315499663e+02 2.368279541895e+06 2.367905910345e+06 9.999674770759e-01 4.280056766351e-10 1.871902315464e-07 3.239851759891e-12 4.464387544088e-10 -3.835314249656e-09 -3.900000000000e-02 -1.253688775666e+06 5.769426934421e-03 -7.787352485049e+06 -3.616416504286e+06 1.102606273356e-01 5.384798024144e-10 -1.946436791023e-01 0.000000000000e+00 4.219152588334e+06 5.730093836165e+06  2.674043790210e-01
3.500000000000e+01 4.347085144972e+02 2.762444528170e+06 2.762009819656e+06 9.999621606044e-01 -7.027983966933e-10 2.015447748438e-07 3.772318364336e-12 6.229779931709e-10 -5.663050793596e-09 -4.550000000000e-02 -1.462760028441e+06 -1.689085317776e-02 -9.084589862694e+06 -4.218939956454e+06 1.286217299739e-01 -1.576479696785e-09 -2.270636622912e-01 0.000000000000e+00 4.922096615863e+06 6.684435908436e+06  3.119403423937e-01
4.000000000000e+01 5.016348541814e+02 3.156500333633e+06 3.155998698779e+06 9.999563349714e-01 1.700704983867e-10 2.139996215330e-07 5.762133689364e-12 8.395395858061e-10 -4.438456381112e-09 -5.200000000000e-02 -1.671882031587e+06 2.629325026646e-02 -1.038176476832e+07 -4.821458719964e+06 1.469802454576e-01 2.454036626687e-09 -2.594809489234e-01 0.000000000000e+00 5.625035173291e+06 7.638680971053e+06  3.564717786492e-01
4.500000000000e+01 5.773907209927e+02 3.550471678397e+06 3.549894287676e+06 9.999497407684e-01 3.099887735486e-10 2.248082115938e-07 9.439117599648e-12 1.098593902567e-09 -3.644022234982e-09 -5.850000000000e-02 -1.881047105728e+06 5.093226395547e-02 -1.167889040304e+07 -5.423975003507e+06 1.653366352297e-01 4.753678048419e-09 -2.918960519782e-01 0.000000000000e+00 6.327970837425e+06 8.592846967765e+06  4.009995251624e-01
5.000000000000e+01 6.598149464867e+02 3.944373643740e+06 3.943713828794e+06 9.999425661151e-01 -5.080524831898e-10 2.343903833210e-07 1.075837597244e-11 1.403988436323e-09 -6.675811303476e-09 -6.500000000000e-02 -2.090244425042e+06 -4.212399944663e-04 -1.297597214048e+07 -6.026486626207e+06 1.836913027210e-01 -3.931589775963e-11 -3.243093239992e-01 0.000000000000e+00 7.030901063908e+06 9.546947665978e+06  4.455242244123e-01
