 TITLE = "Time curves in points"
 VARIABLES = "TIME"  "PRESSURE1"  "PRESSURE2"  "PRESSURE_W"  "SATURATION1"  "VELOCITY_X1"  "VELOCITY_Y1"  "VELOCITY_X2"  "VELOCITY_Y2"  "DISPLACEMENT_X1"  "DISPLACEMENT_Y1"  "STRESS_XX"  "STRESS_XY"  "STRESS_YY"  "STRESS_ZZ"  "STRAIN_XX"  "STRAIN_XY"  "STRAIN_YY"  "STRAIN_PLS"  p_(1st_Invariant)  q_(2nd_Invariant)   Effective_Strain
 ZONE T="POINT=POINT6"
0.000000000000e+00 5.000000000000e+01 1.000000000000e+05 9.995000000000e+04 9.999956477278e-01 0.000000000000e+00 0.000000000000e+00 0.000000000000e+00 0.000000000000e+00 0.000000000000e+00 0.000000000000e+00 0.000000000000e+00 0.000000000000e+00 0.000000000000e+00 0.000000000000e+00 0.000000000000e+00 0.000000000000e+00 0.000000000000e+00 0.000000000000e+00 -0.000000000000e+00 0.000000000000e+00  0.000000000000e+00
5.000000000000e+00 6.488178948179e+01 4.034825816067e+05 4.034176998172e+05 9.999943523358e-01 -1.341686544236e-09 4.243217754978e-06 -1.302198922213e-13 2.751786461068e-10 -9.175153461858e-09 -1.895932124990e-03 4.146874844721e+05 -4.354543008305e-02 -3.934147310016e+05 8.509101388179e+03 1.895499121058e-02 -4.064240141083e-09 -1.875644551153e-02 0.000000000000e+00 -9.927284952876e+03 6.998402805573e+05  3.265921309268e-02
1.000000000000e+01 6.827058899898e+01 8.032198872215e+05 8.031516166325e+05 9.999940573563e-01 -8.580015357142e-10 5.113750154436e-06 -4.183239856153e-13 9.141935777370e-10 -3.306020138425e-09 -3.798410494405e-03 8.254188142711e+05 -1.011962255513e-02 -7.896788881074e+05 1.429597046547e+04 3.785239937760e-02 -9.444981051586e-10 -3.751882673340e-02 0.000000000000e+00 -1.667863220972e+04 1.398720205972e+06  6.527360961203e-02
1.500000000000e+01 6.575584130756e+01 1.202313148153e+06 1.202247392312e+06 9.999946706897e-01 3.719087554583e-09 6.172543579777e-06 -2.615207124900e-14 2.027725247173e-09 -7.880653498548e-09 -5.701038013095e-03 1.235508750654e+06 -3.876170509710e-02 -1.186483277443e+06 1.961018928439e+04 5.674193286389e-02 -3.617759142395e-09 -5.628436178059e-02 0.000000000000e+00 -2.287855416513e+04 2.097512353501e+06  9.788390983007e-02
2.000000000000e+01 2.584840162022e+01 1.600195296441e+06 1.600169448040e+06 9.999988344140e-01 1.560896973321e-09 6.295563637206e-06 -1.294369259154e-13 3.492950240993e-09 -6.623693951693e-09 -7.604966260145e-03 1.644482372753e+06 1.606330543282e-04 -1.584199047114e+06 2.411333025574e+04 7.561722198322e-02 1.499241842111e-11 -7.505457761058e-02 0.000000000000e+00 -2.813221863170e+04 2.796126628756e+06  1.304859093420e-01
2.500000000000e+01 -3.749771259017e+01 1.997304205106e+06 1.997341702819e+06 1.000000000000e+00 6.126909548925e-10 6.139356011396e-06 -6.073586805210e-13 5.221586517457e-09 -3.457022408802e-09 -9.509461990240e-03 2.052688559687e+06 1.233809816753e-02 -1.982545914628e+06 2.805705802338e+04 9.448280341095e-02 1.151555828948e-09 -9.382813872374e-02 0.000000000000e+00 -3.273323436061e+04 3.494622604364e+06  1.630823882036e-01
3.000000000000e+01 -1.201411128999e+02 2.392596229740e+06 2.392716370853e+06 1.000000000000e+00 -8.785518425006e-11 4.763849248699e-06 -1.330524253867e-12 6.766285266327e-09 -1.388615575984e-09 -1.141583917236e-02 2.459023273189e+06 4.575028238605e-03 -2.382422793777e+06 3.064019176448e+04 1.133245437998e-01 4.270026356376e-10 -1.126096059920e-01 0.000000000000e+00 -3.574689039189e+04 4.192822282287e+06  1.956650398400e-01
3.500000000000e+01 -2.023654325941e+02 2.787927109150e+06 2.788129474583e+06 1.000000000000e+00 -7.236033405878e-11 4.163372480404e-06 -2.082949753751e-12 8.275083803590e-09 -1.138483150312e-09 -1.332137083121e-02 2.865443731845e+06 3.545083365893e-03 -2.782189255324e+06 3.330179060835e+04 1.321666239244e-01 3.308744475279e-10 -1.313895821435e-01 0.000000000000e+00 -3.885208904307e+04 4.891000723922e+06  2.282467004497e-01
4.000000000000e+01 -2.830544025672e+02 3.183347915334e+06 3.183630969737e+06 1.000000000000e+00 -4.724215616659e-11 3.803545105377e-06 -2.786905256554e-12 9.782746929058e-09 -7.875820635168e-10 -1.522651135650e-02 3.271952846822e+06 -1.070890494400e-02 -3.181839543441e+06 3.604532135204e+04 1.510090178552e-01 -9.994977947465e-10 -1.501679603570e-01 0.000000000000e+00 -4.205287491071e+04 5.589155425155e+06  2.608272531739e-01
4.500000000000e+01 -3.622501279917e+02 3.578800679731e+06 3.579162929859e+06 1.000000000000e+00 -2.236113960546e-11 3.554830349464e-06 -3.435276940313e-12 1.129980859552e-08 -5.326728975700e-10 -1.713143727850e-02 3.678492659158e+06 3.494177584003e-04 -3.581431306166e+06 3.882454119687e+04 1.698511788382e-01 3.261232414186e-11 -1.689452728769e-01 0.000000000000e+00 -4.529529806301e+04 6.287286075548e+06  2.934066835256e-01
5.000000000000e+01 -4.400923934068e+02 3.974246473632e+06 3.974686566025e+06 1.000000000000e+00 -2.446824389791e-11 3.369141589007e-06 -4.040152047709e-12 1.282993223377e-08 -4.170058108006e-10 -1.903623629093e-02 4.085024235146e+06 -2.759278140161e-04 -3.981004703987e+06 4.160781246337e+04 1.886927663918e-01 -2.575326255473e-11 -1.877219174344e-01 0.000000000000e+00 -4.854244787394e+04 6.985393713731e+06  3.259850399741e-01
