 TITLE = "Time curves in points"
 VARIABLES = "TIME"  "PRESSURE1"  "PRESSURE2"  "PRESSURE_W"  "SATURATION1"  "VELOCITY_X1"  "VELOCITY_Y1"  "VELOCITY_X2"  "VELOCITY_Y2"  "DISPLACEMENT_X1"  "DISPLACEMENT_Y1"  "STRESS_XX"  "STRESS_XY"  "STRESS_YY"  "STRESS_ZZ"  "STRAIN_XX"  "STRAIN_XY"  "STRAIN_YY"  "STRAIN_PLS"  p_(1st_Invariant)  q_(2nd_Invariant)   Effective_Strain
 ZONE T="POINT=POINT7"
0.000000000000e+00 5.000000000000e+01 1.000000000000e+05 9.995000000000e+04 9.999956477278e-01 0.000000000000e+00 0.000000000000e+00 0.000000000000e+00 0.000000000000e+00 0.000000000000e+00 0.000000000000e+00 0.000000000000e+00 0.000000000000e+00 0.000000000000e+00 0.000000000000e+00 0.000000000000e+00 0.000000000000e+00 0.000000000000e+00 0.000000000000e+00 -0.000000000000e+00 0.000000000000e+00  0.000000000000e+00
5.000000000000e+00 1.266034867005e+02 3.943375729981e+05 3.942109695114e+05 9.999889797433e-01 1.317272055521e-09 3.303040655756e-08 1.333067756708e-13 1.921811896599e-11 -2.247941061754e-08 -6.500000000000e-03 -2.101036406394e+05 7.552620524075e-02 -1.300334071922e+06 -6.041750850245e+05 1.839000073797e-02 7.049112495106e-09 -3.248741938854e-02 0.000000000000e+00 7.048709325286e+05 9.561725868305e+05  4.462138738542e-02
1.000000000000e+01 1.867049520002e+02 7.900964098023e+05 7.899097048503e+05 9.999837481846e-01 7.696992097373e-11 1.252778332547e-07 2.286613404066e-13 5.967895031756e-11 -8.221923442377e-09 -1.300000000000e-02 -4.179698228454e+05 2.535366511438e-02 -2.597114090370e+06 -1.206033565286e+06 3.677630798056e-02 2.366342073679e-09 -6.491709117057e-02 0.000000000000e+00 1.407039159500e+06 1.911127838228e+06  8.918596578397e-02
1.500000000000e+01 2.502384927384e+02 1.186225691099e+06 1.185975452606e+06 9.999782178793e-01 -3.914872194837e-10 1.754840383864e-07 2.214629143795e-13 1.227651379931e-10 -2.125161912120e-08 -1.950000000000e-02 -6.254144107524e+05 8.113434980623e-02 -3.893371467434e+06 -1.807514351275e+06 5.516466389104e-02 7.572539317824e-09 -9.733999875411e-02 0.000000000000e+00 2.108766743154e+06 2.865981812812e+06  1.337458179312e-01
2.000000000000e+01 3.212662902869e+02 1.582893290604e+06 1.582572024314e+06 9.999720352331e-01 -8.531938613497e-11 2.094008947765e-07 3.081785513091e-13 2.099734005055e-10 -1.806309591500e-08 -2.600000000000e-02 -8.322240699898e+05 5.941177718341e-02 -5.188762371727e+06 -2.408394576687e+06 7.355462364586e-02 5.545099227011e-09 -1.297504971019e-01 0.000000000000e+00 2.809793672801e+06 3.820614120556e+06  1.782953256259e-01
2.500000000000e+01 3.946226766603e+02 1.979817854952e+06 1.979423232276e+06 9.999656498939e-01 -1.703343645020e-10 2.256198574573e-07 8.318610736387e-13 3.196807580871e-10 -1.018776885094e-08 -3.250000000000e-02 -1.038686425395e+06 5.822815094143e-02 -6.483648191987e+06 -3.008933846953e+06 9.194487967270e-02 5.434627456391e-09 -1.621533361016e-01 0.000000000000e+00 3.510422821445e+06 4.775098078647e+06  2.228379103369e-01
3.000000000000e+01 4.605776651695e+02 2.377392022262e+06 2.376931444597e+06 9.999599088127e-01 7.189538943407e-10 2.161054623682e-07 1.697831851810e-12 4.446706106397e-10 -3.221762644742e-09 -3.900000000000e-02 -1.244255500098e+06 2.237270399928e-02 -7.777236239772e+06 -3.608596695948e+06 1.103359224730e-01 2.088119045729e-09 -1.945365120451e-01 0.000000000000e+00 4.210029478606e+06 5.729201614609e+06  2.673627420151e-01
3.500000000000e+01 5.173454249435e+02 2.774513592899e+06 2.773996247474e+06 9.999549674378e-01 1.267098875283e-10 1.920236560629e-07 2.766421795531e-12 5.764876234149e-10 -2.333057584327e-09 -4.550000000000e-02 -1.450255072476e+06 1.308578252792e-02 -9.071222411645e+06 -4.208590993648e+06 1.287223429881e-01 1.221339744617e-09 -2.269227995065e-01 0.000000000000e+00 4.910022825923e+06 6.683290527352e+06  3.118868912764e-01
4.000000000000e+01 5.664944328799e+02 3.171197077344e+06 3.170630582911e+06 9.999506892406e-01 1.842618117965e-10 1.715704578073e-07 3.649138520999e-12 7.136013120249e-10 -2.180816022441e-09 -5.200000000000e-02 -1.656660609931e+06 7.254714611918e-03 -1.036556716136e+07 -4.808891108515e+06 1.471040899339e-01 6.771067040390e-10 -2.593115491326e-01 0.000000000000e+00 5.610372959934e+06 7.637350954156e+06  3.564097111939e-01
4.500000000000e+01 6.103050435505e+02 3.567557707043e+06 3.566947401999e+06 9.999468757265e-01 -1.947002967573e-10 1.566816191486e-07 4.031246236219e-12 8.570359231279e-10 -2.207469463113e-09 -5.850000000000e-02 -1.863360138428e+06 2.070744521916e-02 -1.166016192846e+07 -5.409408826754e+06 1.654822721219e-01 1.932694906892e-09 -2.917018114128e-01 0.000000000000e+00 6.310976964546e+06 8.591382337888e+06  4.009311757681e-01
5.000000000000e+01 6.504701338216e+02 3.963685592245e+06 3.963035122111e+06 9.999433795384e-01 3.394937336041e-10 1.461793549033e-07 5.378319590962e-12 1.007222766751e-09 -8.825467478163e-10 -6.500000000000e-02 -2.070266632927e+06 3.281521331519e-02 -1.295492334840e+07 -6.010075992532e+06 1.838577701149e-01 3.062753099747e-09 -3.240928766074e-01 0.000000000000e+00 7.011755324621e+06 9.545385125813e+06  4.454513058713e-01
