 TITLE = "Time curves in points"
 VARIABLES = "TIME"  "PRESSURE1"  "PRESSURE2"  "PRESSURE_W"  "SATURATION1"  "VELOCITY_X1"  "VELOCITY_Y1"  "VELOCITY_X2"  "VELOCITY_Y2"  "DISPLACEMENT_X1"  "DISPLACEMENT_Y1"  "STRESS_XX"  "STRESS_XY"  "STRESS_YY"  "STRESS_ZZ"  "STRAIN_XX"  "STRAIN_XY"  "STRAIN_YY"  "STRAIN_PLS"  p_(1st_Invariant)  q_(2nd_Invariant)   Effective_Strain
 ZONE T="POINT=POINT6"
0.000000000000e+00 5.000000000000e+01 1.000000000000e+05 0.000000000000e+00 0.000000000000e+00 0.000000000000e+00 0.000000000000e+00 0.000000000000e+00 0.000000000000e+00 0.000000000000e+00 0.000000000000e+00 0.000000000000e+00 0.000000000000e+00 0.000000000000e+00 0.000000000000e+00 0.000000000000e+00 0.000000000000e+00 0.000000000000e+00 0.000000000000e+00 -0.000000000000e+00 0.000000000000e+00  0.000000000000e+00
5.000000000000e+00 -8.632400734555e+00 4.052049177781e+05 4.052135501788e+05 1.000000000000e+00 -9.441182225573e-10 2.842129399393e-06 -8.842615990557e-14 1.919436022954e-10 -1.094112014164e-08 -1.897761510828e-03 4.163609977735e+05 -1.460658888899e-02 -3.918856680303e+05 9.790131897296e+03 1.897330707422e-02 -1.363281629643e-09 -1.874487066329e-02 0.000000000000e+00 -1.142182054685e+04 6.999664241982e+05  3.266509979592e-02
1.000000000000e+01 3.108250892553e+01 8.030158894859e+05 8.029848069770e+05 9.999974692732e-01 -2.301956383227e-10 5.606536993029e-06 -2.461358750906e-13 8.860809702007e-10 -3.962636024853e-09 -3.797843640468e-03 8.252819095455e+05 -2.076945890218e-02 -7.898212144573e+05 1.418427803526e+04 3.785122280381e-02 -1.938482830861e-09 -3.752025631632e-02 0.000000000000e+00 -1.654832437447e+04 1.398724830151e+06  6.527382540706e-02
1.500000000000e+01 1.270177938518e+02 1.202419577434e+06 1.202292559640e+06 9.999889436797e-01 3.816357650109e-10 8.574162277566e-06 -5.606789653927e-13 2.428345757166e-09 -2.569481595228e-09 -5.697259083188e-03 1.235713012744e+06 -6.012001341233e-03 -1.186485589135e+06 1.969096944395e+04 5.674769535403e-02 -5.611201251739e-10 -5.628823940033e-02 0.000000000000e+00 -2.297279768461e+04 2.097691298452e+06  9.789226059443e-02
2.000000000000e+01 2.616069461961e+02 1.601144680698e+06 1.600883073752e+06 9.999772283072e-01 1.129683931777e-09 1.119586152446e-05 -1.075444732741e-12 5.068096692542e-09 -2.171770756696e-09 -7.597400952127e-03 1.645419449779e+06 -4.909617508514e-02 -1.583685093942e+06 2.469374233508e+04 7.563386634741e-02 -4.582309674597e-09 -7.505767902625e-02 0.000000000000e+00 -2.880936605759e+04 2.796493380471e+06  1.305030244220e-01
2.500000000000e+01 4.202380994108e+02 1.999290426435e+06 1.998870188335e+06 9.999634201881e-01 1.944793256028e-09 1.361156870707e-05 -2.246201510066e-12 9.028394594577e-09 -2.284513805179e-09 -9.497977901118e-03 2.054521304803e+06 -3.513017738157e-02 -1.981305544802e+06 2.928630400041e+04 9.451096670413e-02 -3.278816555601e-09 -9.382761961079e-02 0.000000000000e+00 -3.416735466715e+04 3.495136245624e+06  1.631063581291e-01
3.000000000000e+01 5.898336251399e+02 2.396975046858e+06 2.396385213233e+06 9.999486576703e-01 2.289585972997e-09 1.587016915072e-05 -5.546605591271e-12 1.450472279830e-08 -2.165835938881e-09 -1.139888374864e-02 2.463145604396e+06 3.942870101505e-02 -2.379258885775e+06 3.355468744848e+04 1.133809094575e-01 3.680012094735e-09 -1.125979667504e-01 0.000000000000e+00 -3.914713535656e+04 4.193653693933e+06  1.957038390502e-01
3.500000000000e+01 7.597140005348e+02 2.794297423736e+06 2.793537709735e+06 9.999338703576e-01 1.732978707357e-09 1.800875157080e-05 -1.101688942242e-11 2.166954315709e-08 -2.706603770647e-09 -1.330004207439e-02 2.871401258558e+06 -4.323381179177e-04 -2.777469089819e+06 3.757286749563e+04 1.322453249162e-01 -4.035155770189e-11 -1.313686246747e-01 0.000000000000e+00 -4.383501207824e+04 4.892074242292e+06  2.282967979736e-01
4.000000000000e+01 9.229060778340e+02 3.191330082113e+06 3.190407176035e+06 9.999196652307e-01 1.580432691623e-09 2.004948237319e-05 -1.859752876172e-11 3.067279347350e-08 -2.519084043869e-09 -1.520140061227e-02 3.279367116970e+06 1.027771822906e-01 -3.175881352606e+06 4.139430574572e+04 1.511053978572e-01 9.592537013783e-09 -1.501395307231e-01 0.000000000000e+00 -4.829335670334e+04 5.590418740668e+06  2.608862078978e-01
4.500000000000e+01 1.069609707083e+03 3.588108881529e+06 3.587039271822e+06 9.999071825778e-01 1.507764101563e-09 2.201210959594e-05 -2.846127440835e-11 4.164265003118e-08 -2.973066562750e-09 -1.710292589938e-02 3.687097367542e+06 1.169646228954e-02 -3.574457343626e+06 4.505600956650e+04 1.699619300389e-01 1.091669813712e-09 -1.689106231490e-01 0.000000000000e+00 -5.256534449425e+04 6.288700938605e+06  2.934727104682e-01
5.000000000000e+01 1.196805973243e+03 3.984678812862e+06 3.983482006889e+06 9.998969436028e-01 1.806638615269e-09 2.390864781694e-05 -3.782410425971e-11 5.468691337260e-08 -3.099904901739e-09 -1.900458733729e-02 4.094631565394e+06 3.951455753003e-02 -3.973170032686e+06 4.858461308322e+04 1.888155244412e-01 3.688025369508e-09 -1.876818834692e-01 0.000000000000e+00 -5.668204859709e+04 6.986931694136e+06  3.260568123930e-01
