 TITLE = "Time curves in points"
 VARIABLES = "TIME"  "PRESSURE1"  "PRESSURE2"  "PRESSURE_W"  "SATURATION1"  "VELOCITY_X1"  "VELOCITY_Y1"  "VELOCITY_X2"  "VELOCITY_Y2"  "DISPLACEMENT_X1"  "DISPLACEMENT_Y1"  "STRESS_XX"  "STRESS_XY"  "STRESS_YY"  "STRESS_ZZ"  "STRAIN_XX"  "STRAIN_XY"  "STRAIN_YY"  "STRAIN_PLS"  p_(1st_Invariant)  q_(2nd_Invariant)   Effective_Strain
 ZONE T="POINT=POINT7"
0.000000000000e+00 5.000000000000e+01 1.000000000000e+05 9.995000000000e+04 9.999956477278e-01 0.000000000000e+00 0.000000000000e+00 0.000000000000e+00 0.000000000000e+00 0.000000000000e+00 0.000000000000e+00 0.000000000000e+00 0.000000000000e+00 0.000000000000e+00 0.000000000000e+00 0.000000000000e+00 0.000000000000e+00 0.000000000000e+00 0.000000000000e+00 -0.000000000000e+00 0.000000000000e+00  0.000000000000e+00
5.000000000000e+00 1.265527839214e+02 3.943375816819e+05 3.942110288979e+05 9.999889841567e-01 1.329599449854e-09 3.303672180463e-08 1.434149502620e-13 1.922755731691e-11 -2.231565013386e-08 -6.500000000000e-03 -2.101036076440e+05 7.846008043271e-02 -1.300334025041e+06 -6.041750530738e+05 1.839000078672e-02 7.322940843990e-09 -3.248741869178e-02 0.000000000000e+00 7.048708952528e+05 9.561725736941e+05  4.462138677239e-02
1.000000000000e+01 1.865279033636e+02 7.900961118372e+05 7.899095839338e+05 9.999837635958e-01 8.269966960347e-11 1.253093663461e-07 2.357371874387e-13 5.973341444454e-11 -8.260908391667e-09 -1.300000000000e-02 -4.179694321419e+05 1.505282288417e-02 -2.597113746395e+06 -1.206033271415e+06 3.677631249941e-02 1.404930144444e-09 -6.491708883242e-02 0.000000000000e+00 1.407038816651e+06 1.911127866599e+06  8.918596710797e-02
1.500000000000e+01 2.500781062187e+02 1.186225485591e+06 1.185975407485e+06 9.999782318402e-01 -3.975289756683e-10 1.754907675554e-07 3.598296092144e-13 1.228494240146e-10 -2.031907897953e-08 -1.950000000000e-02 -6.254143380913e+05 8.360670437105e-02 -3.893371381363e+06 -1.807514287782e+06 5.516466431888e-02 7.803292435826e-09 -9.733999770045e-02 0.000000000000e+00 2.108766669078e+06 2.865981798840e+06  1.337458172792e-01
2.000000000000e+01 3.217743982689e+02 1.582893606568e+06 1.582571832170e+06 9.999719910047e-01 -3.029964950711e-10 2.094172171738e-07 6.816575379317e-13 2.099770736898e-10 -1.776374835393e-08 -2.600000000000e-02 -8.322245004641e+05 8.772844658233e-02 -5.188762577489e+06 -2.408394831181e+06 7.355461543346e-02 8.187988370656e-09 -1.297504948277e-01 0.000000000000e+00 2.809793969711e+06 3.820613938407e+06  1.782953171257e-01
2.500000000000e+01 3.943977402636e+02 1.979817367581e+06 1.979422969841e+06 9.999656694736e-01 -3.518901392477e-10 2.256864562197e-07 7.111743224760e-13 3.197124645735e-10 -9.958591324885e-09 -3.250000000000e-02 -1.038686220572e+06 3.132749209180e-02 -6.483647867923e+06 -3.008933635398e+06 9.194487935853e-02 2.923899268537e-09 -1.621533308512e-01 0.000000000000e+00 3.510422574631e+06 4.775097968338e+06  2.228379051891e-01
3.000000000000e+01 4.614681129629e+02 2.377393445479e+06 2.376931977366e+06 9.999598313032e-01 -1.932774720154e-11 2.159719866892e-07 -5.874323983076e-14 4.438823236251e-10 -4.741894837227e-09 -3.900000000000e-02 -1.244255929746e+06 -3.430880140513e-03 -7.777236816845e+06 -3.608597098636e+06 1.103359212149e-01 -3.202154721937e-10 -1.945365201831e-01 0.000000000000e+00 4.210029948409e+06 5.729201756542e+06  2.673627486386e-01
3.500000000000e+01 5.180636643130e+02 2.774514305434e+06 2.773996241770e+06 9.999549049184e-01 2.534061134997e-10 1.920456794533e-07 -1.679486650640e-13 5.750852299655e-10 -2.554099298639e-09 -4.550000000000e-02 -1.450255437016e+06 -7.471079938114e-03 -9.071222561950e+06 -4.208591199586e+06 1.287223355866e-01 -6.973008004341e-10 -2.269227969103e-01 0.000000000000e+00 4.910023066184e+06 6.683290352238e+06  3.118868831044e-01
4.000000000000e+01 5.676034160896e+02 3.171198600711e+06 3.170630997295e+06 9.999505927087e-01 -3.262883883337e-10 1.714724451872e-07 -5.927521857505e-13 7.115093655958e-10 -2.797649302923e-09 -5.200000000000e-02 -1.656660757424e+06 2.737397188321e-02 -1.036556745689e+07 -4.808891285725e+06 1.471040913207e-01 2.554904038332e-09 -2.593115546543e-01 0.000000000000e+00 5.610373166679e+06 7.637351087735e+06  3.564097174276e-01
4.500000000000e+01 6.124260397141e+02 3.567559770274e+06 3.566947344235e+06 9.999466911035e-01 3.118409509383e-10 1.566442595177e-07 -1.105786260010e-12 8.537860410993e-10 -1.104562128871e-09 -5.850000000000e-02 -1.863360951625e+06 3.286786563694e-02 -1.166016253129e+07 -5.409409393166e+06 1.654822606052e-01 3.067667474210e-09 -2.917018131124e-01 0.000000000000e+00 6.310977625360e+06 8.591382180267e+06  4.009311684125e-01
5.000000000000e+01 6.521111847749e+02 3.963687250423e+06 3.963035139238e+06 9.999432366924e-01 -1.085502526663e-10 1.463000756368e-07 -9.454189021566e-13 1.003611966816e-09 -1.134091172879e-09 -6.500000000000e-02 -2.070266357012e+06 2.040994539857e-02 -1.295492289414e+07 -6.010075700459e+06 1.838577693609e-01 1.904928187413e-09 -3.240928690382e-01 0.000000000000e+00 7.011754983869e+06 9.545384961786e+06  4.454512982167e-01
