 TITLE = "Time curves in points"
 VARIABLES = "TIME"  "PRESSURE1"  "PRESSURE2"  "PRESSURE_W"  "SATURATION1"  "VELOCITY_X1"  "VELOCITY_Y1"  "VELOCITY_X2"  "VELOCITY_Y2"  "DISPLACEMENT_X1"  "DISPLACEMENT_Y1"  "STRESS_XX"  "STRESS_XY"  "STRESS_YY"  "STRESS_ZZ"  "STRAIN_XX"  "STRAIN_XY"  "STRAIN_YY"  "STRAIN_PLS"  p_(1st_Invariant)  q_(2nd_Invariant)   Effective_Strain
 ZONE T="POINT=POINT6"
0.000000000000e+00 5.000000000000e+01 1.000000000000e+05 9.995000000000e+04 9.999956477278e-01 0.000000000000e+00 0.000000000000e+00 0.000000000000e+00 0.000000000000e+00 0.000000000000e+00 0.000000000000e+00 0.000000000000e+00 0.000000000000e+00 0.000000000000e+00 0.000000000000e+00 0.000000000000e+00 0.000000000000e+00 0.000000000000e+00 0.000000000000e+00 -0.000000000000e+00 0.000000000000e+00  0.000000000000e+00
5.000000000000e+00 6.483874474658e+01 4.034825720871e+05 4.034177333424e+05 9.999943560827e-01 -1.392381250568e-09 4.243165350223e-06 -1.373938518876e-13 2.751571092973e-10 -9.112349209827e-09 -1.895932105070e-03 4.146875230684e+05 -4.196693484087e-02 -3.934146975747e+05 8.509130197475e+03 1.895499166731e-02 -3.916913918480e-09 -1.875644529604e-02 0.000000000000e+00 -9.927318563720e+03 6.998402850560e+05  3.265921330261e-02
1.000000000000e+01 6.826155492836e+01 8.032199794022e+05 8.031517178472e+05 9.999940581426e-01 -8.801659055331e-10 5.113724673034e-06 -4.248917281289e-13 9.141656824191e-10 -3.392007867119e-09 -3.798410487182e-03 8.254188463426e+05 -5.493861170173e-03 -7.896788752679e+05 1.429598842988e+04 3.785240003593e-02 -5.127603758854e-10 -3.751882697256e-02 0.000000000000e+00 -1.667865316819e+04 1.398720222639e+06  6.527361038981e-02
1.500000000000e+01 6.568874307849e+01 1.202312939817e+06 1.202247251074e+06 9.999946766660e-01 3.378644009018e-09 6.172633163344e-06 -1.426227792719e-13 2.027714608454e-09 -7.842696793542e-09 -5.701038128693e-03 1.235508817596e+06 -6.635695836216e-03 -1.186483245070e+06 1.961022901047e+04 5.674193413400e-02 -6.193316113881e-10 -5.628436212376e-02 0.000000000000e+00 -2.287860051221e+04 2.097512383463e+06  9.788391122828e-02
2.000000000000e+01 2.581356085120e+01 1.600195489807e+06 1.600169676246e+06 9.999988376862e-01 1.618220720480e-09 6.295543130575e-06 -3.370779859801e-13 3.492881739315e-09 -6.724657809136e-09 -7.604966336749e-03 1.644482110126e+06 1.117946554147e-02 -1.584199327503e+06 2.411311304922e+04 7.561721986357e-02 1.043416783839e-09 -7.505458055908e-02 0.000000000000e+00 -2.813196522409e+04 2.796126644021e+06  1.304859100543e-01
2.500000000000e+01 -3.759322940221e+01 1.997303741903e+06 1.997341335133e+06 1.000000000000e+00 7.300611852303e-10 6.139293019851e-06 -8.698590710080e-13 5.221510164794e-09 -3.497530085731e-09 -9.509462084898e-03 2.052688349625e+06 8.784238558576e-03 -1.982546041519e+06 2.805692324236e+04 9.448279989786e-02 8.198622653967e-10 -9.382813835553e-02 0.000000000000e+00 -3.273307711608e+04 3.494622532268e+06  1.630823848392e-01
3.000000000000e+01 -1.201704072515e+02 2.392595950555e+06 2.392716120963e+06 1.000000000000e+00 -1.105809985418e-10 4.763800175786e-06 -1.665137301825e-12 6.766177982690e-09 -1.547159740188e-09 -1.141583927931e-02 2.459023049063e+06 2.097546444958e-03 -2.382422965728e+06 3.064003333405e+04 1.133245407340e-01 1.957710014705e-10 -1.126096066229e-01 0.000000000000e+00 -3.574670555639e+04 4.192822237030e+06  1.956650377281e-01
3.500000000000e+01 -2.023656828142e+02 2.787926967308e+06 2.788129332991e+06 1.000000000000e+00 -8.933669229214e-11 4.163205193762e-06 -2.470646011408e-12 8.274886287620e-09 -1.098950733621e-09 -1.332137091333e-02 2.865443539524e+06 4.628744744963e-03 -2.782189351764e+06 3.330167510374e+04 1.321666203396e-01 4.320161761557e-10 -1.313895812538e-01 0.000000000000e+00 -3.885195428770e+04 4.891000640837e+06  2.282466965724e-01
4.000000000000e+01 -2.830328116952e+02 3.183347800998e+06 3.183630833809e+06 1.000000000000e+00 -7.434724174902e-11 3.803430016140e-06 -3.229824893983e-12 9.782465101195e-09 -7.174236532713e-10 -1.522651142635e-02 3.271952700611e+06 -3.823207846679e-03 -3.181839636859e+06 3.604522550060e+04 1.510090155051e-01 -3.568327323582e-10 -1.501679602435e-01 0.000000000000e+00 -4.205276308403e+04 5.589155379396e+06  2.608272510385e-01
4.500000000000e+01 -3.622050469229e+02 3.578800572834e+06 3.579162777881e+06 1.000000000000e+00 -1.765757012048e-11 3.554722650177e-06 -3.926874652601e-12 1.129942847240e-08 -4.596688565083e-10 -1.713143735348e-02 3.678492505460e+06 1.069851746010e-03 -3.581431418758e+06 3.882443468057e+04 1.698511766364e-01 9.985282958926e-11 -1.689452731605e-01 0.000000000000e+00 -4.529517379399e+04 6.287286039908e+06  2.934066818624e-01
5.000000000000e+01 -4.400315464005e+02 3.974246327625e+06 3.974686359171e+06 1.000000000000e+00 -3.962676119683e-11 3.369106901418e-06 -4.599365022564e-12 1.282947597759e-08 -3.948242516903e-10 -1.903623634562e-02 4.085024035460e+06 -3.009157833532e-03 -3.981004844301e+06 4.160767646337e+04 1.886927634198e-01 -2.808547311614e-10 -1.877219176357e-01 0.000000000000e+00 -4.854228920727e+04 6.985393662262e+06  3.259850375722e-01
