 TITLE = "Time curves in points"
 VARIABLES = "TIME"  "PRESSURE1"  "PRESSURE2"  "PRESSURE_W"  "SATURATION1"  "VELOCITY_X1"  "VELOCITY_Y1"  "VELOCITY_X2"  "VELOCITY_Y2"  "DISPLACEMENT_X1"  "DISPLACEMENT_Y1"  "STRESS_XX"  "STRESS_XY"  "STRESS_YY"  "STRESS_ZZ"  "STRAIN_XX"  "STRAIN_XY"  "STRAIN_YY"  "STRAIN_PLS"  p_(1st_Invariant)  q_(2nd_Invariant)   Effective_Strain
 ZONE T="POINT=POINT7"
0.000000000000e+00 5.000000000000e+01 1.000000000000e+05 0.000000000000e+00 0.000000000000e+00 0.000000000000e+00 0.000000000000e+00 0.000000000000e+00 0.000000000000e+00 0.000000000000e+00 0.000000000000e+00 0.000000000000e+00 0.000000000000e+00 0.000000000000e+00 0.000000000000e+00 0.000000000000e+00 0.000000000000e+00 0.000000000000e+00 0.000000000000e+00 -0.000000000000e+00 0.000000000000e+00  0.000000000000e+00
1.000000000000e+00 8.629216397807e+01 7.875857498006e+04 7.867228281609e+04 9.999924886603e-01 7.798784546603e-17 -8.626161001458e-08 8.763021859493e-22 3.687974245993e-12 1.078232184517e-14 -1.300000000000e-03 -4.266037880885e+04 -4.586763679981e-08 -2.615985509374e+05 -1.217035718985e+05 3.688682344184e-03 -4.279562815235e-15 -6.528432355150e-03 0.000000000000e+00 1.419875005483e+05 1.920317092945e+05  8.961479767075e-03
2.000000000000e+00 3.102345802853e+01 1.576858539980e+05 1.576548305400e+05 9.999973718756e-01 1.036974614358e-10 -9.199314594615e-08 2.105065513534e-15 1.000072567847e-11 -7.317129041204e-09 -2.600000000000e-03 -8.490642136697e+04 2.323780293227e-02 -5.226995320191e+05 -2.430423813544e+05 7.379678132749e-03 2.168861607671e-09 -1.305066703102e-02 0.000000000000e+00 2.835494449135e+05 3.839778063206e+05  1.791896429496e-02
3.000000000000e+00 3.304780932284e+01 2.369659027414e+05 2.369328549321e+05 9.999972932499e-01 5.393611081297e-11 -1.018855661392e-07 3.673049721492e-15 1.802229297500e-11 -9.925530979664e-10 -3.900000000000e-03 -1.270479525538e+05 -3.372246865183e-04 -7.837792215971e+05 -3.643308696603e+05 1.107320279831e-02 -3.147430406580e-11 -1.957425642371e-02 0.000000000000e+00 4.250526812704e+05 5.759930826113e+05  2.687967718853e-02
4.000000000000e+00 3.130839165408e+01 3.161068030661e+05 3.160754946744e+05 9.999975495736e-01 9.240792745096e-11 -1.111884574937e-07 9.625611544493e-15 2.727795614137e-11 -1.065548218196e-08 -5.200000000000e-03 -1.692406463525e+05 3.254197357455e-02 -1.044868357741e+06 -4.856436016376e+05 1.476547124664e-02 3.037250872681e-09 -2.609715528485e-02 0.000000000000e+00 5.665842019105e+05 7.679736476288e+05  3.583877022268e-02
5.000000000000e+00 2.572445332727e+01 3.952453878967e+05 3.952196634434e+05 9.999981550497e-01 1.144362120241e-10 -1.204874939313e-07 2.345171654890e-14 3.755594032349e-11 -1.180249751268e-08 -6.500000000000e-03 -2.114332874371e+05 3.598013398005e-02 -1.305960429990e+06 -6.069574869710e+05 1.845779597825e-02 3.358145842999e-09 -3.262013734091e-02 0.000000000000e+00 7.081170681329e+05 9.599568147977e+05  4.479798469056e-02
6.000000000000e+00 1.635579445006e+01 4.743802440850e+05 4.743638882906e+05 9.999991088582e-01 1.077233971961e-10 -1.298169374869e-07 5.113084316409e-14 4.885727793419e-11 -1.372948926345e-08 -7.800000000000e-03 -2.536259492347e+05 4.510803858284e-02 -1.567052872810e+06 -7.282715288178e+05 2.215012704722e-02 4.210083602921e-09 -3.914312938630e-02 0.000000000000e+00 8.496501169541e+05 1.151940287693e+06  5.375721342566e-02
7.000000000000e+00 3.201521602780e+00 5.535112666917e+05 5.535080651701e+05 1.000000000000e+00 1.022633538973e-10 -1.391853780885e-07 9.876104732216e-14 6.137567960828e-11 -1.457169043871e-08 -9.100000000000e-03 -2.958186068635e+05 5.048022512347e-02 -1.828145497132e+06 -8.495856415981e+05 2.584246162095e-02 4.711487686104e-09 -4.566612659157e-02 0.000000000000e+00 9.911832485312e+05 1.343923922374e+06  6.271644971081e-02
8.000000000000e+00 -1.275913134539e+01 6.326395786059e+05 6.326523377373e+05 1.000000000000e+00 1.274430899764e-10 -1.486435102892e-07 1.744103778460e-13 7.532232179242e-11 -1.551472751916e-08 -1.040000000000e-02 -3.380119946717e+05 5.490067845676e-02 -2.089238926442e+06 -9.709003684453e+05 2.953479077610e-02 5.124063312545e-09 -5.218913270650e-02 0.000000000000e+00 1.132717096520e+06 1.535907645419e+06  7.167569011957e-02
9.000000000000e+00 -3.086572114889e+01 7.117658372833e+05 7.117967030044e+05 1.000000000000e+00 1.248365186250e-10 -1.581882484905e-07 2.964216719174e-13 9.090670822569e-11 -1.686990772691e-08 -1.170000000000e-02 -3.802058222698e+05 6.377639551647e-02 -2.350332913926e+06 -1.092215494478e+06 3.322711803641e-02 5.952463581066e-09 -5.871214624090e-02 0.000000000000e+00 1.274251410225e+06 1.727891485556e+06  8.063493599263e-02
1.000000000000e+01 -5.092978394907e+01 7.908902289570e+05 7.909411587410e+05 1.000000000000e+00 1.085665514436e-10 -1.677839364393e-07 4.689630145788e-13 1.084305913412e-10 -1.698298262457e-08 -1.300000000000e-02 -4.223997938628e+05 6.891513522714e-02 -2.611427223298e+06 -1.213530806864e+06 3.691944727341e-02 6.432079296265e-09 -6.523516610024e-02 0.000000000000e+00 1.415785941342e+06 1.919875485238e+06  8.959418931109e-02
1.100000000000e+01 -7.257162636564e+01 8.700130400372e+05 8.700856116636e+05 1.000000000000e+00 1.375245747622e-10 -1.774310681465e-07 7.253548418566e-13 1.282073520560e-10 -1.640277160917e-08 -1.430000000000e-02 -4.645940840813e+05 7.129999226891e-02 -2.872521840281e+06 -1.334846369745e+06 4.061177333098e-02 6.654665943295e-09 -7.175818862503e-02 0.000000000000e+00 1.557320764703e+06 2.111859485438e+06  9.855344265379e-02
1.200000000000e+01 -9.550190145246e+01 9.491345053869e+05 9.492300072884e+05 1.000000000000e+00 1.445490835811e-10 -1.870927302753e-07 1.090597304647e-12 1.505624344620e-10 -1.685367138019e-08 -1.560000000000e-02 -5.067887190191e+05 7.979178940877e-02 -3.133616905118e+06 -1.456162249655e+06 4.430409809634e-02 7.447233676960e-09 -7.828121725495e-02 0.000000000000e+00 1.698855957931e+06 2.303843586389e+06  1.075127006982e-01
1.300000000000e+01 -1.194700314730e+02 1.028254977386e+06 1.028374447417e+06 1.000000000000e+00 1.478406851081e-10 -1.968008622771e-07 1.581736427816e-12 1.758193703911e-10 -1.597484691022e-08 -1.690000000000e-02 -5.489835475829e+05 8.180888043717e-02 -3.394712209769e+06 -1.577478302941e+06 4.799642191669e-02 7.635495504962e-09 -8.480424898531e-02 0.000000000000e+00 1.840391353431e+06 2.495827733710e+06  1.164719609065e-01
1.400000000000e+01 -1.442571107002e+02 1.107374631140e+06 1.107518888251e+06 1.000000000000e+00 1.505442929754e-10 -2.065409334602e-07 2.215674919564e-12 2.043020639120e-10 -1.393559733301e-08 -1.820000000000e-02 -5.911785927681e+05 8.052154537290e-02 -3.655807828988e+06 -1.698794568703e+06 5.168874554361e-02 7.515344260106e-09 -9.132728548000e-02 0.000000000000e+00 1.981926996820e+06 2.687811973202e+06  1.254312254161e-01
1.500000000000e+01 -1.696730160517e+02 1.186493668077e+06 1.186663341093e+06 1.000000000000e+00 1.654889628874e-10 -2.163075004727e-07 3.014250906264e-12 2.363318391819e-10 -1.062276480137e-08 -1.950000000000e-02 -6.333738196354e+05 7.509165117517e-02 -3.916903673956e+06 -1.820110997437e+06 5.538106829739e-02 7.008554112065e-09 -9.785032490424e-02 0.000000000000e+00 2.123462830343e+06 2.879796256829e+06  1.343904919854e-01
1.600000000000e+01 -1.955542133389e+02 1.265612092802e+06 1.265807647015e+06 1.000000000000e+00 1.644351029323e-10 -2.261141605478e-07 3.991508465340e-12 2.722231396274e-10 -5.467992353094e-09 -2.080000000000e-02 -6.755692487999e+05 6.261522206478e-02 -4.177999563841e+06 -1.941427525056e+06 5.907338622530e-02 5.844087399773e-09 -1.043733618099e-01 0.000000000000e+00 2.264998779232e+06 3.071780409791e+06  1.433497524569e-01
1.700000000000e+01 -2.217596474918e+02 1.344730256914e+06 1.344952016562e+06 1.000000000000e+00 4.692001373649e-11 -2.359236995799e-07 5.110185629805e-12 3.122927846423e-10 -5.261432903126e-09 -2.210000000000e-02 -7.177648906360e+05 7.290982315317e-02 -4.439095966137e+06 -2.062744342709e+06 6.276570776341e-02 6.804916853967e-09 -1.108964090933e-01 0.000000000000e+00 2.406535066494e+06 3.263764830541e+06  1.523090254252e-01
1.800000000000e+01 -2.481598342660e+02 1.423848342866e+06 1.424096502700e+06 1.000000000000e+00 1.883123672983e-10 -2.457782067849e-07 6.427200701616e-12 3.568445042893e-10 -8.614933590020e-11 -2.340000000000e-02 -7.599605944689e+05 5.008093826473e-02 -4.700192550467e+06 -2.184061257974e+06 6.645803096359e-02 4.674220909634e-09 -1.174194603163e-01 0.000000000000e+00 2.548071467637e+06 3.455749357804e+06  1.612683033642e-01
1.900000000000e+01 -2.746497817400e+02 1.502966088654e+06 1.503240738435e+06 1.000000000000e+00 2.447617191420e-10 -2.556428963848e-07 7.943664522096e-12 4.061848688055e-10 2.888104910355e-09 -2.470000000000e-02 -8.021566101688e+05 4.272641125135e-02 -4.961289410244e+06 -2.305378408165e+06 7.015035057316e-02 3.987798402258e-09 -1.239425134303e-01 0.000000000000e+00 2.689608142859e+06 3.647733863209e+06  1.702275802831e-01
2.000000000000e+01 -3.011381478360e+02 1.582083740596e+06 1.582384878744e+06 1.000000000000e+00 1.484760466173e-10 -2.655222024714e-07 9.616981533508e-12 4.606165070054e-10 4.758575424801e-09 -2.600000000000e-02 -8.443527949519e+05 4.997403733432e-02 -5.222386434940e+06 -2.426695691957e+06 7.384266852690e-02 4.664243498376e-09 -1.304655680059e-01 0.000000000000e+00 2.831144973950e+06 3.839718370335e+06  1.791868572823e-01
2.100000000000e+01 -3.275450096590e+02 1.661201456224e+06 1.661529001233e+06 1.000000000000e+00 2.316893861371e-10 -2.754204454605e-07 1.152938646290e-11 5.204383475160e-10 4.774253605062e-09 -2.730000000000e-02 -8.865490325983e+05 4.847325570881e-02 -5.483483469311e+06 -2.548013000764e+06 7.753498518105e-02 4.524170546874e-09 -1.369886218655e-01 0.000000000000e+00 2.972681834224e+06 4.031702841521e+06  1.881461326043e-01
2.200000000000e+01 -3.538092514501e+02 1.740319193515e+06 1.740673002767e+06 1.000000000000e+00 4.440643717545e-11 -2.853422725763e-07 1.360577234003e-11 5.859470401101e-10 7.631082752621e-09 -2.860000000000e-02 -9.287454771038e+05 5.293491017073e-02 -5.744580696311e+06 -2.669330469366e+06 8.122729963891e-02 4.940591611172e-09 -1.435116772574e-01 0.000000000000e+00 3.114218880927e+06 4.223687306855e+06  1.971054076532e-01
2.300000000000e+01 -3.798759423770e+02 1.819437092490e+06 1.819816968432e+06 1.000000000000e+00 1.985115541454e-10 -2.952796164048e-07 1.593733029963e-11 6.574404621138e-10 8.059475734125e-09 -2.990000000000e-02 -9.709420824759e+05 4.630316421390e-02 -6.005678294608e+06 -2.790648150833e+06 8.491961652335e-02 4.321628683385e-09 -1.500347400428e-01 0.000000000000e+00 3.255756175972e+06 4.415671960548e+06  2.060646914923e-01
2.400000000000e+01 -4.057010296673e+02 1.898555174959e+06 1.898960875989e+06 1.000000000000e+00 4.398600530920e-11 -3.052347170122e-07 1.844689613773e-11 7.352172129709e-10 1.052651924913e-08 -3.120000000000e-02 -1.013138768064e+06 4.958888050169e-02 -6.266775908654e+06 -2.911965870688e+06 8.861193145575e-02 4.628295429202e-09 -1.565578017718e-01 0.000000000000e+00 3.397293515802e+06 4.607656560633e+06  2.150239728295e-01
2.500000000000e+01 -4.312363993058e+02 1.977673510870e+06 1.978104747270e+06 1.000000000000e+00 2.625000377740e-10 -3.152370010409e-07 2.126253885412e-11 8.195669059776e-10 1.049203523544e-08 -3.250000000000e-02 -1.055335608678e+06 4.059168556705e-02 -6.527873827963e+06 -3.033283774656e+06 9.230424774566e-02 3.788557318557e-09 -1.630808691543e-01 0.000000000000e+00 3.538831070432e+06 4.799641296467e+06  2.239832605018e-01
2.600000000000e+01 -4.564424680822e+02 2.056791937414e+06 2.057248379882e+06 1.000000000000e+00 7.983824605305e-11 -3.252177510670e-07 2.424574918864e-11 9.107996031320e-10 1.289376065631e-08 -3.380000000000e-02 -1.097532590747e+06 4.460234055296e-02 -6.788971703889e+06 -3.154601717854e+06 9.599655926499e-02 4.162885125156e-09 -1.696039326816e-01 0.000000000000e+00 3.680368670830e+06 4.991625875788e+06  2.329425408701e-01
2.700000000000e+01 -4.812886652443e+02 2.135910811401e+06 2.136392100066e+06 1.000000000000e+00 1.867362422427e-10 -3.352430758890e-07 2.750586428594e-11 1.009209663735e-09 1.227347601248e-08 -3.510000000000e-02 -1.139729631375e+06 4.778851848096e-02 -7.050069827684e+06 -3.275919783623e+06 9.968887377161e-02 4.460261734604e-09 -1.761270020562e-01 0.000000000000e+00 3.821906414227e+06 5.183610621842e+06  2.419018290193e-01
2.800000000000e+01 -5.057346824772e+02 2.215030136738e+06 2.215535871421e+06 1.000000000000e+00 3.779179380765e-10 -3.452981997449e-07 3.111397012933e-11 1.115092596570e-09 1.633780726353e-08 -3.640000000000e-02 -1.181926767870e+06 2.373414719477e-02 -7.311168255664e+06 -3.397238009414e+06 1.033811912720e-01 2.215187058091e-09 -1.826500781584e-01 0.000000000000e+00 3.963444344316e+06 5.375595552361e+06  2.508611257768e-01
2.900000000000e+01 -5.297663303440e+02 2.294149618980e+06 2.294679385311e+06 1.000000000000e+00 9.107752454213e-11 -3.553209152809e-07 3.488294425931e-11 1.228767924388e-09 1.534743848008e-08 -3.770000000000e-02 -1.224124189041e+06 4.792595980689e-02 -7.572267064333e+06 -3.518556501350e+06 1.070735079077e-01 4.473089586232e-09 -1.891731596059e-01 0.000000000000e+00 4.104982584908e+06 5.567580575498e+06  2.598204268566e-01
3.000000000000e+01 -5.533873318598e+02 2.373269017841e+06 2.373822405173e+06 1.000000000000e+00 3.021846624910e-10 -3.653506812159e-07 3.896812671133e-11 1.350551149857e-09 1.854675379432e-08 -3.900000000000e-02 -1.266321863296e+06 1.819795835763e-02 -7.833365678089e+06 -3.639875016554e+06 1.107658138187e-01 1.698476106288e-09 -1.956962308716e-01 0.000000000000e+00 4.246520852646e+06 5.759565216452e+06  2.687797101011e-01
