 TITLE = "Time curves in points"
 VARIABLES = "TIME"  "PRESSURE1"  "PRESSURE2"  "PRESSURE_W"  "SATURATION1"  "VELOCITY_X1"  "VELOCITY_Y1"  "VELOCITY_X2"  "VELOCITY_Y2"  "DISPLACEMENT_X1"  "DISPLACEMENT_Y1"  "STRESS_XX"  "STRESS_XY"  "STRESS_YY"  "STRESS_ZZ"  "STRAIN_XX"  "STRAIN_XY"  "STRAIN_YY"  "STRAIN_PLS"  p_(1st_Invariant)  q_(2nd_Invariant)   Effective_Strain
 ZONE T="POINT=POINT7"
0.000000000000e+00 5.000000000000e+01 1.000000000000e+05 0.000000000000e+00 0.000000000000e+00 0.000000000000e+00 0.000000000000e+00 0.000000000000e+00 0.000000000000e+00 0.000000000000e+00 0.000000000000e+00 0.000000000000e+00 0.000000000000e+00 0.000000000000e+00 0.000000000000e+00 0.000000000000e+00 0.000000000000e+00 0.000000000000e+00 0.000000000000e+00 -0.000000000000e+00 0.000000000000e+00  0.000000000000e+00
1.000000000000e+00 8.629216397807e+01 7.875857498006e+04 7.867228281609e+04 9.999924886603e-01 7.798784546603e-17 -8.626161001458e-08 8.763021859493e-22 3.687974245993e-12 1.078232184517e-14 -1.300000000000e-03 -4.266037880885e+04 -4.586763679981e-08 -2.615985509374e+05 -1.217035718985e+05 3.688682344184e-03 -4.279562815235e-15 -6.528432355150e-03 0.000000000000e+00 1.419875005483e+05 1.920317092945e+05  8.961479767075e-03
2.000000000000e+00 8.052959619456e+01 1.578778034728e+05 1.577972738766e+05 9.999929902655e-01 -8.133105892720e-11 -6.108694974393e-08 -2.655182543298e-14 1.130885775243e-11 1.083569137352e-08 -2.600000000000e-03 -8.479644842266e+04 -5.339984205784e-02 -5.224430550808e+05 -2.428958014014e+05 7.377969805673e-03 -4.983985255752e-09 -1.304553850504e-02 0.000000000000e+00 2.833784349683e+05 3.838467303308e+05  1.791284741544e-02
3.000000000000e+00 7.625751908295e+01 2.369447853395e+05 2.368685278205e+05 9.999933621304e-01 6.709441463679e-11 -8.179525819076e-08 -5.054713006371e-14 2.057744888804e-11 1.347923611709e-08 -3.900000000000e-03 -1.271005082340e+05 -5.379579379223e-02 -7.837792562620e+05 -3.643519057984e+05 1.107173188634e-02 -5.020940755177e-09 -1.957327635497e-02 0.000000000000e+00 4.250772234315e+05 5.759490021151e+05  2.687762009871e-02
4.000000000000e+00 7.179058892900e+01 3.161795817554e+05 3.161077911665e+05 9.999937509563e-01 9.921312422655e-11 -8.488456194189e-08 -6.252220362388e-14 3.157164175579e-11 1.671676803519e-08 -5.200000000000e-03 -1.691368883316e+05 -5.926498310873e-02 -1.044612394415e+06 -4.854997130985e+05 1.476359848912e-02 -5.531398424366e-09 -2.609192512808e-02 0.000000000000e+00 5.664163319482e+05 7.678378048306e+05  3.583243089210e-02
5.000000000000e+00 6.548379867857e+01 3.952057192733e+05 3.951402354746e+05 9.999942999337e-01 7.188290896871e-11 -9.590931223994e-08 -6.724429709518e-14 4.376104246183e-11 2.307744804928e-08 -6.500000000000e-03 -2.114929626866e+05 -7.938342553098e-02 -1.305959639302e+06 -6.069810407954e+05 1.845611031175e-02 -7.409119713586e-09 -3.261900126364e-02 0.000000000000e+00 7.081445475947e+05 9.599060389741e+05  4.479561515213e-02
6.000000000000e+00 5.663919495812e+01 4.744369683036e+05 4.743803291087e+05 9.999950698161e-01 9.467816080963e-11 -1.081438049291e-07 -6.184762163130e-14 5.701512436962e-11 2.554835141976e-08 -7.800000000000e-03 -2.535428804715e+05 -8.997164340690e-02 -1.566822974859e+06 -7.281463421321e+05 2.214816154416e-02 -8.397353392503e-09 -3.913824286057e-02 0.000000000000e+00 8.495040658208e+05 1.151809781695e+06  5.375112314575e-02
7.000000000000e+00 4.599047501557e+01 5.535011315206e+05 5.534551410456e+05 9.999961408016e-01 7.966286132351e-11 -1.134091697645e-07 -5.438025656610e-14 7.178441131462e-11 3.069701184099e-08 -9.100000000000e-03 -2.958528761716e+05 -1.063641048968e-01 -1.828112755267e+06 -8.495862525754e+05 2.584089089884e-02 -9.927316463668e-09 -4.566457012560e-02 0.000000000000e+00 9.911839613379e+05 1.343866642509e+06  6.271377665043e-02
8.000000000000e+00 3.284212789918e+01 6.326681783142e+05 6.326353361863e+05 9.999974480058e-01 5.395716334886e-11 -1.284141230996e-07 -4.240924600110e-14 8.732414162377e-11 3.303461338602e-08 -1.040000000000e-02 -3.379672431302e+05 -1.158398565603e-01 -2.089047915818e+06 -9.708060635793e+05 2.953247828762e-02 -1.081171996202e-08 -5.218461977114e-02 0.000000000000e+00 1.132607074176e+06 1.535778847202e+06  7.166967953610e-02
9.000000000000e+00 1.720137343441e+01 7.117901124860e+05 7.117729111125e+05 9.999989861022e-01 1.153738444902e-10 -1.331258562138e-07 -1.781529605259e-14 1.048363242160e-10 3.784515652552e-08 -1.170000000000e-02 -3.802110143493e+05 -1.337185015436e-01 -2.350266166114e+06 -1.092190872185e+06 3.322572669901e-02 -1.248039348256e-08 -5.871018038333e-02 0.000000000000e+00 1.274222684216e+06 1.727828993875e+06  8.063201971417e-02
1.000000000000e+01 -1.144519851703e+00 7.908930151760e+05 7.908941596958e+05 1.000000000000e+00 1.358865251892e-10 -1.473671914576e-07 1.134783425630e-14 1.236268910830e-10 3.935595389578e-08 -1.300000000000e-02 -4.223864459417e+05 -1.401137034409e-01 -2.611266925879e+06 -1.213461348728e+06 3.691682879671e-02 -1.307727898366e-08 -6.523092693370e-02 0.000000000000e+00 1.415704906850e+06 1.919747078235e+06  8.958819698430e-02
1.100000000000e+01 -2.123009579727e+01 8.700616734220e+05 8.700829035178e+05 1.000000000000e+00 1.445891568346e-10 -1.533209674350e-07 5.199251080141e-14 1.450010330796e-10 4.304226296009e-08 -1.430000000000e-02 -4.645772798790e+05 -1.537834813353e-01 -2.872428773644e+06 -1.334802421409e+06 4.061050660474e-02 -1.435312491256e-08 -7.175589643763e-02 0.000000000000e+00 1.557269491644e+06 2.111792533852e+06  9.855031824643e-02
1.200000000000e+01 -4.321232200402e+01 9.491180624850e+05 9.491612748070e+05 1.000000000000e+00 9.510137655524e-11 -1.663059773636e-07 8.522604635204e-14 1.684231240411e-10 4.315303592270e-08 -1.560000000000e-02 -5.067981926727e+05 -1.519226662349e-01 -3.133478400782e+06 -1.456110637382e+06 4.430124741976e-02 -1.417944885465e-08 -7.827716229201e-02 0.000000000000e+00 1.698795743612e+06 2.303715004840e+06  1.075067002259e-01
1.300000000000e+01 -6.628540713029e+01 1.028318662706e+06 1.028384948114e+06 1.000000000000e+00 1.251887508348e-10 -1.736094149316e-07 1.345359250357e-13 1.950139326687e-10 4.701518150049e-08 -1.690000000000e-02 -5.489527259824e+05 -1.678445811849e-01 -3.394601297038e+06 -1.577421609208e+06 4.799521455054e-02 -1.566549424903e-08 -8.480171876540e-02 0.000000000000e+00 1.840325210743e+06 2.495757004556e+06  1.164686602126e-01
1.400000000000e+01 -9.055114192235e+01 1.107344968983e+06 1.107435520125e+06 1.000000000000e+00 1.155810944916e-10 -1.855645074939e-07 1.833923014547e-13 2.244206414757e-10 4.787014996813e-08 -1.820000000000e-02 -5.912038911341e+05 -1.682897042483e-01 -3.655684458121e+06 -1.698755339702e+06 5.168573426651e-02 -1.570703908951e-08 -9.132335885956e-02 0.000000000000e+00 1.981881229653e+06 2.687683289674e+06  1.254252201848e-01
1.500000000000e+01 -1.154954185067e+02 1.186565012413e+06 1.186680507832e+06 1.000000000000e+00 2.010033044917e-10 -1.938770172762e-07 2.670530218595e-13 2.575595852341e-10 4.977531255962e-08 -1.950000000000e-02 -6.333353622777e+05 -1.825201441534e-01 -3.916781458344e+06 -1.820046728249e+06 5.537986374532e-02 -1.703521342218e-08 -9.784762073779e-02 0.000000000000e+00 2.123387849624e+06 2.879722092519e+06  1.343870309842e-01
1.600000000000e+01 -1.411607924283e+02 1.265573482884e+06 1.265714643677e+06 1.000000000000e+00 5.358720242641e-11 -2.050908665647e-07 3.224017653862e-13 2.942578179923e-10 4.585737596571e-08 -2.080000000000e-02 -6.756048425357e+05 -1.619091499597e-01 -4.177886045398e+06 -1.941396355173e+06 5.907027058976e-02 -1.511152064419e-08 -1.043695188771e-01 0.000000000000e+00 2.264962414369e+06 3.071651665787e+06  1.433437444034e-01
1.700000000000e+01 -1.672210175383e+02 1.344804604893e+06 1.344971825910e+06 1.000000000000e+00 -4.316381795270e-11 -2.141138070445e-07 3.697938276194e-13 3.352419850186e-10 4.169822074740e-08 -2.210000000000e-02 -7.177227330486e+05 -1.416981441434e-01 -4.438967255005e+06 -2.062675995221e+06 6.276448556807e-02 -1.322516010767e-08 -1.108935921232e-01 0.000000000000e+00 2.406455327758e+06 3.263688114767e+06  1.523054453558e-01
1.800000000000e+01 -1.936750702505e+02 1.423802932400e+06 1.423996607470e+06 1.000000000000e+00 -1.071427221791e-10 -2.248733961230e-07 3.878646033487e-13 3.804874653457e-10 4.016739928775e-08 -2.340000000000e-02 -7.600030112081e+05 -1.414206954651e-01 -4.700085061897e+06 -2.184035229242e+06 6.645483684159e-02 -1.319926489635e-08 -1.174156588572e-01 0.000000000000e+00 2.548041100782e+06 3.455620138598e+06  1.612622731346e-01
1.900000000000e+01 -2.203372967029e+02 1.503039748060e+06 1.503260085357e+06 1.000000000000e+00 -8.564592680373e-11 -2.343598625363e-07 4.167259338510e-13 4.305798897274e-10 3.983823933595e-08 -2.470000000000e-02 -8.021133932009e+05 -1.411848149728e-01 -4.961156683150e+06 -2.305308030540e+06 7.014908307584e-02 -1.317724941316e-08 -1.239396037885e-01 0.000000000000e+00 2.689526035631e+06 3.647654538945e+06  1.702238784841e-01
2.000000000000e+01 -2.471967630736e+02 1.582033517102e+06 1.582280713865e+06 1.000000000000e+00 -2.256153686053e-10 -2.447658206541e-07 3.939575627955e-13 4.856326381907e-10 3.480072972661e-08 -2.600000000000e-02 -8.443994711366e+05 -1.205997373909e-01 -5.222283255957e+06 -2.426673090837e+06 7.383943558603e-02 -1.125597546246e-08 -1.304618077056e-01 0.000000000000e+00 2.831118605977e+06 3.839589329363e+06  1.791808353703e-01
2.100000000000e+01 -2.741493895341e+02 1.661271470522e+06 1.661545619911e+06 1.000000000000e+00 -2.806360256485e-10 -2.546080667417e-07 3.368438391657e-13 5.461034375761e-10 3.126643446795e-08 -2.730000000000e-02 -8.865066467282e+05 -1.043120692484e-01 -5.483348677907e+06 -2.547942129854e+06 7.753365587921e-02 -9.735793117874e-09 -1.369856389091e-01 0.000000000000e+00 2.972599151496e+06 4.031621021782e+06  1.881423143498e-01
2.200000000000e+01 -3.011578589145e+02 1.740264620687e+06 1.740565778546e+06 1.000000000000e+00 -3.034790197773e-10 -2.648229389668e-07 2.446804143990e-13 6.122173713896e-10 2.759475437129e-08 -2.860000000000e-02 -9.287949435186e+05 -9.156144363806e-02 -5.744480554198e+06 -2.669310199087e+06 8.122404525985e-02 -8.545734729234e-09 -1.435079499052e-01 0.000000000000e+00 3.114195232268e+06 4.223558568833e+06  1.970993998789e-01
2.300000000000e+01 -3.281650607654e+02 1.819501302364e+06 1.819829467424e+06 1.000000000000e+00 -3.781767289347e-10 -2.749711722170e-07 1.146618984783e-13 6.843222199059e-10 3.153215142164e-08 -2.990000000000e-02 -9.709018162514e+05 -1.047601313330e-01 -6.005542951044e+06 -2.790577906918e+06 8.491821756444e-02 -9.777612237222e-09 -1.500317020592e-01 0.000000000000e+00 3.255674224738e+06 4.415587880794e+06  2.060607677704e-01
2.400000000000e+01 -3.551057389848e+02 1.898496743716e+06 1.898851849454e+06 1.000000000000e+00 -4.737629011757e-10 -2.851096861465e-07 -1.001705095825e-13 7.627344317712e-10 3.164144993377e-08 -3.120000000000e-02 -1.013189741851e+06 -1.036646114662e-01 -6.266677678697e+06 -2.911946968219e+06 8.860867056385e-02 -9.675363704664e-09 -1.565540998223e-01 0.000000000000e+00 3.397271462922e+06 4.607528222762e+06  2.150179837289e-01
2.500000000000e+01 -3.819654464746e+02 1.977730133087e+06 1.978112098534e+06 1.000000000000e+00 -3.989329738111e-10 -2.953726222499e-07 -3.319429623041e-13 8.477555760390e-10 2.918193132555e-08 -3.250000000000e-02 -1.055298447277e+06 -9.189142007381e-02 -6.527739231920e+06 -3.033215071679e+06 9.230277580542e-02 -8.576532439103e-09 -1.630777941446e-01 0.000000000000e+00 3.538750916959e+06 4.799555261742e+06  2.239792455479e-01
2.600000000000e+01 -4.086736045824e+02 2.056728605951e+06 2.057137279555e+06 1.000000000000e+00 -5.883032465971e-10 -3.054596371175e-07 -7.374611095096e-13 9.397528005872e-10 2.883053460369e-08 -3.380000000000e-02 -1.097584856485e+06 -8.742177160457e-02 -6.788874900400e+06 -3.154583902754e+06 9.599328882588e-02 -8.159365271973e-09 -1.696002465568e-01 0.000000000000e+00 3.680347886546e+06 4.991497695877e+06  2.329365591409e-01
2.700000000000e+01 -4.352449512141e+02 2.135958524389e+06 2.136393769340e+06 1.000000000000e+00 -6.979894176954e-10 -3.158727967018e-07 -1.272640593515e-12 1.038971553319e-09 2.830898682339e-08 -3.510000000000e-02 -1.139696211910e+06 -7.656257925555e-02 -7.049937046103e+06 -3.275853303205e+06 9.968733092712e-02 -7.145840665718e-09 -1.761239080019e-01 0.000000000000e+00 3.821828853739e+06 5.183523026633e+06  2.418977412429e-01
2.800000000000e+01 -4.616356697890e+02 2.214960732418e+06 2.215422368088e+06 1.000000000000e+00 -6.434606943858e-10 -3.259377251786e-07 -1.923777990065e-12 1.145848505242e-09 2.779156120349e-08 -3.640000000000e-02 -1.181980319937e+06 -7.001043809578e-02 -7.311072448661e+06 -3.397221107439e+06 1.033779034168e-01 -6.534307504802e-09 -1.826463959237e-01 0.000000000000e+00 3.963424625346e+06 5.375467160637e+06  2.508551341631e-01
2.900000000000e+01 -4.878659847123e+02 2.294186639475e+06 2.294674505459e+06 1.000000000000e+00 -3.984261281060e-10 -3.364509596871e-07 -2.583881608789e-12 1.260595100595e-09 2.889229810903e-08 -3.770000000000e-02 -1.224094873222e+06 -9.528609085828e-02 -7.572135827371e+06 -3.518492280238e+06 1.070718789940e-01 -8.893368368124e-09 -1.891700321996e-01 0.000000000000e+00 4.104907660277e+06 5.567490881182e+06  2.598162411218e-01
3.000000000000e+01 -5.138691317277e+02 2.373194119311e+06 2.373707988443e+06 1.000000000000e+00 -1.992055812834e-10 -3.465743974090e-07 -3.246231234604e-12 1.383678384701e-09 2.702496553255e-08 -3.900000000000e-02 -1.266375864791e+06 -8.422260638326e-02 -7.833271242219e+06 -3.639858842804e+06 1.107625389739e-01 -7.860776569599e-09 -1.956925786394e-01 0.000000000000e+00 4.246501983271e+06 5.759437641670e+06  2.687737566113e-01
